REMARK  Name = 3559
REMARK  7 active torsions:
REMARK  status: ('A' for Active; 'I' for Inactive)
REMARK    1  A    between atoms: O_3  and  C_6
REMARK    2  A    between atoms: N_5  and  C_11
REMARK    3  A    between atoms: C_6  and  C_12
REMARK    4  A    between atoms: C_11  and  C_13
REMARK    5  A    between atoms: C_13  and  C_16
REMARK    6  A    between atoms: C_16  and  C_19
REMARK    7  A    between atoms: C_19  and  C_21
REMARK                            x       y       z     vdW  Elec       q    Type
REMARK                         _______ _______ _______ _____ _____    ______ ____
ROOT
ATOM      1  N   UNL     1       6.196  -0.582  -1.403  0.00  0.00    +0.000 N 
ATOM      2  C   UNL     1       3.693   0.090   0.028  0.00  0.00    +0.000 C 
ATOM      3  C   UNL     1       4.192   0.895  -1.185  0.00  0.00    +0.000 C 
ATOM      4  C   UNL     1       4.283  -1.330  -0.020  0.00  0.00    +0.000 C 
ATOM      5  C   UNL     1       5.711   0.813  -1.353  0.00  0.00    +0.000 C 
ATOM      6  C   UNL     1       5.809  -1.317  -0.192  0.00  0.00    +0.000 C 
ATOM      7  H   UNL     1       5.753  -1.084  -2.173  0.00  0.00    +0.000 HD
ENDROOT
BRANCH   2   9
ATOM      8 CL   UNL     1      -2.387   0.139   0.171  0.00  0.00    +0.000 Cl
ATOM      9  C   UNL     1       2.158   0.071   0.079  0.00  0.00    +0.000 A 
ATOM     10  C   UNL     1       1.453   0.629   1.166  0.00  0.00    +0.000 A 
ATOM     11  C   UNL     1       1.399  -0.482  -0.971  0.00  0.00    +0.000 A 
ATOM     12  C   UNL     1       0.056   0.639   1.202  0.00  0.00    +0.000 A 
ATOM     13  C   UNL     1      -0.002  -0.463  -0.943  0.00  0.00    +0.000 A 
ATOM     14  C   UNL     1      -0.665   0.105   0.139  0.00  0.00    +0.000 A 
ENDBRANCH   2   9
BRANCH   2  15
ATOM     15  O   UNL     1       4.158   0.729   1.230  0.00  0.00    +0.000 OA
ATOM     16  H   UNL     1       5.128   0.756   1.227  0.00  0.00    +0.000 HD
ENDBRANCH   2  15
BRANCH   1  17
ATOM     17  C   UNL     1       7.651  -0.580  -1.662  0.00  0.00    +0.000 C 
BRANCH  17  18
ATOM     18  C   UNL     1       8.393  -1.929  -1.674  0.00  0.00    +0.000 C 
BRANCH  18  19
ATOM     19  C   UNL     1       7.876  -3.028  -2.602  0.00  0.00    +0.000 C 
BRANCH  19  21
ATOM     20  O   UNL     1       9.134  -2.789  -4.622  0.00  0.00    +0.000 OA
ATOM     21  C   UNL     1       8.030  -2.736  -4.086  0.00  0.00    +0.000 C 
BRANCH  21  23
ATOM     22  F   UNL     1       3.740  -0.991  -7.276  0.00  0.00    +0.000 F 
ATOM     23  C   UNL     1       6.834  -2.382  -4.915  0.00  0.00    +0.000 A 
ATOM     24  C   UNL     1       6.966  -2.351  -6.314  0.00  0.00    +0.000 A 
ATOM     25  C   UNL     1       5.608  -2.021  -4.344  0.00  0.00    +0.000 A 
ATOM     26  C   UNL     1       5.914  -1.898  -7.115  0.00  0.00    +0.000 A 
ATOM     27  C   UNL     1       4.562  -1.554  -5.142  0.00  0.00    +0.000 A 
ATOM     28  C   UNL     1       4.730  -1.481  -6.518  0.00  0.00    +0.000 A 
ENDBRANCH  21  23
ENDBRANCH  19  21
ENDBRANCH  18  19
ENDBRANCH  17  18
ENDBRANCH   1  17
TORSDOF 7
