MODEL 1
REMARK VINA RESULT:    -6.153      0.000      0.000
REMARK INTER + INTRA:          -6.468
REMARK INTER:                  -6.513
REMARK INTRA:                   0.044
REMARK UNBOUND:                 0.044
REMARK  Name = ZINC000034223952
REMARK                            x       y       z     vdW  Elec       q    Type
REMARK                         _______ _______ _______ _____ _____    ______ ____
ROOT
ATOM      1  C   LIG    1       29.536 -17.137  -0.962  0.00  0.00    +0.110 C 
ATOM      2  C   LIG    1       29.156 -17.963   0.241  0.00  0.00    -0.150 A 
ATOM      3  C   LIG    1       29.724 -17.681   1.441  0.00  0.00    +0.170 A 
ATOM      4  C   LIG    1       29.374 -18.448   2.573  0.00  0.00    -0.210 A 
ATOM      5  C   LIG    1       29.742 -18.442   3.905  0.00  0.00    +0.320 A 
ATOM      6  N   LIG    1       29.069 -19.423   4.522  0.00  0.00    -0.410 N 
ATOM      7  H   LIG    1       29.140 -19.639   5.465  0.00  0.00    +0.450 HD
ATOM      8  N   LIG    1       28.247 -20.089   3.606  0.00  0.00    -0.260 NA
ATOM      9  C   LIG    1       28.397 -19.538   2.416  0.00  0.00    +0.120 A 
ATOM     10  C   LIG    1       27.848 -19.772   1.137  0.00  0.00    -0.040 A 
ATOM     11  C   LIG    1       28.225 -18.993   0.093  0.00  0.00    +0.190 A 
ENDROOT
BRANCH  10  12
ATOM     12  N   LIG    1       26.862 -20.858   0.938  0.00  0.00    +0.030 N 
ATOM     13  O   LIG    1       25.927 -20.981   1.709  0.00  0.00    -0.140 OA
ATOM     14  O   LIG    1       26.986 -21.629   0.003  0.00  0.00    -0.180 OA
ENDBRANCH  10  12
TORSDOF 1
ENDMDL
MODEL 2
REMARK VINA RESULT:    -6.079      1.688      3.225
REMARK INTER + INTRA:          -6.390
REMARK INTER:                  -6.287
REMARK INTRA:                  -0.103
REMARK UNBOUND:                 0.044
REMARK  Name = ZINC000034223952
REMARK                            x       y       z     vdW  Elec       q    Type
REMARK                         _______ _______ _______ _____ _____    ______ ____
ROOT
ATOM      1  C   LIG    1       29.460 -18.933   5.505  0.00  0.00    +0.110 C 
ATOM      2  C   LIG    1       29.201 -18.941   4.021  0.00  0.00    -0.150 A 
ATOM      3  C   LIG    1       29.743 -17.965   3.250  0.00  0.00    +0.170 A 
ATOM      4  C   LIG    1       29.507 -17.966   1.859  0.00  0.00    -0.210 A 
ATOM      5  C   LIG    1       29.887 -17.154   0.806  0.00  0.00    +0.320 A 
ATOM      6  N   LIG    1       29.350 -17.656  -0.315  0.00  0.00    -0.410 N 
ATOM      7  H   LIG    1       29.460 -17.279  -1.201  0.00  0.00    +0.450 HD
ATOM      8  N   LIG    1       28.608 -18.805  -0.017  0.00  0.00    -0.260 NA
ATOM      9  C   LIG    1       28.672 -19.032   1.282  0.00  0.00    +0.120 A 
ATOM     10  C   LIG    1       28.142 -20.014   2.145  0.00  0.00    -0.040 A 
ATOM     11  C   LIG    1       28.413 -19.957   3.473  0.00  0.00    +0.190 A 
ENDROOT
BRANCH  10  12
ATOM     12  N   LIG    1       27.298 -21.103   1.604  0.00  0.00    +0.030 N 
ATOM     13  O   LIG    1       26.084 -21.020   1.664  0.00  0.00    -0.140 OA
ATOM     14  O   LIG    1       27.817 -22.082   1.098  0.00  0.00    -0.180 OA
ENDBRANCH  10  12
TORSDOF 1
ENDMDL
MODEL 3
REMARK VINA RESULT:    -5.911      2.730      3.880
REMARK INTER + INTRA:          -6.212
REMARK INTER:                  -6.107
REMARK INTRA:                  -0.105
REMARK UNBOUND:                 0.044
REMARK  Name = ZINC000034223952
REMARK                            x       y       z     vdW  Elec       q    Type
REMARK                         _______ _______ _______ _____ _____    ______ ____
ROOT
ATOM      1  C   LIG    1       26.464 -20.919   0.839  0.00  0.00    +0.110 C 
ATOM      2  C   LIG    1       27.572 -19.998   1.282  0.00  0.00    -0.150 A 
ATOM      3  C   LIG    1       28.087 -19.110   0.395  0.00  0.00    +0.170 A 
ATOM      4  C   LIG    1       29.124 -18.244   0.803  0.00  0.00    -0.210 A 
ATOM      5  C   LIG    1       29.861 -17.249   0.186  0.00  0.00    +0.320 A 
ATOM      6  N   LIG    1       30.726 -16.761   1.085  0.00  0.00    -0.410 N 
ATOM      7  H   LIG    1       31.365 -16.051   0.915  0.00  0.00    +0.450 HD
ATOM      8  N   LIG    1       30.574 -17.427   2.307  0.00  0.00    -0.260 NA
ATOM      9  C   LIG    1       29.619 -18.331   2.186  0.00  0.00    +0.120 A 
ATOM     10  C   LIG    1       29.035 -19.279   3.052  0.00  0.00    -0.040 A 
ATOM     11  C   LIG    1       28.037 -20.078   2.597  0.00  0.00    +0.190 A 
ENDROOT
BRANCH  10  12
ATOM     12  N   LIG    1       29.504 -19.398   4.451  0.00  0.00    +0.030 N 
ATOM     13  O   LIG    1       28.962 -18.756   5.332  0.00  0.00    -0.140 OA
ATOM     14  O   LIG    1       30.432 -20.140   4.721  0.00  0.00    -0.180 OA
ENDBRANCH  10  12
TORSDOF 1
ENDMDL
MODEL 4
REMARK VINA RESULT:    -5.245      2.363      3.336
REMARK INTER + INTRA:          -5.507
REMARK INTER:                  -5.421
REMARK INTRA:                  -0.086
REMARK UNBOUND:                 0.044
REMARK  Name = ZINC000034223952
REMARK                            x       y       z     vdW  Elec       q    Type
REMARK                         _______ _______ _______ _____ _____    ______ ____
ROOT
ATOM      1  C   LIG    1       29.867 -18.039   3.662  0.00  0.00    +0.110 C 
ATOM      2  C   LIG    1       29.528 -19.299   2.907  0.00  0.00    -0.150 A 
ATOM      3  C   LIG    1       30.532 -20.036   2.368  0.00  0.00    +0.170 A 
ATOM      4  C   LIG    1       30.224 -21.218   1.661  0.00  0.00    -0.210 A 
ATOM      5  C   LIG    1       30.966 -22.181   1.003  0.00  0.00    +0.320 A 
ATOM      6  N   LIG    1       30.115 -23.090   0.509  0.00  0.00    -0.410 N 
ATOM      7  H   LIG    1       30.373 -23.875   0.000  0.00  0.00    +0.450 HD
ATOM      8  N   LIG    1       28.800 -22.740   0.833  0.00  0.00    -0.260 NA
ATOM      9  C   LIG    1       28.813 -21.617   1.528  0.00  0.00    +0.120 A 
ATOM     10  C   LIG    1       27.823 -20.801   2.115  0.00  0.00    -0.040 A 
ATOM     11  C   LIG    1       28.190 -19.681   2.786  0.00  0.00    +0.190 A 
ENDROOT
BRANCH  10  12
ATOM     12  N   LIG    1       26.394 -21.169   2.004  0.00  0.00    +0.030 N 
ATOM     13  O   LIG    1       25.828 -21.097   0.928  0.00  0.00    -0.140 OA
ATOM     14  O   LIG    1       25.783 -21.544   2.990  0.00  0.00    -0.180 OA
ENDBRANCH  10  12
TORSDOF 1
ENDMDL
MODEL 5
REMARK VINA RESULT:    -5.227     16.269     17.232
REMARK INTER + INTRA:          -5.488
REMARK INTER:                  -5.384
REMARK INTRA:                  -0.104
REMARK UNBOUND:                 0.044
REMARK  Name = ZINC000034223952
REMARK                            x       y       z     vdW  Elec       q    Type
REMARK                         _______ _______ _______ _____ _____    ______ ____
ROOT
ATOM      1  C   LIG    1       24.773 -25.298  17.322  0.00  0.00    +0.110 C 
ATOM      2  C   LIG    1       23.593 -24.361  17.287  0.00  0.00    -0.150 A 
ATOM      3  C   LIG    1       23.423 -23.476  18.301  0.00  0.00    +0.170 A 
ATOM      4  C   LIG    1       22.321 -22.594  18.276  0.00  0.00    -0.210 A 
ATOM      5  C   LIG    1       21.853 -21.596  19.111  0.00  0.00    +0.320 A 
ATOM      6  N   LIG    1       20.740 -21.090  18.563  0.00  0.00    -0.410 N 
ATOM      7  H   LIG    1       20.208 -20.375  18.945  0.00  0.00    +0.450 HD
ATOM      8  N   LIG    1       20.458 -21.747  17.360  0.00  0.00    -0.260 NA
ATOM      9  C   LIG    1       21.384 -22.663  17.144  0.00  0.00    +0.120 A 
ATOM     10  C   LIG    1       21.625 -23.610  16.126  0.00  0.00    -0.040 A 
ATOM     11  C   LIG    1       22.706 -24.423  16.210  0.00  0.00    +0.190 A 
ENDROOT
BRANCH  10  12
ATOM     12  N   LIG    1       20.705 -23.710  14.970  0.00  0.00    +0.030 N 
ATOM     13  O   LIG    1       19.687 -24.374  15.058  0.00  0.00    -0.140 OA
ATOM     14  O   LIG    1       20.966 -23.129  13.932  0.00  0.00    -0.180 OA
ENDBRANCH  10  12
TORSDOF 1
ENDMDL
MODEL 6
REMARK VINA RESULT:    -5.224      3.841      5.172
REMARK INTER + INTRA:          -5.485
REMARK INTER:                  -5.387
REMARK INTRA:                  -0.098
REMARK UNBOUND:                 0.044
REMARK  Name = ZINC000034223952
REMARK                            x       y       z     vdW  Elec       q    Type
REMARK                         _______ _______ _______ _____ _____    ______ ____
ROOT
ATOM      1  C   LIG    1       31.361 -18.873   5.655  0.00  0.00    +0.110 C 
ATOM      2  C   LIG    1       30.906 -18.593   4.245  0.00  0.00    -0.150 A 
ATOM      3  C   LIG    1       29.787 -19.203   3.779  0.00  0.00    +0.170 A 
ATOM      4  C   LIG    1       29.353 -18.945   2.461  0.00  0.00    -0.210 A 
ATOM      5  C   LIG    1       28.295 -19.376   1.682  0.00  0.00    +0.320 A 
ATOM      6  N   LIG    1       28.397 -18.783   0.485  0.00  0.00    -0.410 N 
ATOM      7  H   LIG    1       27.781 -18.910  -0.253  0.00  0.00    +0.450 HD
ATOM      8  N   LIG    1       29.523 -17.953   0.457  0.00  0.00    -0.260 NA
ATOM      9  C   LIG    1       30.133 -18.018   1.627  0.00  0.00    +0.120 A 
ATOM     10  C   LIG    1       31.286 -17.420   2.179  0.00  0.00    -0.040 A 
ATOM     11  C   LIG    1       31.643 -17.708   3.455  0.00  0.00    +0.190 A 
ENDROOT
BRANCH  10  12
ATOM     12  N   LIG    1       32.098 -16.481   1.372  0.00  0.00    +0.030 N 
ATOM     13  O   LIG    1       33.168 -16.840   0.914  0.00  0.00    -0.140 OA
ATOM     14  O   LIG    1       31.694 -15.351   1.165  0.00  0.00    -0.180 OA
ENDBRANCH  10  12
TORSDOF 1
ENDMDL
MODEL 7
REMARK VINA RESULT:    -5.204     14.710     16.148
REMARK INTER + INTRA:          -5.464
REMARK INTER:                  -5.359
REMARK INTRA:                  -0.105
REMARK UNBOUND:                 0.044
REMARK  Name = ZINC000034223952
REMARK                            x       y       z     vdW  Elec       q    Type
REMARK                         _______ _______ _______ _____ _____    ______ ____
ROOT
ATOM      1  C   LIG    1       23.830 -22.160  12.583  0.00  0.00    +0.110 C 
ATOM      2  C   LIG    1       23.122 -22.528  13.861  0.00  0.00    -0.150 A 
ATOM      3  C   LIG    1       21.890 -23.093  13.794  0.00  0.00    +0.170 A 
ATOM      4  C   LIG    1       21.220 -23.442  14.986  0.00  0.00    -0.210 A 
ATOM      5  C   LIG    1       19.997 -24.014  15.284  0.00  0.00    +0.320 A 
ATOM      6  N   LIG    1       19.899 -24.104  16.618  0.00  0.00    -0.410 N 
ATOM      7  H   LIG    1       19.139 -24.470  17.096  0.00  0.00    +0.450 HD
ATOM      8  N   LIG    1       21.055 -23.591  17.218  0.00  0.00    -0.260 NA
ATOM      9  C   LIG    1       21.881 -23.179  16.274  0.00  0.00    +0.120 A 
ATOM     10  C   LIG    1       23.163 -22.588  16.266  0.00  0.00    -0.040 A 
ATOM     11  C   LIG    1       23.752 -22.283  15.083  0.00  0.00    +0.190 A 
ENDROOT
BRANCH  10  12
ATOM     12  N   LIG    1       23.862 -22.308  17.540  0.00  0.00    +0.030 N 
ATOM     13  O   LIG    1       24.575 -23.157  18.043  0.00  0.00    -0.140 OA
ATOM     14  O   LIG    1       23.723 -21.227  18.086  0.00  0.00    -0.180 OA
ENDBRANCH  10  12
TORSDOF 1
ENDMDL
MODEL 8
REMARK VINA RESULT:    -5.069     24.231     25.458
REMARK INTER + INTRA:          -5.321
REMARK INTER:                  -5.216
REMARK INTRA:                  -0.105
REMARK UNBOUND:                 0.044
REMARK  Name = ZINC000034223952
REMARK                            x       y       z     vdW  Elec       q    Type
REMARK                         _______ _______ _______ _____ _____    ______ ____
ROOT
ATOM      1  C   LIG    1       15.185  -9.155  18.487  0.00  0.00    +0.110 C 
ATOM      2  C   LIG    1       14.903  -9.889  19.772  0.00  0.00    -0.150 A 
ATOM      3  C   LIG    1       13.952  -9.408  20.612  0.00  0.00    +0.170 A 
ATOM      4  C   LIG    1       13.680 -10.090  21.818  0.00  0.00    -0.210 A 
ATOM      5  C   LIG    1       12.809  -9.893  22.873  0.00  0.00    +0.320 A 
ATOM      6  N   LIG    1       13.001 -10.882  23.756  0.00  0.00    -0.410 N 
ATOM      7  H   LIG    1       12.519 -10.985  24.591  0.00  0.00    +0.450 HD
ATOM      8  N   LIG    1       14.001 -11.746  23.295  0.00  0.00    -0.260 NA
ATOM      9  C   LIG    1       14.442 -11.310  22.129  0.00  0.00    +0.120 A 
ATOM     10  C   LIG    1       15.415 -11.751  21.208  0.00  0.00    -0.040 A 
ATOM     11  C   LIG    1       15.622 -11.050  20.065  0.00  0.00    +0.190 A 
ENDROOT
BRANCH  10  12
ATOM     12  N   LIG    1       16.203 -12.973  21.485  0.00  0.00    +0.030 N 
ATOM     13  O   LIG    1       17.246 -12.897  22.110  0.00  0.00    -0.140 OA
ATOM     14  O   LIG    1       15.808 -14.055  21.088  0.00  0.00    -0.180 OA
ENDBRANCH  10  12
TORSDOF 1
ENDMDL
MODEL 9
REMARK VINA RESULT:    -5.059     15.650     17.151
REMARK INTER + INTRA:          -5.310
REMARK INTER:                  -5.395
REMARK INTRA:                   0.086
REMARK UNBOUND:                 0.044
REMARK  Name = ZINC000034223952
REMARK                            x       y       z     vdW  Elec       q    Type
REMARK                         _______ _______ _______ _____ _____    ______ ____
ROOT
ATOM      1  C   LIG    1       24.963 -21.541  17.807  0.00  0.00    +0.110 C 
ATOM      2  C   LIG    1       23.647 -22.232  17.558  0.00  0.00    -0.150 A 
ATOM      3  C   LIG    1       22.869 -22.573  18.617  0.00  0.00    +0.170 A 
ATOM      4  C   LIG    1       21.635 -23.219  18.393  0.00  0.00    -0.210 A 
ATOM      5  C   LIG    1       20.623 -23.694  19.207  0.00  0.00    +0.320 A 
ATOM      6  N   LIG    1       19.677 -24.225  18.419  0.00  0.00    -0.410 N 
ATOM      7  H   LIG    1       18.854 -24.631  18.734  0.00  0.00    +0.450 HD
ATOM      8  N   LIG    1       20.052 -24.108  17.076  0.00  0.00    -0.260 NA
ATOM      9  C   LIG    1       21.227 -23.508  17.009  0.00  0.00    +0.120 A 
ATOM     10  C   LIG    1       22.087 -23.125  15.959  0.00  0.00    -0.040 A 
ATOM     11  C   LIG    1       23.257 -22.501  16.244  0.00  0.00    +0.190 A 
ENDROOT
BRANCH  10  12
ATOM     12  N   LIG    1       21.712 -23.397  14.553  0.00  0.00    +0.030 N 
ATOM     13  O   LIG    1       22.550 -23.803  13.767  0.00  0.00    -0.140 OA
ATOM     14  O   LIG    1       20.566 -23.216  14.182  0.00  0.00    -0.180 OA
ENDBRANCH  10  12
TORSDOF 1
ENDMDL
