MODEL 1
REMARK VINA RESULT:    -5.823      0.000      0.000
REMARK INTER + INTRA:          -6.717
REMARK INTER:                  -6.674
REMARK INTRA:                  -0.042
REMARK UNBOUND:                -0.042
REMARK  Name = ZINC000032130297
REMARK                            x       y       z     vdW  Elec       q    Type
REMARK                         _______ _______ _______ _____ _____    ______ ____
ROOT
ATOM      1  C   LIG    1       28.699 -18.789   0.123  0.00  0.00    +0.170 C 
ATOM      2  C   LIG    1       28.870 -18.944   1.612  0.00  0.00    +0.040 A 
ATOM      3  C   LIG    1       29.709 -18.089   2.303  0.00  0.00    -0.040 A 
ATOM      4  C   LIG    1       29.869 -18.229   3.668  0.00  0.00    +0.150 A 
ATOM      5  C   LIG    1       29.187 -19.229   4.345  0.00  0.00    +0.110 A 
ATOM      6  C   LIG    1       28.347 -20.087   3.650  0.00  0.00    +0.150 A 
ATOM      7  C   LIG    1       28.186 -19.939   2.286  0.00  0.00    -0.040 A 
ENDROOT
BRANCH   3   8
ATOM      8  N   LIG    1       30.436 -17.022   1.579  0.00  0.00    +0.030 N 
ATOM      9  O   LIG    1       31.513 -17.261   1.062  0.00  0.00    -0.130 OA
ATOM     10  O   LIG    1       29.957 -15.905   1.500  0.00  0.00    -0.140 OA
ENDBRANCH   3   8
BRANCH   7  11
ATOM     11  N   LIG    1       27.288 -20.852   1.544  0.00  0.00    +0.030 N 
ATOM     12  O   LIG    1       26.093 -20.622   1.491  0.00  0.00    -0.130 OA
ATOM     13  O   LIG    1       27.744 -21.833   0.984  0.00  0.00    -0.140 OA
ENDBRANCH   7  11
BRANCH   5  14
ATOM     14  O   LIG    1       29.342 -19.370   5.688  0.00  0.00    -0.470 OA
ATOM     15  H   LIG    1       29.279 -18.540   6.180  0.00  0.00    +0.410 HD
ENDBRANCH   5  14
TORSDOF 3
ENDMDL
MODEL 2
REMARK VINA RESULT:    -5.822      0.026      4.015
REMARK INTER + INTRA:          -6.716
REMARK INTER:                  -6.667
REMARK INTRA:                  -0.049
REMARK UNBOUND:                -0.042
REMARK  Name = ZINC000032130297
REMARK                            x       y       z     vdW  Elec       q    Type
REMARK                         _______ _______ _______ _____ _____    ______ ____
ROOT
ATOM      1  C   LIG    1       28.711 -18.774   0.129  0.00  0.00    +0.170 C 
ATOM      2  C   LIG    1       28.887 -18.936   1.617  0.00  0.00    +0.040 A 
ATOM      3  C   LIG    1       28.213 -19.940   2.287  0.00  0.00    -0.040 A 
ATOM      4  C   LIG    1       28.372 -20.091   3.651  0.00  0.00    +0.150 A 
ATOM      5  C   LIG    1       29.210 -19.232   4.349  0.00  0.00    +0.110 A 
ATOM      6  C   LIG    1       29.885 -18.224   3.674  0.00  0.00    +0.150 A 
ATOM      7  C   LIG    1       29.726 -18.082   2.310  0.00  0.00    -0.040 A 
ENDROOT
BRANCH   3   8
ATOM      8  N   LIG    1       27.320 -20.855   1.542  0.00  0.00    +0.030 N 
ATOM      9  O   LIG    1       26.125 -20.624   1.480  0.00  0.00    -0.130 OA
ATOM     10  O   LIG    1       27.779 -21.839   0.991  0.00  0.00    -0.140 OA
ENDBRANCH   3   8
BRANCH   7  11
ATOM     11  N   LIG    1       30.447 -17.008   1.590  0.00  0.00    +0.030 N 
ATOM     12  O   LIG    1       29.963 -15.892   1.518  0.00  0.00    -0.130 OA
ATOM     13  O   LIG    1       31.524 -17.239   1.071  0.00  0.00    -0.140 OA
ENDBRANCH   7  11
BRANCH   5  14
ATOM     14  O   LIG    1       29.369 -19.377   5.690  0.00  0.00    -0.470 OA
ATOM     15  H   LIG    1       29.098 -20.243   6.027  0.00  0.00    +0.410 HD
ENDBRANCH   5  14
TORSDOF 3
ENDMDL
MODEL 3
REMARK VINA RESULT:    -5.736      1.742      3.478
REMARK INTER + INTRA:          -6.617
REMARK INTER:                  -6.591
REMARK INTRA:                  -0.026
REMARK UNBOUND:                -0.042
REMARK  Name = ZINC000032130297
REMARK                            x       y       z     vdW  Elec       q    Type
REMARK                         _______ _______ _______ _____ _____    ______ ____
ROOT
ATOM      1  C   LIG    1       30.462 -17.486   2.520  0.00  0.00    +0.170 C 
ATOM      2  C   LIG    1       29.392 -18.510   2.246  0.00  0.00    +0.040 A 
ATOM      3  C   LIG    1       28.866 -18.635   0.973  0.00  0.00    -0.040 A 
ATOM      4  C   LIG    1       27.885 -19.574   0.719  0.00  0.00    +0.150 A 
ATOM      5  C   LIG    1       27.426 -20.390   1.742  0.00  0.00    +0.110 A 
ATOM      6  C   LIG    1       27.954 -20.262   3.019  0.00  0.00    +0.150 A 
ATOM      7  C   LIG    1       28.939 -19.326   3.267  0.00  0.00    -0.040 A 
ENDROOT
BRANCH   3   8
ATOM      8  N   LIG    1       29.356 -17.764  -0.118  0.00  0.00    +0.030 N 
ATOM      9  O   LIG    1       30.368 -18.063  -0.728  0.00  0.00    -0.130 OA
ATOM     10  O   LIG    1       28.748 -16.749  -0.406  0.00  0.00    -0.140 OA
ENDBRANCH   3   8
BRANCH   7  11
ATOM     11  N   LIG    1       29.504 -19.190   4.628  0.00  0.00    +0.030 N 
ATOM     12  O   LIG    1       30.395 -19.937   4.996  0.00  0.00    -0.130 OA
ATOM     13  O   LIG    1       29.081 -18.332   5.380  0.00  0.00    -0.140 OA
ENDBRANCH   7  11
BRANCH   5  14
ATOM     14  O   LIG    1       26.460 -21.314   1.495  0.00  0.00    -0.470 OA
ATOM     15  H   LIG    1       26.315 -21.935   2.222  0.00  0.00    +0.410 HD
ENDBRANCH   5  14
TORSDOF 3
ENDMDL
MODEL 4
REMARK VINA RESULT:    -5.731      1.748      3.886
REMARK INTER + INTRA:          -6.611
REMARK INTER:                  -6.586
REMARK INTRA:                  -0.025
REMARK UNBOUND:                -0.042
REMARK  Name = ZINC000032130297
REMARK                            x       y       z     vdW  Elec       q    Type
REMARK                         _______ _______ _______ _____ _____    ______ ____
ROOT
ATOM      1  C   LIG    1       30.455 -17.505   2.506  0.00  0.00    +0.170 C 
ATOM      2  C   LIG    1       29.380 -18.526   2.238  0.00  0.00    +0.040 A 
ATOM      3  C   LIG    1       28.921 -19.331   3.264  0.00  0.00    -0.040 A 
ATOM      4  C   LIG    1       27.935 -20.268   3.022  0.00  0.00    +0.150 A 
ATOM      5  C   LIG    1       27.407 -20.402   1.746  0.00  0.00    +0.110 A 
ATOM      6  C   LIG    1       27.871 -19.595   0.717  0.00  0.00    +0.150 A 
ATOM      7  C   LIG    1       28.852 -18.655   0.966  0.00  0.00    -0.040 A 
ENDROOT
BRANCH   3   8
ATOM      8  N   LIG    1       29.485 -19.187   4.625  0.00  0.00    +0.030 N 
ATOM      9  O   LIG    1       29.061 -18.323   5.372  0.00  0.00    -0.130 OA
ATOM     10  O   LIG    1       30.372 -19.933   4.999  0.00  0.00    -0.140 OA
ENDBRANCH   3   8
BRANCH   7  11
ATOM     11  N   LIG    1       29.345 -17.792  -0.130  0.00  0.00    +0.030 N 
ATOM     12  O   LIG    1       28.737 -16.780  -0.430  0.00  0.00    -0.130 OA
ATOM     13  O   LIG    1       30.360 -18.093  -0.732  0.00  0.00    -0.140 OA
ENDBRANCH   7  11
BRANCH   5  14
ATOM     14  O   LIG    1       26.438 -21.324   1.503  0.00  0.00    -0.470 OA
ATOM     15  H   LIG    1       26.468 -21.701   0.613  0.00  0.00    +0.410 HD
ENDBRANCH   5  14
TORSDOF 3
ENDMDL
MODEL 5
REMARK VINA RESULT:    -5.303      1.561      3.112
REMARK INTER + INTRA:          -6.121
REMARK INTER:                  -6.092
REMARK INTRA:                  -0.029
REMARK UNBOUND:                -0.042
REMARK  Name = ZINC000032130297
REMARK                            x       y       z     vdW  Elec       q    Type
REMARK                         _______ _______ _______ _____ _____    ______ ____
ROOT
ATOM      1  C   LIG    1       28.964 -20.688   3.016  0.00  0.00    +0.170 C 
ATOM      2  C   LIG    1       28.925 -19.583   1.992  0.00  0.00    +0.040 A 
ATOM      3  C   LIG    1       29.649 -18.423   2.200  0.00  0.00    -0.040 A 
ATOM      4  C   LIG    1       29.615 -17.409   1.263  0.00  0.00    +0.150 A 
ATOM      5  C   LIG    1       28.852 -17.553   0.114  0.00  0.00    +0.110 A 
ATOM      6  C   LIG    1       28.124 -18.717  -0.092  0.00  0.00    +0.150 A 
ATOM      7  C   LIG    1       28.167 -19.731   0.845  0.00  0.00    -0.040 A 
ENDROOT
BRANCH   3   8
ATOM      8  N   LIG    1       30.463 -18.270   3.426  0.00  0.00    +0.030 N 
ATOM      9  O   LIG    1       31.664 -18.473   3.390  0.00  0.00    -0.130 OA
ATOM     10  O   LIG    1       29.933 -17.941   4.472  0.00  0.00    -0.140 OA
ENDBRANCH   3   8
BRANCH   7  11
ATOM     11  N   LIG    1       27.393 -20.973   0.626  0.00  0.00    +0.030 N 
ATOM     12  O   LIG    1       26.235 -21.043   1.000  0.00  0.00    -0.130 OA
ATOM     13  O   LIG    1       27.911 -21.924   0.070  0.00  0.00    -0.140 OA
ENDBRANCH   7  11
BRANCH   5  14
ATOM     14  O   LIG    1       28.816 -16.557  -0.809  0.00  0.00    -0.470 OA
ATOM     15  H   LIG    1       27.923 -16.258  -1.030  0.00  0.00    +0.410 HD
ENDBRANCH   5  14
TORSDOF 3
ENDMDL
MODEL 6
REMARK VINA RESULT:    -4.956     23.213     24.707
REMARK INTER + INTRA:          -5.723
REMARK INTER:                  -5.696
REMARK INTRA:                  -0.028
REMARK UNBOUND:                -0.042
REMARK  Name = ZINC000032130297
REMARK                            x       y       z     vdW  Elec       q    Type
REMARK                         _______ _______ _______ _____ _____    ______ ____
ROOT
ATOM      1  C   LIG    1       17.023 -11.207  19.791  0.00  0.00    +0.170 C 
ATOM      2  C   LIG    1       15.822 -11.372  20.686  0.00  0.00    +0.040 A 
ATOM      3  C   LIG    1       15.813 -12.361  21.653  0.00  0.00    -0.040 A 
ATOM      4  C   LIG    1       14.714 -12.515  22.475  0.00  0.00    +0.150 A 
ATOM      5  C   LIG    1       13.617 -11.678  22.329  0.00  0.00    +0.110 A 
ATOM      6  C   LIG    1       13.627 -10.688  21.357  0.00  0.00    +0.150 A 
ATOM      7  C   LIG    1       14.732 -10.534  20.541  0.00  0.00    -0.040 A 
ENDROOT
BRANCH   3   8
ATOM      8  N   LIG    1       16.984 -13.253  21.809  0.00  0.00    +0.030 N 
ATOM      9  O   LIG    1       17.955 -12.878  22.442  0.00  0.00    -0.130 OA
ATOM     10  O   LIG    1       16.976 -14.361  21.304  0.00  0.00    -0.140 OA
ENDBRANCH   3   8
BRANCH   7  11
ATOM     11  N   LIG    1       14.744  -9.477  19.505  0.00  0.00    +0.030 N 
ATOM     12  O   LIG    1       15.087  -8.344  19.795  0.00  0.00    -0.130 OA
ATOM     13  O   LIG    1       14.413  -9.739  18.363  0.00  0.00    -0.140 OA
ENDBRANCH   7  11
BRANCH   5  14
ATOM     14  O   LIG    1       12.534 -11.828  23.136  0.00  0.00    -0.470 OA
ATOM     15  H   LIG    1       12.257 -12.747  23.256  0.00  0.00    +0.410 HD
ENDBRANCH   5  14
TORSDOF 3
ENDMDL
MODEL 7
REMARK VINA RESULT:    -4.910     13.947     16.018
REMARK INTER + INTRA:          -5.670
REMARK INTER:                  -5.611
REMARK INTRA:                  -0.059
REMARK UNBOUND:                -0.042
REMARK  Name = ZINC000032130297
REMARK                            x       y       z     vdW  Elec       q    Type
REMARK                         _______ _______ _______ _____ _____    ______ ____
ROOT
ATOM      1  C   LIG    1       24.400 -22.220  16.383  0.00  0.00    +0.170 C 
ATOM      2  C   LIG    1       23.003 -22.664  16.035  0.00  0.00    +0.040 A 
ATOM      3  C   LIG    1       22.659 -22.888  14.714  0.00  0.00    -0.040 A 
ATOM      4  C   LIG    1       21.379 -23.296  14.392  0.00  0.00    +0.150 A 
ATOM      5  C   LIG    1       20.438 -23.480  15.395  0.00  0.00    +0.110 A 
ATOM      6  C   LIG    1       20.786 -23.254  16.719  0.00  0.00    +0.150 A 
ATOM      7  C   LIG    1       22.069 -22.852  17.036  0.00  0.00    -0.040 A 
ENDROOT
BRANCH   3   8
ATOM      8  N   LIG    1       23.663 -22.692  13.645  0.00  0.00    +0.030 N 
ATOM      9  O   LIG    1       23.748 -21.616  13.079  0.00  0.00    -0.130 OA
ATOM     10  O   LIG    1       24.405 -23.605  13.331  0.00  0.00    -0.140 OA
ENDBRANCH   3   8
BRANCH   7  11
ATOM     11  N   LIG    1       22.440 -22.612  18.449  0.00  0.00    +0.030 N 
ATOM     12  O   LIG    1       22.876 -23.525  19.128  0.00  0.00    -0.130 OA
ATOM     13  O   LIG    1       22.312 -21.502  18.933  0.00  0.00    -0.140 OA
ENDBRANCH   7  11
BRANCH   5  14
ATOM     14  O   LIG    1       19.178 -23.881  15.081  0.00  0.00    -0.470 OA
ATOM     15  H   LIG    1       18.511 -23.625  15.732  0.00  0.00    +0.410 HD
ENDBRANCH   5  14
TORSDOF 3
ENDMDL
MODEL 8
REMARK VINA RESULT:    -4.793     23.970     25.509
REMARK INTER + INTRA:          -5.535
REMARK INTER:                  -5.501
REMARK INTRA:                  -0.034
REMARK UNBOUND:                -0.042
REMARK  Name = ZINC000032130297
REMARK                            x       y       z     vdW  Elec       q    Type
REMARK                         _______ _______ _______ _____ _____    ______ ____
ROOT
ATOM      1  C   LIG    1       14.130 -12.318  23.111  0.00  0.00    +0.170 C 
ATOM      2  C   LIG    1       14.543 -11.417  21.976  0.00  0.00    +0.040 A 
ATOM      3  C   LIG    1       15.646 -11.740  21.206  0.00  0.00    -0.040 A 
ATOM      4  C   LIG    1       16.027 -10.916  20.164  0.00  0.00    +0.150 A 
ATOM      5  C   LIG    1       15.304  -9.764  19.892  0.00  0.00    +0.110 A 
ATOM      6  C   LIG    1       14.199  -9.442  20.667  0.00  0.00    +0.150 A 
ATOM      7  C   LIG    1       13.818 -10.272  21.703  0.00  0.00    -0.040 A 
ENDROOT
BRANCH   3   8
ATOM      8  N   LIG    1       16.417 -12.969  21.497  0.00  0.00    +0.030 N 
ATOM      9  O   LIG    1       16.021 -14.047  21.089  0.00  0.00    -0.130 OA
ATOM     10  O   LIG    1       17.447 -12.903  22.144  0.00  0.00    -0.140 OA
ENDBRANCH   3   8
BRANCH   7  11
ATOM     11  N   LIG    1       12.638  -9.930  22.529  0.00  0.00    +0.030 N 
ATOM     12  O   LIG    1       12.770  -9.227  23.517  0.00  0.00    -0.130 OA
ATOM     13  O   LIG    1       11.537 -10.347  22.222  0.00  0.00    -0.140 OA
ENDBRANCH   7  11
BRANCH   5  14
ATOM     14  O   LIG    1       15.677  -8.952  18.869  0.00  0.00    -0.470 OA
ATOM     15  H   LIG    1       15.029  -8.899  18.152  0.00  0.00    +0.410 HD
ENDBRANCH   5  14
TORSDOF 3
ENDMDL
MODEL 9
REMARK VINA RESULT:    -4.778     24.001     25.538
REMARK INTER + INTRA:          -5.518
REMARK INTER:                  -5.484
REMARK INTRA:                  -0.034
REMARK UNBOUND:                -0.042
REMARK  Name = ZINC000032130297
REMARK                            x       y       z     vdW  Elec       q    Type
REMARK                         _______ _______ _______ _____ _____    ______ ____
ROOT
ATOM      1  C   LIG    1       14.061 -12.278  23.110  0.00  0.00    +0.170 C 
ATOM      2  C   LIG    1       14.488 -11.391  21.969  0.00  0.00    +0.040 A 
ATOM      3  C   LIG    1       13.781 -10.236  21.691  0.00  0.00    -0.040 A 
ATOM      4  C   LIG    1       14.169  -9.421  20.645  0.00  0.00    +0.150 A 
ATOM      5  C   LIG    1       15.269  -9.764  19.872  0.00  0.00    +0.110 A 
ATOM      6  C   LIG    1       15.976 -10.925  20.152  0.00  0.00    +0.150 A 
ATOM      7  C   LIG    1       15.587 -11.732  21.203  0.00  0.00    -0.040 A 
ENDROOT
BRANCH   3   8
ATOM      8  N   LIG    1       12.607  -9.871  22.516  0.00  0.00    +0.030 N 
ATOM      9  O   LIG    1       12.753  -9.185  23.512  0.00  0.00    -0.130 OA
ATOM     10  O   LIG    1       11.496 -10.255  22.198  0.00  0.00    -0.140 OA
ENDBRANCH   3   8
BRANCH   7  11
ATOM     11  N   LIG    1       16.342 -12.970  21.503  0.00  0.00    +0.030 N 
ATOM     12  O   LIG    1       17.370 -12.913  22.156  0.00  0.00    -0.130 OA
ATOM     13  O   LIG    1       15.936 -14.044  21.099  0.00  0.00    -0.140 OA
ENDBRANCH   7  11
BRANCH   5  14
ATOM     14  O   LIG    1       15.653  -8.965  18.843  0.00  0.00    -0.470 OA
ATOM     15  H   LIG    1       16.087  -9.438  18.119  0.00  0.00    +0.410 HD
ENDBRANCH   5  14
TORSDOF 3
ENDMDL
