MODEL 1
REMARK VINA RESULT:    -5.108      0.000      0.000
REMARK INTER + INTRA:          -5.492
REMARK INTER:                  -5.407
REMARK INTRA:                  -0.085
REMARK UNBOUND:                -0.085
REMARK  Name = ZINC000018205609
REMARK                            x       y       z     vdW  Elec       q    Type
REMARK                         _______ _______ _______ _____ _____    ______ ____
ROOT
ATOM      1  C   LIG    1       28.811 -18.549   0.489  0.00  0.00    -0.060 A 
ATOM      2  C   LIG    1       27.911 -19.536   0.331  0.00  0.00    +0.360 A 
ATOM      3  N   LIG    1       27.662 -20.130   1.539  0.00  0.00    -0.520 N 
ATOM      4  H   LIG    1       27.048 -20.867   1.680  0.00  0.00    +0.440 HD
ATOM      5  C   LIG    1       28.404 -19.535   2.516  0.00  0.00    +0.330 A 
ATOM      6  N   LIG    1       28.528 -19.735   3.840  0.00  0.00    -0.510 NA
ATOM      7  C   LIG    1       29.328 -19.003   4.562  0.00  0.00    +0.620 A 
ATOM      8  N   LIG    1       30.086 -18.010   4.031  0.00  0.00    -0.580 N 
ATOM      9  H   LIG    1       30.672 -17.491   4.602  0.00  0.00    +0.440 HD
ATOM     10  C   LIG    1       30.026 -17.743   2.706  0.00  0.00    +0.320 A 
ATOM     11  S   LIG    1       30.972 -16.494   2.016  0.00  0.00    -0.450 S 
ATOM     12  C   LIG    1       29.160 -18.524   1.907  0.00  0.00    -0.170 A 
ENDROOT
BRANCH   1  14
ATOM     13  O   LIG    1       28.702 -16.702  -0.943  0.00  0.00    -0.210 OA
ATOM     14  N   LIG    1       29.348 -17.663  -0.568  0.00  0.00    +0.040 N 
ATOM     15  O   LIG    1       30.439 -17.893  -1.059  0.00  0.00    -0.060 OA
ENDBRANCH   1  14
TORSDOF 1
ENDMDL
MODEL 2
REMARK VINA RESULT:    -5.032      2.025      3.197
REMARK INTER + INTRA:          -5.411
REMARK INTER:                  -5.375
REMARK INTRA:                  -0.036
REMARK UNBOUND:                -0.085
REMARK  Name = ZINC000018205609
REMARK                            x       y       z     vdW  Elec       q    Type
REMARK                         _______ _______ _______ _____ _____    ______ ____
ROOT
ATOM      1  C   LIG    1       29.952 -17.964   2.919  0.00  0.00    -0.060 A 
ATOM      2  C   LIG    1       29.956 -18.301   4.221  0.00  0.00    +0.360 A 
ATOM      3  N   LIG    1       29.057 -19.311   4.439  0.00  0.00    -0.520 N 
ATOM      4  H   LIG    1       28.882 -19.723   5.298  0.00  0.00    +0.440 HD
ATOM      5  C   LIG    1       28.444 -19.653   3.269  0.00  0.00    +0.330 A 
ATOM      6  N   LIG    1       27.507 -20.559   2.942  0.00  0.00    -0.510 NA
ATOM      7  C   LIG    1       27.088 -20.686   1.715  0.00  0.00    +0.620 A 
ATOM      8  N   LIG    1       27.557 -19.914   0.702  0.00  0.00    -0.580 N 
ATOM      9  H   LIG    1       27.216 -20.037  -0.197  0.00  0.00    +0.440 HD
ATOM     10  C   LIG    1       28.498 -18.973   0.943  0.00  0.00    +0.320 A 
ATOM     11  S   LIG    1       29.105 -17.991  -0.322  0.00  0.00    -0.450 S 
ATOM     12  C   LIG    1       28.969 -18.825   2.267  0.00  0.00    -0.170 A 
ENDROOT
BRANCH   1  14
ATOM     13  O   LIG    1       30.276 -15.852   1.965  0.00  0.00    -0.210 OA
ATOM     14  N   LIG    1       30.777 -16.919   2.273  0.00  0.00    +0.040 N 
ATOM     15  O   LIG    1       31.957 -17.123   2.055  0.00  0.00    -0.060 OA
ENDBRANCH   1  14
TORSDOF 1
ENDMDL
MODEL 3
REMARK VINA RESULT:    -4.968     23.613     24.661
REMARK INTER + INTRA:          -5.344
REMARK INTER:                  -5.225
REMARK INTRA:                  -0.118
REMARK UNBOUND:                -0.085
REMARK  Name = ZINC000018205609
REMARK                            x       y       z     vdW  Elec       q    Type
REMARK                         _______ _______ _______ _____ _____    ______ ____
ROOT
ATOM      1  C   LIG    1       15.712 -10.579  19.764  0.00  0.00    -0.060 A 
ATOM      2  C   LIG    1       17.014 -10.894  19.883  0.00  0.00    +0.360 A 
ATOM      3  N   LIG    1       17.145 -12.038  20.624  0.00  0.00    -0.520 N 
ATOM      4  H   LIG    1       17.988 -12.463  20.846  0.00  0.00    +0.440 HD
ATOM      5  C   LIG    1       15.917 -12.494  21.005  0.00  0.00    +0.330 A 
ATOM      6  N   LIG    1       15.501 -13.549  21.724  0.00  0.00    -0.510 NA
ATOM      7  C   LIG    1       14.234 -13.761  21.944  0.00  0.00    +0.620 A 
ATOM      8  N   LIG    1       13.265 -12.934  21.474  0.00  0.00    -0.580 N 
ATOM      9  H   LIG    1       12.334 -13.125  21.663  0.00  0.00    +0.440 HD
ATOM     10  C   LIG    1       13.596 -11.845  20.743  0.00  0.00    +0.320 A 
ATOM     11  S   LIG    1       12.389 -10.791  20.140  0.00  0.00    -0.450 S 
ATOM     12  C   LIG    1       14.965 -11.602  20.491  0.00  0.00    -0.170 A 
ENDROOT
BRANCH   1  14
ATOM     13  O   LIG    1       15.073  -8.335  19.593  0.00  0.00    -0.210 OA
ATOM     14  N   LIG    1       15.145  -9.418  19.042  0.00  0.00    +0.040 N 
ATOM     15  O   LIG    1       14.755  -9.545  17.895  0.00  0.00    -0.060 OA
ENDBRANCH   1  14
TORSDOF 1
ENDMDL
MODEL 4
REMARK VINA RESULT:    -4.949     15.328     16.492
REMARK INTER + INTRA:          -5.323
REMARK INTER:                  -5.200
REMARK INTRA:                  -0.123
REMARK UNBOUND:                -0.085
REMARK  Name = ZINC000018205609
REMARK                            x       y       z     vdW  Elec       q    Type
REMARK                         _______ _______ _______ _____ _____    ______ ____
ROOT
ATOM      1  C   LIG    1       22.134 -23.231  14.797  0.00  0.00    -0.060 A 
ATOM      2  C   LIG    1       23.100 -23.604  13.939  0.00  0.00    +0.360 A 
ATOM      3  N   LIG    1       24.328 -23.354  14.490  0.00  0.00    -0.520 N 
ATOM      4  H   LIG    1       25.178 -23.538  14.062  0.00  0.00    +0.440 HD
ATOM      5  C   LIG    1       24.182 -22.807  15.731  0.00  0.00    +0.330 A 
ATOM      6  N   LIG    1       25.049 -22.388  16.669  0.00  0.00    -0.510 NA
ATOM      7  C   LIG    1       24.634 -21.894  17.801  0.00  0.00    +0.620 A 
ATOM      8  N   LIG    1       23.316 -21.764  18.100  0.00  0.00    -0.580 N 
ATOM      9  H   LIG    1       23.049 -21.387  18.952  0.00  0.00    +0.440 HD
ATOM     10  C   LIG    1       22.375 -22.156  17.211  0.00  0.00    +0.320 A 
ATOM     11  S   LIG    1       20.708 -22.002  17.569  0.00  0.00    -0.450 S 
ATOM     12  C   LIG    1       22.807 -22.699  15.979  0.00  0.00    -0.170 A 
ENDROOT
BRANCH   1  14
ATOM     13  O   LIG    1       20.064 -24.303  14.998  0.00  0.00    -0.210 OA
ATOM     14  N   LIG    1       20.673 -23.333  14.584  0.00  0.00    +0.040 N 
ATOM     15  O   LIG    1       20.079 -22.445  13.999  0.00  0.00    -0.060 OA
ENDBRANCH   1  14
TORSDOF 1
ENDMDL
MODEL 5
REMARK VINA RESULT:    -4.899     15.377     16.815
REMARK INTER + INTRA:          -5.271
REMARK INTER:                  -5.141
REMARK INTRA:                  -0.129
REMARK UNBOUND:                -0.085
REMARK  Name = ZINC000018205609
REMARK                            x       y       z     vdW  Elec       q    Type
REMARK                         _______ _______ _______ _____ _____    ______ ____
ROOT
ATOM      1  C   LIG    1       21.030 -22.718  16.316  0.00  0.00    -0.060 A 
ATOM      2  C   LIG    1       20.035 -23.033  15.468  0.00  0.00    +0.360 A 
ATOM      3  N   LIG    1       20.560 -23.404  14.259  0.00  0.00    -0.520 N 
ATOM      4  H   LIG    1       20.040 -23.675  13.487  0.00  0.00    +0.440 HD
ATOM      5  C   LIG    1       21.921 -23.335  14.298  0.00  0.00    +0.330 A 
ATOM      6  N   LIG    1       22.890 -23.586  13.401  0.00  0.00    -0.510 NA
ATOM      7  C   LIG    1       24.149 -23.440  13.705  0.00  0.00    +0.620 A 
ATOM      8  N   LIG    1       24.557 -23.020  14.930  0.00  0.00    -0.580 N 
ATOM      9  H   LIG    1       25.504 -22.920  15.115  0.00  0.00    +0.440 HD
ATOM     10  C   LIG    1       23.649 -22.741  15.892  0.00  0.00    +0.320 A 
ATOM     11  S   LIG    1       24.144 -22.212  17.444  0.00  0.00    -0.450 S 
ATOM     12  C   LIG    1       22.279 -22.899  15.581  0.00  0.00    -0.170 A 
ENDROOT
BRANCH   1  14
ATOM     13  O   LIG    1       20.841 -21.078  17.974  0.00  0.00    -0.210 OA
ATOM     14  N   LIG    1       20.888 -22.268  17.719  0.00  0.00    +0.040 N 
ATOM     15  O   LIG    1       20.812 -23.087  18.616  0.00  0.00    -0.060 OA
ENDBRANCH   1  14
TORSDOF 1
ENDMDL
MODEL 6
REMARK VINA RESULT:    -4.868      2.959      3.745
REMARK INTER + INTRA:          -5.237
REMARK INTER:                  -5.107
REMARK INTRA:                  -0.130
REMARK UNBOUND:                -0.085
REMARK  Name = ZINC000018205609
REMARK                            x       y       z     vdW  Elec       q    Type
REMARK                         _______ _______ _______ _____ _____    ______ ____
ROOT
ATOM      1  C   LIG    1       27.923 -20.069   1.847  0.00  0.00    -0.060 A 
ATOM      2  C   LIG    1       27.584 -20.025   0.546  0.00  0.00    +0.360 A 
ATOM      3  N   LIG    1       28.199 -18.960  -0.055  0.00  0.00    -0.520 N 
ATOM      4  H   LIG    1       28.108 -18.721  -0.990  0.00  0.00    +0.440 HD
ATOM      5  C   LIG    1       28.958 -18.283   0.853  0.00  0.00    +0.330 A 
ATOM      6  N   LIG    1       29.742 -17.194   0.781  0.00  0.00    -0.510 NA
ATOM      7  C   LIG    1       30.376 -16.745   1.827  0.00  0.00    +0.620 A 
ATOM      8  N   LIG    1       30.280 -17.337   3.046  0.00  0.00    -0.580 N 
ATOM      9  H   LIG    1       30.765 -16.970   3.800  0.00  0.00    +0.440 HD
ATOM     10  C   LIG    1       29.509 -18.437   3.210  0.00  0.00    +0.320 A 
ATOM     11  S   LIG    1       29.377 -19.199   4.737  0.00  0.00    -0.450 S 
ATOM     12  C   LIG    1       28.818 -18.940   2.084  0.00  0.00    -0.170 A 
ENDROOT
BRANCH   1  14
ATOM     13  O   LIG    1       28.142 -22.060   3.057  0.00  0.00    -0.210 OA
ATOM     14  N   LIG    1       27.473 -21.064   2.846  0.00  0.00    +0.040 N 
ATOM     15  O   LIG    1       26.437 -20.885   3.460  0.00  0.00    -0.060 OA
ENDBRANCH   1  14
TORSDOF 1
ENDMDL
MODEL 7
REMARK VINA RESULT:    -4.814      2.175      3.446
REMARK INTER + INTRA:          -5.181
REMARK INTER:                  -5.096
REMARK INTRA:                  -0.085
REMARK UNBOUND:                -0.085
REMARK  Name = ZINC000018205609
REMARK                            x       y       z     vdW  Elec       q    Type
REMARK                         _______ _______ _______ _____ _____    ______ ____
ROOT
ATOM      1  C   LIG    1       31.683 -17.536   2.696  0.00  0.00    -0.060 A 
ATOM      2  C   LIG    1       32.317 -17.782   3.857  0.00  0.00    +0.360 A 
ATOM      3  N   LIG    1       31.577 -18.653   4.611  0.00  0.00    -0.520 N 
ATOM      4  H   LIG    1       31.828 -18.980   5.488  0.00  0.00    +0.440 HD
ATOM      5  C   LIG    1       30.435 -18.993   3.948  0.00  0.00    +0.330 A 
ATOM      6  N   LIG    1       29.396 -19.794   4.239  0.00  0.00    -0.510 NA
ATOM      7  C   LIG    1       28.407 -19.951   3.405  0.00  0.00    +0.620 A 
ATOM      8  N   LIG    1       28.359 -19.315   2.206  0.00  0.00    -0.580 N 
ATOM      9  H   LIG    1       27.603 -19.455   1.615  0.00  0.00    +0.440 HD
ATOM     10  C   LIG    1       29.361 -18.486   1.834  0.00  0.00    +0.320 A 
ATOM     11  S   LIG    1       29.319 -17.677   0.326  0.00  0.00    -0.450 S 
ATOM     12  C   LIG    1       30.444 -18.309   2.724  0.00  0.00    -0.170 A 
ENDROOT
BRANCH   1  14
ATOM     13  O   LIG    1       32.969 -17.053   0.802  0.00  0.00    -0.210 OA
ATOM     14  N   LIG    1       32.146 -16.650   1.605  0.00  0.00    +0.040 N 
ATOM     15  O   LIG    1       31.701 -15.521   1.506  0.00  0.00    -0.060 OA
ENDBRANCH   1  14
TORSDOF 1
ENDMDL
MODEL 8
REMARK VINA RESULT:    -4.803     15.718     16.812
REMARK INTER + INTRA:          -5.169
REMARK INTER:                  -5.035
REMARK INTRA:                  -0.133
REMARK UNBOUND:                -0.085
REMARK  Name = ZINC000018205609
REMARK                            x       y       z     vdW  Elec       q    Type
REMARK                         _______ _______ _______ _____ _____    ______ ____
ROOT
ATOM      1  C   LIG    1       23.941 -23.138  16.120  0.00  0.00    -0.060 A 
ATOM      2  C   LIG    1       24.577 -23.500  14.991  0.00  0.00    +0.360 A 
ATOM      3  N   LIG    1       23.667 -23.652  13.979  0.00  0.00    -0.520 N 
ATOM      4  H   LIG    1       23.886 -23.909  13.070  0.00  0.00    +0.440 HD
ATOM      5  C   LIG    1       22.409 -23.390  14.436  0.00  0.00    +0.330 A 
ATOM      6  N   LIG    1       21.194 -23.396  13.863  0.00  0.00    -0.510 NA
ATOM      7  C   LIG    1       20.123 -23.095  14.543  0.00  0.00    +0.620 A 
ATOM      8  N   LIG    1       20.165 -22.770  15.860  0.00  0.00    -0.580 N 
ATOM      9  H   LIG    1       19.346 -22.557  16.331  0.00  0.00    +0.440 HD
ATOM     10  C   LIG    1       21.348 -22.744  16.517  0.00  0.00    +0.320 A 
ATOM     11  S   LIG    1       21.422 -22.335  18.178  0.00  0.00    -0.450 S 
ATOM     12  C   LIG    1       22.519 -23.063  15.794  0.00  0.00    -0.170 A 
ENDROOT
BRANCH   1  14
ATOM     13  O   LIG    1       24.934 -21.751  17.721  0.00  0.00    -0.210 OA
ATOM     14  N   LIG    1       24.560 -22.875  17.439  0.00  0.00    +0.040 N 
ATOM     15  O   LIG    1       24.689 -23.780  18.243  0.00  0.00    -0.060 OA
ENDBRANCH   1  14
TORSDOF 1
ENDMDL
MODEL 9
REMARK VINA RESULT:    -4.669      2.027      2.579
REMARK INTER + INTRA:          -5.027
REMARK INTER:                  -4.902
REMARK INTRA:                  -0.125
REMARK UNBOUND:                -0.085
REMARK  Name = ZINC000018205609
REMARK                            x       y       z     vdW  Elec       q    Type
REMARK                         _______ _______ _______ _____ _____    ______ ____
ROOT
ATOM      1  C   LIG    1       30.517 -17.370   0.951  0.00  0.00    -0.060 A 
ATOM      2  C   LIG    1       29.733 -17.386  -0.142  0.00  0.00    +0.360 A 
ATOM      3  N   LIG    1       28.685 -18.244   0.055  0.00  0.00    -0.520 N 
ATOM      4  H   LIG    1       27.985 -18.425  -0.591  0.00  0.00    +0.440 HD
ATOM      5  C   LIG    1       28.768 -18.809   1.294  0.00  0.00    +0.330 A 
ATOM      6  N   LIG    1       28.011 -19.695   1.963  0.00  0.00    -0.510 NA
ATOM      7  C   LIG    1       28.322 -20.076   3.170  0.00  0.00    +0.620 A 
ATOM      8  N   LIG    1       29.422 -19.614   3.818  0.00  0.00    -0.580 N 
ATOM      9  H   LIG    1       29.620 -19.924   4.715  0.00  0.00    +0.440 HD
ATOM     10  C   LIG    1       30.242 -18.722   3.217  0.00  0.00    +0.320 A 
ATOM     11  S   LIG    1       31.633 -18.126   4.019  0.00  0.00    -0.450 S 
ATOM     12  C   LIG    1       29.918 -18.295   1.909  0.00  0.00    -0.170 A 
ENDROOT
BRANCH   1  14
ATOM     13  O   LIG    1       32.836 -17.064   0.889  0.00  0.00    -0.210 OA
ATOM     14  N   LIG    1       31.750 -16.574   1.144  0.00  0.00    +0.040 N 
ATOM     15  O   LIG    1       31.679 -15.430   1.553  0.00  0.00    -0.060 OA
ENDBRANCH   1  14
TORSDOF 1
ENDMDL
