MODEL 1
REMARK VINA RESULT:    -6.546      0.000      0.000
REMARK INTER + INTRA:          -7.433
REMARK INTER:                  -7.502
REMARK INTRA:                   0.070
REMARK UNBOUND:                 0.070
REMARK  Name = ZINC000088325204
REMARK                            x       y       z     vdW  Elec       q    Type
REMARK                         _______ _______ _______ _____ _____    ______ ____
ROOT
ATOM      1  C   LIG    1       29.171 -18.299   1.326  0.00  0.00    -0.210 A 
ATOM      2  C   LIG    1       28.347 -19.136   0.565  0.00  0.00    +0.170 A 
ATOM      3  C   LIG    1       27.655 -20.158   1.178  0.00  0.00    -0.070 A 
ATOM      4  C   LIG    1       27.770 -20.360   2.544  0.00  0.00    +0.020 A 
ATOM      5  C   LIG    1       28.580 -19.543   3.307  0.00  0.00    +0.000 A 
ATOM      6  C   LIG    1       27.008 -21.482   3.200  0.00  0.00    +0.140 C 
ATOM      7  C   LIG    1       29.289 -18.513   2.709  0.00  0.00    +0.220 A 
ENDROOT
BRANCH   1   9
ATOM      8  C   LIG    1       30.535 -17.419  -0.676  0.00  0.00    +0.090 C 
ATOM      9  C   LIG    1       29.912 -17.208   0.680  0.00  0.00    +0.400 C 
ATOM     10  O   LIG    1       30.024 -16.137   1.239  0.00  0.00    -0.430 OA
ENDBRANCH   1   9
BRANCH   3  11
ATOM     11  N   LIG    1       26.784 -21.043   0.372  0.00  0.00    +0.020 N 
ATOM     12  O   LIG    1       27.232 -21.612  -0.607  0.00  0.00    -0.150 OA
ATOM     13  O   LIG    1       25.618 -21.201   0.689  0.00  0.00    -0.140 OA
ENDBRANCH   3  11
BRANCH   7  14
ATOM     14  O   LIG    1       30.085 -17.709   3.457  0.00  0.00    -0.470 OA
ATOM     15  H   LIG    1       31.012 -17.707   3.181  0.00  0.00    +0.410 HD
ENDBRANCH   7  14
TORSDOF 3
ENDMDL
MODEL 2
REMARK VINA RESULT:    -6.289      2.157      4.351
REMARK INTER + INTRA:          -7.139
REMARK INTER:                  -6.859
REMARK INTRA:                  -0.280
REMARK UNBOUND:                 0.070
REMARK  Name = ZINC000088325204
REMARK                            x       y       z     vdW  Elec       q    Type
REMARK                         _______ _______ _______ _____ _____    ______ ____
ROOT
ATOM      1  C   LIG    1       28.155 -19.769   1.674  0.00  0.00    -0.210 A 
ATOM      2  C   LIG    1       28.480 -19.126   0.475  0.00  0.00    +0.170 A 
ATOM      3  C   LIG    1       29.321 -18.035   0.487  0.00  0.00    -0.070 A 
ATOM      4  C   LIG    1       29.849 -17.572   1.682  0.00  0.00    +0.020 A 
ATOM      5  C   LIG    1       29.538 -18.196   2.873  0.00  0.00    +0.000 A 
ATOM      6  C   LIG    1       30.768 -16.378   1.680  0.00  0.00    +0.140 C 
ATOM      7  C   LIG    1       28.689 -19.292   2.883  0.00  0.00    +0.220 A 
ENDROOT
BRANCH   1   9
ATOM      8  C   LIG    1       25.931 -20.857   0.962  0.00  0.00    +0.090 C 
ATOM      9  C   LIG    1       27.259 -20.932   1.670  0.00  0.00    +0.400 C 
ATOM     10  O   LIG    1       27.588 -21.954   2.235  0.00  0.00    -0.430 OA
ENDBRANCH   1   9
BRANCH   3  11
ATOM     11  N   LIG    1       29.663 -17.355  -0.782  0.00  0.00    +0.020 N 
ATOM     12  O   LIG    1       30.745 -17.550  -1.307  0.00  0.00    -0.150 OA
ATOM     13  O   LIG    1       28.862 -16.599  -1.303  0.00  0.00    -0.140 OA
ENDBRANCH   3  11
BRANCH   7  14
ATOM     14  O   LIG    1       28.382 -19.907   4.053  0.00  0.00    -0.470 OA
ATOM     15  H   LIG    1       28.043 -20.807   3.946  0.00  0.00    +0.410 HD
ENDBRANCH   7  14
TORSDOF 3
ENDMDL
MODEL 3
REMARK VINA RESULT:    -6.069      2.292      4.967
REMARK INTER + INTRA:          -6.887
REMARK INTER:                  -6.589
REMARK INTRA:                  -0.297
REMARK UNBOUND:                 0.070
REMARK  Name = ZINC000088325204
REMARK                            x       y       z     vdW  Elec       q    Type
REMARK                         _______ _______ _______ _____ _____    ______ ____
ROOT
ATOM      1  C   LIG    1       27.790 -20.015   2.050  0.00  0.00    -0.210 A 
ATOM      2  C   LIG    1       28.337 -20.041   3.338  0.00  0.00    +0.170 A 
ATOM      3  C   LIG    1       29.395 -19.217   3.651  0.00  0.00    -0.070 A 
ATOM      4  C   LIG    1       29.922 -18.361   2.697  0.00  0.00    +0.020 A 
ATOM      5  C   LIG    1       29.394 -18.324   1.421  0.00  0.00    +0.000 A 
ATOM      6  C   LIG    1       31.080 -17.465   3.053  0.00  0.00    +0.140 C 
ATOM      7  C   LIG    1       28.332 -19.149   1.085  0.00  0.00    +0.220 A 
ENDROOT
BRANCH   1   9
ATOM      8  C   LIG    1       25.560 -21.123   2.709  0.00  0.00    +0.090 C 
ATOM      9  C   LIG    1       26.662 -20.890   1.709  0.00  0.00    +0.400 C 
ATOM     10  O   LIG    1       26.617 -21.425   0.622  0.00  0.00    -0.430 OA
ENDBRANCH   1   9
BRANCH   3  11
ATOM     11  N   LIG    1       29.973 -19.246   5.013  0.00  0.00    +0.020 N 
ATOM     12  O   LIG    1       30.855 -20.041   5.285  0.00  0.00    -0.150 OA
ATOM     13  O   LIG    1       29.567 -18.474   5.864  0.00  0.00    -0.140 OA
ENDBRANCH   3  11
BRANCH   7  14
ATOM     14  O   LIG    1       27.811 -19.114  -0.167  0.00  0.00    -0.470 OA
ATOM     15  H   LIG    1       27.336 -18.296  -0.372  0.00  0.00    +0.410 HD
ENDBRANCH   7  14
TORSDOF 3
ENDMDL
MODEL 4
REMARK VINA RESULT:    -5.994      2.022      2.769
REMARK INTER + INTRA:          -6.801
REMARK INTER:                  -6.501
REMARK INTRA:                  -0.300
REMARK UNBOUND:                 0.070
REMARK  Name = ZINC000088325204
REMARK                            x       y       z     vdW  Elec       q    Type
REMARK                         _______ _______ _______ _____ _____    ______ ____
ROOT
ATOM      1  C   LIG    1       29.750 -17.861   1.682  0.00  0.00    -0.210 A 
ATOM      2  C   LIG    1       29.291 -18.845   2.566  0.00  0.00    +0.170 A 
ATOM      3  C   LIG    1       28.340 -19.750   2.151  0.00  0.00    -0.070 A 
ATOM      4  C   LIG    1       27.834 -19.693   0.862  0.00  0.00    +0.020 A 
ATOM      5  C   LIG    1       28.276 -18.728  -0.021  0.00  0.00    +0.000 A 
ATOM      6  C   LIG    1       26.793 -20.690   0.422  0.00  0.00    +0.140 C 
ATOM      7  C   LIG    1       29.230 -17.804   0.378  0.00  0.00    +0.220 A 
ENDROOT
BRANCH   1   9
ATOM      8  C   LIG    1       31.998 -17.366   2.840  0.00  0.00    +0.090 C 
ATOM      9  C   LIG    1       30.764 -16.893   2.116  0.00  0.00    +0.400 C 
ATOM     10  O   LIG    1       30.608 -15.711   1.893  0.00  0.00    -0.430 OA
ENDBRANCH   1   9
BRANCH   3  11
ATOM     11  N   LIG    1       27.855 -20.789   3.087  0.00  0.00    +0.020 N 
ATOM     12  O   LIG    1       28.502 -21.807   3.256  0.00  0.00    -0.150 OA
ATOM     13  O   LIG    1       26.808 -20.627   3.688  0.00  0.00    -0.140 OA
ENDBRANCH   3  11
BRANCH   7  14
ATOM     14  O   LIG    1       29.665 -16.857  -0.489  0.00  0.00    -0.470 OA
ATOM     15  H   LIG    1       30.006 -16.059  -0.060  0.00  0.00    +0.410 HD
ENDBRANCH   7  14
TORSDOF 3
ENDMDL
MODEL 5
REMARK VINA RESULT:    -5.879      2.523      5.194
REMARK INTER + INTRA:          -6.669
REMARK INTER:                  -6.376
REMARK INTRA:                  -0.292
REMARK UNBOUND:                 0.070
REMARK  Name = ZINC000088325204
REMARK                            x       y       z     vdW  Elec       q    Type
REMARK                         _______ _______ _______ _____ _____    ______ ____
ROOT
ATOM      1  C   LIG    1       29.269 -18.932   2.548  0.00  0.00    -0.210 A 
ATOM      2  C   LIG    1       30.354 -18.056   2.429  0.00  0.00    +0.170 A 
ATOM      3  C   LIG    1       30.621 -17.455   1.218  0.00  0.00    -0.070 A 
ATOM      4  C   LIG    1       29.820 -17.713   0.117  0.00  0.00    +0.020 A 
ATOM      5  C   LIG    1       28.747 -18.575   0.219  0.00  0.00    +0.000 A 
ATOM      6  C   LIG    1       30.124 -17.049  -1.201  0.00  0.00    +0.140 C 
ATOM      7  C   LIG    1       28.464 -19.194   1.427  0.00  0.00    +0.220 A 
ENDROOT
BRANCH   1   9
ATOM      8  C   LIG    1       29.166 -18.813   5.120  0.00  0.00    +0.090 C 
ATOM      9  C   LIG    1       28.978 -19.577   3.834  0.00  0.00    +0.400 C 
ATOM     10  O   LIG    1       28.587 -20.724   3.863  0.00  0.00    -0.430 OA
ENDBRANCH   1   9
BRANCH   3  11
ATOM     11  N   LIG    1       31.770 -16.530   1.093  0.00  0.00    +0.020 N 
ATOM     12  O   LIG    1       32.862 -16.955   0.760  0.00  0.00    -0.150 OA
ATOM     13  O   LIG    1       31.623 -15.343   1.324  0.00  0.00    -0.140 OA
ENDBRANCH   3  11
BRANCH   7  14
ATOM     14  O   LIG    1       27.409 -20.041   1.529  0.00  0.00    -0.470 OA
ATOM     15  H   LIG    1       27.602 -20.851   2.021  0.00  0.00    +0.410 HD
ENDBRANCH   7  14
TORSDOF 3
ENDMDL
MODEL 6
REMARK VINA RESULT:    -5.860      2.064      4.854
REMARK INTER + INTRA:          -6.647
REMARK INTER:                  -6.442
REMARK INTRA:                  -0.205
REMARK UNBOUND:                 0.070
REMARK  Name = ZINC000088325204
REMARK                            x       y       z     vdW  Elec       q    Type
REMARK                         _______ _______ _______ _____ _____    ______ ____
ROOT
ATOM      1  C   LIG    1       27.819 -20.497   0.996  0.00  0.00    -0.210 A 
ATOM      2  C   LIG    1       28.020 -19.141   0.715  0.00  0.00    +0.170 A 
ATOM      3  C   LIG    1       29.233 -18.716   0.219  0.00  0.00    -0.070 A 
ATOM      4  C   LIG    1       30.255 -19.625  -0.005  0.00  0.00    +0.020 A 
ATOM      5  C   LIG    1       30.071 -20.966   0.268  0.00  0.00    +0.000 A 
ATOM      6  C   LIG    1       31.576 -19.146  -0.548  0.00  0.00    +0.140 C 
ATOM      7  C   LIG    1       28.860 -21.413   0.773  0.00  0.00    +0.220 A 
ENDROOT
BRANCH   1   9
ATOM      8  C   LIG    1       26.297 -21.000   3.014  0.00  0.00    +0.090 C 
ATOM      9  C   LIG    1       26.529 -20.958   1.525  0.00  0.00    +0.400 C 
ATOM     10  O   LIG    1       25.650 -21.304   0.765  0.00  0.00    -0.430 OA
ENDBRANCH   1   9
BRANCH   3  11
ATOM     11  N   LIG    1       29.445 -17.281  -0.077  0.00  0.00    +0.020 N 
ATOM     12  O   LIG    1       29.161 -16.837  -1.175  0.00  0.00    -0.150 OA
ATOM     13  O   LIG    1       29.905 -16.545   0.778  0.00  0.00    -0.140 OA
ENDBRANCH   3  11
BRANCH   7  14
ATOM     14  O   LIG    1       28.678 -22.730   1.041  0.00  0.00    -0.470 OA
ATOM     15  H   LIG    1       27.751 -22.981   1.165  0.00  0.00    +0.410 HD
ENDBRANCH   7  14
TORSDOF 3
ENDMDL
MODEL 7
REMARK VINA RESULT:    -5.453     21.186     22.446
REMARK INTER + INTRA:          -6.181
REMARK INTER:                  -5.860
REMARK INTRA:                  -0.321
REMARK UNBOUND:                 0.070
REMARK  Name = ZINC000088325204
REMARK                            x       y       z     vdW  Elec       q    Type
REMARK                         _______ _______ _______ _____ _____    ______ ____
ROOT
ATOM      1  C   LIG    1       24.027  -0.771  13.015  0.00  0.00    -0.210 A 
ATOM      2  C   LIG    1       24.879   0.133  12.369  0.00  0.00    +0.170 A 
ATOM      3  C   LIG    1       24.841   0.250  10.997  0.00  0.00    -0.070 A 
ATOM      4  C   LIG    1       23.963  -0.521  10.253  0.00  0.00    +0.020 A 
ATOM      5  C   LIG    1       23.117  -1.417  10.875  0.00  0.00    +0.000 A 
ATOM      6  C   LIG    1       23.933  -0.382   8.752  0.00  0.00    +0.140 C 
ATOM      7  C   LIG    1       23.143  -1.554  12.254  0.00  0.00    +0.220 A 
ENDROOT
BRANCH   1   9
ATOM      8  C   LIG    1       25.383  -0.995  15.195  0.00  0.00    +0.090 C 
ATOM      9  C   LIG    1       24.061  -0.902  14.476  0.00  0.00    +0.400 C 
ATOM     10  O   LIG    1       23.025  -0.936  15.107  0.00  0.00    -0.430 OA
ENDBRANCH   1   9
BRANCH   3  11
ATOM     11  N   LIG    1       25.743   1.205  10.315  0.00  0.00    +0.020 N 
ATOM     12  O   LIG    1       25.382   2.352  10.121  0.00  0.00    -0.150 OA
ATOM     13  O   LIG    1       26.847   0.844   9.948  0.00  0.00    -0.140 OA
ENDBRANCH   3  11
BRANCH   7  14
ATOM     14  O   LIG    1       22.312  -2.433  12.868  0.00  0.00    -0.470 OA
ATOM     15  H   LIG    1       21.633  -2.015  13.417  0.00  0.00    +0.410 HD
ENDBRANCH   7  14
TORSDOF 3
ENDMDL
MODEL 8
REMARK VINA RESULT:    -5.449     24.312     25.476
REMARK INTER + INTRA:          -6.176
REMARK INTER:                  -5.869
REMARK INTRA:                  -0.307
REMARK UNBOUND:                 0.070
REMARK  Name = ZINC000088325204
REMARK                            x       y       z     vdW  Elec       q    Type
REMARK                         _______ _______ _______ _____ _____    ______ ____
ROOT
ATOM      1  C   LIG    1       14.758 -10.680  21.071  0.00  0.00    -0.210 A 
ATOM      2  C   LIG    1       14.431 -11.694  21.979  0.00  0.00    +0.170 A 
ATOM      3  C   LIG    1       15.335 -12.699  22.240  0.00  0.00    -0.070 A 
ATOM      4  C   LIG    1       16.568 -12.713  21.609  0.00  0.00    +0.020 A 
ATOM      5  C   LIG    1       16.906 -11.720  20.710  0.00  0.00    +0.000 A 
ATOM      6  C   LIG    1       17.548 -13.820  21.904  0.00  0.00    +0.140 C 
ATOM      7  C   LIG    1       16.008 -10.702  20.430  0.00  0.00    +0.220 A 
ENDROOT
BRANCH   1   9
ATOM      8  C   LIG    1       13.030  -8.964  21.914  0.00  0.00    +0.090 C 
ATOM      9  C   LIG    1       13.800  -9.605  20.788  0.00  0.00    +0.400 C 
ATOM     10  O   LIG    1       13.627  -9.232  19.647  0.00  0.00    -0.430 OA
ENDBRANCH   1   9
BRANCH   3  11
ATOM     11  N   LIG    1       14.987 -13.771  23.200  0.00  0.00    +0.020 N 
ATOM     12  O   LIG    1       14.371 -14.752  22.822  0.00  0.00    -0.150 OA
ATOM     13  O   LIG    1       15.316 -13.672  24.369  0.00  0.00    -0.140 OA
ENDBRANCH   3  11
BRANCH   7  14
ATOM     14  O   LIG    1       16.338  -9.726  19.548  0.00  0.00    -0.470 OA
ATOM     15  H   LIG    1       16.150  -8.831  19.864  0.00  0.00    +0.410 HD
ENDBRANCH   7  14
TORSDOF 3
ENDMDL
MODEL 9
REMARK VINA RESULT:    -5.409     24.387     25.658
REMARK INTER + INTRA:          -6.130
REMARK INTER:                  -5.929
REMARK INTRA:                  -0.200
REMARK UNBOUND:                 0.070
REMARK  Name = ZINC000088325204
REMARK                            x       y       z     vdW  Elec       q    Type
REMARK                         _______ _______ _______ _____ _____    ______ ____
ROOT
ATOM      1  C   LIG    1       15.453 -12.296  21.768  0.00  0.00    -0.210 A 
ATOM      2  C   LIG    1       15.471 -11.401  20.693  0.00  0.00    +0.170 A 
ATOM      3  C   LIG    1       14.563 -10.367  20.647  0.00  0.00    -0.070 A 
ATOM      4  C   LIG    1       13.631 -10.207  21.660  0.00  0.00    +0.020 A 
ATOM      5  C   LIG    1       13.601 -11.083  22.727  0.00  0.00    +0.000 A 
ATOM      6  C   LIG    1       12.643  -9.071  21.596  0.00  0.00    +0.140 C 
ATOM      7  C   LIG    1       14.503 -12.133  22.790  0.00  0.00    +0.220 A 
ENDROOT
BRANCH   1   9
ATOM      8  C   LIG    1       16.088 -14.723  21.180  0.00  0.00    +0.090 C 
ATOM      9  C   LIG    1       16.418 -13.401  21.825  0.00  0.00    +0.400 C 
ATOM     10  O   LIG    1       17.480 -13.251  22.390  0.00  0.00    -0.430 OA
ENDBRANCH   1   9
BRANCH   3  11
ATOM     11  N   LIG    1       14.582  -9.420  19.508  0.00  0.00    +0.020 N 
ATOM     12  O   LIG    1       14.006  -9.702  18.472  0.00  0.00    -0.150 OA
ATOM     13  O   LIG    1       15.174  -8.361  19.607  0.00  0.00    -0.140 OA
ENDBRANCH   3  11
BRANCH   7  14
ATOM     14  O   LIG    1       14.475 -12.994  23.838  0.00  0.00    -0.470 OA
ATOM     15  H   LIG    1       13.699 -13.571  23.852  0.00  0.00    +0.410 HD
ENDBRANCH   7  14
TORSDOF 3
ENDMDL
