MODEL 1
REMARK VINA RESULT:    -5.076      0.000      0.000
REMARK INTER + INTRA:          -5.537
REMARK INTER:                  -5.372
REMARK INTRA:                  -0.165
REMARK UNBOUND:                -0.165
REMARK  Name = ZINC000038540829
REMARK                            x       y       z     vdW  Elec       q    Type
REMARK                         _______ _______ _______ _____ _____    ______ ____
ROOT
ATOM      1  C   LIG    1       24.194 -23.136  12.656  0.00  0.00    +0.230 C 
ATOM      2  C   LIG    1       23.384 -22.969  13.916  0.00  0.00    +0.470 A 
ATOM      3  N   LIG    1       22.161 -23.424  13.953  0.00  0.00    -0.530 NA
ATOM      4  C   LIG    1       21.403 -23.302  15.047  0.00  0.00    +0.320 A 
ATOM      5  C   LIG    1       21.906 -22.687  16.157  0.00  0.00    -0.230 A 
ATOM      6  C   LIG    1       23.226 -22.197  16.116  0.00  0.00    +0.550 A 
ATOM      7  O   LIG    1       23.715 -21.642  17.086  0.00  0.00    -0.460 OA
ATOM      8 CL   LIG    1       19.781 -23.921  15.057  0.00  0.00    +0.070 Cl
ATOM      9  N   LIG    1       23.940 -22.358  14.981  0.00  0.00    -0.620 N 
ATOM     10  H   LIG    1       24.851 -22.028  14.931  0.00  0.00    +0.440 HD
ENDROOT
BRANCH   5  11
ATOM     11  N   LIG    1       21.083 -22.541  17.378  0.00  0.00    +0.050 N 
ATOM     12  O   LIG    1       20.412 -21.538  17.543  0.00  0.00    -0.130 OA
ATOM     13  O   LIG    1       21.078 -23.423  18.218  0.00  0.00    -0.160 OA
ENDBRANCH   5  11
TORSDOF 1
ENDMDL
MODEL 2
REMARK VINA RESULT:    -4.708     13.327     14.483
REMARK INTER + INTRA:          -5.149
REMARK INTER:                  -5.006
REMARK INTRA:                  -0.143
REMARK UNBOUND:                -0.165
REMARK  Name = ZINC000038540829
REMARK                            x       y       z     vdW  Elec       q    Type
REMARK                         _______ _______ _______ _____ _____    ______ ____
ROOT
ATOM      1  C   LIG    1        8.395 -14.181  16.992  0.00  0.00    +0.230 C 
ATOM      2  C   LIG    1        9.106 -14.918  15.886  0.00  0.00    +0.470 A 
ATOM      3  N   LIG    1        8.660 -14.818  14.663  0.00  0.00    -0.530 NA
ATOM      4  C   LIG    1        9.257 -15.452  13.649  0.00  0.00    +0.320 A 
ATOM      5  C   LIG    1       10.357 -16.225  13.883  0.00  0.00    -0.230 A 
ATOM      6  C   LIG    1       10.837 -16.331  15.203  0.00  0.00    +0.550 A 
ATOM      7  O   LIG    1       11.818 -17.011  15.456  0.00  0.00    -0.460 OA
ATOM      8 CL   LIG    1        8.634 -15.293  12.036  0.00  0.00    +0.070 Cl
ATOM      9  N   LIG    1       10.191 -15.661  16.181  0.00  0.00    -0.620 N 
ATOM     10  H   LIG    1       10.505 -15.720  17.098  0.00  0.00    +0.440 HD
ENDROOT
BRANCH   5  11
ATOM     11  N   LIG    1       11.032 -16.934  12.774  0.00  0.00    +0.050 N 
ATOM     12  O   LIG    1       11.849 -16.349  12.084  0.00  0.00    -0.130 OA
ATOM     13  O   LIG    1       10.772 -18.102  12.549  0.00  0.00    -0.160 OA
ENDBRANCH   5  11
TORSDOF 1
ENDMDL
MODEL 3
REMARK VINA RESULT:    -4.603     13.682     14.604
REMARK INTER + INTRA:          -5.037
REMARK INTER:                  -4.871
REMARK INTRA:                  -0.166
REMARK UNBOUND:                -0.165
REMARK  Name = ZINC000038540829
REMARK                            x       y       z     vdW  Elec       q    Type
REMARK                         _______ _______ _______ _____ _____    ______ ____
ROOT
ATOM      1  C   LIG    1       15.224 -14.660  22.136  0.00  0.00    +0.230 C 
ATOM      2  C   LIG    1       15.142 -13.364  21.370  0.00  0.00    +0.470 A 
ATOM      3  N   LIG    1       16.229 -12.668  21.176  0.00  0.00    -0.530 NA
ATOM      4  C   LIG    1       16.208 -11.514  20.503  0.00  0.00    +0.320 A 
ATOM      5  C   LIG    1       15.030 -11.041  20.002  0.00  0.00    -0.230 A 
ATOM      6  C   LIG    1       13.858 -11.794  20.212  0.00  0.00    +0.550 A 
ATOM      7  O   LIG    1       12.784 -11.408  19.781  0.00  0.00    -0.460 OA
ATOM      8 CL   LIG    1       17.675 -10.617  20.265  0.00  0.00    +0.070 Cl
ATOM      9  N   LIG    1       13.949 -12.954  20.896  0.00  0.00    -0.620 N 
ATOM     10  H   LIG    1       13.154 -13.489  21.052  0.00  0.00    +0.440 HD
ENDROOT
BRANCH   5  11
ATOM     11  N   LIG    1       14.985  -9.765  19.253  0.00  0.00    +0.050 N 
ATOM     12  O   LIG    1       15.117  -9.765  18.042  0.00  0.00    -0.130 OA
ATOM     13  O   LIG    1       14.815  -8.716  19.847  0.00  0.00    -0.160 OA
ENDBRANCH   5  11
TORSDOF 1
ENDMDL
MODEL 4
REMARK VINA RESULT:    -4.541      2.206      3.176
REMARK INTER + INTRA:          -4.972
REMARK INTER:                  -4.864
REMARK INTRA:                  -0.108
REMARK UNBOUND:                -0.165
REMARK  Name = ZINC000038540829
REMARK                            x       y       z     vdW  Elec       q    Type
REMARK                         _______ _______ _______ _____ _____    ______ ____
ROOT
ATOM      1  C   LIG    1       25.078 -21.938  17.838  0.00  0.00    +0.230 C 
ATOM      2  C   LIG    1       23.840 -22.290  17.054  0.00  0.00    +0.470 A 
ATOM      3  N   LIG    1       23.962 -22.717  15.826  0.00  0.00    -0.530 NA
ATOM      4  C   LIG    1       22.895 -23.044  15.091  0.00  0.00    +0.320 A 
ATOM      5  C   LIG    1       21.643 -22.930  15.623  0.00  0.00    -0.230 A 
ATOM      6  C   LIG    1       21.513 -22.469  16.947  0.00  0.00    +0.550 A 
ATOM      7  O   LIG    1       20.413 -22.354  17.461  0.00  0.00    -0.460 OA
ATOM      8 CL   LIG    1       23.099 -23.609  13.462  0.00  0.00    +0.070 Cl
ATOM      9  N   LIG    1       22.632 -22.162  17.637  0.00  0.00    -0.620 N 
ATOM     10  H   LIG    1       22.565 -21.842  18.551  0.00  0.00    +0.440 HD
ENDROOT
BRANCH   5  11
ATOM     11  N   LIG    1       20.449 -23.286  14.825  0.00  0.00    +0.050 N 
ATOM     12  O   LIG    1       20.012 -22.503  14.000  0.00  0.00    -0.130 OA
ATOM     13  O   LIG    1       19.902 -24.361  14.993  0.00  0.00    -0.160 OA
ENDBRANCH   5  11
TORSDOF 1
ENDMDL
MODEL 5
REMARK VINA RESULT:    -4.454     22.156     22.658
REMARK INTER + INTRA:          -4.879
REMARK INTER:                  -4.712
REMARK INTRA:                  -0.167
REMARK UNBOUND:                -0.165
REMARK  Name = ZINC000038540829
REMARK                            x       y       z     vdW  Elec       q    Type
REMARK                         _______ _______ _______ _____ _____    ______ ____
ROOT
ATOM      1  C   LIG    1       23.646  -0.896   8.880  0.00  0.00    +0.230 C 
ATOM      2  C   LIG    1       23.892  -0.713  10.356  0.00  0.00    +0.470 A 
ATOM      3  N   LIG    1       23.117  -1.324  11.212  0.00  0.00    -0.530 NA
ATOM      4  C   LIG    1       23.296  -1.195  12.530  0.00  0.00    +0.320 A 
ATOM      5  C   LIG    1       24.306  -0.409  13.005  0.00  0.00    -0.230 A 
ATOM      6  C   LIG    1       25.141   0.248  12.081  0.00  0.00    +0.550 A 
ATOM      7  O   LIG    1       26.055   0.958  12.463  0.00  0.00    -0.460 OA
ATOM      8 CL   LIG    1       22.245  -2.023  13.636  0.00  0.00    +0.070 Cl
ATOM      9  N   LIG    1       24.910   0.071  10.762  0.00  0.00    -0.620 N 
ATOM     10  H   LIG    1       25.473   0.514  10.108  0.00  0.00    +0.440 HD
ENDROOT
BRANCH   5  11
ATOM     11  N   LIG    1       24.520  -0.254  14.461  0.00  0.00    +0.050 N 
ATOM     12  O   LIG    1       25.248  -1.029  15.056  0.00  0.00    -0.130 OA
ATOM     13  O   LIG    1       23.968   0.649  15.065  0.00  0.00    -0.160 OA
ENDBRANCH   5  11
TORSDOF 1
ENDMDL
MODEL 6
REMARK VINA RESULT:    -4.387      2.441      3.206
REMARK INTER + INTRA:          -4.809
REMARK INTER:                  -4.699
REMARK INTRA:                  -0.110
REMARK UNBOUND:                -0.165
REMARK  Name = ZINC000038540829
REMARK                            x       y       z     vdW  Elec       q    Type
REMARK                         _______ _______ _______ _____ _____    ______ ____
ROOT
ATOM      1  C   LIG    1       25.542 -22.568  17.445  0.00  0.00    +0.230 C 
ATOM      2  C   LIG    1       24.233 -22.788  16.732  0.00  0.00    +0.470 A 
ATOM      3  N   LIG    1       23.114 -22.557  17.365  0.00  0.00    -0.530 NA
ATOM      4  C   LIG    1       21.928 -22.737  16.775  0.00  0.00    +0.320 A 
ATOM      5  C   LIG    1       21.871 -23.172  15.483  0.00  0.00    -0.230 A 
ATOM      6  C   LIG    1       23.079 -23.421  14.801  0.00  0.00    +0.550 A 
ATOM      7  O   LIG    1       23.073 -23.811  13.646  0.00  0.00    -0.460 OA
ATOM      8 CL   LIG    1       20.464 -22.417  17.650  0.00  0.00    +0.070 Cl
ATOM      9  N   LIG    1       24.243 -23.215  15.453  0.00  0.00    -0.620 N 
ATOM     10  H   LIG    1       25.087 -23.379  15.003  0.00  0.00    +0.440 HD
ENDROOT
BRANCH   5  11
ATOM     11  N   LIG    1       20.569 -23.377  14.812  0.00  0.00    +0.050 N 
ATOM     12  O   LIG    1       19.926 -24.391  15.025  0.00  0.00    -0.130 OA
ATOM     13  O   LIG    1       20.138 -22.534  14.045  0.00  0.00    -0.160 OA
ENDBRANCH   5  11
TORSDOF 1
ENDMDL
MODEL 7
REMARK VINA RESULT:    -4.333      3.392      5.027
REMARK INTER + INTRA:          -4.752
REMARK INTER:                  -4.585
REMARK INTRA:                  -0.167
REMARK UNBOUND:                -0.165
REMARK  Name = ZINC000038540829
REMARK                            x       y       z     vdW  Elec       q    Type
REMARK                         _______ _______ _______ _____ _____    ______ ____
ROOT
ATOM      1  C   LIG    1       20.717 -24.435  21.438  0.00  0.00    +0.230 C 
ATOM      2  C   LIG    1       20.823 -24.374  19.936  0.00  0.00    +0.470 A 
ATOM      3  N   LIG    1       20.660 -23.228  19.331  0.00  0.00    -0.530 NA
ATOM      4  C   LIG    1       20.747 -23.122  18.002  0.00  0.00    +0.320 A 
ATOM      5  C   LIG    1       21.007 -24.229  17.248  0.00  0.00    -0.230 A 
ATOM      6  C   LIG    1       21.182 -25.464  17.901  0.00  0.00    +0.550 A 
ATOM      7  O   LIG    1       21.418 -26.478  17.265  0.00  0.00    -0.460 OA
ATOM      8 CL   LIG    1       20.525 -21.580  17.235  0.00  0.00    +0.070 Cl
ATOM      9  N   LIG    1       21.088 -25.502  19.248  0.00  0.00    -0.620 N 
ATOM     10  H   LIG    1       21.205 -26.342  19.719  0.00  0.00    +0.440 HD
ENDROOT
BRANCH   5  11
ATOM     11  N   LIG    1       21.106 -24.133  15.774  0.00  0.00    +0.050 N 
ATOM     12  O   LIG    1       20.114 -24.293  15.086  0.00  0.00    -0.130 OA
ATOM     13  O   LIG    1       22.179 -23.894  15.250  0.00  0.00    -0.160 OA
ENDBRANCH   5  11
TORSDOF 1
ENDMDL
MODEL 8
REMARK VINA RESULT:    -4.142     14.159     15.413
REMARK INTER + INTRA:          -4.549
REMARK INTER:                  -4.383
REMARK INTRA:                  -0.166
REMARK UNBOUND:                -0.165
REMARK  Name = ZINC000038540829
REMARK                            x       y       z     vdW  Elec       q    Type
REMARK                         _______ _______ _______ _____ _____    ______ ____
ROOT
ATOM      1  C   LIG    1        6.592 -14.431  15.763  0.00  0.00    +0.230 C 
ATOM      2  C   LIG    1        7.643 -15.095  14.912  0.00  0.00    +0.470 A 
ATOM      3  N   LIG    1        8.796 -15.399  15.444  0.00  0.00    -0.530 NA
ATOM      4  C   LIG    1        9.760 -15.991  14.732  0.00  0.00    +0.320 A 
ATOM      5  C   LIG    1        9.548 -16.287  13.417  0.00  0.00    -0.230 A 
ATOM      6  C   LIG    1        8.303 -15.959  12.844  0.00  0.00    +0.550 A 
ATOM      7  O   LIG    1        8.072 -16.208  11.673  0.00  0.00    -0.460 OA
ATOM      8 CL   LIG    1       11.279 -16.379  15.476  0.00  0.00    +0.070 Cl
ATOM      9  N   LIG    1        7.371 -15.368  13.620  0.00  0.00    -0.620 N 
ATOM     10  H   LIG    1        6.506 -15.133  13.247  0.00  0.00    +0.440 HD
ENDROOT
BRANCH   5  11
ATOM     11  N   LIG    1       10.602 -16.942  12.610  0.00  0.00    +0.050 N 
ATOM     12  O   LIG    1       10.658 -18.158  12.554  0.00  0.00    -0.130 OA
ATOM     13  O   LIG    1       11.413 -16.266  12.004  0.00  0.00    -0.160 OA
ENDBRANCH   5  11
TORSDOF 1
ENDMDL
MODEL 9
REMARK VINA RESULT:    -4.054     16.086     17.051
REMARK INTER + INTRA:          -4.456
REMARK INTER:                  -4.293
REMARK INTRA:                  -0.163
REMARK UNBOUND:                -0.165
REMARK  Name = ZINC000038540829
REMARK                            x       y       z     vdW  Elec       q    Type
REMARK                         _______ _______ _______ _____ _____    ______ ____
ROOT
ATOM      1  C   LIG    1       33.035 -21.537  -0.106  0.00  0.00    +0.230 C 
ATOM      2  C   LIG    1       31.555 -21.459   0.165  0.00  0.00    +0.470 A 
ATOM      3  N   LIG    1       30.943 -20.311   0.041  0.00  0.00    -0.530 NA
ATOM      4  C   LIG    1       29.632 -20.192   0.268  0.00  0.00    +0.320 A 
ATOM      5  C   LIG    1       28.904 -21.284   0.641  0.00  0.00    -0.230 A 
ATOM      6  C   LIG    1       29.565 -22.521   0.774  0.00  0.00    +0.550 A 
ATOM      7  O   LIG    1       28.952 -23.522   1.103  0.00  0.00    -0.460 OA
ATOM      8 CL   LIG    1       28.855 -18.649   0.092  0.00  0.00    +0.070 Cl
ATOM      9  N   LIG    1       30.891 -22.575   0.524  0.00  0.00    -0.620 N 
ATOM     10  H   LIG    1       31.366 -23.417   0.609  0.00  0.00    +0.440 HD
ENDROOT
BRANCH   5  11
ATOM     11  N   LIG    1       27.451 -21.172   0.897  0.00  0.00    +0.050 N 
ATOM     12  O   LIG    1       26.656 -21.381  -0.003  0.00  0.00    -0.130 OA
ATOM     13  O   LIG    1       27.049 -20.872   2.007  0.00  0.00    -0.160 OA
ENDBRANCH   5  11
TORSDOF 1
ENDMDL
