MODEL 1
REMARK VINA RESULT:    -6.236      0.000      0.000
REMARK INTER + INTRA:          -7.068
REMARK INTER:                  -6.783
REMARK INTRA:                  -0.285
REMARK UNBOUND:                -0.285
REMARK  Name = ZINC000039133579
REMARK                            x       y       z     vdW  Elec       q    Type
REMARK                         _______ _______ _______ _____ _____    ______ ____
ROOT
ATOM      1  C   LIG    1       29.980 -18.190   4.384  0.00  0.00    +0.120 C 
ATOM      2  C   LIG    1       29.127 -18.926   3.383  0.00  0.00    -0.020 A 
ATOM      3  C   LIG    1       28.362 -20.003   3.788  0.00  0.00    +0.020 A 
ATOM      4  C   LIG    1       27.578 -20.681   2.872  0.00  0.00    +0.120 A 
ATOM      5  C   LIG    1       27.558 -20.282   1.550  0.00  0.00    -0.080 A 
ATOM      6  C   LIG    1       28.326 -19.201   1.140  0.00  0.00    +0.180 A 
ATOM      7  C   LIG    1       29.106 -18.520   2.063  0.00  0.00    -0.120 A 
ATOM      8  C   LIG    1       29.940 -17.344   1.623  0.00  0.00    +0.120 C 
ENDROOT
BRANCH   5   9
ATOM      9  N   LIG    1       26.719 -21.008   0.570  0.00  0.00    +0.030 N 
ATOM     10  O   LIG    1       27.219 -21.450  -0.450  0.00  0.00    -0.140 OA
ATOM     11  O   LIG    1       25.530 -21.164   0.783  0.00  0.00    -0.170 OA
ENDBRANCH   5   9
BRANCH   6  12
ATOM     12  O   LIG    1       28.308 -18.807  -0.159  0.00  0.00    -0.470 OA
ATOM     13  H   LIG    1       27.608 -18.172  -0.368  0.00  0.00    +0.410 HD
ENDBRANCH   6  12
TORSDOF 2
ENDMDL
MODEL 2
REMARK VINA RESULT:    -5.067     23.640     24.270
REMARK INTER + INTRA:          -5.796
REMARK INTER:                  -5.512
REMARK INTRA:                  -0.284
REMARK UNBOUND:                -0.285
REMARK  Name = ZINC000039133579
REMARK                            x       y       z     vdW  Elec       q    Type
REMARK                         _______ _______ _______ _____ _____    ______ ____
ROOT
ATOM      1  C   LIG    1       14.889 -14.335  22.035  0.00  0.00    +0.120 C 
ATOM      2  C   LIG    1       14.886 -13.038  21.268  0.00  0.00    -0.020 A 
ATOM      3  C   LIG    1       13.704 -12.551  20.741  0.00  0.00    +0.020 A 
ATOM      4  C   LIG    1       13.697 -11.360  20.037  0.00  0.00    +0.120 A 
ATOM      5  C   LIG    1       14.871 -10.655  19.858  0.00  0.00    -0.080 A 
ATOM      6  C   LIG    1       16.059 -11.142  20.386  0.00  0.00    +0.180 A 
ATOM      7  C   LIG    1       16.062 -12.332  21.097  0.00  0.00    -0.120 A 
ATOM      8  C   LIG    1       17.349 -12.864  21.673  0.00  0.00    +0.120 C 
ENDROOT
BRANCH   5   9
ATOM      9  N   LIG    1       14.863  -9.382  19.104  0.00  0.00    +0.030 N 
ATOM     10  O   LIG    1       14.608  -9.381  17.913  0.00  0.00    -0.140 OA
ATOM     11  O   LIG    1       15.110  -8.334  19.674  0.00  0.00    -0.170 OA
ENDBRANCH   5   9
BRANCH   6  12
ATOM     12  O   LIG    1       17.215 -10.450  20.213  0.00  0.00    -0.470 OA
ATOM     13  H   LIG    1       17.601 -10.543  19.330  0.00  0.00    +0.410 HD
ENDBRANCH   6  12
TORSDOF 2
ENDMDL
MODEL 3
REMARK VINA RESULT:    -4.953     21.783     22.735
REMARK INTER + INTRA:          -5.672
REMARK INTER:                  -5.384
REMARK INTRA:                  -0.288
REMARK UNBOUND:                -0.285
REMARK  Name = ZINC000039133579
REMARK                            x       y       z     vdW  Elec       q    Type
REMARK                         _______ _______ _______ _____ _____    ______ ____
ROOT
ATOM      1  C   LIG    1       25.171  -0.028   9.557  0.00  0.00    +0.120 C 
ATOM      2  C   LIG    1       24.437  -0.327  10.839  0.00  0.00    -0.020 A 
ATOM      3  C   LIG    1       23.393  -1.233  10.843  0.00  0.00    +0.020 A 
ATOM      4  C   LIG    1       22.718  -1.509  12.018  0.00  0.00    +0.120 A 
ATOM      5  C   LIG    1       23.086  -0.880  13.191  0.00  0.00    -0.080 A 
ATOM      6  C   LIG    1       24.133   0.030  13.191  0.00  0.00    +0.180 A 
ATOM      7  C   LIG    1       24.813   0.300  12.012  0.00  0.00    -0.120 A 
ATOM      8  C   LIG    1       25.953   1.286  12.007  0.00  0.00    +0.120 C 
ENDROOT
BRANCH   5   9
ATOM      9  N   LIG    1       22.362  -1.176  14.448  0.00  0.00    +0.030 N 
ATOM     10  O   LIG    1       21.732  -0.297  15.009  0.00  0.00    -0.140 OA
ATOM     11  O   LIG    1       22.396  -2.298  14.921  0.00  0.00    -0.170 OA
ENDBRANCH   5   9
BRANCH   6  12
ATOM     12  O   LIG    1       24.498   0.649  14.344  0.00  0.00    -0.470 OA
ATOM     13  H   LIG    1       25.309   1.171  14.270  0.00  0.00    +0.410 HD
ENDBRANCH   6  12
TORSDOF 2
ENDMDL
MODEL 4
REMARK VINA RESULT:    -4.834     14.988     16.279
REMARK INTER + INTRA:          -5.543
REMARK INTER:                  -5.359
REMARK INTRA:                  -0.184
REMARK UNBOUND:                -0.285
REMARK  Name = ZINC000039133579
REMARK                            x       y       z     vdW  Elec       q    Type
REMARK                         _______ _______ _______ _____ _____    ______ ____
ROOT
ATOM      1  C   LIG    1       24.619 -21.096  18.725  0.00  0.00    +0.120 C 
ATOM      2  C   LIG    1       23.745 -21.723  17.669  0.00  0.00    -0.020 A 
ATOM      3  C   LIG    1       24.292 -22.103  16.457  0.00  0.00    +0.020 A 
ATOM      4  C   LIG    1       23.493 -22.678  15.486  0.00  0.00    +0.120 A 
ATOM      5  C   LIG    1       22.147 -22.875  15.724  0.00  0.00    -0.080 A 
ATOM      6  C   LIG    1       21.596 -22.494  16.940  0.00  0.00    +0.180 A 
ATOM      7  C   LIG    1       22.400 -21.923  17.914  0.00  0.00    -0.120 A 
ATOM      8  C   LIG    1       21.806 -21.509  19.236  0.00  0.00    +0.120 C 
ENDROOT
BRANCH   5   9
ATOM      9  N   LIG    1       21.293 -23.490  14.684  0.00  0.00    +0.030 N 
ATOM     10  O   LIG    1       20.364 -24.210  15.006  0.00  0.00    -0.140 OA
ATOM     11  O   LIG    1       21.519 -23.277  13.506  0.00  0.00    -0.170 OA
ENDBRANCH   5   9
BRANCH   6  12
ATOM     12  O   LIG    1       20.272 -22.687  17.177  0.00  0.00    -0.470 OA
ATOM     13  H   LIG    1       20.010 -22.532  18.095  0.00  0.00    +0.410 HD
ENDBRANCH   6  12
TORSDOF 2
ENDMDL
MODEL 5
REMARK VINA RESULT:    -4.768     24.726     25.161
REMARK INTER + INTRA:          -5.471
REMARK INTER:                  -5.182
REMARK INTRA:                  -0.289
REMARK UNBOUND:                -0.285
REMARK  Name = ZINC000039133579
REMARK                            x       y       z     vdW  Elec       q    Type
REMARK                         _______ _______ _______ _____ _____    ______ ____
ROOT
ATOM      1  C   LIG    1       11.540   0.048  13.924  0.00  0.00    +0.120 C 
ATOM      2  C   LIG    1       12.006  -1.220  13.257  0.00  0.00    -0.020 A 
ATOM      3  C   LIG    1       11.425  -2.429  13.590  0.00  0.00    +0.020 A 
ATOM      4  C   LIG    1       11.851  -3.595  12.980  0.00  0.00    +0.120 A 
ATOM      5  C   LIG    1       12.859  -3.554  12.036  0.00  0.00    -0.080 A 
ATOM      6  C   LIG    1       13.444  -2.342  11.700  0.00  0.00    +0.180 A 
ATOM      7  C   LIG    1       13.011  -1.173  12.309  0.00  0.00    -0.120 A 
ATOM      8  C   LIG    1       13.643   0.146  11.946  0.00  0.00    +0.120 C 
ENDROOT
BRANCH   5   9
ATOM      9  N   LIG    1       13.314  -4.803  11.385  0.00  0.00    +0.030 N 
ATOM     10  O   LIG    1       13.175  -4.948  10.183  0.00  0.00    -0.140 OA
ATOM     11  O   LIG    1       13.827  -5.685  12.050  0.00  0.00    -0.170 OA
ENDBRANCH   5   9
BRANCH   6  12
ATOM     12  O   LIG    1       14.435  -2.299  10.772  0.00  0.00    -0.470 OA
ATOM     13  H   LIG    1       15.222  -2.808  11.013  0.00  0.00    +0.410 HD
ENDBRANCH   6  12
TORSDOF 2
ENDMDL
MODEL 6
REMARK VINA RESULT:    -4.764      1.779      2.592
REMARK INTER + INTRA:          -5.466
REMARK INTER:                  -5.181
REMARK INTRA:                  -0.286
REMARK UNBOUND:                -0.285
REMARK  Name = ZINC000039133579
REMARK                            x       y       z     vdW  Elec       q    Type
REMARK                         _______ _______ _______ _____ _____    ______ ____
ROOT
ATOM      1  C   LIG    1       31.341 -19.299   3.718  0.00  0.00    +0.120 C 
ATOM      2  C   LIG    1       30.182 -19.777   2.882  0.00  0.00    -0.020 A 
ATOM      3  C   LIG    1       29.194 -18.889   2.499  0.00  0.00    +0.020 A 
ATOM      4  C   LIG    1       28.129 -19.325   1.732  0.00  0.00    +0.120 A 
ATOM      5  C   LIG    1       28.051 -20.648   1.345  0.00  0.00    -0.080 A 
ATOM      6  C   LIG    1       29.041 -21.542   1.727  0.00  0.00    +0.180 A 
ATOM      7  C   LIG    1       30.111 -21.101   2.492  0.00  0.00    -0.120 A 
ATOM      8  C   LIG    1       31.190 -22.068   2.908  0.00  0.00    +0.120 C 
ENDROOT
BRANCH   5   9
ATOM      9  N   LIG    1       26.910 -21.113   0.524  0.00  0.00    +0.030 N 
ATOM     10  O   LIG    1       25.784 -21.109   0.988  0.00  0.00    -0.140 OA
ATOM     11  O   LIG    1       27.098 -21.501  -0.616  0.00  0.00    -0.170 OA
ENDBRANCH   5   9
BRANCH   6  12
ATOM     12  O   LIG    1       28.966 -22.844   1.348  0.00  0.00    -0.470 OA
ATOM     13  H   LIG    1       28.699 -22.971   0.427  0.00  0.00    +0.410 HD
ENDBRANCH   6  12
TORSDOF 2
ENDMDL
MODEL 7
REMARK VINA RESULT:    -4.729     21.958     23.200
REMARK INTER + INTRA:          -5.429
REMARK INTER:                  -5.139
REMARK INTRA:                  -0.290
REMARK UNBOUND:                -0.285
REMARK  Name = ZINC000039133579
REMARK                            x       y       z     vdW  Elec       q    Type
REMARK                         _______ _______ _______ _____ _____    ______ ____
ROOT
ATOM      1  C   LIG    1       23.689  -0.923   9.707  0.00  0.00    +0.120 C 
ATOM      2  C   LIG    1       24.182  -0.489  11.064  0.00  0.00    -0.020 A 
ATOM      3  C   LIG    1       25.236   0.399  11.164  0.00  0.00    +0.020 A 
ATOM      4  C   LIG    1       25.691   0.799  12.408  0.00  0.00    +0.120 A 
ATOM      5  C   LIG    1       25.093   0.311  13.553  0.00  0.00    -0.080 A 
ATOM      6  C   LIG    1       24.035  -0.581  13.455  0.00  0.00    +0.180 A 
ATOM      7  C   LIG    1       23.576  -0.975  12.207  0.00  0.00    -0.120 A 
ATOM      8  C   LIG    1       22.426  -1.943  12.097  0.00  0.00    +0.120 C 
ENDROOT
BRANCH   5   9
ATOM      9  N   LIG    1       25.581   0.739  14.883  0.00  0.00    +0.030 N 
ATOM     10  O   LIG    1       24.828   1.310  15.653  0.00  0.00    -0.140 OA
ATOM     11  O   LIG    1       26.734   0.521  15.208  0.00  0.00    -0.170 OA
ENDBRANCH   5   9
BRANCH   6  12
ATOM     12  O   LIG    1       23.444  -1.062  14.580  0.00  0.00    -0.470 OA
ATOM     13  H   LIG    1       22.543  -0.738  14.721  0.00  0.00    +0.410 HD
ENDBRANCH   6  12
TORSDOF 2
ENDMDL
MODEL 8
REMARK VINA RESULT:    -4.712     21.053     21.915
REMARK INTER + INTRA:          -5.410
REMARK INTER:                  -5.144
REMARK INTRA:                  -0.267
REMARK UNBOUND:                -0.285
REMARK  Name = ZINC000039133579
REMARK                            x       y       z     vdW  Elec       q    Type
REMARK                         _______ _______ _______ _____ _____    ______ ____
ROOT
ATOM      1  C   LIG    1       24.032  -0.300  13.851  0.00  0.00    +0.120 C 
ATOM      2  C   LIG    1       24.486  -0.066  12.433  0.00  0.00    -0.020 A 
ATOM      3  C   LIG    1       25.517   0.817  12.175  0.00  0.00    +0.020 A 
ATOM      4  C   LIG    1       25.936   1.034  10.875  0.00  0.00    +0.120 A 
ATOM      5  C   LIG    1       25.325   0.367   9.831  0.00  0.00    -0.080 A 
ATOM      6  C   LIG    1       24.290  -0.521  10.087  0.00  0.00    +0.180 A 
ATOM      7  C   LIG    1       23.876  -0.741  11.392  0.00  0.00    -0.120 A 
ATOM      8  C   LIG    1       22.753  -1.705  11.675  0.00  0.00    +0.120 C 
ENDROOT
BRANCH   5   9
ATOM      9  N   LIG    1       25.774   0.600   8.440  0.00  0.00    +0.030 N 
ATOM     10  O   LIG    1       26.964   0.606   8.177  0.00  0.00    -0.140 OA
ATOM     11  O   LIG    1       24.955   0.786   7.558  0.00  0.00    -0.170 OA
ENDBRANCH   5   9
BRANCH   6  12
ATOM     12  O   LIG    1       23.688  -1.179   9.062  0.00  0.00    -0.470 OA
ATOM     13  H   LIG    1       24.189  -1.162   8.235  0.00  0.00    +0.410 HD
ENDBRANCH   6  12
TORSDOF 2
ENDMDL
MODEL 9
REMARK VINA RESULT:    -4.684     24.360     25.199
REMARK INTER + INTRA:          -5.380
REMARK INTER:                  -5.100
REMARK INTRA:                  -0.280
REMARK UNBOUND:                -0.285
REMARK  Name = ZINC000039133579
REMARK                            x       y       z     vdW  Elec       q    Type
REMARK                         _______ _______ _______ _____ _____    ______ ____
ROOT
ATOM      1  C   LIG    1       17.119 -13.298  21.512  0.00  0.00    +0.120 C 
ATOM      2  C   LIG    1       16.019 -12.272  21.417  0.00  0.00    -0.020 A 
ATOM      3  C   LIG    1       14.834 -12.464  22.101  0.00  0.00    +0.020 A 
ATOM      4  C   LIG    1       13.823 -11.525  22.015  0.00  0.00    +0.120 A 
ATOM      5  C   LIG    1       13.995 -10.391  21.246  0.00  0.00    -0.080 A 
ATOM      6  C   LIG    1       15.184 -10.195  20.558  0.00  0.00    +0.180 A 
ATOM      7  C   LIG    1       16.199 -11.136  20.650  0.00  0.00    -0.120 A 
ATOM      8  C   LIG    1       17.492 -10.927  19.905  0.00  0.00    +0.120 C 
ENDROOT
BRANCH   5   9
ATOM      9  N   LIG    1       12.912  -9.386  21.155  0.00  0.00    +0.030 N 
ATOM     10  O   LIG    1       13.055  -8.289  21.666  0.00  0.00    -0.140 OA
ATOM     11  O   LIG    1       11.879  -9.656  20.570  0.00  0.00    -0.170 OA
ENDBRANCH   5   9
BRANCH   6  12
ATOM     12  O   LIG    1       15.357  -9.080  19.800  0.00  0.00    -0.470 OA
ATOM     13  H   LIG    1       14.575  -8.826  19.291  0.00  0.00    +0.410 HD
ENDBRANCH   6  12
TORSDOF 2
ENDMDL
