MODEL 1
REMARK VINA RESULT:    -5.513      0.000      0.000
REMARK INTER + INTRA:          -6.628
REMARK INTER:                  -6.319
REMARK INTRA:                  -0.309
REMARK UNBOUND:                -0.309
REMARK  Name = ZINC000031429966
REMARK                            x       y       z     vdW  Elec       q    Type
REMARK                         _______ _______ _______ _____ _____    ______ ____
ROOT
ATOM      1  C   LIG    1       28.344 -19.147   1.189  0.00  0.00    +0.290 A 
ATOM      2  C   LIG    1       29.135 -18.459   2.098  0.00  0.00    -0.080 A 
ATOM      3  C   LIG    1       29.179 -18.866   3.422  0.00  0.00    +0.210 A 
ATOM      4  C   LIG    1       28.432 -19.960   3.836  0.00  0.00    -0.050 A 
ATOM      5  C   LIG    1       27.645 -20.644   2.928  0.00  0.00    +0.150 A 
ATOM      6  C   LIG    1       27.594 -20.238   1.610  0.00  0.00    -0.130 A 
ENDROOT
BRANCH   1   8
ATOM      7  C   LIG    1       28.788 -17.411  -0.524  0.00  0.00    +0.290 C 
ATOM      8  N   LIG    1       28.297 -18.739  -0.146  0.00  0.00    -0.730 N 
ATOM      9  H   LIG    1       27.939 -19.334  -0.823  0.00  0.00    +0.410 HD
ENDBRANCH   1   8
BRANCH   6  10
ATOM     10  N   LIG    1       26.750 -20.973   0.642  0.00  0.00    +0.040 N 
ATOM     11  O   LIG    1       25.573 -21.167   0.884  0.00  0.00    -0.150 OA
ATOM     12  O   LIG    1       27.233 -21.385  -0.398  0.00  0.00    -0.180 OA
ENDBRANCH   6  10
BRANCH   3  13
ATOM     13  O   LIG    1       29.953 -18.195   4.316  0.00  0.00    -0.490 OA
ATOM     14  H   LIG    1       30.845 -18.003   3.996  0.00  0.00    +0.410 HD
ENDBRANCH   3  13
TORSDOF 3
ENDMDL
MODEL 2
REMARK VINA RESULT:    -5.111      1.432      3.649
REMARK INTER + INTRA:          -6.167
REMARK INTER:                  -5.809
REMARK INTRA:                  -0.358
REMARK UNBOUND:                -0.309
REMARK  Name = ZINC000031429966
REMARK                            x       y       z     vdW  Elec       q    Type
REMARK                         _______ _______ _______ _____ _____    ______ ____
ROOT
ATOM      1  C   LIG    1       28.434 -19.362   0.927  0.00  0.00    +0.290 A 
ATOM      2  C   LIG    1       27.308 -19.995   0.421  0.00  0.00    -0.080 A 
ATOM      3  C   LIG    1       26.493 -20.733   1.264  0.00  0.00    +0.210 A 
ATOM      4  C   LIG    1       26.805 -20.839   2.612  0.00  0.00    -0.050 A 
ATOM      5  C   LIG    1       27.928 -20.207   3.115  0.00  0.00    +0.150 A 
ATOM      6  C   LIG    1       28.745 -19.475   2.276  0.00  0.00    -0.130 A 
ENDROOT
BRANCH   1   8
ATOM      7  C   LIG    1       28.769 -17.363  -0.499  0.00  0.00    +0.290 C 
ATOM      8  N   LIG    1       29.257 -18.617   0.079  0.00  0.00    -0.730 N 
ATOM      9  H   LIG    1       30.152 -18.930  -0.127  0.00  0.00    +0.410 HD
ENDBRANCH   1   8
BRANCH   6  10
ATOM     10  N   LIG    1       29.945 -18.800   2.818  0.00  0.00    +0.040 N 
ATOM     11  O   LIG    1       29.824 -17.851   3.570  0.00  0.00    -0.150 OA
ATOM     12  O   LIG    1       31.057 -19.194   2.511  0.00  0.00    -0.180 OA
ENDBRANCH   6  10
BRANCH   3  13
ATOM     13  O   LIG    1       25.389 -21.355   0.772  0.00  0.00    -0.490 OA
ATOM     14  H   LIG    1       25.583 -22.148   0.254  0.00  0.00    +0.410 HD
ENDBRANCH   3  13
TORSDOF 3
ENDMDL
MODEL 3
REMARK VINA RESULT:    -5.043     16.498     17.892
REMARK INTER + INTRA:          -6.089
REMARK INTER:                  -5.745
REMARK INTRA:                  -0.344
REMARK UNBOUND:                -0.309
REMARK  Name = ZINC000031429966
REMARK                            x       y       z     vdW  Elec       q    Type
REMARK                         _______ _______ _______ _____ _____    ______ ____
ROOT
ATOM      1  C   LIG    1       20.756 -24.251  17.614  0.00  0.00    +0.290 A 
ATOM      2  C   LIG    1       20.897 -23.794  18.917  0.00  0.00    -0.080 A 
ATOM      3  C   LIG    1       20.962 -22.432  19.168  0.00  0.00    +0.210 A 
ATOM      4  C   LIG    1       20.886 -21.529  18.117  0.00  0.00    -0.050 A 
ATOM      5  C   LIG    1       20.745 -21.987  16.820  0.00  0.00    +0.150 A 
ATOM      6  C   LIG    1       20.685 -23.342  16.565  0.00  0.00    -0.130 A 
ENDROOT
BRANCH   1   8
ATOM      7  C   LIG    1       21.796 -26.495  17.756  0.00  0.00    +0.290 C 
ATOM      8  N   LIG    1       20.690 -25.622  17.358  0.00  0.00    -0.730 N 
ATOM      9  H   LIG    1       19.912 -25.996  16.915  0.00  0.00    +0.410 HD
ENDBRANCH   1   8
BRANCH   6  10
ATOM     10  N   LIG    1       20.535 -23.827  15.176  0.00  0.00    +0.040 N 
ATOM     11  O   LIG    1       21.371 -23.544  14.337  0.00  0.00    -0.150 OA
ATOM     12  O   LIG    1       19.572 -24.510  14.869  0.00  0.00    -0.180 OA
ENDBRANCH   6  10
BRANCH   3  13
ATOM     13  O   LIG    1       21.100 -21.981  20.443  0.00  0.00    -0.490 OA
ATOM     14  H   LIG    1       21.727 -22.491  20.974  0.00  0.00    +0.410 HD
ENDBRANCH   3  13
TORSDOF 3
ENDMDL
MODEL 4
REMARK VINA RESULT:    -5.035      2.099      3.171
REMARK INTER + INTRA:          -6.080
REMARK INTER:                  -5.760
REMARK INTRA:                  -0.320
REMARK UNBOUND:                -0.309
REMARK  Name = ZINC000031429966
REMARK                            x       y       z     vdW  Elec       q    Type
REMARK                         _______ _______ _______ _____ _____    ______ ____
ROOT
ATOM      1  C   LIG    1       28.717 -19.227   2.743  0.00  0.00    +0.290 A 
ATOM      2  C   LIG    1       29.479 -18.120   2.397  0.00  0.00    -0.080 A 
ATOM      3  C   LIG    1       29.511 -17.688   1.081  0.00  0.00    +0.210 A 
ATOM      4  C   LIG    1       28.782 -18.363   0.111  0.00  0.00    -0.050 A 
ATOM      5  C   LIG    1       28.023 -19.465   0.458  0.00  0.00    +0.150 A 
ATOM      6  C   LIG    1       27.994 -19.902   1.768  0.00  0.00    -0.130 A 
ENDROOT
BRANCH   1   8
ATOM      7  C   LIG    1       29.386 -18.910   5.108  0.00  0.00    +0.290 C 
ATOM      8  N   LIG    1       28.683 -19.666   4.068  0.00  0.00    -0.730 N 
ATOM      9  H   LIG    1       28.194 -20.471   4.301  0.00  0.00    +0.410 HD
ENDBRANCH   1   8
BRANCH   6  10
ATOM     10  N   LIG    1       27.180 -21.083   2.134  0.00  0.00    +0.040 N 
ATOM     11  O   LIG    1       27.701 -22.033   2.688  0.00  0.00    -0.150 OA
ATOM     12  O   LIG    1       25.988 -21.104   1.880  0.00  0.00    -0.180 OA
ENDBRANCH   6  10
BRANCH   3  13
ATOM     13  O   LIG    1       30.257 -16.604   0.738  0.00  0.00    -0.490 OA
ATOM     14  H   LIG    1       29.881 -15.761   1.029  0.00  0.00    +0.410 HD
ENDBRANCH   3  13
TORSDOF 3
ENDMDL
MODEL 5
REMARK VINA RESULT:    -4.966      2.403      3.949
REMARK INTER + INTRA:          -6.000
REMARK INTER:                  -5.666
REMARK INTRA:                  -0.334
REMARK UNBOUND:                -0.309
REMARK  Name = ZINC000031429966
REMARK                            x       y       z     vdW  Elec       q    Type
REMARK                         _______ _______ _______ _____ _____    ______ ____
ROOT
ATOM      1  C   LIG    1       28.343 -19.271   1.337  0.00  0.00    +0.290 A 
ATOM      2  C   LIG    1       28.282 -18.536   0.162  0.00  0.00    -0.080 A 
ATOM      3  C   LIG    1       29.055 -17.394   0.021  0.00  0.00    +0.210 A 
ATOM      4  C   LIG    1       29.888 -16.989   1.054  0.00  0.00    -0.050 A 
ATOM      5  C   LIG    1       29.948 -17.723   2.224  0.00  0.00    +0.150 A 
ATOM      6  C   LIG    1       29.175 -18.858   2.371  0.00  0.00    -0.130 A 
ENDROOT
BRANCH   1   8
ATOM      7  C   LIG    1       26.916 -21.020   0.314  0.00  0.00    +0.290 C 
ATOM      8  N   LIG    1       27.565 -20.422   1.483  0.00  0.00    -0.730 N 
ATOM      9  H   LIG    1       27.453 -20.825   2.359  0.00  0.00    +0.410 HD
ENDBRANCH   1   8
BRANCH   6  10
ATOM     10  N   LIG    1       29.242 -19.641   3.625  0.00  0.00    +0.040 N 
ATOM     11  O   LIG    1       29.697 -20.769   3.615  0.00  0.00    -0.150 OA
ATOM     12  O   LIG    1       28.839 -19.156   4.668  0.00  0.00    -0.180 OA
ENDBRANCH   6  10
BRANCH   3  13
ATOM     13  O   LIG    1       28.998 -16.671  -1.130  0.00  0.00    -0.490 OA
ATOM     14  H   LIG    1       29.327 -15.766  -1.041  0.00  0.00    +0.410 HD
ENDBRANCH   3  13
TORSDOF 3
ENDMDL
MODEL 6
REMARK VINA RESULT:    -4.957      2.260      4.339
REMARK INTER + INTRA:          -5.990
REMARK INTER:                  -5.661
REMARK INTRA:                  -0.330
REMARK UNBOUND:                -0.309
REMARK  Name = ZINC000031429966
REMARK                            x       y       z     vdW  Elec       q    Type
REMARK                         _______ _______ _______ _____ _____    ______ ____
ROOT
ATOM      1  C   LIG    1       29.055 -18.945   2.861  0.00  0.00    +0.290 A 
ATOM      2  C   LIG    1       28.149 -19.972   3.087  0.00  0.00    -0.080 A 
ATOM      3  C   LIG    1       27.403 -20.479   2.035  0.00  0.00    +0.210 A 
ATOM      4  C   LIG    1       27.563 -19.960   0.758  0.00  0.00    -0.050 A 
ATOM      5  C   LIG    1       28.467 -18.938   0.534  0.00  0.00    +0.150 A 
ATOM      6  C   LIG    1       29.208 -18.426   1.581  0.00  0.00    -0.130 A 
ENDROOT
BRANCH   1   8
ATOM      7  C   LIG    1       29.468 -18.785   5.299  0.00  0.00    +0.290 C 
ATOM      8  N   LIG    1       29.807 -18.431   3.919  0.00  0.00    -0.730 N 
ATOM      9  H   LIG    1       30.554 -17.839   3.740  0.00  0.00    +0.410 HD
ENDBRANCH   1   8
BRANCH   6  10
ATOM     10  N   LIG    1       30.174 -17.332   1.337  0.00  0.00    +0.040 N 
ATOM     11  O   LIG    1       29.781 -16.249   0.942  0.00  0.00    -0.150 OA
ATOM     12  O   LIG    1       31.363 -17.514   1.531  0.00  0.00    -0.180 OA
ENDBRANCH   6  10
BRANCH   3  13
ATOM     13  O   LIG    1       26.514 -21.485   2.253  0.00  0.00    -0.490 OA
ATOM     14  H   LIG    1       25.850 -21.283   2.927  0.00  0.00    +0.410 HD
ENDBRANCH   3  13
TORSDOF 3
ENDMDL
MODEL 7
REMARK VINA RESULT:    -4.926     15.221     16.707
REMARK INTER + INTRA:          -5.955
REMARK INTER:                  -5.574
REMARK INTRA:                  -0.381
REMARK UNBOUND:                -0.309
REMARK  Name = ZINC000031429966
REMARK                            x       y       z     vdW  Elec       q    Type
REMARK                         _______ _______ _______ _____ _____    ______ ____
ROOT
ATOM      1  C   LIG    1       22.639 -22.904  16.580  0.00  0.00    +0.290 A 
ATOM      2  C   LIG    1       23.137 -23.299  15.347  0.00  0.00    -0.080 A 
ATOM      3  C   LIG    1       22.282 -23.418  14.263  0.00  0.00    +0.210 A 
ATOM      4  C   LIG    1       20.930 -23.143  14.412  0.00  0.00    -0.050 A 
ATOM      5  C   LIG    1       20.436 -22.750  15.642  0.00  0.00    +0.150 A 
ATOM      6  C   LIG    1       21.283 -22.635  16.726  0.00  0.00    -0.130 A 
ENDROOT
BRANCH   1   8
ATOM      7  C   LIG    1       24.473 -21.692  17.723  0.00  0.00    +0.290 C 
ATOM      8  N   LIG    1       23.497 -22.784  17.675  0.00  0.00    -0.730 N 
ATOM      9  H   LIG    1       23.449 -23.423  18.403  0.00  0.00    +0.410 HD
ENDBRANCH   1   8
BRANCH   6  10
ATOM     10  N   LIG    1       20.750 -22.214  18.040  0.00  0.00    +0.040 N 
ATOM     11  O   LIG    1       20.741 -21.036  18.345  0.00  0.00    -0.150 OA
ATOM     12  O   LIG    1       20.320 -23.047  18.819  0.00  0.00    -0.180 OA
ENDBRANCH   6  10
BRANCH   3  13
ATOM     13  O   LIG    1       22.767 -23.805  13.052  0.00  0.00    -0.490 OA
ATOM     14  H   LIG    1       22.264 -24.520  12.638  0.00  0.00    +0.410 HD
ENDBRANCH   3  13
TORSDOF 3
ENDMDL
MODEL 8
REMARK VINA RESULT:    -4.829     14.825     16.060
REMARK INTER + INTRA:          -5.843
REMARK INTER:                  -5.475
REMARK INTRA:                  -0.369
REMARK UNBOUND:                -0.309
REMARK  Name = ZINC000031429966
REMARK                            x       y       z     vdW  Elec       q    Type
REMARK                         _______ _______ _______ _____ _____    ______ ____
ROOT
ATOM      1  C   LIG    1       22.646 -22.785  15.868  0.00  0.00    +0.290 A 
ATOM      2  C   LIG    1       23.478 -22.007  16.662  0.00  0.00    -0.080 A 
ATOM      3  C   LIG    1       22.950 -21.303  17.732  0.00  0.00    +0.210 A 
ATOM      4  C   LIG    1       21.592 -21.377  18.010  0.00  0.00    -0.050 A 
ATOM      5  C   LIG    1       20.766 -22.154  17.219  0.00  0.00    +0.150 A 
ATOM      6  C   LIG    1       21.287 -22.852  16.147  0.00  0.00    -0.130 A 
ENDROOT
BRANCH   1   8
ATOM      7  C   LIG    1       23.545 -22.790  13.559  0.00  0.00    +0.290 C 
ATOM      8  N   LIG    1       23.174 -23.495  14.788  0.00  0.00    -0.730 N 
ATOM      9  H   LIG    1       23.294 -24.456  14.851  0.00  0.00    +0.410 HD
ENDBRANCH   1   8
BRANCH   6  10
ATOM     10  N   LIG    1       20.398 -23.681  15.304  0.00  0.00    +0.040 N 
ATOM     11  O   LIG    1       19.929 -24.715  15.745  0.00  0.00    -0.150 OA
ATOM     12  O   LIG    1       20.136 -23.331  14.166  0.00  0.00    -0.180 OA
ENDBRANCH   6  10
BRANCH   3  13
ATOM     13  O   LIG    1       23.762 -20.539  18.511  0.00  0.00    -0.490 OA
ATOM     14  H   LIG    1       23.935 -20.916  19.385  0.00  0.00    +0.410 HD
ENDBRANCH   3  13
TORSDOF 3
ENDMDL
MODEL 9
REMARK VINA RESULT:    -4.825     23.764     24.876
REMARK INTER + INTRA:          -5.839
REMARK INTER:                  -5.476
REMARK INTRA:                  -0.363
REMARK UNBOUND:                -0.309
REMARK  Name = ZINC000031429966
REMARK                            x       y       z     vdW  Elec       q    Type
REMARK                         _______ _______ _______ _____ _____    ______ ____
ROOT
ATOM      1  C   LIG    1       14.539 -10.977  21.119  0.00  0.00    +0.290 A 
ATOM      2  C   LIG    1       14.834 -11.992  22.019  0.00  0.00    -0.080 A 
ATOM      3  C   LIG    1       16.079 -12.600  21.990  0.00  0.00    +0.210 A 
ATOM      4  C   LIG    1       17.028 -12.192  21.063  0.00  0.00    -0.050 A 
ATOM      5  C   LIG    1       16.733 -11.180  20.169  0.00  0.00    +0.150 A 
ATOM      6  C   LIG    1       15.491 -10.577  20.190  0.00  0.00    -0.130 A 
ENDROOT
BRANCH   1   8
ATOM      7  C   LIG    1       12.977  -9.370  22.177  0.00  0.00    +0.290 C 
ATOM      8  N   LIG    1       13.285 -10.363  21.145  0.00  0.00    -0.730 N 
ATOM      9  H   LIG    1       12.617 -10.595  20.481  0.00  0.00    +0.410 HD
ENDBRANCH   1   8
BRANCH   6  10
ATOM     10  N   LIG    1       15.179  -9.494  19.230  0.00  0.00    +0.040 N 
ATOM     11  O   LIG    1       14.990  -9.756  18.057  0.00  0.00    -0.150 OA
ATOM     12  O   LIG    1       15.113  -8.340  19.615  0.00  0.00    -0.180 OA
ENDBRANCH   6  10
BRANCH   3  13
ATOM     13  O   LIG    1       16.372 -13.594  22.870  0.00  0.00    -0.490 OA
ATOM     14  H   LIG    1       17.276 -13.929  22.798  0.00  0.00    +0.410 HD
ENDBRANCH   3  13
TORSDOF 3
ENDMDL
