MODEL 1
REMARK VINA RESULT:    -4.747      0.000      0.000
REMARK INTER + INTRA:          -6.847
REMARK INTER:                  -6.412
REMARK INTRA:                  -0.434
REMARK UNBOUND:                -0.434
REMARK  Name = ZINC000842293877
REMARK                            x       y       z     vdW  Elec       q    Type
REMARK                         _______ _______ _______ _____ _____    ______ ____
ROOT
ATOM      1  C   LIG    1       29.184 -17.752   0.075  0.00  0.00    +0.500 C 
ATOM      2  O   LIG    1       29.237 -17.348  -1.062  0.00  0.00    -0.490 OA
ENDROOT
BRANCH   1   3
ATOM      3  C   LIG    1       28.304 -18.927   0.417  0.00  0.00    +0.030 C 
ATOM      4  C   LIG    1       28.362 -19.459   1.851  0.00  0.00    +0.190 C 
ATOM      5  C   LIG    1       28.990 -20.262   0.710  0.00  0.00    +0.130 C 
BRANCH   5   6
ATOM      6  N   LIG    1       28.303 -21.484   0.283  0.00  0.00    +0.010 N 
ATOM      7  O   LIG    1       27.339 -21.413  -0.457  0.00  0.00    -0.140 OA
ATOM      8  O   LIG    1       28.697 -22.570   0.669  0.00  0.00    -0.150 OA
ENDBRANCH   5   6
ENDBRANCH   1   3
BRANCH   1   9
ATOM      9  O   LIG    1       29.908 -17.154   1.035  0.00  0.00    -0.340 OA
BRANCH   9  10
ATOM     10  C   LIG    1       31.342 -17.074   0.827  0.00  0.00    +0.260 C 
BRANCH  10  12
ATOM     11  C   LIG    1       31.434 -17.813   3.152  0.00  0.00    -0.010 C 
ATOM     12  C   LIG    1       32.056 -17.684   2.005  0.00  0.00    -0.050 C 
BRANCH  11  14
ATOM     13  C   LIG    1       31.140 -18.703   5.448  0.00  0.00    +0.030 C 
ATOM     14  C   LIG    1       32.147 -18.424   4.331  0.00  0.00    +0.050 C 
ENDBRANCH  11  14
ENDBRANCH  10  12
ENDBRANCH   9  10
ENDBRANCH   1   9
TORSDOF 6
ENDMDL
MODEL 2
REMARK VINA RESULT:    -4.457      2.477      4.298
REMARK INTER + INTRA:          -6.454
REMARK INTER:                  -6.140
REMARK INTRA:                  -0.314
REMARK UNBOUND:                -0.434
REMARK  Name = ZINC000842293877
REMARK                            x       y       z     vdW  Elec       q    Type
REMARK                         _______ _______ _______ _____ _____    ______ ____
ROOT
ATOM      1  C   LIG    1       31.519 -16.961   1.944  0.00  0.00    +0.500 C 
ATOM      2  O   LIG    1       32.656 -16.592   1.763  0.00  0.00    -0.490 OA
ENDROOT
BRANCH   1   3
ATOM      3  C   LIG    1       31.187 -17.820   3.136  0.00  0.00    +0.030 C 
ATOM      4  C   LIG    1       32.326 -18.163   4.099  0.00  0.00    +0.190 C 
ATOM      5  C   LIG    1       31.760 -19.238   3.168  0.00  0.00    +0.130 C 
BRANCH   5   6
ATOM      6  N   LIG    1       30.935 -20.288   3.769  0.00  0.00    +0.010 N 
ATOM      7  O   LIG    1       31.326 -21.442   3.774  0.00  0.00    -0.140 OA
ATOM      8  O   LIG    1       29.859 -20.008   4.265  0.00  0.00    -0.150 OA
ENDBRANCH   5   6
ENDBRANCH   1   3
BRANCH   1   9
ATOM      9  O   LIG    1       30.553 -16.607   1.081  0.00  0.00    -0.340 OA
BRANCH   9  10
ATOM     10  C   LIG    1       30.360 -17.460  -0.078  0.00  0.00    +0.260 C 
BRANCH  10  12
ATOM     11  C   LIG    1       28.841 -19.259   0.568  0.00  0.00    -0.010 C 
ATOM     12  C   LIG    1       28.994 -18.094  -0.012  0.00  0.00    -0.050 C 
BRANCH  11  14
ATOM     13  C   LIG    1       27.286 -20.554   2.001  0.00  0.00    +0.030 C 
ATOM     14  C   LIG    1       27.476 -19.893   0.634  0.00  0.00    +0.050 C 
ENDBRANCH  11  14
ENDBRANCH  10  12
ENDBRANCH   9  10
ENDBRANCH   1   9
TORSDOF 6
ENDMDL
MODEL 3
REMARK VINA RESULT:    -4.385      1.937      2.360
REMARK INTER + INTRA:          -6.357
REMARK INTER:                  -5.876
REMARK INTRA:                  -0.482
REMARK UNBOUND:                -0.434
REMARK  Name = ZINC000842293877
REMARK                            x       y       z     vdW  Elec       q    Type
REMARK                         _______ _______ _______ _____ _____    ______ ____
ROOT
ATOM      1  C   LIG    1       30.406 -20.020   0.695  0.00  0.00    +0.500 C 
ATOM      2  O   LIG    1       30.984 -19.579  -0.270  0.00  0.00    -0.490 OA
ENDROOT
BRANCH   1   3
ATOM      3  C   LIG    1       28.921 -19.813   0.843  0.00  0.00    +0.030 C 
ATOM      4  C   LIG    1       28.412 -19.289   2.188  0.00  0.00    +0.190 C 
ATOM      5  C   LIG    1       28.169 -20.747   1.792  0.00  0.00    +0.130 C 
BRANCH   5   6
ATOM      6  N   LIG    1       26.803 -21.129   1.423  0.00  0.00    +0.010 N 
ATOM      7  O   LIG    1       25.946 -21.228   2.281  0.00  0.00    -0.140 OA
ATOM      8  O   LIG    1       26.526 -21.347   0.257  0.00  0.00    -0.150 OA
ENDBRANCH   5   6
ENDBRANCH   1   3
BRANCH   1   9
ATOM      9  O   LIG    1       31.088 -20.693   1.636  0.00  0.00    -0.340 OA
BRANCH   9  10
ATOM     10  C   LIG    1       32.318 -20.091   2.118  0.00  0.00    +0.260 C 
BRANCH  10  12
ATOM     11  C   LIG    1       31.548 -19.653   4.394  0.00  0.00    -0.010 C 
ATOM     12  C   LIG    1       32.007 -19.166   3.266  0.00  0.00    -0.050 C 
BRANCH  11  14
ATOM     13  C   LIG    1       29.737 -18.427   5.564  0.00  0.00    +0.030 C 
ATOM     14  C   LIG    1       31.238 -18.728   5.542  0.00  0.00    +0.050 C 
ENDBRANCH  11  14
ENDBRANCH  10  12
ENDBRANCH   9  10
ENDBRANCH   1   9
TORSDOF 6
ENDMDL
MODEL 4
REMARK VINA RESULT:    -4.325      2.123      3.448
REMARK INTER + INTRA:          -6.276
REMARK INTER:                  -5.749
REMARK INTRA:                  -0.526
REMARK UNBOUND:                -0.434
REMARK  Name = ZINC000842293877
REMARK                            x       y       z     vdW  Elec       q    Type
REMARK                         _______ _______ _______ _____ _____    ______ ____
ROOT
ATOM      1  C   LIG    1       28.893 -19.505   3.640  0.00  0.00    +0.500 C 
ATOM      2  O   LIG    1       29.269 -19.646   4.779  0.00  0.00    -0.490 OA
ENDROOT
BRANCH   1   3
ATOM      3  C   LIG    1       28.108 -20.600   2.965  0.00  0.00    +0.030 C 
ATOM      4  C   LIG    1       28.899 -21.748   2.334  0.00  0.00    +0.190 C 
ATOM      5  C   LIG    1       28.214 -20.709   1.443  0.00  0.00    +0.130 C 
BRANCH   5   6
ATOM      6  N   LIG    1       27.017 -21.130   0.710  0.00  0.00    +0.010 N 
ATOM      7  O   LIG    1       27.107 -21.484  -0.451  0.00  0.00    -0.140 OA
ATOM      8  O   LIG    1       25.932 -21.126   1.263  0.00  0.00    -0.150 OA
ENDBRANCH   5   6
ENDBRANCH   1   3
BRANCH   1   9
ATOM      9  O   LIG    1       29.176 -18.373   2.975  0.00  0.00    -0.340 OA
BRANCH   9  10
ATOM     10  C   LIG    1       30.550 -17.907   3.021  0.00  0.00    +0.260 C 
BRANCH  10  12
ATOM     11  C   LIG    1       30.853 -18.423   0.653  0.00  0.00    -0.010 C 
ATOM     12  C   LIG    1       31.322 -18.507   1.874  0.00  0.00    -0.050 C 
BRANCH  11  14
ATOM     13  C   LIG    1       31.458 -20.545  -0.479  0.00  0.00    +0.030 C 
ATOM     14  C   LIG    1       31.625 -19.024  -0.493  0.00  0.00    +0.050 C 
ENDBRANCH  11  14
ENDBRANCH  10  12
ENDBRANCH   9  10
ENDBRANCH   1   9
TORSDOF 6
ENDMDL
MODEL 5
REMARK VINA RESULT:    -4.293      2.671      4.517
REMARK INTER + INTRA:          -6.232
REMARK INTER:                  -5.907
REMARK INTRA:                  -0.326
REMARK UNBOUND:                -0.434
REMARK  Name = ZINC000842293877
REMARK                            x       y       z     vdW  Elec       q    Type
REMARK                         _______ _______ _______ _____ _____    ______ ____
ROOT
ATOM      1  C   LIG    1       30.523 -19.856   0.187  0.00  0.00    +0.500 C 
ATOM      2  O   LIG    1       30.512 -21.020  -0.133  0.00  0.00    -0.490 OA
ENDROOT
BRANCH   1   3
ATOM      3  C   LIG    1       31.831 -19.166   0.478  0.00  0.00    +0.030 C 
ATOM      4  C   LIG    1       32.747 -19.803   1.525  0.00  0.00    +0.190 C 
ATOM      5  C   LIG    1       31.994 -18.511   1.850  0.00  0.00    +0.130 C 
BRANCH   5   6
ATOM      6  N   LIG    1       32.774 -17.273   1.920  0.00  0.00    +0.010 N 
ATOM      7  O   LIG    1       33.336 -16.965   2.955  0.00  0.00    -0.140 OA
ATOM      8  O   LIG    1       32.860 -16.552   0.942  0.00  0.00    -0.150 OA
ENDBRANCH   5   6
ENDBRANCH   1   3
BRANCH   1   9
ATOM      9  O   LIG    1       29.369 -19.176   0.287  0.00  0.00    -0.340 OA
BRANCH   9  10
ATOM     10  C   LIG    1       28.404 -19.653   1.261  0.00  0.00    +0.260 C 
BRANCH  10  12
ATOM     11  C   LIG    1       28.723 -19.729   3.681  0.00  0.00    -0.010 C 
ATOM     12  C   LIG    1       28.672 -19.000   2.593  0.00  0.00    -0.050 C 
BRANCH  11  14
ATOM     13  C   LIG    1       30.449 -18.620   5.073  0.00  0.00    +0.030 C 
ATOM     14  C   LIG    1       28.990 -19.076   5.013  0.00  0.00    +0.050 C 
ENDBRANCH  11  14
ENDBRANCH  10  12
ENDBRANCH   9  10
ENDBRANCH   1   9
TORSDOF 6
ENDMDL
MODEL 6
REMARK VINA RESULT:    -4.132     16.238     17.762
REMARK INTER + INTRA:          -6.016
REMARK INTER:                  -5.457
REMARK INTRA:                  -0.559
REMARK UNBOUND:                -0.434
REMARK  Name = ZINC000842293877
REMARK                            x       y       z     vdW  Elec       q    Type
REMARK                         _______ _______ _______ _____ _____    ______ ____
ROOT
ATOM      1  C   LIG    1       21.035 -22.332  18.166  0.00  0.00    +0.500 C 
ATOM      2  O   LIG    1       20.561 -22.608  19.243  0.00  0.00    -0.490 OA
ENDROOT
BRANCH   1   3
ATOM      3  C   LIG    1       20.785 -23.230  16.981  0.00  0.00    +0.030 C 
ATOM      4  C   LIG    1       21.782 -24.363  16.731  0.00  0.00    +0.190 C 
ATOM      5  C   LIG    1       21.763 -23.141  15.809  0.00  0.00    +0.130 C 
BRANCH   5   6
ATOM      6  N   LIG    1       21.221 -23.320  14.460  0.00  0.00    +0.010 N 
ATOM      7  O   LIG    1       20.017 -23.304  14.281  0.00  0.00    -0.140 OA
ATOM      8  O   LIG    1       21.975 -23.483  13.518  0.00  0.00    -0.150 OA
ENDBRANCH   5   6
ENDBRANCH   1   3
BRANCH   1   9
ATOM      9  O   LIG    1       21.786 -21.228  18.025  0.00  0.00    -0.340 OA
BRANCH   9  10
ATOM     10  C   LIG    1       22.984 -21.137  18.839  0.00  0.00    +0.260 C 
BRANCH  10  12
ATOM     11  C   LIG    1       24.728 -22.692  18.128  0.00  0.00    -0.010 C 
ATOM     12  C   LIG    1       24.185 -21.505  18.007  0.00  0.00    -0.050 C 
BRANCH  11  14
ATOM     13  C   LIG    1       25.630 -24.334  16.504  0.00  0.00    +0.030 C 
ATOM     14  C   LIG    1       25.929 -23.059  17.295  0.00  0.00    +0.050 C 
ENDBRANCH  11  14
ENDBRANCH  10  12
ENDBRANCH   9  10
ENDBRANCH   1   9
TORSDOF 6
ENDMDL
MODEL 7
REMARK VINA RESULT:    -4.061     12.536     14.188
REMARK INTER + INTRA:          -5.920
REMARK INTER:                  -5.467
REMARK INTRA:                  -0.452
REMARK UNBOUND:                -0.434
REMARK  Name = ZINC000842293877
REMARK                            x       y       z     vdW  Elec       q    Type
REMARK                         _______ _______ _______ _____ _____    ______ ____
ROOT
ATOM      1  C   LIG    1       26.836  -7.646   0.876  0.00  0.00    +0.500 C 
ATOM      2  O   LIG    1       27.389  -7.714   1.949  0.00  0.00    -0.490 OA
ENDROOT
BRANCH   1   3
ATOM      3  C   LIG    1       25.398  -7.202   0.797  0.00  0.00    +0.030 C 
ATOM      4  C   LIG    1       24.997  -6.315  -0.384  0.00  0.00    +0.190 C 
ATOM      5  C   LIG    1       25.103  -5.718   1.022  0.00  0.00    +0.130 C 
BRANCH   5   6
ATOM      6  N   LIG    1       23.855  -5.373   1.706  0.00  0.00    +0.010 N 
ATOM      7  O   LIG    1       23.476  -6.037   2.653  0.00  0.00    -0.140 OA
ATOM      8  O   LIG    1       23.197  -4.420   1.328  0.00  0.00    -0.150 OA
ENDBRANCH   5   6
ENDBRANCH   1   3
BRANCH   1   9
ATOM      9  O   LIG    1       27.503  -7.966  -0.244  0.00  0.00    -0.340 OA
BRANCH   9  10
ATOM     10  C   LIG    1       28.712  -7.215  -0.530  0.00  0.00    +0.260 C 
BRANCH  10  12
ATOM     11  C   LIG    1       28.280  -5.028  -1.527  0.00  0.00    -0.010 C 
ATOM     12  C   LIG    1       28.473  -6.311  -1.712  0.00  0.00    -0.050 C 
BRANCH  11  14
ATOM     13  C   LIG    1       26.845  -3.215  -2.423  0.00  0.00    +0.030 C 
ATOM     14  C   LIG    1       28.041  -4.125  -2.709  0.00  0.00    +0.050 C 
ENDBRANCH  11  14
ENDBRANCH  10  12
ENDBRANCH   9  10
ENDBRANCH   1   9
TORSDOF 6
ENDMDL
MODEL 8
REMARK VINA RESULT:    -4.061      2.898      5.177
REMARK INTER + INTRA:          -5.919
REMARK INTER:                  -5.347
REMARK INTRA:                  -0.572
REMARK UNBOUND:                -0.434
REMARK  Name = ZINC000842293877
REMARK                            x       y       z     vdW  Elec       q    Type
REMARK                         _______ _______ _______ _____ _____    ______ ____
ROOT
ATOM      1  C   LIG    1       28.123 -22.051   2.585  0.00  0.00    +0.500 C 
ATOM      2  O   LIG    1       27.827 -22.910   3.382  0.00  0.00    -0.490 OA
ENDROOT
BRANCH   1   3
ATOM      3  C   LIG    1       28.068 -20.600   2.987  0.00  0.00    +0.030 C 
ATOM      4  C   LIG    1       28.348 -19.556   1.903  0.00  0.00    +0.190 C 
ATOM      5  C   LIG    1       29.384 -19.819   2.999  0.00  0.00    +0.130 C 
BRANCH   5   6
ATOM      6  N   LIG    1       29.553 -18.793   4.031  0.00  0.00    +0.010 N 
ATOM      7  O   LIG    1       28.998 -18.917   5.108  0.00  0.00    -0.140 OA
ATOM      8  O   LIG    1       30.248 -17.818   3.811  0.00  0.00    -0.150 OA
ENDBRANCH   5   6
ENDBRANCH   1   3
BRANCH   1   9
ATOM      9  O   LIG    1       28.499 -22.390   1.341  0.00  0.00    -0.340 OA
BRANCH   9  10
ATOM     10  C   LIG    1       29.705 -23.187   1.211  0.00  0.00    +0.260 C 
BRANCH  10  12
ATOM     11  C   LIG    1       30.655 -21.518  -0.297  0.00  0.00    -0.010 C 
ATOM     12  C   LIG    1       30.835 -22.315   0.729  0.00  0.00    -0.050 C 
BRANCH  11  14
ATOM     13  C   LIG    1       31.633 -19.242  -0.189  0.00  0.00    +0.030 C 
ATOM     14  C   LIG    1       31.785 -20.645  -0.779  0.00  0.00    +0.050 C 
ENDBRANCH  11  14
ENDBRANCH  10  12
ENDBRANCH   9  10
ENDBRANCH   1   9
TORSDOF 6
ENDMDL
MODEL 9
REMARK VINA RESULT:    -4.009      2.294      3.465
REMARK INTER + INTRA:          -5.849
REMARK INTER:                  -5.575
REMARK INTRA:                  -0.274
REMARK UNBOUND:                -0.434
REMARK  Name = ZINC000842293877
REMARK                            x       y       z     vdW  Elec       q    Type
REMARK                         _______ _______ _______ _____ _____    ______ ____
ROOT
ATOM      1  C   LIG    1       29.408 -19.514   3.932  0.00  0.00    +0.500 C 
ATOM      2  O   LIG    1       29.454 -18.541   4.646  0.00  0.00    -0.490 OA
ENDROOT
BRANCH   1   3
ATOM      3  C   LIG    1       28.309 -19.647   2.910  0.00  0.00    +0.030 C 
ATOM      4  C   LIG    1       27.306 -20.787   3.096  0.00  0.00    +0.190 C 
ATOM      5  C   LIG    1       28.352 -20.861   1.981  0.00  0.00    +0.130 C 
BRANCH   5   6
ATOM      6  N   LIG    1       27.887 -20.676   0.604  0.00  0.00    +0.010 N 
ATOM      7  O   LIG    1       27.974 -19.584   0.073  0.00  0.00    -0.140 OA
ATOM      8  O   LIG    1       27.414 -21.616  -0.010  0.00  0.00    -0.150 OA
ENDBRANCH   5   6
ENDBRANCH   1   3
BRANCH   1   9
ATOM      9  O   LIG    1       30.335 -20.479   4.051  0.00  0.00    -0.340 OA
BRANCH   9  10
ATOM     10  C   LIG    1       31.726 -20.061   4.050  0.00  0.00    +0.260 C 
BRANCH  10  12
ATOM     11  C   LIG    1       32.868 -18.641   2.426  0.00  0.00    -0.010 C 
ATOM     12  C   LIG    1       32.144 -19.711   2.646  0.00  0.00    -0.050 C 
BRANCH  11  14
ATOM     13  C   LIG    1       34.673 -18.877   0.741  0.00  0.00    +0.030 C 
ATOM     14  C   LIG    1       33.287 -18.291   1.021  0.00  0.00    +0.050 C 
ENDBRANCH  11  14
ENDBRANCH  10  12
ENDBRANCH   9  10
ENDBRANCH   1   9
TORSDOF 6
ENDMDL
