MODEL 1
REMARK VINA RESULT:    -5.360      0.000      0.000
REMARK INTER + INTRA:          -7.817
REMARK INTER:                  -6.926
REMARK INTRA:                  -0.890
REMARK UNBOUND:                -0.890
REMARK  Name = ZINC000930183628
REMARK                            x       y       z     vdW  Elec       q    Type
REMARK                         _______ _______ _______ _____ _____    ______ ____
ROOT
ATOM      1  C   LIG    1       30.050 -18.128   3.698  0.00  0.00    +0.010 C 
ATOM      2  C   LIG    1       29.676 -18.165   2.215  0.00  0.00    +0.220 C 
ENDROOT
BRANCH   2   3
ATOM      3  C   LIG    1       28.589 -19.186   1.996  0.00  0.00    -0.070 A 
ATOM      4  C   LIG    1       28.090 -19.905   3.066  0.00  0.00    +0.020 A 
ATOM      5  C   LIG    1       27.093 -20.840   2.866  0.00  0.00    +0.000 A 
ATOM      6  C   LIG    1       26.593 -21.057   1.596  0.00  0.00    +0.000 A 
ATOM      7  C   LIG    1       27.091 -20.338   0.525  0.00  0.00    +0.000 A 
ATOM      8  C   LIG    1       28.085 -19.399   0.726  0.00  0.00    +0.010 A 
ENDBRANCH   2   3
BRANCH   2   9
ATOM      9  N   LIG    1       30.857 -18.530   1.420  0.00  0.00    -0.680 NA
ATOM     10  H   LIG    1       30.588 -18.849   0.501  0.00  0.00    +0.350 HD
BRANCH   9  11
ATOM     11  C   LIG    1       31.665 -19.540   2.113  0.00  0.00    +0.210 C 
BRANCH  11  12
ATOM     12  C   LIG    1       33.147 -19.180   1.987  0.00  0.00    +0.270 C 
BRANCH  12  13
ATOM     13  N   LIG    1       33.283 -17.738   1.767  0.00  0.00    -0.020 N 
ATOM     14  O   LIG    1       33.462 -17.307   0.642  0.00  0.00    -0.160 OA
ATOM     15  O   LIG    1       33.215 -16.969   2.710  0.00  0.00    -0.160 OA
ENDBRANCH  12  13
ENDBRANCH  11  12
ENDBRANCH   9  11
ENDBRANCH   2   9
TORSDOF 5
ENDMDL
MODEL 2
REMARK VINA RESULT:    -5.335      1.519      1.783
REMARK INTER + INTRA:          -7.785
REMARK INTER:                  -6.947
REMARK INTRA:                  -0.837
REMARK UNBOUND:                -0.890
REMARK  Name = ZINC000930183628
REMARK                            x       y       z     vdW  Elec       q    Type
REMARK                         _______ _______ _______ _____ _____    ______ ____
ROOT
ATOM      1  C   LIG    1       31.024 -18.923   4.064  0.00  0.00    +0.010 C 
ATOM      2  C   LIG    1       30.074 -18.017   3.279  0.00  0.00    +0.220 C 
ENDROOT
BRANCH   2   3
ATOM      3  C   LIG    1       29.068 -18.863   2.541  0.00  0.00    -0.070 A 
ATOM      4  C   LIG    1       28.327 -19.809   3.223  0.00  0.00    +0.020 A 
ATOM      5  C   LIG    1       27.404 -20.584   2.546  0.00  0.00    +0.000 A 
ATOM      6  C   LIG    1       27.223 -20.413   1.186  0.00  0.00    +0.000 A 
ATOM      7  C   LIG    1       27.964 -19.466   0.503  0.00  0.00    +0.000 A 
ATOM      8  C   LIG    1       28.883 -18.689   1.182  0.00  0.00    +0.010 A 
ENDBRANCH   2   3
BRANCH   2   9
ATOM      9  N   LIG    1       30.842 -17.217   2.315  0.00  0.00    -0.680 NA
ATOM     10  H   LIG    1       30.415 -17.245   1.401  0.00  0.00    +0.350 HD
BRANCH   9  11
ATOM     11  C   LIG    1       32.239 -17.664   2.257  0.00  0.00    +0.210 C 
BRANCH  11  12
ATOM     12  C   LIG    1       32.734 -17.602   0.810  0.00  0.00    +0.270 C 
BRANCH  12  13
ATOM     13  N   LIG    1       32.130 -16.449   0.137  0.00  0.00    -0.020 N 
ATOM     14  O   LIG    1       32.489 -15.320   0.423  0.00  0.00    -0.160 OA
ATOM     15  O   LIG    1       31.270 -16.619  -0.709  0.00  0.00    -0.160 OA
ENDBRANCH  12  13
ENDBRANCH  11  12
ENDBRANCH   9  11
ENDBRANCH   2   9
TORSDOF 5
ENDMDL
MODEL 3
REMARK VINA RESULT:    -5.050      2.399      2.613
REMARK INTER + INTRA:          -7.416
REMARK INTER:                  -6.705
REMARK INTRA:                  -0.711
REMARK UNBOUND:                -0.890
REMARK  Name = ZINC000930183628
REMARK                            x       y       z     vdW  Elec       q    Type
REMARK                         _______ _______ _______ _____ _____    ______ ____
ROOT
ATOM      1  C   LIG    1       29.320 -18.175   0.693  0.00  0.00    +0.010 C 
ATOM      2  C   LIG    1       29.420 -19.377   1.635  0.00  0.00    +0.220 C 
ENDROOT
BRANCH   2   3
ATOM      3  C   LIG    1       28.064 -20.021   1.773  0.00  0.00    -0.070 A 
ATOM      4  C   LIG    1       27.608 -20.413   3.017  0.00  0.00    +0.020 A 
ATOM      5  C   LIG    1       26.364 -21.003   3.143  0.00  0.00    +0.000 A 
ATOM      6  C   LIG    1       25.576 -21.201   2.025  0.00  0.00    +0.000 A 
ATOM      7  C   LIG    1       26.032 -20.808   0.780  0.00  0.00    +0.000 A 
ATOM      8  C   LIG    1       27.273 -20.214   0.655  0.00  0.00    +0.010 A 
ENDBRANCH   2   3
BRANCH   2   9
ATOM      9  N   LIG    1       29.885 -18.929   2.954  0.00  0.00    -0.680 NA
ATOM     10  H   LIG    1       29.155 -18.435   3.446  0.00  0.00    +0.350 HD
BRANCH   9  11
ATOM     11  C   LIG    1       31.091 -18.100   2.833  0.00  0.00    +0.210 C 
BRANCH  11  12
ATOM     12  C   LIG    1       32.226 -18.731   3.643  0.00  0.00    +0.270 C 
BRANCH  12  13
ATOM     13  N   LIG    1       31.685 -19.303   4.878  0.00  0.00    -0.020 N 
ATOM     14  O   LIG    1       31.469 -18.585   5.839  0.00  0.00    -0.160 OA
ATOM     15  O   LIG    1       31.450 -20.497   4.946  0.00  0.00    -0.160 OA
ENDBRANCH  12  13
ENDBRANCH  11  12
ENDBRANCH   9  11
ENDBRANCH   2   9
TORSDOF 5
ENDMDL
MODEL 4
REMARK VINA RESULT:    -4.914      2.739      3.628
REMARK INTER + INTRA:          -7.240
REMARK INTER:                  -6.638
REMARK INTRA:                  -0.602
REMARK UNBOUND:                -0.890
REMARK  Name = ZINC000930183628
REMARK                            x       y       z     vdW  Elec       q    Type
REMARK                         _______ _______ _______ _____ _____    ______ ____
ROOT
ATOM      1  C   LIG    1       32.410 -17.590   2.185  0.00  0.00    +0.010 C 
ATOM      2  C   LIG    1       31.015 -16.964   2.231  0.00  0.00    +0.220 C 
ENDROOT
BRANCH   2   3
ATOM      3  C   LIG    1       30.013 -18.001   2.672  0.00  0.00    -0.070 A 
ATOM      4  C   LIG    1       29.195 -18.611   1.741  0.00  0.00    +0.020 A 
ATOM      5  C   LIG    1       28.277 -19.562   2.145  0.00  0.00    +0.000 A 
ATOM      6  C   LIG    1       28.178 -19.904   3.481  0.00  0.00    +0.000 A 
ATOM      7  C   LIG    1       28.998 -19.294   4.413  0.00  0.00    +0.000 A 
ATOM      8  C   LIG    1       29.918 -18.346   4.007  0.00  0.00    +0.010 A 
ENDBRANCH   2   3
BRANCH   2   9
ATOM      9  N   LIG    1       30.654 -16.472   0.895  0.00  0.00    -0.680 NA
ATOM     10  H   LIG    1       29.770 -16.856   0.595  0.00  0.00    +0.350 HD
BRANCH   9  11
ATOM     11  C   LIG    1       31.713 -16.767  -0.078  0.00  0.00    +0.210 C 
BRANCH  11  12
ATOM     12  C   LIG    1       31.114 -17.518  -1.270  0.00  0.00    +0.270 C 
BRANCH  12  13
ATOM     13  N   LIG    1       29.991 -16.751  -1.816  0.00  0.00    -0.020 N 
ATOM     14  O   LIG    1       30.157 -16.037  -2.789  0.00  0.00    -0.160 OA
ATOM     15  O   LIG    1       28.892 -16.828  -1.298  0.00  0.00    -0.160 OA
ENDBRANCH  12  13
ENDBRANCH  11  12
ENDBRANCH   9  11
ENDBRANCH   2   9
TORSDOF 5
ENDMDL
MODEL 5
REMARK VINA RESULT:    -4.774      2.311      2.580
REMARK INTER + INTRA:          -7.059
REMARK INTER:                  -6.069
REMARK INTRA:                  -0.990
REMARK UNBOUND:                -0.890
REMARK  Name = ZINC000930183628
REMARK                            x       y       z     vdW  Elec       q    Type
REMARK                         _______ _______ _______ _____ _____    ______ ____
ROOT
ATOM      1  C   LIG    1       30.185 -16.928   1.757  0.00  0.00    +0.010 C 
ATOM      2  C   LIG    1       29.618 -17.845   0.672  0.00  0.00    +0.220 C 
ENDROOT
BRANCH   2   3
ATOM      3  C   LIG    1       28.749 -18.899   1.309  0.00  0.00    -0.070 A 
ATOM      4  C   LIG    1       28.814 -19.118   2.672  0.00  0.00    +0.020 A 
ATOM      5  C   LIG    1       28.016 -20.084   3.256  0.00  0.00    +0.000 A 
ATOM      6  C   LIG    1       27.154 -20.832   2.476  0.00  0.00    +0.000 A 
ATOM      7  C   LIG    1       27.088 -20.613   1.113  0.00  0.00    +0.000 A 
ATOM      8  C   LIG    1       27.882 -19.644   0.530  0.00  0.00    +0.010 A 
ENDBRANCH   2   3
BRANCH   2   9
ATOM      9  N   LIG    1       30.722 -18.492  -0.050  0.00  0.00    -0.680 NA
ATOM     10  H   LIG    1       30.465 -19.422  -0.345  0.00  0.00    +0.350 HD
BRANCH   9  11
ATOM     11  C   LIG    1       31.942 -18.516   0.767  0.00  0.00    +0.210 C 
BRANCH  11  12
ATOM     12  C   LIG    1       32.615 -19.884   0.635  0.00  0.00    +0.270 C 
BRANCH  12  13
ATOM     13  N   LIG    1       31.631 -20.872   0.187  0.00  0.00    -0.020 N 
ATOM     14  O   LIG    1       30.936 -21.452   1.003  0.00  0.00    -0.160 OA
ATOM     15  O   LIG    1       31.506 -21.114  -1.000  0.00  0.00    -0.160 OA
ENDBRANCH  12  13
ENDBRANCH  11  12
ENDBRANCH   9  11
ENDBRANCH   2   9
TORSDOF 5
ENDMDL
MODEL 6
REMARK VINA RESULT:    -4.732     16.507     17.989
REMARK INTER + INTRA:          -7.005
REMARK INTER:                  -6.166
REMARK INTRA:                  -0.839
REMARK UNBOUND:                -0.890
REMARK  Name = ZINC000930183628
REMARK                            x       y       z     vdW  Elec       q    Type
REMARK                         _______ _______ _______ _____ _____    ______ ____
ROOT
ATOM      1  C   LIG    1       23.451 -25.682  17.294  0.00  0.00    +0.010 C 
ATOM      2  C   LIG    1       22.320 -24.693  17.585  0.00  0.00    +0.220 C 
ENDROOT
BRANCH   2   3
ATOM      3  C   LIG    1       21.836 -24.089  16.292  0.00  0.00    -0.070 A 
ATOM      4  C   LIG    1       22.746 -23.589  15.380  0.00  0.00    +0.020 A 
ATOM      5  C   LIG    1       22.302 -23.035  14.193  0.00  0.00    +0.000 A 
ATOM      6  C   LIG    1       20.948 -22.982  13.919  0.00  0.00    +0.000 A 
ATOM      7  C   LIG    1       20.038 -23.483  14.831  0.00  0.00    +0.000 A 
ATOM      8  C   LIG    1       20.482 -24.040  16.015  0.00  0.00    +0.010 A 
ENDBRANCH   2   3
BRANCH   2   9
ATOM      9  N   LIG    1       22.815 -23.628  18.468  0.00  0.00    -0.680 NA
ATOM     10  H   LIG    1       23.743 -23.840  18.804  0.00  0.00    +0.350 HD
BRANCH   9  11
ATOM     11  C   LIG    1       21.890 -23.398  19.585  0.00  0.00    +0.210 C 
BRANCH  11  12
ATOM     12  C   LIG    1       21.662 -21.895  19.757  0.00  0.00    +0.270 C 
BRANCH  12  13
ATOM     13  N   LIG    1       21.521 -21.269  18.440  0.00  0.00    -0.020 N 
ATOM     14  O   LIG    1       20.444 -21.284  17.870  0.00  0.00    -0.160 OA
ATOM     15  O   LIG    1       22.480 -20.732  17.914  0.00  0.00    -0.160 OA
ENDBRANCH  12  13
ENDBRANCH  11  12
ENDBRANCH   9  11
ENDBRANCH   2   9
TORSDOF 5
ENDMDL
MODEL 7
REMARK VINA RESULT:    -4.698      1.964      3.442
REMARK INTER + INTRA:          -6.962
REMARK INTER:                  -6.178
REMARK INTRA:                  -0.784
REMARK UNBOUND:                -0.890
REMARK  Name = ZINC000930183628
REMARK                            x       y       z     vdW  Elec       q    Type
REMARK                         _______ _______ _______ _____ _____    ______ ____
ROOT
ATOM      1  C   LIG    1       28.262 -19.317   1.189  0.00  0.00    +0.010 C 
ATOM      2  C   LIG    1       29.751 -19.043   1.407  0.00  0.00    +0.220 C 
ENDROOT
BRANCH   2   3
ATOM      3  C   LIG    1       30.024 -18.892   2.881  0.00  0.00    -0.070 A 
ATOM      4  C   LIG    1       29.000 -19.057   3.794  0.00  0.00    +0.020 A 
ATOM      5  C   LIG    1       29.250 -18.920   5.147  0.00  0.00    +0.000 A 
ATOM      6  C   LIG    1       30.526 -18.618   5.586  0.00  0.00    +0.000 A 
ATOM      7  C   LIG    1       31.551 -18.455   4.673  0.00  0.00    +0.000 A 
ATOM      8  C   LIG    1       31.301 -18.596   3.321  0.00  0.00    +0.010 A 
ENDBRANCH   2   3
BRANCH   2   9
ATOM      9  N   LIG    1       30.128 -17.805   0.710  0.00  0.00    -0.680 NA
ATOM     10  H   LIG    1       29.311 -17.267   0.462  0.00  0.00    +0.350 HD
BRANCH   9  11
ATOM     11  C   LIG    1       30.947 -18.096  -0.473  0.00  0.00    +0.210 C 
BRANCH  11  12
ATOM     12  C   LIG    1       31.847 -16.896  -0.778  0.00  0.00    +0.270 C 
BRANCH  12  13
ATOM     13  N   LIG    1       32.342 -16.326   0.477  0.00  0.00    -0.020 N 
ATOM     14  O   LIG    1       31.872 -15.284   0.901  0.00  0.00    -0.160 OA
ATOM     15  O   LIG    1       33.224 -16.892   1.098  0.00  0.00    -0.160 OA
ENDBRANCH  12  13
ENDBRANCH  11  12
ENDBRANCH   9  11
ENDBRANCH   2   9
TORSDOF 5
ENDMDL
MODEL 8
REMARK VINA RESULT:    -4.396      2.586      3.145
REMARK INTER + INTRA:          -6.571
REMARK INTER:                  -6.248
REMARK INTRA:                  -0.322
REMARK UNBOUND:                -0.890
REMARK  Name = ZINC000930183628
REMARK                            x       y       z     vdW  Elec       q    Type
REMARK                         _______ _______ _______ _____ _____    ______ ____
ROOT
ATOM      1  C   LIG    1       31.978 -17.344   2.548  0.00  0.00    +0.010 C 
ATOM      2  C   LIG    1       30.639 -16.878   1.973  0.00  0.00    +0.220 C 
ENDROOT
BRANCH   2   3
ATOM      3  C   LIG    1       29.649 -18.013   2.019  0.00  0.00    -0.070 A 
ATOM      4  C   LIG    1       29.023 -18.432   0.861  0.00  0.00    +0.020 A 
ATOM      5  C   LIG    1       28.116 -19.474   0.903  0.00  0.00    +0.000 A 
ATOM      6  C   LIG    1       27.834 -20.098   2.104  0.00  0.00    +0.000 A 
ATOM      7  C   LIG    1       28.461 -19.679   3.263  0.00  0.00    +0.000 A 
ATOM      8  C   LIG    1       29.372 -18.641   3.220  0.00  0.00    +0.010 A 
ENDBRANCH   2   3
BRANCH   2   9
ATOM      9  N   LIG    1       30.826 -16.448   0.581  0.00  0.00    -0.680 NA
ATOM     10  H   LIG    1       30.303 -17.035  -0.052  0.00  0.00    +0.350 HD
BRANCH   9  11
ATOM     11  C   LIG    1       32.250 -16.426   0.224  0.00  0.00    +0.210 C 
BRANCH  11  12
ATOM     12  C   LIG    1       32.393 -16.296  -1.294  0.00  0.00    +0.270 C 
BRANCH  12  13
ATOM     13  N   LIG    1       33.249 -15.149  -1.608  0.00  0.00    -0.020 N 
ATOM     14  O   LIG    1       33.667 -14.993  -2.742  0.00  0.00    -0.160 OA
ATOM     15  O   LIG    1       33.543 -14.351  -0.736  0.00  0.00    -0.160 OA
ENDBRANCH  12  13
ENDBRANCH  11  12
ENDBRANCH   9  11
ENDBRANCH   2   9
TORSDOF 5
ENDMDL
MODEL 9
REMARK VINA RESULT:    -4.062     12.360     13.185
REMARK INTER + INTRA:          -6.140
REMARK INTER:                  -5.941
REMARK INTRA:                  -0.199
REMARK UNBOUND:                -0.890
REMARK  Name = ZINC000930183628
REMARK                            x       y       z     vdW  Elec       q    Type
REMARK                         _______ _______ _______ _____ _____    ______ ____
ROOT
ATOM      1  C   LIG    1       26.679  -6.448  -1.590  0.00  0.00    +0.010 C 
ATOM      2  C   LIG    1       26.337  -6.999  -0.204  0.00  0.00    +0.220 C 
ENDROOT
BRANCH   2   3
ATOM      3  C   LIG    1       25.192  -6.212   0.380  0.00  0.00    -0.070 A 
ATOM      4  C   LIG    1       24.786  -6.445   1.680  0.00  0.00    +0.020 A 
ATOM      5  C   LIG    1       23.736  -5.724   2.217  0.00  0.00    +0.000 A 
ATOM      6  C   LIG    1       23.092  -4.768   1.452  0.00  0.00    +0.000 A 
ATOM      7  C   LIG    1       23.499  -4.534   0.152  0.00  0.00    +0.000 A 
ATOM      8  C   LIG    1       24.552  -5.253  -0.382  0.00  0.00    +0.010 A 
ENDBRANCH   2   3
BRANCH   2   9
ATOM      9  N   LIG    1       27.510  -6.882   0.673  0.00  0.00    -0.680 NA
ATOM     10  H   LIG    1       27.849  -5.932   0.697  0.00  0.00    +0.350 HD
BRANCH   9  11
ATOM     11  C   LIG    1       28.570  -7.810   0.261  0.00  0.00    +0.210 C 
BRANCH  11  12
ATOM     12  C   LIG    1       29.818  -7.016  -0.130  0.00  0.00    +0.270 C 
BRANCH  12  13
ATOM     13  N   LIG    1       30.994  -7.888  -0.060  0.00  0.00    -0.020 N 
ATOM     14  O   LIG    1       31.041  -8.781   0.768  0.00  0.00    -0.160 OA
ATOM     15  O   LIG    1       31.924  -7.720  -0.828  0.00  0.00    -0.160 OA
ENDBRANCH  12  13
ENDBRANCH  11  12
ENDBRANCH   9  11
ENDBRANCH   2   9
TORSDOF 5
ENDMDL
