MODEL 1
REMARK VINA RESULT:    -4.982      0.000      0.000
REMARK INTER + INTRA:          -6.915
REMARK INTER:                  -6.729
REMARK INTRA:                  -0.186
REMARK UNBOUND:                -0.186
REMARK  Name = ZINC000842293942
REMARK                            x       y       z     vdW  Elec       q    Type
REMARK                         _______ _______ _______ _____ _____    ______ ____
ROOT
ATOM      1  C   LIG    1       30.259 -19.484   1.757  0.00  0.00    +0.500 C 
ATOM      2  O   LIG    1       30.526 -18.323   1.958  0.00  0.00    -0.490 OA
ENDROOT
BRANCH   1   3
ATOM      3  C   LIG    1       29.272 -19.853   0.680  0.00  0.00    +0.030 C 
ATOM      4  C   LIG    1       28.299 -18.769   0.211  0.00  0.00    +0.190 C 
ATOM      5  C   LIG    1       27.795 -19.931   1.072  0.00  0.00    +0.130 C 
BRANCH   5   6
ATOM      6  N   LIG    1       26.974 -20.951   0.416  0.00  0.00    +0.010 N 
ATOM      7  O   LIG    1       27.410 -21.557  -0.547  0.00  0.00    -0.140 OA
ATOM      8  O   LIG    1       25.856 -21.194   0.833  0.00  0.00    -0.150 OA
ENDBRANCH   5   6
ENDBRANCH   1   3
BRANCH   1   9
ATOM      9  O   LIG    1       30.843 -20.445   2.491  0.00  0.00    -0.340 OA
BRANCH   9  10
ATOM     10  C   LIG    1       32.151 -20.147   3.046  0.00  0.00    +0.260 C 
BRANCH  10  12
ATOM     11  C   LIG    1       32.033 -19.949   5.477  0.00  0.00    +0.000 C 
ATOM     12  C   LIG    1       32.248 -20.718   4.437  0.00  0.00    -0.050 C 
BRANCH  11  14
ATOM     13  C   LIG    1       30.034 -18.485   5.564  0.00  0.00    +0.030 C 
ATOM     14  C   LIG    1       31.536 -18.539   5.282  0.00  0.00    +0.030 C 
ENDBRANCH  11  14
ENDBRANCH  10  12
ENDBRANCH   9  10
ENDBRANCH   1   9
TORSDOF 6
ENDMDL
MODEL 2
REMARK VINA RESULT:    -4.795      1.602      2.405
REMARK INTER + INTRA:          -6.663
REMARK INTER:                  -6.219
REMARK INTRA:                  -0.443
REMARK UNBOUND:                -0.186
REMARK  Name = ZINC000842293942
REMARK                            x       y       z     vdW  Elec       q    Type
REMARK                         _______ _______ _______ _____ _____    ______ ____
ROOT
ATOM      1  C   LIG    1       29.313 -17.847   0.616  0.00  0.00    +0.500 C 
ATOM      2  O   LIG    1       29.540 -17.415  -0.489  0.00  0.00    -0.490 OA
ENDROOT
BRANCH   1   3
ATOM      3  C   LIG    1       28.385 -19.023   0.789  0.00  0.00    +0.030 C 
ATOM      4  C   LIG    1       28.332 -19.685   2.167  0.00  0.00    +0.190 C 
ATOM      5  C   LIG    1       29.019 -20.398   1.000  0.00  0.00    +0.130 C 
BRANCH   5   6
ATOM      6  N   LIG    1       28.335 -21.555   0.418  0.00  0.00    +0.010 N 
ATOM      7  O   LIG    1       28.632 -22.682   0.777  0.00  0.00    -0.140 OA
ATOM      8  O   LIG    1       27.471 -21.393  -0.423  0.00  0.00    -0.150 OA
ENDBRANCH   5   6
ENDBRANCH   1   3
BRANCH   1   9
ATOM      9  O   LIG    1       29.887 -17.282   1.690  0.00  0.00    -0.340 OA
BRANCH   9  10
ATOM     10  C   LIG    1       31.328 -17.113   1.654  0.00  0.00    +0.260 C 
BRANCH  10  12
ATOM     11  C   LIG    1       32.508 -18.834   2.923  0.00  0.00    +0.000 C 
ATOM     12  C   LIG    1       31.996 -18.459   1.777  0.00  0.00    -0.050 C 
BRANCH  11  14
ATOM     13  C   LIG    1       31.909 -18.897   5.328  0.00  0.00    +0.030 C 
ATOM     14  C   LIG    1       32.293 -17.993   4.156  0.00  0.00    +0.030 C 
ENDBRANCH  11  14
ENDBRANCH  10  12
ENDBRANCH   9  10
ENDBRANCH   1   9
TORSDOF 6
ENDMDL
MODEL 3
REMARK VINA RESULT:    -4.794      1.623      2.291
REMARK INTER + INTRA:          -6.662
REMARK INTER:                  -6.690
REMARK INTRA:                   0.029
REMARK UNBOUND:                -0.186
REMARK  Name = ZINC000842293942
REMARK                            x       y       z     vdW  Elec       q    Type
REMARK                         _______ _______ _______ _____ _____    ______ ____
ROOT
ATOM      1  C   LIG    1       29.032 -18.888   0.840  0.00  0.00    +0.500 C 
ATOM      2  O   LIG    1       29.444 -18.688  -0.277  0.00  0.00    -0.490 OA
ENDROOT
BRANCH   1   3
ATOM      3  C   LIG    1       28.314 -20.175   1.159  0.00  0.00    +0.030 C 
ATOM      4  C   LIG    1       28.070 -21.152   0.007  0.00  0.00    +0.190 C 
ATOM      5  C   LIG    1       26.903 -20.355   0.596  0.00  0.00    +0.130 C 
BRANCH   5   6
ATOM      6  N   LIG    1       25.935 -21.083   1.419  0.00  0.00    +0.010 N 
ATOM      7  O   LIG    1       24.874 -21.441   0.938  0.00  0.00    -0.140 OA
ATOM      8  O   LIG    1       26.188 -21.331   2.583  0.00  0.00    -0.150 OA
ENDBRANCH   5   6
ENDBRANCH   1   3
BRANCH   1   9
ATOM      9  O   LIG    1       29.214 -17.966   1.799  0.00  0.00    -0.340 OA
BRANCH   9  10
ATOM     10  C   LIG    1       30.061 -18.336   2.917  0.00  0.00    +0.260 C 
BRANCH  10  12
ATOM     11  C   LIG    1       29.741 -19.062   5.227  0.00  0.00    +0.000 C 
ATOM     12  C   LIG    1       29.205 -18.837   4.052  0.00  0.00    -0.050 C 
BRANCH  11  14
ATOM     13  C   LIG    1       32.041 -19.931   5.547  0.00  0.00    +0.030 C 
ATOM     14  C   LIG    1       31.174 -18.672   5.489  0.00  0.00    +0.030 C 
ENDBRANCH  11  14
ENDBRANCH  10  12
ENDBRANCH   9  10
ENDBRANCH   1   9
TORSDOF 6
ENDMDL
MODEL 4
REMARK VINA RESULT:    -4.789      3.201      5.356
REMARK INTER + INTRA:          -6.654
REMARK INTER:                  -5.994
REMARK INTRA:                  -0.660
REMARK UNBOUND:                -0.186
REMARK  Name = ZINC000842293942
REMARK                            x       y       z     vdW  Elec       q    Type
REMARK                         _______ _______ _______ _____ _____    ______ ____
ROOT
ATOM      1  C   LIG    1       29.700 -19.269   3.590  0.00  0.00    +0.500 C 
ATOM      2  O   LIG    1       30.429 -20.158   3.961  0.00  0.00    -0.490 OA
ENDROOT
BRANCH   1   3
ATOM      3  C   LIG    1       30.287 -17.966   3.109  0.00  0.00    +0.030 C 
ATOM      4  C   LIG    1       29.938 -17.516   1.689  0.00  0.00    +0.190 C 
ATOM      5  C   LIG    1       31.344 -18.033   2.005  0.00  0.00    +0.130 C 
BRANCH   5   6
ATOM      6  N   LIG    1       32.430 -17.051   2.049  0.00  0.00    +0.010 N 
ATOM      7  O   LIG    1       32.725 -16.423   1.047  0.00  0.00    -0.140 OA
ATOM      8  O   LIG    1       33.039 -16.862   3.086  0.00  0.00    -0.150 OA
ENDBRANCH   5   6
ENDBRANCH   1   3
BRANCH   1   9
ATOM      9  O   LIG    1       28.369 -19.441   3.606  0.00  0.00    -0.340 OA
BRANCH   9  10
ATOM     10  C   LIG    1       27.848 -20.617   2.933  0.00  0.00    +0.260 C 
BRANCH  10  12
ATOM     11  C   LIG    1       27.958 -20.668   0.494  0.00  0.00    +0.000 C 
ATOM     12  C   LIG    1       27.343 -20.232   1.566  0.00  0.00    -0.050 C 
BRANCH  11  14
ATOM     13  C   LIG    1       30.366 -21.080   0.068  0.00  0.00    +0.030 C 
ATOM     14  C   LIG    1       29.070 -21.677   0.621  0.00  0.00    +0.030 C 
ENDBRANCH  11  14
ENDBRANCH  10  12
ENDBRANCH   9  10
ENDBRANCH   1   9
TORSDOF 6
ENDMDL
MODEL 5
REMARK VINA RESULT:    -4.673      3.312      5.301
REMARK INTER + INTRA:          -6.498
REMARK INTER:                  -6.316
REMARK INTRA:                  -0.182
REMARK UNBOUND:                -0.186
REMARK  Name = ZINC000842293942
REMARK                            x       y       z     vdW  Elec       q    Type
REMARK                         _______ _______ _______ _____ _____    ______ ____
ROOT
ATOM      1  C   LIG    1       32.052 -17.288   1.414  0.00  0.00    +0.500 C 
ATOM      2  O   LIG    1       32.467 -16.174   1.201  0.00  0.00    -0.490 OA
ENDROOT
BRANCH   1   3
ATOM      3  C   LIG    1       32.604 -18.091   2.565  0.00  0.00    +0.030 C 
ATOM      4  C   LIG    1       32.837 -19.585   2.336  0.00  0.00    +0.190 C 
ATOM      5  C   LIG    1       31.678 -19.117   3.219  0.00  0.00    +0.130 C 
BRANCH   5   6
ATOM      6  N   LIG    1       31.805 -19.318   4.664  0.00  0.00    +0.010 N 
ATOM      7  O   LIG    1       32.103 -18.382   5.386  0.00  0.00    -0.140 OA
ATOM      8  O   LIG    1       31.613 -20.419   5.146  0.00  0.00    -0.150 OA
ENDBRANCH   5   6
ENDBRANCH   1   3
BRANCH   1   9
ATOM      9  O   LIG    1       31.097 -17.811   0.628  0.00  0.00    -0.340 OA
BRANCH   9  10
ATOM     10  C   LIG    1       29.736 -17.363   0.857  0.00  0.00    +0.260 C 
BRANCH  10  12
ATOM     11  C   LIG    1       28.176 -19.222   0.585  0.00  0.00    +0.000 C 
ATOM     12  C   LIG    1       28.787 -18.200   0.038  0.00  0.00    -0.050 C 
BRANCH  11  14
ATOM     13  C   LIG    1       27.372 -20.617   2.471  0.00  0.00    +0.030 C 
ATOM     14  C   LIG    1       28.299 -19.468   2.067  0.00  0.00    +0.030 C 
ENDBRANCH  11  14
ENDBRANCH  10  12
ENDBRANCH   9  10
ENDBRANCH   1   9
TORSDOF 6
ENDMDL
MODEL 6
REMARK VINA RESULT:    -4.553      2.513      4.115
REMARK INTER + INTRA:          -6.336
REMARK INTER:                  -5.980
REMARK INTRA:                  -0.356
REMARK UNBOUND:                -0.186
REMARK  Name = ZINC000842293942
REMARK                            x       y       z     vdW  Elec       q    Type
REMARK                         _______ _______ _______ _____ _____    ______ ____
ROOT
ATOM      1  C   LIG    1       28.769 -19.408   0.884  0.00  0.00    +0.500 C 
ATOM      2  O   LIG    1       27.634 -19.618   0.529  0.00  0.00    -0.490 OA
ENDROOT
BRANCH   1   3
ATOM      3  C   LIG    1       29.431 -18.095   0.552  0.00  0.00    +0.030 C 
ATOM      4  C   LIG    1       30.550 -18.111  -0.491  0.00  0.00    +0.190 C 
ATOM      5  C   LIG    1       30.884 -17.906   0.988  0.00  0.00    +0.130 C 
BRANCH   5   6
ATOM      6  N   LIG    1       31.296 -16.564   1.408  0.00  0.00    +0.010 N 
ATOM      7  O   LIG    1       30.462 -15.766   1.799  0.00  0.00    -0.140 OA
ATOM      8  O   LIG    1       32.470 -16.246   1.367  0.00  0.00    -0.150 OA
ENDBRANCH   5   6
ENDBRANCH   1   3
BRANCH   1   9
ATOM      9  O   LIG    1       29.442 -20.342   1.574  0.00  0.00    -0.340 OA
BRANCH   9  10
ATOM     10  C   LIG    1       28.929 -20.687   2.888  0.00  0.00    +0.260 C 
BRANCH  10  12
ATOM     11  C   LIG    1       29.545 -18.939   4.477  0.00  0.00    +0.000 C 
ATOM     12  C   LIG    1       28.642 -19.427   3.663  0.00  0.00    -0.050 C 
BRANCH  11  14
ATOM     13  C   LIG    1       31.964 -18.434   4.676  0.00  0.00    +0.030 C 
ATOM     14  C   LIG    1       30.924 -19.546   4.523  0.00  0.00    +0.030 C 
ENDBRANCH  11  14
ENDBRANCH  10  12
ENDBRANCH   9  10
ENDBRANCH   1   9
TORSDOF 6
ENDMDL
MODEL 7
REMARK VINA RESULT:    -4.543     15.472     16.862
REMARK INTER + INTRA:          -6.322
REMARK INTER:                  -5.711
REMARK INTRA:                  -0.611
REMARK UNBOUND:                -0.186
REMARK  Name = ZINC000842293942
REMARK                            x       y       z     vdW  Elec       q    Type
REMARK                         _______ _______ _______ _____ _____    ______ ____
ROOT
ATOM      1  C   LIG    1       20.873 -22.218  17.729  0.00  0.00    +0.500 C 
ATOM      2  O   LIG    1       20.509 -22.761  18.745  0.00  0.00    -0.490 OA
ENDROOT
BRANCH   1   3
ATOM      3  C   LIG    1       20.529 -22.820  16.390  0.00  0.00    +0.030 C 
ATOM      4  C   LIG    1       20.548 -24.345  16.275  0.00  0.00    +0.190 C 
ATOM      5  C   LIG    1       21.653 -23.513  15.618  0.00  0.00    +0.130 C 
BRANCH   5   6
ATOM      6  N   LIG    1       21.638 -23.402  14.157  0.00  0.00    +0.010 N 
ATOM      7  O   LIG    1       20.649 -22.973  13.589  0.00  0.00    -0.140 OA
ATOM      8  O   LIG    1       22.613 -23.739  13.511  0.00  0.00    -0.150 OA
ENDBRANCH   5   6
ENDBRANCH   1   3
BRANCH   1   9
ATOM      9  O   LIG    1       21.581 -21.080  17.792  0.00  0.00    -0.340 OA
BRANCH   9  10
ATOM     10  C   LIG    1       22.816 -21.114  18.554  0.00  0.00    +0.260 C 
BRANCH  10  12
ATOM     11  C   LIG    1       24.539 -22.736  17.955  0.00  0.00    +0.000 C 
ATOM     12  C   LIG    1       23.936 -21.607  17.675  0.00  0.00    -0.050 C 
BRANCH  11  14
ATOM     13  C   LIG    1       23.555 -24.953  18.470  0.00  0.00    +0.030 C 
ATOM     14  C   LIG    1       24.014 -23.618  19.059  0.00  0.00    +0.030 C 
ENDBRANCH  11  14
ENDBRANCH  10  12
ENDBRANCH   9  10
ENDBRANCH   1   9
TORSDOF 6
ENDMDL
MODEL 8
REMARK VINA RESULT:    -4.540      2.655      3.187
REMARK INTER + INTRA:          -6.319
REMARK INTER:                  -5.659
REMARK INTRA:                  -0.659
REMARK UNBOUND:                -0.186
REMARK  Name = ZINC000842293942
REMARK                            x       y       z     vdW  Elec       q    Type
REMARK                         _______ _______ _______ _____ _____    ______ ____
ROOT
ATOM      1  C   LIG    1       29.022 -19.192   0.371  0.00  0.00    +0.500 C 
ATOM      2  O   LIG    1       28.704 -18.201  -0.243  0.00  0.00    -0.490 OA
ENDROOT
BRANCH   1   3
ATOM      3  C   LIG    1       28.179 -19.664   1.528  0.00  0.00    +0.030 C 
ATOM      4  C   LIG    1       28.713 -19.416   2.940  0.00  0.00    +0.190 C 
ATOM      5  C   LIG    1       28.710 -20.833   2.359  0.00  0.00    +0.130 C 
BRANCH   5   6
ATOM      6  N   LIG    1       27.732 -21.781   2.896  0.00  0.00    +0.010 N 
ATOM      7  O   LIG    1       28.106 -22.836   3.377  0.00  0.00    -0.140 OA
ATOM      8  O   LIG    1       26.544 -21.516   2.862  0.00  0.00    -0.150 OA
ENDBRANCH   5   6
ENDBRANCH   1   3
BRANCH   1   9
ATOM      9  O   LIG    1       30.126 -19.872   0.023  0.00  0.00    -0.340 OA
BRANCH   9  10
ATOM     10  C   LIG    1       31.358 -19.114  -0.093  0.00  0.00    +0.260 C 
BRANCH  10  12
ATOM     11  C   LIG    1       32.282 -17.904   1.816  0.00  0.00    +0.000 C 
ATOM     12  C   LIG    1       32.044 -19.060   1.248  0.00  0.00    -0.050 C 
BRANCH  11  14
ATOM     13  C   LIG    1       30.500 -16.188   1.993  0.00  0.00    +0.030 C 
ATOM     14  C   LIG    1       31.734 -16.638   1.207  0.00  0.00    +0.030 C 
ENDBRANCH  11  14
ENDBRANCH  10  12
ENDBRANCH   9  10
ENDBRANCH   1   9
TORSDOF 6
ENDMDL
MODEL 9
REMARK VINA RESULT:    -4.305     15.733     17.322
REMARK INTER + INTRA:          -6.001
REMARK INTER:                  -5.421
REMARK INTRA:                  -0.579
REMARK UNBOUND:                -0.186
REMARK  Name = ZINC000842293942
REMARK                            x       y       z     vdW  Elec       q    Type
REMARK                         _______ _______ _______ _____ _____    ______ ____
ROOT
ATOM      1  C   LIG    1       20.793 -22.280  18.205  0.00  0.00    +0.500 C 
ATOM      2  O   LIG    1       20.459 -21.142  17.978  0.00  0.00    -0.490 OA
ENDROOT
BRANCH   1   3
ATOM      3  C   LIG    1       20.818 -23.294  17.090  0.00  0.00    +0.030 C 
ATOM      4  C   LIG    1       22.098 -24.112  16.907  0.00  0.00    +0.190 C 
ATOM      5  C   LIG    1       21.739 -23.015  15.901  0.00  0.00    +0.130 C 
BRANCH   5   6
ATOM      6  N   LIG    1       21.280 -23.436  14.576  0.00  0.00    +0.010 N 
ATOM      7  O   LIG    1       20.108 -23.720  14.399  0.00  0.00    -0.140 OA
ATOM      8  O   LIG    1       22.068 -23.504  13.651  0.00  0.00    -0.150 OA
ENDBRANCH   5   6
ENDBRANCH   1   3
BRANCH   1   9
ATOM      9  O   LIG    1       21.143 -22.642  19.450  0.00  0.00    -0.340 OA
BRANCH   9  10
ATOM     10  C   LIG    1       22.251 -21.927  20.057  0.00  0.00    +0.260 C 
BRANCH  10  12
ATOM     11  C   LIG    1       24.497 -22.564  19.343  0.00  0.00    +0.000 C 
ATOM     12  C   LIG    1       23.462 -22.822  20.104  0.00  0.00    -0.050 C 
BRANCH  11  14
ATOM     13  C   LIG    1       25.648 -20.384  19.083  0.00  0.00    +0.030 C 
ATOM     14  C   LIG    1       24.542 -21.290  18.539  0.00  0.00    +0.030 C 
ENDBRANCH  11  14
ENDBRANCH  10  12
ENDBRANCH   9  10
ENDBRANCH   1   9
TORSDOF 6
ENDMDL
