MODEL 1
REMARK VINA RESULT:    -5.855      0.000      0.000
REMARK INTER + INTRA:          -6.120
REMARK INTER:                  -6.197
REMARK INTRA:                   0.077
REMARK UNBOUND:                 0.077
REMARK  Name = ZINC000000334303
REMARK                            x       y       z     vdW  Elec       q    Type
REMARK                         _______ _______ _______ _____ _____    ______ ____
ROOT
ATOM      1  C   LIG    1       30.249 -17.029   1.978  0.00  0.00    +0.140 C 
ATOM      2  C   LIG    1       29.407 -18.253   2.233  0.00  0.00    -0.080 A 
ATOM      3  C   LIG    1       28.717 -18.859   1.195  0.00  0.00    +0.080 A 
ATOM      4  C   LIG    1       27.954 -19.983   1.478  0.00  0.00    -0.060 A 
ATOM      5  C   LIG    1       27.908 -20.456   2.774  0.00  0.00    +0.160 A 
ATOM      6  N   LIG    1       28.578 -19.854   3.737  0.00  0.00    -0.430 NA
ATOM      7  C   LIG    1       27.186 -20.677   0.382  0.00  0.00    +0.140 C 
ATOM      8  C   LIG    1       29.317 -18.787   3.505  0.00  0.00    +0.140 A 
ATOM      9  C   LIG    1       30.064 -18.137   4.641  0.00  0.00    +0.160 C 
ENDROOT
BRANCH   5  10
ATOM     10  N   LIG    1       27.097 -21.655   3.087  0.00  0.00    +0.030 N 
ATOM     11  O   LIG    1       27.644 -22.715   3.328  0.00  0.00    -0.130 OA
ATOM     12  O   LIG    1       25.881 -21.580   3.102  0.00  0.00    -0.150 OA
ENDBRANCH   5  10
TORSDOF 1
ENDMDL
MODEL 2
REMARK VINA RESULT:    -5.820      3.939      4.752
REMARK INTER + INTRA:          -6.084
REMARK INTER:                  -6.061
REMARK INTRA:                  -0.022
REMARK UNBOUND:                 0.077
REMARK  Name = ZINC000000334303
REMARK                            x       y       z     vdW  Elec       q    Type
REMARK                         _______ _______ _______ _____ _____    ______ ____
ROOT
ATOM      1  C   LIG    1       27.723 -20.248   3.189  0.00  0.00    +0.140 C 
ATOM      2  C   LIG    1       28.758 -19.235   2.774  0.00  0.00    -0.080 A 
ATOM      3  C   LIG    1       28.912 -18.895   1.439  0.00  0.00    +0.080 A 
ATOM      4  C   LIG    1       29.878 -17.958   1.103  0.00  0.00    -0.060 A 
ATOM      5  C   LIG    1       30.650 -17.400   2.103  0.00  0.00    +0.160 A 
ATOM      6  N   LIG    1       30.476 -17.747   3.363  0.00  0.00    -0.430 NA
ATOM      7  C   LIG    1       30.083 -17.555  -0.335  0.00  0.00    +0.140 C 
ATOM      8  C   LIG    1       29.564 -18.629   3.720  0.00  0.00    +0.140 A 
ATOM      9  C   LIG    1       29.406 -18.991   5.175  0.00  0.00    +0.160 C 
ENDROOT
BRANCH   5  10
ATOM     10  N   LIG    1       31.684 -16.399   1.756  0.00  0.00    +0.030 N 
ATOM     11  O   LIG    1       31.394 -15.218   1.695  0.00  0.00    -0.130 OA
ATOM     12  O   LIG    1       32.826 -16.758   1.532  0.00  0.00    -0.150 OA
ENDBRANCH   5  10
TORSDOF 1
ENDMDL
MODEL 3
REMARK VINA RESULT:    -5.349      2.512      3.248
REMARK INTER + INTRA:          -5.585
REMARK INTER:                  -5.562
REMARK INTRA:                  -0.023
REMARK UNBOUND:                 0.077
REMARK  Name = ZINC000000334303
REMARK                            x       y       z     vdW  Elec       q    Type
REMARK                         _______ _______ _______ _____ _____    ______ ____
ROOT
ATOM      1  C   LIG    1       29.376 -17.388  -0.584  0.00  0.00    +0.140 C 
ATOM      2  C   LIG    1       29.439 -17.870   0.842  0.00  0.00    -0.080 A 
ATOM      3  C   LIG    1       28.596 -18.879   1.280  0.00  0.00    +0.080 A 
ATOM      4  C   LIG    1       28.689 -19.290   2.602  0.00  0.00    -0.060 A 
ATOM      5  C   LIG    1       29.612 -18.684   3.431  0.00  0.00    +0.160 A 
ATOM      6  N   LIG    1       30.398 -17.726   2.981  0.00  0.00    -0.430 NA
ATOM      7  C   LIG    1       27.794 -20.385   3.124  0.00  0.00    +0.140 C 
ATOM      8  C   LIG    1       30.341 -17.314   1.730  0.00  0.00    +0.140 A 
ATOM      9  C   LIG    1       31.263 -16.216   1.265  0.00  0.00    +0.160 C 
ENDROOT
BRANCH   5  10
ATOM     10  N   LIG    1       29.720 -19.115   4.844  0.00  0.00    +0.030 N 
ATOM     11  O   LIG    1       29.051 -18.566   5.701  0.00  0.00    -0.130 OA
ATOM     12  O   LIG    1       30.478 -20.018   5.148  0.00  0.00    -0.150 OA
ENDBRANCH   5  10
TORSDOF 1
ENDMDL
MODEL 4
REMARK VINA RESULT:    -5.117      3.343      4.382
REMARK INTER + INTRA:          -5.339
REMARK INTER:                  -5.324
REMARK INTRA:                  -0.015
REMARK UNBOUND:                 0.077
REMARK  Name = ZINC000000334303
REMARK                            x       y       z     vdW  Elec       q    Type
REMARK                         _______ _______ _______ _____ _____    ______ ____
ROOT
ATOM      1  C   LIG    1       28.337 -18.892   0.309  0.00  0.00    +0.140 C 
ATOM      2  C   LIG    1       29.265 -18.957   1.495  0.00  0.00    -0.080 A 
ATOM      3  C   LIG    1       28.759 -18.914   2.785  0.00  0.00    +0.080 A 
ATOM      4  C   LIG    1       29.651 -18.977   3.846  0.00  0.00    -0.060 A 
ATOM      5  C   LIG    1       31.002 -19.080   3.584  0.00  0.00    +0.160 A 
ATOM      6  N   LIG    1       31.448 -19.119   2.343  0.00  0.00    -0.430 NA
ATOM      7  C   LIG    1       29.149 -18.933   5.267  0.00  0.00    +0.140 C 
ATOM      8  C   LIG    1       30.630 -19.067   1.310  0.00  0.00    +0.140 A 
ATOM      9  C   LIG    1       31.192 -19.116  -0.087  0.00  0.00    +0.160 C 
ENDROOT
BRANCH   5  10
ATOM     10  N   LIG    1       31.963 -19.148   4.708  0.00  0.00    +0.030 N 
ATOM     11  O   LIG    1       32.347 -20.228   5.118  0.00  0.00    -0.130 OA
ATOM     12  O   LIG    1       32.368 -18.122   5.224  0.00  0.00    -0.150 OA
ENDBRANCH   5  10
TORSDOF 1
ENDMDL
MODEL 5
REMARK VINA RESULT:    -5.085     14.319     15.278
REMARK INTER + INTRA:          -5.306
REMARK INTER:                  -5.356
REMARK INTRA:                   0.050
REMARK UNBOUND:                 0.077
REMARK  Name = ZINC000000334303
REMARK                            x       y       z     vdW  Elec       q    Type
REMARK                         _______ _______ _______ _____ _____    ______ ____
ROOT
ATOM      1  C   LIG    1       24.667 -21.501  18.112  0.00  0.00    +0.140 C 
ATOM      2  C   LIG    1       23.553 -21.992  17.223  0.00  0.00    -0.080 A 
ATOM      3  C   LIG    1       23.828 -22.469  15.951  0.00  0.00    +0.080 A 
ATOM      4  C   LIG    1       22.771 -22.910  15.168  0.00  0.00    -0.060 A 
ATOM      5  C   LIG    1       21.489 -22.858  15.678  0.00  0.00    +0.160 A 
ATOM      6  N   LIG    1       21.264 -22.398  16.893  0.00  0.00    -0.430 NA
ATOM      7  C   LIG    1       23.020 -23.437  13.778  0.00  0.00    +0.140 C 
ATOM      8  C   LIG    1       22.244 -21.976  17.668  0.00  0.00    +0.140 A 
ATOM      9  C   LIG    1       21.932 -21.460  19.049  0.00  0.00    +0.160 C 
ENDROOT
BRANCH   5  10
ATOM     10  N   LIG    1       20.353 -23.326  14.851  0.00  0.00    +0.030 N 
ATOM     11  O   LIG    1       19.830 -24.400  15.086  0.00  0.00    -0.130 OA
ATOM     12  O   LIG    1       19.943 -22.635  13.936  0.00  0.00    -0.150 OA
ENDBRANCH   5  10
TORSDOF 1
ENDMDL
MODEL 6
REMARK VINA RESULT:    -5.069      2.316      2.517
REMARK INTER + INTRA:          -5.289
REMARK INTER:                  -5.268
REMARK INTRA:                  -0.021
REMARK UNBOUND:                 0.077
REMARK  Name = ZINC000000334303
REMARK                            x       y       z     vdW  Elec       q    Type
REMARK                         _______ _______ _______ _____ _____    ______ ____
ROOT
ATOM      1  C   LIG    1       29.511 -17.112  -0.561  0.00  0.00    +0.140 C 
ATOM      2  C   LIG    1       29.277 -18.447   0.099  0.00  0.00    -0.080 A 
ATOM      3  C   LIG    1       28.001 -18.982   0.167  0.00  0.00    +0.080 A 
ATOM      4  C   LIG    1       27.833 -20.213   0.784  0.00  0.00    -0.060 A 
ATOM      5  C   LIG    1       28.936 -20.860   1.306  0.00  0.00    +0.160 A 
ATOM      6  N   LIG    1       30.136 -20.321   1.223  0.00  0.00    -0.430 NA
ATOM      7  C   LIG    1       26.464 -20.836   0.882  0.00  0.00    +0.140 C 
ATOM      8  C   LIG    1       30.334 -19.155   0.639  0.00  0.00    +0.140 A 
ATOM      9  C   LIG    1       31.727 -18.584   0.571  0.00  0.00    +0.160 C 
ENDROOT
BRANCH   5  10
ATOM     10  N   LIG    1       28.769 -22.174   1.967  0.00  0.00    +0.030 N 
ATOM     11  O   LIG    1       28.501 -22.230   3.154  0.00  0.00    -0.130 OA
ATOM     12  O   LIG    1       28.900 -23.199   1.323  0.00  0.00    -0.150 OA
ENDBRANCH   5  10
TORSDOF 1
ENDMDL
MODEL 7
REMARK VINA RESULT:    -5.016     21.001     22.017
REMARK INTER + INTRA:          -5.233
REMARK INTER:                  -5.208
REMARK INTRA:                  -0.024
REMARK UNBOUND:                 0.077
REMARK  Name = ZINC000000334303
REMARK                            x       y       z     vdW  Elec       q    Type
REMARK                         _______ _______ _______ _____ _____    ______ ____
ROOT
ATOM      1  C   LIG    1       22.382  -1.893  13.690  0.00  0.00    +0.140 C 
ATOM      2  C   LIG    1       23.231  -1.231  12.637  0.00  0.00    -0.080 A 
ATOM      3  C   LIG    1       22.964  -1.430  11.291  0.00  0.00    +0.080 A 
ATOM      4  C   LIG    1       23.773  -0.800  10.357  0.00  0.00    -0.060 A 
ATOM      5  C   LIG    1       24.811  -0.002  10.795  0.00  0.00    +0.160 A 
ATOM      6  N   LIG    1       25.037   0.166  12.083  0.00  0.00    -0.430 NA
ATOM      7  C   LIG    1       23.521  -0.986   8.882  0.00  0.00    +0.140 C 
ATOM      8  C   LIG    1       24.285  -0.413  13.000  0.00  0.00    +0.140 A 
ATOM      9  C   LIG    1       24.586  -0.188  14.460  0.00  0.00    +0.160 C 
ENDROOT
BRANCH   5  10
ATOM     10  N   LIG    1       25.681   0.675   9.806  0.00  0.00    +0.030 N 
ATOM     11  O   LIG    1       25.412   1.800   9.427  0.00  0.00    -0.130 OA
ATOM     12  O   LIG    1       26.666   0.105   9.372  0.00  0.00    -0.150 OA
ENDBRANCH   5  10
TORSDOF 1
ENDMDL
MODEL 8
REMARK VINA RESULT:    -4.967     21.715     22.301
REMARK INTER + INTRA:          -5.181
REMARK INTER:                  -5.164
REMARK INTRA:                  -0.017
REMARK UNBOUND:                 0.077
REMARK  Name = ZINC000000334303
REMARK                            x       y       z     vdW  Elec       q    Type
REMARK                         _______ _______ _______ _____ _____    ______ ____
ROOT
ATOM      1  C   LIG    1       25.165   0.148   8.894  0.00  0.00    +0.140 C 
ATOM      2  C   LIG    1       24.749  -0.056  10.328  0.00  0.00    -0.080 A 
ATOM      3  C   LIG    1       23.739  -0.951  10.646  0.00  0.00    +0.080 A 
ATOM      4  C   LIG    1       23.390  -1.106  11.980  0.00  0.00    -0.060 A 
ATOM      5  C   LIG    1       24.055  -0.369  12.939  0.00  0.00    +0.160 A 
ATOM      6  N   LIG    1       25.011   0.474  12.601  0.00  0.00    -0.430 NA
ATOM      7  C   LIG    1       22.298  -2.067  12.375  0.00  0.00    +0.140 C 
ATOM      8  C   LIG    1       25.374   0.643  11.344  0.00  0.00    +0.140 A 
ATOM      9  C   LIG    1       26.474   1.618  11.012  0.00  0.00    +0.160 C 
ENDROOT
BRANCH   5  10
ATOM     10  N   LIG    1       23.690  -0.525  14.365  0.00  0.00    +0.030 N 
ATOM     11  O   LIG    1       22.768   0.119  14.833  0.00  0.00    -0.130 OA
ATOM     12  O   LIG    1       24.312  -1.299  15.071  0.00  0.00    -0.150 OA
ENDBRANCH   5  10
TORSDOF 1
ENDMDL
MODEL 9
REMARK VINA RESULT:    -4.693     24.140     25.206
REMARK INTER + INTRA:          -4.891
REMARK INTER:                  -5.157
REMARK INTRA:                   0.266
REMARK UNBOUND:                 0.077
REMARK  Name = ZINC000000334303
REMARK                            x       y       z     vdW  Elec       q    Type
REMARK                         _______ _______ _______ _____ _____    ______ ____
ROOT
ATOM      1  C   LIG    1       12.402 -11.058  23.467  0.00  0.00    +0.140 C 
ATOM      2  C   LIG    1       13.158 -10.683  22.218  0.00  0.00    -0.080 A 
ATOM      3  C   LIG    1       14.461 -11.116  22.030  0.00  0.00    +0.080 A 
ATOM      4  C   LIG    1       15.118 -10.746  20.865  0.00  0.00    -0.060 A 
ATOM      5  C   LIG    1       14.456  -9.964  19.939  0.00  0.00    +0.160 A 
ATOM      6  N   LIG    1       13.215  -9.570  20.151  0.00  0.00    -0.430 NA
ATOM      7  C   LIG    1       16.535 -11.192  20.615  0.00  0.00    +0.140 C 
ATOM      8  C   LIG    1       12.558  -9.907  21.244  0.00  0.00    +0.140 A 
ATOM      9  C   LIG    1       11.141  -9.431  21.437  0.00  0.00    +0.160 C 
ENDROOT
BRANCH   5  10
ATOM     10  N   LIG    1       15.147  -9.563  18.693  0.00  0.00    +0.030 N 
ATOM     11  O   LIG    1       15.574 -10.412  17.932  0.00  0.00    -0.130 OA
ATOM     12  O   LIG    1       15.289  -8.383  18.429  0.00  0.00    -0.150 OA
ENDBRANCH   5  10
TORSDOF 1
ENDMDL
