MODEL 1
REMARK VINA RESULT:    -5.778      0.000      0.000
REMARK INTER + INTRA:          -8.036
REMARK INTER:                  -7.636
REMARK INTRA:                  -0.401
REMARK UNBOUND:                -0.401
REMARK  Name = ZINC000004182030
REMARK                            x       y       z     vdW  Elec       q    Type
REMARK                         _______ _______ _______ _____ _____    ______ ____
ROOT
ATOM      1  C   LIG    1       27.607 -20.259   1.594  0.00  0.00    -0.120 A 
ATOM      2  C   LIG    1       27.619 -20.685   2.907  0.00  0.00    +0.140 A 
ATOM      3  C   LIG    1       28.389 -20.022   3.844  0.00  0.00    -0.030 A 
ATOM      4  C   LIG    1       29.150 -18.931   3.471  0.00  0.00    +0.120 A 
ATOM      5  C   LIG    1       29.143 -18.498   2.159  0.00  0.00    -0.060 A 
ATOM      6  C   LIG    1       28.374 -19.164   1.214  0.00  0.00    +0.280 A 
ENDROOT
BRANCH   1   8
ATOM      7  O   LIG    1       27.283 -21.347  -0.453  0.00  0.00    -0.180 OA
ATOM      8  N   LIG    1       26.781 -20.969   0.591  0.00  0.00    +0.040 N 
ATOM      9  O   LIG    1       25.603 -21.180   0.812  0.00  0.00    -0.150 OA
ENDBRANCH   1   8
BRANCH   6  10
ATOM     10  N   LIG    1       28.365 -18.729  -0.113  0.00  0.00    -0.730 N 
ATOM     11  H   LIG    1       28.055 -19.322  -0.816  0.00  0.00    +0.410 HD
BRANCH  10  12
ATOM     12  C   LIG    1       28.824 -17.378  -0.445  0.00  0.00    +0.260 C 
BRANCH  12  13
ATOM     13  C   LIG    1       30.273 -17.436  -0.930  0.00  0.00    +0.020 C 
BRANCH  13  14
ATOM     14  C   LIG    1       30.388 -16.720  -2.278  0.00  0.00    +0.180 C 
BRANCH  14  15
ATOM     15  O   LIG    1       29.189 -15.985  -2.530  0.00  0.00    -0.570 OA
ATOM     16  H   LIG    1       29.124 -15.637  -3.430  0.00  0.00    +0.390 HD
ENDBRANCH  14  15
ENDBRANCH  13  14
ENDBRANCH  12  13
ENDBRANCH  10  12
ENDBRANCH   6  10
TORSDOF 6
ENDMDL
MODEL 2
REMARK VINA RESULT:    -5.573      3.148      4.381
REMARK INTER + INTRA:          -7.766
REMARK INTER:                  -6.584
REMARK INTRA:                  -1.182
REMARK UNBOUND:                -0.401
REMARK  Name = ZINC000004182030
REMARK                            x       y       z     vdW  Elec       q    Type
REMARK                         _______ _______ _______ _____ _____    ______ ____
ROOT
ATOM      1  C   LIG    1       29.128 -18.441   1.293  0.00  0.00    -0.120 A 
ATOM      2  C   LIG    1       28.285 -19.160   0.469  0.00  0.00    +0.140 A 
ATOM      3  C   LIG    1       27.478 -20.150   0.997  0.00  0.00    -0.030 A 
ATOM      4  C   LIG    1       27.512 -20.425   2.352  0.00  0.00    +0.120 A 
ATOM      5  C   LIG    1       28.352 -19.710   3.182  0.00  0.00    -0.060 A 
ATOM      6  C   LIG    1       29.168 -18.718   2.654  0.00  0.00    +0.280 A 
ENDROOT
BRANCH   1   8
ATOM      7  O   LIG    1       30.851 -17.665  -0.088  0.00  0.00    -0.180 OA
ATOM      8  N   LIG    1       29.992 -17.380   0.727  0.00  0.00    +0.040 N 
ATOM      9  O   LIG    1       29.838 -16.223   1.071  0.00  0.00    -0.150 OA
ENDBRANCH   1   8
BRANCH   6  10
ATOM     10  N   LIG    1       30.019 -17.993   3.491  0.00  0.00    -0.730 N 
ATOM     11  H   LIG    1       29.884 -17.040   3.613  0.00  0.00    +0.410 HD
BRANCH  10  12
ATOM     12  C   LIG    1       31.117 -18.671   4.186  0.00  0.00    +0.260 C 
BRANCH  12  13
ATOM     13  C   LIG    1       32.360 -18.673   3.294  0.00  0.00    +0.020 C 
BRANCH  13  14
ATOM     14  C   LIG    1       33.007 -17.285   3.319  0.00  0.00    +0.180 C 
BRANCH  14  15
ATOM     15  O   LIG    1       32.643 -16.570   2.136  0.00  0.00    -0.570 OA
ATOM     16  H   LIG    1       33.002 -16.950   1.322  0.00  0.00    +0.390 HD
ENDBRANCH  14  15
ENDBRANCH  13  14
ENDBRANCH  12  13
ENDBRANCH  10  12
ENDBRANCH   6  10
TORSDOF 6
ENDMDL
MODEL 3
REMARK VINA RESULT:    -5.515      3.227      5.314
REMARK INTER + INTRA:          -7.689
REMARK INTER:                  -7.171
REMARK INTRA:                  -0.519
REMARK UNBOUND:                -0.401
REMARK  Name = ZINC000004182030
REMARK                            x       y       z     vdW  Elec       q    Type
REMARK                         _______ _______ _______ _____ _____    ______ ____
ROOT
ATOM      1  C   LIG    1       29.083 -18.509   1.548  0.00  0.00    -0.120 A 
ATOM      2  C   LIG    1       28.282 -19.230   0.686  0.00  0.00    +0.140 A 
ATOM      3  C   LIG    1       27.480 -20.246   1.172  0.00  0.00    -0.030 A 
ATOM      4  C   LIG    1       27.477 -20.544   2.522  0.00  0.00    +0.120 A 
ATOM      5  C   LIG    1       28.275 -19.825   3.390  0.00  0.00    -0.060 A 
ATOM      6  C   LIG    1       29.086 -18.808   2.905  0.00  0.00    +0.280 A 
ENDROOT
BRANCH   1   8
ATOM      7  O   LIG    1       31.137 -17.422   1.262  0.00  0.00    -0.180 OA
ATOM      8  N   LIG    1       29.942 -17.421   1.027  0.00  0.00    +0.040 N 
ATOM      9  O   LIG    1       29.453 -16.528   0.358  0.00  0.00    -0.150 OA
ENDBRANCH   1   8
BRANCH   6  10
ATOM     10  N   LIG    1       29.895 -18.080   3.781  0.00  0.00    -0.730 N 
ATOM     11  H   LIG    1       30.319 -17.260   3.482  0.00  0.00    +0.410 HD
BRANCH  10  12
ATOM     12  C   LIG    1       30.105 -18.554   5.151  0.00  0.00    +0.260 C 
BRANCH  12  13
ATOM     13  C   LIG    1       31.605 -18.652   5.433  0.00  0.00    +0.020 C 
BRANCH  13  14
ATOM     14  C   LIG    1       32.130 -20.001   4.933  0.00  0.00    +0.180 C 
BRANCH  14  15
ATOM     15  O   LIG    1       32.154 -20.932   6.017  0.00  0.00    -0.570 OA
ATOM     16  H   LIG    1       32.834 -20.746   6.679  0.00  0.00    +0.390 HD
ENDBRANCH  14  15
ENDBRANCH  13  14
ENDBRANCH  12  13
ENDBRANCH  10  12
ENDBRANCH   6  10
TORSDOF 6
ENDMDL
MODEL 4
REMARK VINA RESULT:    -5.288      2.917      3.526
REMARK INTER + INTRA:          -7.388
REMARK INTER:                  -6.277
REMARK INTRA:                  -1.111
REMARK UNBOUND:                -0.401
REMARK  Name = ZINC000004182030
REMARK                            x       y       z     vdW  Elec       q    Type
REMARK                         _______ _______ _______ _____ _____    ______ ____
ROOT
ATOM      1  C   LIG    1       27.626 -20.442   2.628  0.00  0.00    -0.120 A 
ATOM      2  C   LIG    1       26.541 -20.957   3.307  0.00  0.00    +0.140 A 
ATOM      3  C   LIG    1       25.389 -21.294   2.620  0.00  0.00    -0.030 A 
ATOM      4  C   LIG    1       25.321 -21.117   1.251  0.00  0.00    +0.120 A 
ATOM      5  C   LIG    1       26.404 -20.603   0.565  0.00  0.00    -0.060 A 
ATOM      6  C   LIG    1       27.559 -20.259   1.252  0.00  0.00    +0.280 A 
ENDROOT
BRANCH   1   8
ATOM      7  O   LIG    1       28.964 -18.981   3.874  0.00  0.00    -0.180 OA
ATOM      8  N   LIG    1       28.859 -20.082   3.365  0.00  0.00    +0.040 N 
ATOM      9  O   LIG    1       29.765 -20.889   3.467  0.00  0.00    -0.150 OA
ENDBRANCH   1   8
BRANCH   6  10
ATOM     10  N   LIG    1       28.656 -19.738   0.562  0.00  0.00    -0.730 N 
ATOM     11  H   LIG    1       29.424 -20.301   0.374  0.00  0.00    +0.410 HD
BRANCH  10  12
ATOM     12  C   LIG    1       28.649 -18.341   0.120  0.00  0.00    +0.260 C 
BRANCH  12  13
ATOM     13  C   LIG    1       29.838 -17.604   0.740  0.00  0.00    +0.020 C 
BRANCH  13  14
ATOM     14  C   LIG    1       31.013 -18.574   0.895  0.00  0.00    +0.180 C 
BRANCH  14  15
ATOM     15  O   LIG    1       31.490 -18.530   2.242  0.00  0.00    -0.570 OA
ATOM     16  H   LIG    1       31.485 -19.389   2.688  0.00  0.00    +0.390 HD
ENDBRANCH  14  15
ENDBRANCH  13  14
ENDBRANCH  12  13
ENDBRANCH  10  12
ENDBRANCH   6  10
TORSDOF 6
ENDMDL
MODEL 5
REMARK VINA RESULT:    -5.270      3.994      6.086
REMARK INTER + INTRA:          -7.365
REMARK INTER:                  -6.679
REMARK INTRA:                  -0.686
REMARK UNBOUND:                -0.401
REMARK  Name = ZINC000004182030
REMARK                            x       y       z     vdW  Elec       q    Type
REMARK                         _______ _______ _______ _____ _____    ______ ____
ROOT
ATOM      1  C   LIG    1       30.552 -17.184   1.314  0.00  0.00    -0.120 A 
ATOM      2  C   LIG    1       30.013 -17.033   0.053  0.00  0.00    +0.140 A 
ATOM      3  C   LIG    1       28.932 -17.802  -0.336  0.00  0.00    -0.030 A 
ATOM      4  C   LIG    1       28.386 -18.725   0.538  0.00  0.00    +0.120 A 
ATOM      5  C   LIG    1       28.920 -18.880   1.802  0.00  0.00    -0.060 A 
ATOM      6  C   LIG    1       30.009 -18.113   2.193  0.00  0.00    +0.280 A 
ENDROOT
BRANCH   1   8
ATOM      7  O   LIG    1       31.687 -15.152   1.567  0.00  0.00    -0.180 OA
ATOM      8  N   LIG    1       31.710 -16.359   1.729  0.00  0.00    +0.040 N 
ATOM      9  O   LIG    1       32.681 -16.888   2.239  0.00  0.00    -0.150 OA
ENDBRANCH   1   8
BRANCH   6  10
ATOM     10  N   LIG    1       30.552 -18.268   3.471  0.00  0.00    -0.730 N 
ATOM     11  H   LIG    1       30.986 -17.518   3.908  0.00  0.00    +0.410 HD
BRANCH  10  12
ATOM     12  C   LIG    1       30.466 -19.563   4.152  0.00  0.00    +0.260 C 
BRANCH  12  13
ATOM     13  C   LIG    1       31.866 -20.168   4.274  0.00  0.00    +0.020 C 
BRANCH  13  14
ATOM     14  C   LIG    1       32.328 -20.094   5.732  0.00  0.00    +0.180 C 
BRANCH  14  15
ATOM     15  O   LIG    1       31.804 -18.911   6.337  0.00  0.00    -0.570 OA
ATOM     16  H   LIG    1       32.475 -18.244   6.541  0.00  0.00    +0.390 HD
ENDBRANCH  14  15
ENDBRANCH  13  14
ENDBRANCH  12  13
ENDBRANCH  10  12
ENDBRANCH   6  10
TORSDOF 6
ENDMDL
MODEL 6
REMARK VINA RESULT:    -5.225      3.732      4.204
REMARK INTER + INTRA:          -7.306
REMARK INTER:                  -6.214
REMARK INTRA:                  -1.092
REMARK UNBOUND:                -0.401
REMARK  Name = ZINC000004182030
REMARK                            x       y       z     vdW  Elec       q    Type
REMARK                         _______ _______ _______ _____ _____    ______ ____
ROOT
ATOM      1  C   LIG    1       28.917 -19.416   3.111  0.00  0.00    -0.120 A 
ATOM      2  C   LIG    1       28.025 -20.387   2.703  0.00  0.00    +0.140 A 
ATOM      3  C   LIG    1       27.538 -20.383   1.410  0.00  0.00    -0.030 A 
ATOM      4  C   LIG    1       27.942 -19.406   0.519  0.00  0.00    +0.120 A 
ATOM      5  C   LIG    1       28.835 -18.431   0.919  0.00  0.00    -0.060 A 
ATOM      6  C   LIG    1       29.322 -18.430   2.220  0.00  0.00    +0.280 A 
ENDROOT
BRANCH   1   8
ATOM      7  O   LIG    1       30.459 -20.031   4.761  0.00  0.00    -0.180 OA
ATOM      8  N   LIG    1       29.438 -19.422   4.497  0.00  0.00    +0.040 N 
ATOM      9  O   LIG    1       28.849 -18.811   5.370  0.00  0.00    -0.150 OA
ENDBRANCH   1   8
BRANCH   6  10
ATOM     10  N   LIG    1       30.224 -17.445   2.628  0.00  0.00    -0.730 N 
ATOM     11  H   LIG    1       30.363 -17.275   3.573  0.00  0.00    +0.410 HD
BRANCH  10  12
ATOM     12  C   LIG    1       30.962 -16.667   1.629  0.00  0.00    +0.260 C 
BRANCH  12  13
ATOM     13  C   LIG    1       32.405 -17.169   1.556  0.00  0.00    +0.020 C 
BRANCH  13  14
ATOM     14  C   LIG    1       32.879 -17.563   2.958  0.00  0.00    +0.180 C 
BRANCH  14  15
ATOM     15  O   LIG    1       32.706 -18.970   3.140  0.00  0.00    -0.570 OA
ATOM     16  H   LIG    1       33.411 -19.388   3.654  0.00  0.00    +0.390 HD
ENDBRANCH  14  15
ENDBRANCH  13  14
ENDBRANCH  12  13
ENDBRANCH  10  12
ENDBRANCH   6  10
TORSDOF 6
ENDMDL
MODEL 7
REMARK VINA RESULT:    -5.218      2.586      2.968
REMARK INTER + INTRA:          -7.297
REMARK INTER:                  -6.799
REMARK INTRA:                  -0.497
REMARK UNBOUND:                -0.401
REMARK  Name = ZINC000004182030
REMARK                            x       y       z     vdW  Elec       q    Type
REMARK                         _______ _______ _______ _____ _____    ______ ____
ROOT
ATOM      1  C   LIG    1       28.413 -19.773   2.711  0.00  0.00    -0.120 A 
ATOM      2  C   LIG    1       27.423 -20.679   3.034  0.00  0.00    +0.140 A 
ATOM      3  C   LIG    1       26.531 -21.106   2.068  0.00  0.00    -0.030 A 
ATOM      4  C   LIG    1       26.625 -20.626   0.775  0.00  0.00    +0.120 A 
ATOM      5  C   LIG    1       27.613 -19.719   0.444  0.00  0.00    -0.060 A 
ATOM      6  C   LIG    1       28.508 -19.285   1.413  0.00  0.00    +0.280 A 
ENDROOT
BRANCH   1   8
ATOM      7  O   LIG    1       29.994 -20.133   4.398  0.00  0.00    -0.180 OA
ATOM      8  N   LIG    1       29.368 -19.317   3.746  0.00  0.00    +0.040 N 
ATOM      9  O   LIG    1       29.533 -18.126   3.939  0.00  0.00    -0.150 OA
ENDBRANCH   1   8
BRANCH   6  10
ATOM     10  N   LIG    1       29.508 -18.368   1.082  0.00  0.00    -0.730 N 
ATOM     11  H   LIG    1       30.344 -18.363   1.573  0.00  0.00    +0.410 HD
BRANCH  10  12
ATOM     12  C   LIG    1       29.294 -17.411  -0.008  0.00  0.00    +0.260 C 
BRANCH  12  13
ATOM     13  C   LIG    1       30.469 -17.479  -0.984  0.00  0.00    +0.020 C 
BRANCH  13  14
ATOM     14  C   LIG    1       30.169 -16.604  -2.204  0.00  0.00    +0.180 C 
BRANCH  14  15
ATOM     15  O   LIG    1       28.789 -16.236  -2.197  0.00  0.00    -0.570 OA
ATOM     16  H   LIG    1       28.598 -15.418  -2.678  0.00  0.00    +0.390 HD
ENDBRANCH  14  15
ENDBRANCH  13  14
ENDBRANCH  12  13
ENDBRANCH  10  12
ENDBRANCH   6  10
TORSDOF 6
ENDMDL
MODEL 8
REMARK VINA RESULT:    -5.160     16.510     17.878
REMARK INTER + INTRA:          -7.219
REMARK INTER:                  -6.183
REMARK INTRA:                  -1.037
REMARK UNBOUND:                -0.401
REMARK  Name = ZINC000004182030
REMARK                            x       y       z     vdW  Elec       q    Type
REMARK                         _______ _______ _______ _____ _____    ______ ____
ROOT
ATOM      1  C   LIG    1       21.169 -22.840  16.304  0.00  0.00    -0.120 A 
ATOM      2  C   LIG    1       20.267 -22.812  15.259  0.00  0.00    +0.140 A 
ATOM      3  C   LIG    1       20.703 -23.012  13.962  0.00  0.00    -0.030 A 
ATOM      4  C   LIG    1       22.042 -23.240  13.707  0.00  0.00    +0.120 A 
ATOM      5  C   LIG    1       22.949 -23.270  14.748  0.00  0.00    -0.060 A 
ATOM      6  C   LIG    1       22.516 -23.064  16.051  0.00  0.00    +0.280 A 
ENDROOT
BRANCH   1   8
ATOM      7  O   LIG    1       20.397 -21.507  18.067  0.00  0.00    -0.180 OA
ATOM      8  N   LIG    1       20.701 -22.626  17.693  0.00  0.00    +0.040 N 
ATOM      9  O   LIG    1       20.614 -23.569  18.457  0.00  0.00    -0.150 OA
ENDBRANCH   1   8
BRANCH   6  10
ATOM     10  N   LIG    1       23.431 -23.093  17.105  0.00  0.00    -0.730 N 
ATOM     11  H   LIG    1       23.240 -23.616  17.900  0.00  0.00    +0.410 HD
BRANCH  10  12
ATOM     12  C   LIG    1       24.681 -22.334  17.013  0.00  0.00    +0.260 C 
BRANCH  12  13
ATOM     13  C   LIG    1       25.044 -21.781  18.392  0.00  0.00    +0.020 C 
BRANCH  13  14
ATOM     14  C   LIG    1       23.810 -21.128  19.021  0.00  0.00    +0.180 C 
BRANCH  14  15
ATOM     15  O   LIG    1       23.124 -20.359  18.031  0.00  0.00    -0.570 OA
ATOM     16  H   LIG    1       23.581 -20.315  17.180  0.00  0.00    +0.390 HD
ENDBRANCH  14  15
ENDBRANCH  13  14
ENDBRANCH  12  13
ENDBRANCH  10  12
ENDBRANCH   6  10
TORSDOF 6
ENDMDL
MODEL 9
REMARK VINA RESULT:    -5.037     15.627     17.935
REMARK INTER + INTRA:          -7.057
REMARK INTER:                  -5.968
REMARK INTRA:                  -1.089
REMARK UNBOUND:                -0.401
REMARK  Name = ZINC000004182030
REMARK                            x       y       z     vdW  Elec       q    Type
REMARK                         _______ _______ _______ _____ _____    ______ ____
ROOT
ATOM      1  C   LIG    1       22.052 -23.583  15.032  0.00  0.00    -0.120 A 
ATOM      2  C   LIG    1       22.551 -23.433  13.754  0.00  0.00    +0.140 A 
ATOM      3  C   LIG    1       23.912 -23.524  13.526  0.00  0.00    -0.030 A 
ATOM      4  C   LIG    1       24.777 -23.766  14.576  0.00  0.00    +0.120 A 
ATOM      5  C   LIG    1       24.285 -23.918  15.857  0.00  0.00    -0.060 A 
ATOM      6  C   LIG    1       22.920 -23.821  16.091  0.00  0.00    +0.280 A 
ENDROOT
BRANCH   1   8
ATOM      7  O   LIG    1       20.111 -22.435  15.659  0.00  0.00    -0.180 OA
ATOM      8  N   LIG    1       20.595 -23.485  15.276  0.00  0.00    +0.040 N 
ATOM      9  O   LIG    1       19.880 -24.452  15.087  0.00  0.00    -0.150 OA
ENDBRANCH   1   8
BRANCH   6  10
ATOM     10  N   LIG    1       22.419 -23.973  17.386  0.00  0.00    -0.730 N 
ATOM     11  H   LIG    1       21.935 -24.779  17.628  0.00  0.00    +0.410 HD
BRANCH  10  12
ATOM     12  C   LIG    1       22.623 -22.917  18.380  0.00  0.00    +0.260 C 
BRANCH  12  13
ATOM     13  C   LIG    1       21.269 -22.464  18.929  0.00  0.00    +0.020 C 
BRANCH  13  14
ATOM     14  C   LIG    1       20.478 -23.686  19.404  0.00  0.00    +0.180 C 
BRANCH  14  15
ATOM     15  O   LIG    1       19.588 -24.108  18.369  0.00  0.00    -0.570 OA
ATOM     16  H   LIG    1       20.009 -24.205  17.504  0.00  0.00    +0.390 HD
ENDBRANCH  14  15
ENDBRANCH  13  14
ENDBRANCH  12  13
ENDBRANCH  10  12
ENDBRANCH   6  10
TORSDOF 6
ENDMDL
