MODEL 1
REMARK VINA RESULT:    -5.137      0.000      0.000
REMARK INTER + INTRA:          -6.180
REMARK INTER:                  -6.038
REMARK INTRA:                  -0.142
REMARK UNBOUND:                -0.142
REMARK  Name = ZINC000071978643
REMARK                            x       y       z     vdW  Elec       q    Type
REMARK                         _______ _______ _______ _____ _____    ______ ____
ROOT
ATOM      1  N   LIG    1       29.058 -18.652   2.237  0.00  0.00    -0.340 N 
ATOM      2  C   LIG    1       28.262 -19.740   2.161  0.00  0.00    +0.350 A 
ATOM      3  C   LIG    1       27.856 -19.866   0.876  0.00  0.00    -0.190 A 
ATOM      4  C   LIG    1       28.424 -18.820   0.141  0.00  0.00    +0.320 A 
ATOM      5  N   LIG    1       29.139 -18.088   0.957  0.00  0.00    -0.270 NA
ENDROOT
BRANCH   3   6
ATOM      6  N   LIG    1       26.968 -20.923   0.343  0.00  0.00    +0.070 N 
ATOM      7  O   LIG    1       25.897 -21.144   0.877  0.00  0.00    -0.160 OA
ATOM      8  O   LIG    1       27.308 -21.571  -0.631  0.00  0.00    -0.170 OA
ENDBRANCH   3   6
BRANCH   1   9
ATOM      9  C   LIG    1       29.716 -18.147   3.444  0.00  0.00    +0.270 C 
ATOM     10  C   LIG    1       31.228 -18.340   3.318  0.00  0.00    +0.070 C 
BRANCH   9  12
ATOM     11  C   LIG    1       29.974 -18.472   5.908  0.00  0.00    +0.040 C 
ATOM     12  C   LIG    1       29.203 -18.917   4.663  0.00  0.00    +0.010 C 
ENDBRANCH   9  12
ENDBRANCH   1   9
TORSDOF 3
ENDMDL
MODEL 2
REMARK VINA RESULT:    -4.848      1.197      2.050
REMARK INTER + INTRA:          -5.839
REMARK INTER:                  -5.681
REMARK INTRA:                  -0.158
REMARK UNBOUND:                -0.142
REMARK  Name = ZINC000071978643
REMARK                            x       y       z     vdW  Elec       q    Type
REMARK                         _______ _______ _______ _____ _____    ______ ____
ROOT
ATOM      1  N   LIG    1       29.064 -19.279   2.916  0.00  0.00    -0.340 N 
ATOM      2  C   LIG    1       28.349 -19.357   1.775  0.00  0.00    +0.350 A 
ATOM      3  C   LIG    1       27.670 -20.528   1.792  0.00  0.00    -0.190 A 
ATOM      4  C   LIG    1       27.981 -21.188   2.986  0.00  0.00    +0.320 A 
ATOM      5  N   LIG    1       28.821 -20.443   3.658  0.00  0.00    -0.270 NA
ENDROOT
BRANCH   3   6
ATOM      6  N   LIG    1       26.761 -21.023   0.734  0.00  0.00    +0.070 N 
ATOM      7  O   LIG    1       27.206 -21.327  -0.358  0.00  0.00    -0.160 OA
ATOM      8  O   LIG    1       25.568 -21.128   0.956  0.00  0.00    -0.170 OA
ENDBRANCH   3   6
BRANCH   1   9
ATOM      9  C   LIG    1       29.944 -18.175   3.310  0.00  0.00    +0.270 C 
ATOM     10  C   LIG    1       30.138 -17.231   2.122  0.00  0.00    +0.070 C 
BRANCH   9  12
ATOM     11  C   LIG    1       31.475 -18.535   5.250  0.00  0.00    +0.040 C 
ATOM     12  C   LIG    1       31.300 -18.735   3.743  0.00  0.00    +0.010 C 
ENDBRANCH   9  12
ENDBRANCH   1   9
TORSDOF 3
ENDMDL
MODEL 3
REMARK VINA RESULT:    -4.688      3.696      4.830
REMARK INTER + INTRA:          -5.651
REMARK INTER:                  -5.498
REMARK INTRA:                  -0.153
REMARK UNBOUND:                -0.142
REMARK  Name = ZINC000071978643
REMARK                            x       y       z     vdW  Elec       q    Type
REMARK                         _______ _______ _______ _____ _____    ______ ____
ROOT
ATOM      1  N   LIG    1       29.022 -18.594   1.514  0.00  0.00    -0.340 N 
ATOM      2  C   LIG    1       30.077 -17.992   2.101  0.00  0.00    +0.350 A 
ATOM      3  C   LIG    1       30.679 -17.214   1.171  0.00  0.00    -0.190 A 
ATOM      4  C   LIG    1       29.965 -17.344  -0.025  0.00  0.00    +0.320 A 
ATOM      5  N   LIG    1       28.976 -18.176   0.177  0.00  0.00    -0.270 NA
ENDROOT
BRANCH   3   6
ATOM      6  N   LIG    1       31.879 -16.374   1.383  0.00  0.00    +0.070 N 
ATOM      7  O   LIG    1       32.670 -16.654   2.264  0.00  0.00    -0.160 OA
ATOM      8  O   LIG    1       32.076 -15.404   0.673  0.00  0.00    -0.170 OA
ENDBRANCH   3   6
BRANCH   1   9
ATOM      9  C   LIG    1       28.092 -19.525   2.158  0.00  0.00    +0.270 C 
ATOM     10  C   LIG    1       28.611 -19.881   3.552  0.00  0.00    +0.070 C 
BRANCH   9  12
ATOM     11  C   LIG    1       26.608 -20.837   0.635  0.00  0.00    +0.040 C 
ATOM     12  C   LIG    1       27.979 -20.797   1.316  0.00  0.00    +0.010 C 
ENDBRANCH   9  12
ENDBRANCH   1   9
TORSDOF 3
ENDMDL
MODEL 4
REMARK VINA RESULT:    -4.646      3.597      5.105
REMARK INTER + INTRA:          -5.603
REMARK INTER:                  -5.457
REMARK INTRA:                  -0.145
REMARK UNBOUND:                -0.142
REMARK  Name = ZINC000071978643
REMARK                            x       y       z     vdW  Elec       q    Type
REMARK                         _______ _______ _______ _____ _____    ______ ____
ROOT
ATOM      1  N   LIG    1       29.090 -18.792   2.445  0.00  0.00    -0.340 N 
ATOM      2  C   LIG    1       29.845 -18.034   1.624  0.00  0.00    +0.350 A 
ATOM      3  C   LIG    1       30.795 -17.429   2.375  0.00  0.00    -0.190 A 
ATOM      4  C   LIG    1       30.614 -17.833   3.703  0.00  0.00    +0.320 A 
ATOM      5  N   LIG    1       29.588 -18.645   3.747  0.00  0.00    -0.270 NA
ENDROOT
BRANCH   3   6
ATOM      6  N   LIG    1       31.838 -16.504   1.881  0.00  0.00    +0.070 N 
ATOM      7  O   LIG    1       31.542 -15.368   1.559  0.00  0.00    -0.160 OA
ATOM      8  O   LIG    1       32.995 -16.878   1.798  0.00  0.00    -0.170 OA
ENDBRANCH   3   6
BRANCH   1   9
ATOM      9  C   LIG    1       27.948 -19.619   2.049  0.00  0.00    +0.270 C 
ATOM     10  C   LIG    1       28.100 -21.018   2.648  0.00  0.00    +0.070 C 
BRANCH   9  12
ATOM     11  C   LIG    1       27.219 -21.032   0.122  0.00  0.00    +0.040 C 
ATOM     12  C   LIG    1       27.898 -19.721   0.523  0.00  0.00    +0.010 C 
ENDBRANCH   9  12
ENDBRANCH   1   9
TORSDOF 3
ENDMDL
MODEL 5
REMARK VINA RESULT:    -4.596     23.462     24.102
REMARK INTER + INTRA:          -5.544
REMARK INTER:                  -5.401
REMARK INTRA:                  -0.143
REMARK UNBOUND:                -0.142
REMARK  Name = ZINC000071978643
REMARK                            x       y       z     vdW  Elec       q    Type
REMARK                         _______ _______ _______ _____ _____    ______ ____
ROOT
ATOM      1  N   LIG    1       15.527 -12.307  20.821  0.00  0.00    -0.340 N 
ATOM      2  C   LIG    1       14.617 -11.569  20.151  0.00  0.00    +0.350 A 
ATOM      3  C   LIG    1       15.257 -10.495  19.633  0.00  0.00    -0.190 A 
ATOM      4  C   LIG    1       16.605 -10.580  19.997  0.00  0.00    +0.320 A 
ATOM      5  N   LIG    1       16.767 -11.662  20.714  0.00  0.00    -0.270 NA
ENDROOT
BRANCH   3   6
ATOM      6  N   LIG    1       14.639  -9.420  18.824  0.00  0.00    +0.070 N 
ATOM      7  O   LIG    1       15.283  -8.427  18.539  0.00  0.00    -0.160 OA
ATOM      8  O   LIG    1       13.487  -9.529  18.443  0.00  0.00    -0.170 OA
ENDBRANCH   3   6
BRANCH   1   9
ATOM      9  C   LIG    1       15.266 -13.558  21.537  0.00  0.00    +0.270 C 
ATOM     10  C   LIG    1       14.919 -13.248  22.994  0.00  0.00    +0.070 C 
BRANCH   9  12
ATOM     11  C   LIG    1       16.118 -15.855  21.048  0.00  0.00    +0.040 C 
ATOM     12  C   LIG    1       16.513 -14.443  21.487  0.00  0.00    +0.010 C 
ENDBRANCH   9  12
ENDBRANCH   1   9
TORSDOF 3
ENDMDL
MODEL 6
REMARK VINA RESULT:    -4.557     20.845     21.839
REMARK INTER + INTRA:          -5.497
REMARK INTER:                  -5.334
REMARK INTRA:                  -0.163
REMARK UNBOUND:                -0.142
REMARK  Name = ZINC000071978643
REMARK                            x       y       z     vdW  Elec       q    Type
REMARK                         _______ _______ _______ _____ _____    ______ ____
ROOT
ATOM      1  N   LIG    1       23.932  -0.230  11.304  0.00  0.00    -0.340 N 
ATOM      2  C   LIG    1       24.482   0.740  10.543  0.00  0.00    +0.350 A 
ATOM      3  C   LIG    1       24.366   0.365   9.248  0.00  0.00    -0.190 A 
ATOM      4  C   LIG    1       23.722  -0.877   9.216  0.00  0.00    +0.320 A 
ATOM      5  N   LIG    1       23.467  -1.237  10.448  0.00  0.00    -0.270 NA
ENDROOT
BRANCH   3   6
ATOM      6  N   LIG    1       24.838   1.132   8.074  0.00  0.00    +0.070 N 
ATOM      7  O   LIG    1       24.993   2.337   8.155  0.00  0.00    -0.160 OA
ATOM      8  O   LIG    1       25.073   0.558   7.026  0.00  0.00    -0.170 OA
ENDBRANCH   3   6
BRANCH   1   9
ATOM      9  C   LIG    1       23.842  -0.232  12.766  0.00  0.00    +0.270 C 
ATOM     10  C   LIG    1       25.153   0.286  13.359  0.00  0.00    +0.070 C 
BRANCH   9  12
ATOM     11  C   LIG    1       22.321  -1.684  14.116  0.00  0.00    +0.040 C 
ATOM     12  C   LIG    1       23.588  -1.658  13.258  0.00  0.00    +0.010 C 
ENDBRANCH   9  12
ENDBRANCH   1   9
TORSDOF 3
ENDMDL
MODEL 7
REMARK VINA RESULT:    -4.456      3.637      5.281
REMARK INTER + INTRA:          -5.379
REMARK INTER:                  -5.212
REMARK INTRA:                  -0.167
REMARK UNBOUND:                -0.142
REMARK  Name = ZINC000071978643
REMARK                            x       y       z     vdW  Elec       q    Type
REMARK                         _______ _______ _______ _____ _____    ______ ____
ROOT
ATOM      1  N   LIG    1       29.503 -18.813   1.736  0.00  0.00    -0.340 N 
ATOM      2  C   LIG    1       30.769 -18.456   2.040  0.00  0.00    +0.350 A 
ATOM      3  C   LIG    1       30.865 -18.382   3.388  0.00  0.00    -0.190 A 
ATOM      4  C   LIG    1       29.615 -18.706   3.926  0.00  0.00    +0.320 A 
ATOM      5  N   LIG    1       28.796 -18.958   2.937  0.00  0.00    -0.270 NA
ENDROOT
BRANCH   3   6
ATOM      6  N   LIG    1       32.077 -18.021   4.156  0.00  0.00    +0.070 N 
ATOM      7  O   LIG    1       32.966 -17.381   3.625  0.00  0.00    -0.160 OA
ATOM      8  O   LIG    1       32.185 -18.362   5.320  0.00  0.00    -0.170 OA
ENDBRANCH   3   6
BRANCH   1   9
ATOM      9  C   LIG    1       28.962 -19.009   0.389  0.00  0.00    +0.270 C 
ATOM     10  C   LIG    1       28.781 -17.650  -0.290  0.00  0.00    +0.070 C 
BRANCH   9  12
ATOM     11  C   LIG    1       27.756 -21.161  -0.001  0.00  0.00    +0.040 C 
ATOM     12  C   LIG    1       27.609 -19.717   0.482  0.00  0.00    +0.010 C 
ENDBRANCH   9  12
ENDBRANCH   1   9
TORSDOF 3
ENDMDL
MODEL 8
REMARK VINA RESULT:    -4.202     23.769     24.892
REMARK INTER + INTRA:          -5.081
REMARK INTER:                  -4.920
REMARK INTRA:                  -0.161
REMARK UNBOUND:                -0.142
REMARK  Name = ZINC000071978643
REMARK                            x       y       z     vdW  Elec       q    Type
REMARK                         _______ _______ _______ _____ _____    ______ ____
ROOT
ATOM      1  N   LIG    1       14.609 -10.827  21.250  0.00  0.00    -0.340 N 
ATOM      2  C   LIG    1       15.716 -11.540  20.958  0.00  0.00    +0.350 A 
ATOM      3  C   LIG    1       15.787 -12.570  21.834  0.00  0.00    -0.190 A 
ATOM      4  C   LIG    1       14.684 -12.483  22.690  0.00  0.00    +0.320 A 
ATOM      5  N   LIG    1       13.980 -11.435  22.345  0.00  0.00    -0.270 NA
ENDROOT
BRANCH   3   6
ATOM      6  N   LIG    1       16.845 -13.603  21.878  0.00  0.00    +0.070 N 
ATOM      7  O   LIG    1       17.869 -13.400  22.504  0.00  0.00    -0.160 OA
ATOM      8  O   LIG    1       16.691 -14.659  21.290  0.00  0.00    -0.170 OA
ENDBRANCH   3   6
BRANCH   1   9
ATOM      9  C   LIG    1       14.146  -9.626  20.549  0.00  0.00    +0.270 C 
ATOM     10  C   LIG    1       12.933  -9.975  19.686  0.00  0.00    +0.070 C 
BRANCH   9  12
ATOM     11  C   LIG    1       14.795  -9.064  18.203  0.00  0.00    +0.040 C 
ATOM     12  C   LIG    1       15.269  -9.092  19.658  0.00  0.00    +0.010 C 
ENDBRANCH   9  12
ENDBRANCH   1   9
TORSDOF 3
ENDMDL
MODEL 9
REMARK VINA RESULT:    -4.122     15.827     16.583
REMARK INTER + INTRA:          -4.986
REMARK INTER:                  -4.849
REMARK INTRA:                  -0.138
REMARK UNBOUND:                -0.142
REMARK  Name = ZINC000071978643
REMARK                            x       y       z     vdW  Elec       q    Type
REMARK                         _______ _______ _______ _____ _____    ______ ____
ROOT
ATOM      1  N   LIG    1       22.556 -22.351  17.646  0.00  0.00    -0.340 N 
ATOM      2  C   LIG    1       22.318 -23.126  16.567  0.00  0.00    +0.350 A 
ATOM      3  C   LIG    1       21.069 -22.849  16.127  0.00  0.00    -0.190 A 
ATOM      4  C   LIG    1       20.525 -21.870  16.966  0.00  0.00    +0.320 A 
ATOM      5  N   LIG    1       21.413 -21.576  17.881  0.00  0.00    -0.270 NA
ENDROOT
BRANCH   3   6
ATOM      6  N   LIG    1       20.396 -23.471  14.965  0.00  0.00    +0.070 N 
ATOM      7  O   LIG    1       20.526 -22.987  13.855  0.00  0.00    -0.160 OA
ATOM      8  O   LIG    1       19.714 -24.469  15.118  0.00  0.00    -0.170 OA
ENDBRANCH   3   6
BRANCH   1   9
ATOM      9  C   LIG    1       23.790 -22.329  18.436  0.00  0.00    +0.270 C 
ATOM     10  C   LIG    1       23.768 -21.124  19.379  0.00  0.00    +0.070 C 
BRANCH   9  12
ATOM     11  C   LIG    1       26.277 -22.126  18.325  0.00  0.00    +0.040 C 
ATOM     12  C   LIG    1       24.993 -22.220  17.498  0.00  0.00    +0.010 C 
ENDBRANCH   9  12
ENDBRANCH   1   9
TORSDOF 3
ENDMDL
