MODEL 1
REMARK VINA RESULT:    -5.738      0.000      0.000
REMARK INTER + INTRA:          -6.931
REMARK INTER:                  -6.576
REMARK INTRA:                  -0.354
REMARK UNBOUND:                -0.354
REMARK  Name = ZINC000019868631
REMARK                            x       y       z     vdW  Elec       q    Type
REMARK                         _______ _______ _______ _____ _____    ______ ____
ROOT
ATOM      1  C   LIG    1       28.062 -20.326   2.406  0.00  0.00    +0.280 A 
ATOM      2  C   LIG    1       28.883 -19.446   3.100  0.00  0.00    +0.000 A 
ATOM      3  C   LIG    1       29.409 -18.342   2.457  0.00  0.00    +0.110 A 
ATOM      4  C   LIG    1       29.119 -18.112   1.123  0.00  0.00    +0.050 A 
ATOM      5  C   LIG    1       28.300 -18.989   0.429  0.00  0.00    +0.110 A 
ATOM      6  F   LIG    1       29.634 -17.032   0.496  0.00  0.00    -0.130 F 
ATOM      7  C   LIG    1       27.777 -20.096   1.066  0.00  0.00    -0.100 A 
ENDROOT
BRANCH   7   8
ATOM      8  N   LIG    1       26.903 -21.033   0.324  0.00  0.00    +0.040 N 
ATOM      9  O   LIG    1       25.763 -21.234   0.706  0.00  0.00    -0.140 OA
ATOM     10  O   LIG    1       27.322 -21.602  -0.667  0.00  0.00    -0.180 OA
ENDBRANCH   7   8
BRANCH   1  11
ATOM     11  N   LIG    1       27.529 -21.444   3.054  0.00  0.00    -0.570 N 
ATOM     12  H   LIG    1       26.660 -21.388   3.482  0.00  0.00    +0.420 HD
BRANCH  11  13
ATOM     13  N   LIG    1       28.232 -22.614   3.087  0.00  0.00    -0.600 NA
ATOM     14  H   LIG    1       27.667 -23.385   2.763  0.00  0.00    +0.370 HD
ATOM     15  H   LIG    1       28.591 -22.794   4.013  0.00  0.00    +0.340 HD
ENDBRANCH  11  13
ENDBRANCH   1  11
TORSDOF 3
ENDMDL
MODEL 2
REMARK VINA RESULT:    -5.605      4.159      4.840
REMARK INTER + INTRA:          -6.779
REMARK INTER:                  -6.252
REMARK INTRA:                  -0.527
REMARK UNBOUND:                -0.354
REMARK  Name = ZINC000019868631
REMARK                            x       y       z     vdW  Elec       q    Type
REMARK                         _______ _______ _______ _____ _____    ______ ____
ROOT
ATOM      1  C   LIG    1       28.902 -18.384   0.501  0.00  0.00    +0.280 A 
ATOM      2  C   LIG    1       27.976 -19.406   0.334  0.00  0.00    +0.000 A 
ATOM      3  C   LIG    1       27.584 -20.167   1.420  0.00  0.00    +0.110 A 
ATOM      4  C   LIG    1       28.113 -19.910   2.673  0.00  0.00    +0.050 A 
ATOM      5  C   LIG    1       29.037 -18.891   2.842  0.00  0.00    +0.110 A 
ATOM      6  F   LIG    1       27.729 -20.654   3.733  0.00  0.00    -0.130 F 
ATOM      7  C   LIG    1       29.435 -18.133   1.760  0.00  0.00    -0.100 A 
ENDROOT
BRANCH   7   8
ATOM      8  N   LIG    1       30.423 -17.045   1.940  0.00  0.00    +0.040 N 
ATOM      9  O   LIG    1       30.152 -15.912   1.583  0.00  0.00    -0.140 OA
ATOM     10  O   LIG    1       31.505 -17.282   2.446  0.00  0.00    -0.180 OA
ENDBRANCH   7   8
BRANCH   1  11
ATOM     11  N   LIG    1       29.300 -17.615  -0.595  0.00  0.00    -0.570 N 
ATOM     12  H   LIG    1       30.148 -17.795  -1.032  0.00  0.00    +0.420 HD
BRANCH  11  13
ATOM     13  N   LIG    1       28.497 -16.609  -1.051  0.00  0.00    -0.600 NA
ATOM     14  H   LIG    1       28.497 -15.828  -0.411  0.00  0.00    +0.370 HD
ATOM     15  H   LIG    1       27.559 -16.941  -1.216  0.00  0.00    +0.340 HD
ENDBRANCH  11  13
ENDBRANCH   1  11
TORSDOF 3
ENDMDL
MODEL 3
REMARK VINA RESULT:    -5.569      1.730      2.713
REMARK INTER + INTRA:          -6.737
REMARK INTER:                  -6.371
REMARK INTRA:                  -0.366
REMARK UNBOUND:                -0.354
REMARK  Name = ZINC000019868631
REMARK                            x       y       z     vdW  Elec       q    Type
REMARK                         _______ _______ _______ _____ _____    ______ ____
ROOT
ATOM      1  C   LIG    1       27.760 -20.034   1.144  0.00  0.00    +0.280 A 
ATOM      2  C   LIG    1       28.457 -18.925   0.682  0.00  0.00    +0.000 A 
ATOM      3  C   LIG    1       29.235 -18.186   1.553  0.00  0.00    +0.110 A 
ATOM      4  C   LIG    1       29.320 -18.550   2.885  0.00  0.00    +0.050 A 
ATOM      5  C   LIG    1       28.626 -19.657   3.349  0.00  0.00    +0.110 A 
ATOM      6  F   LIG    1       30.081 -17.827   3.735  0.00  0.00    -0.130 F 
ATOM      7  C   LIG    1       27.844 -20.394   2.484  0.00  0.00    -0.100 A 
ENDROOT
BRANCH   7   8
ATOM      8  N   LIG    1       27.102 -21.575   2.979  0.00  0.00    +0.040 N 
ATOM      9  O   LIG    1       25.884 -21.555   3.024  0.00  0.00    -0.140 OA
ATOM     10  O   LIG    1       27.708 -22.567   3.342  0.00  0.00    -0.180 OA
ENDBRANCH   7   8
BRANCH   1  11
ATOM     11  N   LIG    1       26.973 -20.782   0.265  0.00  0.00    -0.570 N 
ATOM     12  H   LIG    1       26.008 -20.681   0.273  0.00  0.00    +0.420 HD
BRANCH  11  13
ATOM     13  N   LIG    1       27.561 -21.656  -0.605  0.00  0.00    -0.600 NA
ATOM     14  H   LIG    1       27.945 -22.450  -0.115  0.00  0.00    +0.370 HD
ATOM     15  H   LIG    1       28.269 -21.195  -1.157  0.00  0.00    +0.340 HD
ENDBRANCH  11  13
ENDBRANCH   1  11
TORSDOF 3
ENDMDL
MODEL 4
REMARK VINA RESULT:    -5.339     15.857     16.756
REMARK INTER + INTRA:          -6.473
REMARK INTER:                  -5.944
REMARK INTRA:                  -0.529
REMARK UNBOUND:                -0.354
REMARK  Name = ZINC000019868631
REMARK                            x       y       z     vdW  Elec       q    Type
REMARK                         _______ _______ _______ _____ _____    ______ ____
ROOT
ATOM      1  C   LIG    1       20.723 -24.193  16.295  0.00  0.00    +0.280 A 
ATOM      2  C   LIG    1       20.031 -23.638  15.227  0.00  0.00    +0.000 A 
ATOM      3  C   LIG    1       20.725 -23.075  14.173  0.00  0.00    +0.110 A 
ATOM      4  C   LIG    1       22.109 -23.064  14.182  0.00  0.00    +0.050 A 
ATOM      5  C   LIG    1       22.802 -23.618  15.246  0.00  0.00    +0.110 A 
ATOM      6  F   LIG    1       22.786 -22.514  13.151  0.00  0.00    -0.130 F 
ATOM      7  C   LIG    1       22.112 -24.177  16.304  0.00  0.00    -0.100 A 
ENDROOT
BRANCH   7   8
ATOM      8  N   LIG    1       22.852 -24.768  17.441  0.00  0.00    +0.040 N 
ATOM      9  O   LIG    1       22.765 -24.268  18.549  0.00  0.00    -0.140 OA
ATOM     10  O   LIG    1       23.548 -25.752  17.270  0.00  0.00    -0.180 OA
ENDBRANCH   7   8
BRANCH   1  11
ATOM     11  N   LIG    1       20.022 -24.763  17.363  0.00  0.00    -0.570 N 
ATOM     12  H   LIG    1       19.776 -25.701  17.335  0.00  0.00    +0.420 HD
BRANCH  11  13
ATOM     13  N   LIG    1       19.684 -23.999  18.443  0.00  0.00    -0.600 NA
ATOM     14  H   LIG    1       18.683 -23.965  18.563  0.00  0.00    +0.370 HD
ATOM     15  H   LIG    1       20.071 -23.070  18.364  0.00  0.00    +0.340 HD
ENDBRANCH  11  13
ENDBRANCH   1  11
TORSDOF 3
ENDMDL
MODEL 5
REMARK VINA RESULT:    -5.222      3.784      4.064
REMARK INTER + INTRA:          -6.339
REMARK INTER:                  -6.027
REMARK INTRA:                  -0.312
REMARK UNBOUND:                -0.354
REMARK  Name = ZINC000019868631
REMARK                            x       y       z     vdW  Elec       q    Type
REMARK                         _______ _______ _______ _____ _____    ______ ____
ROOT
ATOM      1  C   LIG    1       29.169 -18.947   3.406  0.00  0.00    +0.280 A 
ATOM      2  C   LIG    1       28.251 -19.986   3.482  0.00  0.00    +0.000 A 
ATOM      3  C   LIG    1       27.589 -20.407   2.344  0.00  0.00    +0.110 A 
ATOM      4  C   LIG    1       27.841 -19.794   1.129  0.00  0.00    +0.050 A 
ATOM      5  C   LIG    1       28.757 -18.757   1.050  0.00  0.00    +0.110 A 
ATOM      6  F   LIG    1       27.194 -20.207   0.018  0.00  0.00    -0.130 F 
ATOM      7  C   LIG    1       29.416 -18.330   2.185  0.00  0.00    -0.100 A 
ENDROOT
BRANCH   7   8
ATOM      8  N   LIG    1       30.394 -17.221   2.102  0.00  0.00    +0.040 N 
ATOM      9  O   LIG    1       30.072 -16.164   1.589  0.00  0.00    -0.140 OA
ATOM     10  O   LIG    1       31.518 -17.366   2.545  0.00  0.00    -0.180 OA
ENDBRANCH   7   8
BRANCH   1  11
ATOM     11  N   LIG    1       29.839 -18.519   4.556  0.00  0.00    -0.570 N 
ATOM     12  H   LIG    1       30.295 -17.663   4.561  0.00  0.00    +0.420 HD
BRANCH  11  13
ATOM     13  N   LIG    1       29.852 -19.307   5.671  0.00  0.00    -0.600 NA
ATOM     14  H   LIG    1       29.497 -20.230   5.467  0.00  0.00    +0.370 HD
ATOM     15  H   LIG    1       29.331 -18.878   6.423  0.00  0.00    +0.340 HD
ENDBRANCH  11  13
ENDBRANCH   1  11
TORSDOF 3
ENDMDL
MODEL 6
REMARK VINA RESULT:    -5.212      2.369      3.243
REMARK INTER + INTRA:          -6.328
REMARK INTER:                  -5.812
REMARK INTRA:                  -0.516
REMARK UNBOUND:                -0.354
REMARK  Name = ZINC000019868631
REMARK                            x       y       z     vdW  Elec       q    Type
REMARK                         _______ _______ _______ _____ _____    ______ ____
ROOT
ATOM      1  C   LIG    1       29.061 -18.755   1.423  0.00  0.00    +0.280 A 
ATOM      2  C   LIG    1       29.788 -17.899   2.239  0.00  0.00    +0.000 A 
ATOM      3  C   LIG    1       29.798 -18.092   3.607  0.00  0.00    +0.110 A 
ATOM      4  C   LIG    1       29.083 -19.138   4.165  0.00  0.00    +0.050 A 
ATOM      5  C   LIG    1       28.356 -19.994   3.352  0.00  0.00    +0.110 A 
ATOM      6  F   LIG    1       29.093 -19.326   5.502  0.00  0.00    -0.130 F 
ATOM      7  C   LIG    1       28.340 -19.801   1.985  0.00  0.00    -0.100 A 
ENDROOT
BRANCH   7   8
ATOM      8  N   LIG    1       27.563 -20.715   1.118  0.00  0.00    +0.040 N 
ATOM      9  O   LIG    1       26.684 -20.271   0.399  0.00  0.00    -0.140 OA
ATOM     10  O   LIG    1       27.801 -21.909   1.122  0.00  0.00    -0.180 OA
ENDBRANCH   7   8
BRANCH   1  11
ATOM     11  N   LIG    1       29.049 -18.561   0.039  0.00  0.00    -0.570 N 
ATOM     12  H   LIG    1       29.594 -19.123  -0.535  0.00  0.00    +0.420 HD
BRANCH  11  13
ATOM     13  N   LIG    1       28.273 -17.578  -0.507  0.00  0.00    -0.600 NA
ATOM     14  H   LIG    1       27.874 -17.878  -1.384  0.00  0.00    +0.370 HD
ATOM     15  H   LIG    1       28.799 -16.725  -0.623  0.00  0.00    +0.340 HD
ENDBRANCH  11  13
ENDBRANCH   1  11
TORSDOF 3
ENDMDL
MODEL 7
REMARK VINA RESULT:    -5.071     15.262     16.169
REMARK INTER + INTRA:          -6.167
REMARK INTER:                  -5.649
REMARK INTRA:                  -0.518
REMARK UNBOUND:                -0.354
REMARK  Name = ZINC000019868631
REMARK                            x       y       z     vdW  Elec       q    Type
REMARK                         _______ _______ _______ _____ _____    ______ ____
ROOT
ATOM      1  C   LIG    1       22.821 -22.619  15.724  0.00  0.00    +0.280 A 
ATOM      2  C   LIG    1       23.507 -21.934  16.718  0.00  0.00    +0.000 A 
ATOM      3  C   LIG    1       22.816 -21.396  17.788  0.00  0.00    +0.110 A 
ATOM      4  C   LIG    1       21.442 -21.540  17.869  0.00  0.00    +0.050 A 
ATOM      5  C   LIG    1       20.755 -22.224  16.878  0.00  0.00    +0.110 A 
ATOM      6  F   LIG    1       20.769 -21.014  18.915  0.00  0.00    -0.130 F 
ATOM      7  C   LIG    1       21.440 -22.758  15.806  0.00  0.00    -0.100 A 
ENDROOT
BRANCH   7   8
ATOM      8  N   LIG    1       20.707 -23.487  14.747  0.00  0.00    +0.040 N 
ATOM      9  O   LIG    1       19.907 -24.355  15.048  0.00  0.00    -0.140 OA
ATOM     10  O   LIG    1       20.903 -23.220  13.575  0.00  0.00    -0.180 OA
ENDBRANCH   7   8
BRANCH   1  11
ATOM     11  N   LIG    1       23.517 -23.163  14.641  0.00  0.00    -0.570 N 
ATOM     12  H   LIG    1       23.715 -24.113  14.619  0.00  0.00    +0.420 HD
BRANCH  11  13
ATOM     13  N   LIG    1       23.921 -22.358  13.615  0.00  0.00    -0.600 NA
ATOM     14  H   LIG    1       23.642 -21.401  13.774  0.00  0.00    +0.370 HD
ATOM     15  H   LIG    1       23.569 -22.695  12.731  0.00  0.00    +0.340 HD
ENDBRANCH  11  13
ENDBRANCH   1  11
TORSDOF 3
ENDMDL
MODEL 8
REMARK VINA RESULT:    -4.984      2.676      3.200
REMARK INTER + INTRA:          -6.067
REMARK INTER:                  -5.720
REMARK INTRA:                  -0.347
REMARK UNBOUND:                -0.354
REMARK  Name = ZINC000019868631
REMARK                            x       y       z     vdW  Elec       q    Type
REMARK                         _______ _______ _______ _____ _____    ______ ____
ROOT
ATOM      1  C   LIG    1       28.155 -19.595   1.482  0.00  0.00    +0.280 A 
ATOM      2  C   LIG    1       27.970 -20.127   2.752  0.00  0.00    +0.000 A 
ATOM      3  C   LIG    1       28.696 -19.633   3.819  0.00  0.00    +0.110 A 
ATOM      4  C   LIG    1       29.606 -18.609   3.624  0.00  0.00    +0.050 A 
ATOM      5  C   LIG    1       29.792 -18.076   2.358  0.00  0.00    +0.110 A 
ATOM      6  F   LIG    1       30.314 -18.127   4.669  0.00  0.00    -0.130 F 
ATOM      7  C   LIG    1       29.074 -18.571   1.288  0.00  0.00    -0.100 A 
ENDROOT
BRANCH   7   8
ATOM      8  N   LIG    1       29.274 -18.003  -0.064  0.00  0.00    +0.040 N 
ATOM      9  O   LIG    1       28.386 -17.355  -0.589  0.00  0.00    -0.140 OA
ATOM     10  O   LIG    1       30.325 -18.183  -0.651  0.00  0.00    -0.180 OA
ENDBRANCH   7   8
BRANCH   1  11
ATOM     11  N   LIG    1       27.423 -20.094   0.401  0.00  0.00    -0.570 N 
ATOM     12  H   LIG    1       26.821 -19.511  -0.087  0.00  0.00    +0.420 HD
BRANCH  11  13
ATOM     13  N   LIG    1       27.555 -21.402   0.032  0.00  0.00    -0.600 NA
ATOM     14  H   LIG    1       27.197 -21.554  -0.899  0.00  0.00    +0.370 HD
ATOM     15  H   LIG    1       27.102 -22.013   0.696  0.00  0.00    +0.340 HD
ENDBRANCH  11  13
ENDBRANCH   1  11
TORSDOF 3
ENDMDL
MODEL 9
REMARK VINA RESULT:    -4.901      3.201      3.652
REMARK INTER + INTRA:          -5.971
REMARK INTER:                  -5.610
REMARK INTRA:                  -0.361
REMARK UNBOUND:                -0.354
REMARK  Name = ZINC000019868631
REMARK                            x       y       z     vdW  Elec       q    Type
REMARK                         _______ _______ _______ _____ _____    ______ ____
ROOT
ATOM      1  C   LIG    1       28.717 -19.608   2.246  0.00  0.00    +0.280 A 
ATOM      2  C   LIG    1       27.926 -20.371   3.094  0.00  0.00    +0.000 A 
ATOM      3  C   LIG    1       26.762 -20.947   2.621  0.00  0.00    +0.110 A 
ATOM      4  C   LIG    1       26.385 -20.764   1.302  0.00  0.00    +0.050 A 
ATOM      5  C   LIG    1       27.173 -20.003   0.453  0.00  0.00    +0.110 A 
ATOM      6  F   LIG    1       25.247 -21.327   0.841  0.00  0.00    -0.130 F 
ATOM      7  C   LIG    1       28.333 -19.421   0.923  0.00  0.00    -0.100 A 
ENDROOT
BRANCH   7   8
ATOM      8  N   LIG    1       29.174 -18.607   0.017  0.00  0.00    +0.040 N 
ATOM      9  O   LIG    1       28.706 -17.624  -0.529  0.00  0.00    -0.140 OA
ATOM     10  O   LIG    1       30.333 -18.921  -0.184  0.00  0.00    -0.180 OA
ENDBRANCH   7   8
BRANCH   1  11
ATOM     11  N   LIG    1       29.894 -19.024   2.723  0.00  0.00    -0.570 N 
ATOM     12  H   LIG    1       30.744 -19.477   2.602  0.00  0.00    +0.420 HD
BRANCH  11  13
ATOM     13  N   LIG    1       29.848 -17.818   3.361  0.00  0.00    -0.600 NA
ATOM     14  H   LIG    1       29.118 -17.804   4.058  0.00  0.00    +0.370 HD
ATOM     15  H   LIG    1       29.731 -17.064   2.700  0.00  0.00    +0.340 HD
ENDBRANCH  11  13
ENDBRANCH   1  11
TORSDOF 3
ENDMDL
