MODEL 1
REMARK VINA RESULT:    -5.100      0.000      0.000
REMARK INTER + INTRA:          -5.765
REMARK INTER:                  -5.697
REMARK INTRA:                  -0.069
REMARK UNBOUND:                -0.069
REMARK  Name = ZINC000004404088
REMARK                            x       y       z     vdW  Elec       q    Type
REMARK                         _______ _______ _______ _____ _____    ______ ____
ROOT
ATOM      1  C   LIG    1       29.199 -18.183   1.280  0.00  0.00    -0.060 A 
ATOM      2  C   LIG    1       29.251 -18.597   2.547  0.00  0.00    +0.100 A 
ATOM      3  S   LIG    1       28.267 -20.044   2.735  0.00  0.00    +0.380 S 
ATOM      4  C   LIG    1       27.828 -20.003   1.032  0.00  0.00    -0.180 A 
ATOM      5  C   LIG    1       28.409 -18.956   0.445  0.00  0.00    +0.200 A 
ENDROOT
BRANCH   1   7
ATOM      6  O   LIG    1       30.178 -16.079   1.579  0.00  0.00    -0.130 OA
ATOM      7  N   LIG    1       29.926 -16.985   0.804  0.00  0.00    +0.040 N 
ATOM      8  O   LIG    1       30.277 -16.907  -0.359  0.00  0.00    -0.140 OA
ENDBRANCH   1   7
BRANCH   4   9
ATOM      9  N   LIG    1       26.944 -20.978   0.356  0.00  0.00    +0.060 N 
ATOM     10  O   LIG    1       25.821 -21.180   0.780  0.00  0.00    -0.140 OA
ATOM     11  O   LIG    1       27.340 -21.579  -0.627  0.00  0.00    -0.120 OA
ENDBRANCH   4   9
TORSDOF 2
ENDMDL
MODEL 2
REMARK VINA RESULT:    -5.090      0.633      4.526
REMARK INTER + INTRA:          -5.754
REMARK INTER:                  -5.687
REMARK INTRA:                  -0.068
REMARK UNBOUND:                -0.069
REMARK  Name = ZINC000004404088
REMARK                            x       y       z     vdW  Elec       q    Type
REMARK                         _______ _______ _______ _____ _____    ______ ____
ROOT
ATOM      1  C   LIG    1       27.772 -20.034   1.074  0.00  0.00    -0.060 A 
ATOM      2  C   LIG    1       28.072 -20.132   2.370  0.00  0.00    +0.100 A 
ATOM      3  S   LIG    1       29.158 -18.824   2.824  0.00  0.00    +0.380 S 
ATOM      4  C   LIG    1       29.143 -18.201   1.179  0.00  0.00    -0.180 A 
ATOM      5  C   LIG    1       28.367 -18.972   0.415  0.00  0.00    +0.200 A 
ENDROOT
BRANCH   1   7
ATOM      6  O   LIG    1       25.762 -21.208   0.837  0.00  0.00    -0.130 OA
ATOM      7  N   LIG    1       26.875 -20.994   0.391  0.00  0.00    +0.040 N 
ATOM      8  O   LIG    1       27.247 -21.563  -0.619  0.00  0.00    -0.140 OA
ENDBRANCH   1   7
BRANCH   4   9
ATOM      9  N   LIG    1       29.882 -17.007   0.713  0.00  0.00    +0.060 N 
ATOM     10  O   LIG    1       30.252 -16.932  -0.445  0.00  0.00    -0.140 OA
ATOM     11  O   LIG    1       30.118 -16.097   1.487  0.00  0.00    -0.120 OA
ENDBRANCH   4   9
TORSDOF 2
ENDMDL
MODEL 3
REMARK VINA RESULT:    -4.865      2.597      4.607
REMARK INTER + INTRA:          -5.503
REMARK INTER:                  -5.436
REMARK INTRA:                  -0.066
REMARK UNBOUND:                -0.069
REMARK  Name = ZINC000004404088
REMARK                            x       y       z     vdW  Elec       q    Type
REMARK                         _______ _______ _______ _____ _____    ______ ____
ROOT
ATOM      1  C   LIG    1       27.822 -20.034   1.158  0.00  0.00    -0.060 A 
ATOM      2  C   LIG    1       28.422 -19.028   0.520  0.00  0.00    +0.100 A 
ATOM      3  S   LIG    1       29.472 -18.164   1.637  0.00  0.00    +0.380 S 
ATOM      4  C   LIG    1       29.022 -19.250   2.945  0.00  0.00    -0.180 A 
ATOM      5  C   LIG    1       28.149 -20.153   2.498  0.00  0.00    +0.200 A 
ENDROOT
BRANCH   1   7
ATOM      6  O   LIG    1       25.769 -21.140   0.962  0.00  0.00    -0.130 OA
ATOM      7  N   LIG    1       26.873 -20.950   0.485  0.00  0.00    +0.040 N 
ATOM      8  O   LIG    1       27.194 -21.508  -0.549  0.00  0.00    -0.140 OA
ENDBRANCH   1   7
BRANCH   4   9
ATOM      9  N   LIG    1       29.532 -19.170   4.333  0.00  0.00    +0.060 N 
ATOM     10  O   LIG    1       29.265 -18.205   5.026  0.00  0.00    -0.140 OA
ATOM     11  O   LIG    1       30.217 -20.071   4.782  0.00  0.00    -0.120 OA
ENDBRANCH   4   9
TORSDOF 2
ENDMDL
MODEL 4
REMARK VINA RESULT:    -4.857      2.720      3.028
REMARK INTER + INTRA:          -5.494
REMARK INTER:                  -5.429
REMARK INTRA:                  -0.065
REMARK UNBOUND:                -0.069
REMARK  Name = ZINC000004404088
REMARK                            x       y       z     vdW  Elec       q    Type
REMARK                         _______ _______ _______ _____ _____    ______ ____
ROOT
ATOM      1  C   LIG    1       29.047 -19.284   3.146  0.00  0.00    -0.060 A 
ATOM      2  C   LIG    1       29.498 -18.436   2.221  0.00  0.00    +0.100 A 
ATOM      3  S   LIG    1       28.698 -18.756   0.687  0.00  0.00    +0.380 S 
ATOM      4  C   LIG    1       27.770 -20.064   1.410  0.00  0.00    -0.180 A 
ATOM      5  C   LIG    1       28.097 -20.186   2.697  0.00  0.00    +0.200 A 
ENDROOT
BRANCH   1   7
ATOM      6  O   LIG    1       30.392 -20.049   4.901  0.00  0.00    -0.130 OA
ATOM      7  N   LIG    1       29.530 -19.266   4.545  0.00  0.00    +0.040 N 
ATOM      8  O   LIG    1       29.070 -18.465   5.338  0.00  0.00    -0.140 OA
ENDBRANCH   1   7
BRANCH   4   9
ATOM      9  N   LIG    1       26.780 -20.902   0.698  0.00  0.00    +0.060 N 
ATOM     10  O   LIG    1       25.681 -21.097   1.186  0.00  0.00    -0.140 OA
ATOM     11  O   LIG    1       27.064 -21.398  -0.377  0.00  0.00    -0.120 OA
ENDBRANCH   4   9
TORSDOF 2
ENDMDL
MODEL 5
REMARK VINA RESULT:    -4.431     24.382     25.075
REMARK INTER + INTRA:          -5.019
REMARK INTER:                  -4.953
REMARK INTRA:                  -0.065
REMARK UNBOUND:                -0.069
REMARK  Name = ZINC000004404088
REMARK                            x       y       z     vdW  Elec       q    Type
REMARK                         _______ _______ _______ _____ _____    ______ ____
ROOT
ATOM      1  C   LIG    1       16.071 -12.524  21.594  0.00  0.00    -0.060 A 
ATOM      2  C   LIG    1       14.972 -12.364  22.334  0.00  0.00    +0.100 A 
ATOM      3  S   LIG    1       14.052 -10.990  21.732  0.00  0.00    +0.380 S 
ATOM      4  C   LIG    1       15.247 -10.702  20.475  0.00  0.00    -0.180 A 
ATOM      5  C   LIG    1       16.226 -11.603  20.572  0.00  0.00    +0.200 A 
ENDROOT
BRANCH   1   7
ATOM      6  O   LIG    1       16.908 -14.694  21.334  0.00  0.00    -0.130 OA
ATOM      7  N   LIG    1       17.053 -13.601  21.852  0.00  0.00    +0.040 N 
ATOM      8  O   LIG    1       18.009 -13.393  22.577  0.00  0.00    -0.140 OA
ENDBRANCH   1   7
BRANCH   4   9
ATOM      9  N   LIG    1       15.180  -9.622  19.466  0.00  0.00    +0.060 N 
ATOM     10  O   LIG    1       14.935  -8.480  19.810  0.00  0.00    -0.140 OA
ATOM     11  O   LIG    1       15.371  -9.874  18.290  0.00  0.00    -0.120 OA
ENDBRANCH   4   9
TORSDOF 2
ENDMDL
MODEL 6
REMARK VINA RESULT:    -4.256     16.413     17.491
REMARK INTER + INTRA:          -4.823
REMARK INTER:                  -4.753
REMARK INTRA:                  -0.070
REMARK UNBOUND:                -0.069
REMARK  Name = ZINC000004404088
REMARK                            x       y       z     vdW  Elec       q    Type
REMARK                         _______ _______ _______ _____ _____    ______ ____
ROOT
ATOM      1  C   LIG    1       21.403 -22.845  15.919  0.00  0.00    -0.060 A 
ATOM      2  C   LIG    1       20.727 -22.257  16.907  0.00  0.00    +0.100 A 
ATOM      3  S   LIG    1       21.857 -21.583  18.075  0.00  0.00    +0.380 S 
ATOM      4  C   LIG    1       23.224 -22.156  17.128  0.00  0.00    -0.180 A 
ATOM      5  C   LIG    1       22.781 -22.795  16.044  0.00  0.00    +0.200 A 
ENDROOT
BRANCH   1   7
ATOM      6  O   LIG    1       21.189 -23.398  13.655  0.00  0.00    -0.130 OA
ATOM      7  N   LIG    1       20.731 -23.507  14.778  0.00  0.00    +0.040 N 
ATOM      8  O   LIG    1       19.723 -24.166  14.964  0.00  0.00    -0.140 OA
ENDBRANCH   1   7
BRANCH   4   9
ATOM      9  N   LIG    1       24.647 -21.964  17.483  0.00  0.00    +0.060 N 
ATOM     10  O   LIG    1       24.968 -21.088  18.266  0.00  0.00    -0.140 OA
ATOM     11  O   LIG    1       25.499 -22.683  16.993  0.00  0.00    -0.120 OA
ENDBRANCH   4   9
TORSDOF 2
ENDMDL
MODEL 7
REMARK VINA RESULT:    -4.209     12.072     13.474
REMARK INTER + INTRA:          -4.771
REMARK INTER:                  -4.703
REMARK INTRA:                  -0.067
REMARK UNBOUND:                -0.069
REMARK  Name = ZINC000004404088
REMARK                            x       y       z     vdW  Elec       q    Type
REMARK                         _______ _______ _______ _____ _____    ______ ____
ROOT
ATOM      1  C   LIG    1       26.461  -7.030   0.156  0.00  0.00    -0.060 A 
ATOM      2  C   LIG    1       26.449  -6.324  -0.977  0.00  0.00    +0.100 A 
ATOM      3  S   LIG    1       25.156  -5.133  -0.915  0.00  0.00    +0.380 S 
ATOM      4  C   LIG    1       24.691  -5.676   0.692  0.00  0.00    -0.180 A 
ATOM      5  C   LIG    1       25.487  -6.675   1.075  0.00  0.00    +0.200 A 
ENDROOT
BRANCH   1   7
ATOM      6  O   LIG    1       27.398  -9.134  -0.254  0.00  0.00    -0.130 OA
ATOM      7  N   LIG    1       27.438  -8.112   0.408  0.00  0.00    +0.040 N 
ATOM      8  O   LIG    1       28.285  -7.980   1.273  0.00  0.00    -0.140 OA
ENDBRANCH   1   7
BRANCH   4   9
ATOM      9  N   LIG    1       23.582  -5.113   1.495  0.00  0.00    +0.060 N 
ATOM     10  O   LIG    1       23.294  -5.610   2.569  0.00  0.00    -0.140 OA
ATOM     11  O   LIG    1       22.959  -4.152   1.082  0.00  0.00    -0.120 OA
ENDBRANCH   4   9
TORSDOF 2
ENDMDL
MODEL 8
REMARK VINA RESULT:    -4.128     21.290     22.534
REMARK INTER + INTRA:          -4.680
REMARK INTER:                  -4.611
REMARK INTRA:                  -0.068
REMARK UNBOUND:                -0.069
REMARK  Name = ZINC000004404088
REMARK                            x       y       z     vdW  Elec       q    Type
REMARK                         _______ _______ _______ _____ _____    ______ ____
ROOT
ATOM      1  C   LIG    1       23.201  -0.485  13.395  0.00  0.00    -0.060 A 
ATOM      2  C   LIG    1       23.675   0.755  13.533  0.00  0.00    +0.100 A 
ATOM      3  S   LIG    1       24.510   1.233  12.060  0.00  0.00    +0.380 S 
ATOM      4  C   LIG    1       24.159  -0.323  11.320  0.00  0.00    -0.180 A 
ATOM      5  C   LIG    1       23.473  -1.082  12.175  0.00  0.00    +0.200 A 
ENDROOT
BRANCH   1   7
ATOM      6  O   LIG    1       22.678  -2.341  14.721  0.00  0.00    -0.130 OA
ATOM      7  N   LIG    1       22.446  -1.172  14.467  0.00  0.00    +0.040 N 
ATOM      8  O   LIG    1       21.599  -0.567  15.100  0.00  0.00    -0.140 OA
ENDBRANCH   1   7
BRANCH   4   9
ATOM      9  N   LIG    1       24.567  -0.730   9.956  0.00  0.00    +0.060 N 
ATOM     10  O   LIG    1       23.772  -1.294   9.225  0.00  0.00    -0.140 OA
ATOM     11  O   LIG    1       25.697  -0.500   9.565  0.00  0.00    -0.120 OA
ENDBRANCH   4   9
TORSDOF 2
ENDMDL
MODEL 9
REMARK VINA RESULT:    -4.074     17.138     18.404
REMARK INTER + INTRA:          -4.619
REMARK INTER:                  -4.550
REMARK INTRA:                  -0.068
REMARK UNBOUND:                -0.069
REMARK  Name = ZINC000004404088
REMARK                            x       y       z     vdW  Elec       q    Type
REMARK                         _______ _______ _______ _____ _____    ______ ____
ROOT
ATOM      1  C   LIG    1       21.340 -23.044  15.890  0.00  0.00    -0.060 A 
ATOM      2  C   LIG    1       22.635 -22.788  15.696  0.00  0.00    +0.100 A 
ATOM      3  S   LIG    1       23.361 -22.245  17.204  0.00  0.00    +0.380 S 
ATOM      4  C   LIG    1       21.819 -22.400  18.036  0.00  0.00    -0.180 A 
ATOM      5  C   LIG    1       20.888 -22.824  17.180  0.00  0.00    +0.200 A 
ENDROOT
BRANCH   1   7
ATOM      6  O   LIG    1       19.665 -24.425  15.017  0.00  0.00    -0.130 OA
ATOM      7  N   LIG    1       20.452 -23.520  14.805  0.00  0.00    +0.040 N 
ATOM      8  O   LIG    1       20.505 -23.004  13.704  0.00  0.00    -0.140 OA
ENDBRANCH   1   7
BRANCH   4   9
ATOM      9  N   LIG    1       21.588 -22.100  19.467  0.00  0.00    +0.060 N 
ATOM     10  O   LIG    1       22.177 -21.177  20.000  0.00  0.00    -0.140 OA
ATOM     11  O   LIG    1       20.808 -22.777  20.113  0.00  0.00    -0.120 OA
ENDBRANCH   4   9
TORSDOF 2
ENDMDL
