MODEL 1
REMARK VINA RESULT:    -6.933      0.000      0.000
REMARK INTER + INTRA:          -7.939
REMARK INTER:                  -7.744
REMARK INTRA:                  -0.196
REMARK UNBOUND:                -0.196
REMARK  Name = ZINC000669371094
REMARK                            x       y       z     vdW  Elec       q    Type
REMARK                         _______ _______ _______ _____ _____    ______ ____
ROOT
ATOM      1  C   LIG    1       27.519 -20.310   1.512  0.00  0.00    -0.040 A 
ATOM      2  C   LIG    1       27.537 -20.685   2.843  0.00  0.00    +0.100 A 
ATOM      3  C   LIG    1       28.337 -20.005   3.741  0.00  0.00    +0.080 A 
ATOM      4  C   LIG    1       29.120 -18.950   3.310  0.00  0.00    -0.020 A 
ATOM      5  C   LIG    1       29.103 -18.576   1.980  0.00  0.00    +0.050 A 
ATOM      6  C   LIG    1       28.306 -19.258   1.080  0.00  0.00    +0.110 A 
ENDROOT
BRANCH   4   7
ATOM      7  C   LIG    1       29.991 -18.209   4.291  0.00  0.00    +0.320 C 
ATOM      8  N   LIG    1       31.395 -18.208   3.844  0.00  0.00    -0.540 NA
ATOM      9  C   LIG    1       32.155 -18.505   4.840  0.00  0.00    +0.550 C 
ATOM     10  O   LIG    1       31.463 -18.718   5.978  0.00  0.00    -0.210 OA
ATOM     11  N   LIG    1       30.052 -18.929   5.590  0.00  0.00    -0.460 NA
ATOM     12  H   LIG    1       29.426 -18.517   6.266  0.00  0.00    +0.370 HD
ENDBRANCH   4   7
BRANCH   1  14
ATOM     13  O   LIG    1       25.487 -21.231   0.807  0.00  0.00    -0.160 OA
ATOM     14  N   LIG    1       26.662 -21.038   0.549  0.00  0.00    +0.030 N 
ATOM     15  O   LIG    1       27.130 -21.438  -0.501  0.00  0.00    -0.160 OA
ENDBRANCH   1  14
TORSDOF 2
ENDMDL
MODEL 2
REMARK VINA RESULT:    -6.413      2.344      3.007
REMARK INTER + INTRA:          -7.358
REMARK INTER:                  -7.159
REMARK INTRA:                  -0.199
REMARK UNBOUND:                -0.196
REMARK  Name = ZINC000669371094
REMARK                            x       y       z     vdW  Elec       q    Type
REMARK                         _______ _______ _______ _____ _____    ______ ____
ROOT
ATOM      1  C   LIG    1       27.667 -19.970   1.555  0.00  0.00    -0.040 A 
ATOM      2  C   LIG    1       27.970 -19.267   0.404  0.00  0.00    +0.100 A 
ATOM      3  C   LIG    1       28.922 -18.266   0.436  0.00  0.00    +0.080 A 
ATOM      4  C   LIG    1       29.574 -17.968   1.618  0.00  0.00    -0.020 A 
ATOM      5  C   LIG    1       29.271 -18.671   2.769  0.00  0.00    +0.050 A 
ATOM      6  C   LIG    1       28.315 -19.669   2.739  0.00  0.00    +0.110 A 
ENDROOT
BRANCH   4   7
ATOM      7  C   LIG    1       30.613 -16.878   1.652  0.00  0.00    +0.320 C 
ATOM      8  N   LIG    1       31.123 -16.601   0.298  0.00  0.00    -0.540 NA
ATOM      9  C   LIG    1       32.408 -16.526   0.339  0.00  0.00    +0.550 C 
ATOM     10  O   LIG    1       32.902 -16.711   1.579  0.00  0.00    -0.210 OA
ATOM     11  N   LIG    1       31.827 -17.331   2.383  0.00  0.00    -0.460 NA
ATOM     12  H   LIG    1       31.835 -16.981   3.329  0.00  0.00    +0.370 HD
ENDBRANCH   4   7
BRANCH   1  14
ATOM     13  O   LIG    1       26.224 -21.513   2.562  0.00  0.00    -0.160 OA
ATOM     14  N   LIG    1       26.647 -21.042   1.521  0.00  0.00    +0.030 N 
ATOM     15  O   LIG    1       26.225 -21.448   0.453  0.00  0.00    -0.160 OA
ENDBRANCH   1  14
TORSDOF 2
ENDMDL
MODEL 3
REMARK VINA RESULT:    -5.722     21.098     22.163
REMARK INTER + INTRA:          -6.587
REMARK INTER:                  -6.401
REMARK INTRA:                  -0.186
REMARK UNBOUND:                -0.196
REMARK  Name = ZINC000669371094
REMARK                            x       y       z     vdW  Elec       q    Type
REMARK                         _______ _______ _______ _____ _____    ______ ____
ROOT
ATOM      1  C   LIG    1       23.071  -0.858  13.316  0.00  0.00    -0.040 A 
ATOM      2  C   LIG    1       24.185  -0.042  13.232  0.00  0.00    +0.100 A 
ATOM      3  C   LIG    1       24.838   0.113  12.025  0.00  0.00    +0.080 A 
ATOM      4  C   LIG    1       24.380  -0.547  10.900  0.00  0.00    -0.020 A 
ATOM      5  C   LIG    1       23.268  -1.364  10.984  0.00  0.00    +0.050 A 
ATOM      6  C   LIG    1       22.616  -1.522  12.192  0.00  0.00    +0.110 A 
ENDROOT
BRANCH   4   7
ATOM      7  C   LIG    1       25.093  -0.377   9.583  0.00  0.00    +0.320 C 
ATOM      8  N   LIG    1       26.000   0.783   9.627  0.00  0.00    -0.540 NA
ATOM      9  C   LIG    1       25.844   1.480   8.556  0.00  0.00    +0.550 C 
ATOM     10  O   LIG    1       24.925   0.955   7.721  0.00  0.00    -0.210 OA
ATOM     11  N   LIG    1       24.132  -0.013   8.508  0.00  0.00    -0.460 NA
ATOM     12  H   LIG    1       23.886  -0.817   7.950  0.00  0.00    +0.370 HD
ENDBRANCH   4   7
BRANCH   1  14
ATOM     13  O   LIG    1       22.565  -2.021  15.282  0.00  0.00    -0.160 OA
ATOM     14  N   LIG    1       22.371  -1.024  14.609  0.00  0.00    +0.030 N 
ATOM     15  O   LIG    1       21.607  -0.162  15.004  0.00  0.00    -0.160 OA
ENDBRANCH   1  14
TORSDOF 2
ENDMDL
MODEL 4
REMARK VINA RESULT:    -5.706      2.509      5.530
REMARK INTER + INTRA:          -6.568
REMARK INTER:                  -6.371
REMARK INTRA:                  -0.198
REMARK UNBOUND:                -0.196
REMARK  Name = ZINC000669371094
REMARK                            x       y       z     vdW  Elec       q    Type
REMARK                         _______ _______ _______ _____ _____    ______ ____
ROOT
ATOM      1  C   LIG    1       30.817 -17.753   1.535  0.00  0.00    -0.040 A 
ATOM      2  C   LIG    1       29.774 -17.875   2.434  0.00  0.00    +0.100 A 
ATOM      3  C   LIG    1       28.857 -18.899   2.292  0.00  0.00    +0.080 A 
ATOM      4  C   LIG    1       28.982 -19.801   1.252  0.00  0.00    -0.020 A 
ATOM      5  C   LIG    1       30.024 -19.678   0.353  0.00  0.00    +0.050 A 
ATOM      6  C   LIG    1       30.940 -18.652   0.492  0.00  0.00    +0.110 A 
ENDROOT
BRANCH   4   7
ATOM      7  C   LIG    1       27.981 -20.917   1.098  0.00  0.00    +0.320 C 
ATOM      8  N   LIG    1       26.758 -20.435   0.434  0.00  0.00    -0.540 NA
ATOM      9  C   LIG    1       25.731 -20.873   1.074  0.00  0.00    +0.550 C 
ATOM     10  O   LIG    1       26.063 -21.633   2.136  0.00  0.00    -0.210 OA
ATOM     11  N   LIG    1       27.488 -21.368   2.427  0.00  0.00    -0.460 NA
ATOM     12  H   LIG    1       27.959 -22.209   2.726  0.00  0.00    +0.370 HD
ENDBRANCH   4   7
BRANCH   1  14
ATOM     13  O   LIG    1       32.975 -16.914   1.876  0.00  0.00    -0.160 OA
ATOM     14  N   LIG    1       31.800 -16.656   1.687  0.00  0.00    +0.030 N 
ATOM     15  O   LIG    1       31.434 -15.497   1.618  0.00  0.00    -0.160 OA
ENDBRANCH   1  14
TORSDOF 2
ENDMDL
MODEL 5
REMARK VINA RESULT:    -5.646     13.892     14.540
REMARK INTER + INTRA:          -6.502
REMARK INTER:                  -6.295
REMARK INTRA:                  -0.207
REMARK UNBOUND:                -0.196
REMARK  Name = ZINC000669371094
REMARK                            x       y       z     vdW  Elec       q    Type
REMARK                         _______ _______ _______ _____ _____    ______ ____
ROOT
ATOM      1  C   LIG    1       23.660  -5.004   0.797  0.00  0.00    -0.040 A 
ATOM      2  C   LIG    1       24.386  -5.139  -0.372  0.00  0.00    +0.100 A 
ATOM      3  C   LIG    1       25.351  -6.122  -0.476  0.00  0.00    +0.080 A 
ATOM      4  C   LIG    1       25.592  -6.971   0.588  0.00  0.00    -0.020 A 
ATOM      5  C   LIG    1       24.867  -6.835   1.757  0.00  0.00    +0.050 A 
ATOM      6  C   LIG    1       23.904  -5.850   1.863  0.00  0.00    +0.110 A 
ENDROOT
BRANCH   4   7
ATOM      7  C   LIG    1       26.645  -8.043   0.473  0.00  0.00    +0.320 C 
ATOM      8  N   LIG    1       27.889  -7.627   1.144  0.00  0.00    -0.540 NA
ATOM      9  C   LIG    1       28.889  -7.887   0.375  0.00  0.00    +0.550 C 
ATOM     10  O   LIG    1       28.518  -8.457  -0.789  0.00  0.00    -0.210 OA
ATOM     11  N   LIG    1       27.066  -8.217  -0.942  0.00  0.00    -0.460 NA
ATOM     12  H   LIG    1       26.611  -9.013  -1.364  0.00  0.00    +0.370 HD
ENDBRANCH   4   7
BRANCH   1  14
ATOM     13  O   LIG    1       21.977  -3.842   1.934  0.00  0.00    -0.160 OA
ATOM     14  N   LIG    1       22.625  -3.951   0.908  0.00  0.00    +0.030 N 
ATOM     15  O   LIG    1       22.427  -3.192  -0.022  0.00  0.00    -0.160 OA
ENDBRANCH   1  14
TORSDOF 2
ENDMDL
MODEL 6
REMARK VINA RESULT:    -5.344     20.873     21.685
REMARK INTER + INTRA:          -6.165
REMARK INTER:                  -5.979
REMARK INTRA:                  -0.186
REMARK UNBOUND:                -0.196
REMARK  Name = ZINC000669371094
REMARK                            x       y       z     vdW  Elec       q    Type
REMARK                         _______ _______ _______ _____ _____    ______ ____
ROOT
ATOM      1  C   LIG    1       25.239   0.124   9.449  0.00  0.00    -0.040 A 
ATOM      2  C   LIG    1       24.205  -0.736   9.125  0.00  0.00    +0.100 A 
ATOM      3  C   LIG    1       23.379  -1.228  10.118  0.00  0.00    +0.080 A 
ATOM      4  C   LIG    1       23.584  -0.860  11.434  0.00  0.00    -0.020 A 
ATOM      5  C   LIG    1       24.618  -0.002  11.758  0.00  0.00    +0.050 A 
ATOM      6  C   LIG    1       25.447   0.487  10.767  0.00  0.00    +0.110 A 
ENDROOT
BRANCH   4   7
ATOM      7  C   LIG    1       22.682  -1.396  12.516  0.00  0.00    +0.320 C 
ATOM      8  N   LIG    1       22.306  -0.328  13.458  0.00  0.00    -0.540 NA
ATOM      9  C   LIG    1       22.436  -0.763  14.663  0.00  0.00    +0.550 C 
ATOM     10  O   LIG    1       22.861  -2.042  14.712  0.00  0.00    -0.210 OA
ATOM     11  N   LIG    1       23.411  -2.364  13.378  0.00  0.00    -0.460 NA
ATOM     12  H   LIG    1       23.198  -3.316  13.119  0.00  0.00    +0.370 HD
ENDBRANCH   4   7
BRANCH   1  14
ATOM     13  O   LIG    1       25.649   1.023   7.329  0.00  0.00    -0.160 OA
ATOM     14  N   LIG    1       26.124   0.650   8.386  0.00  0.00    +0.030 N 
ATOM     15  O   LIG    1       27.326   0.715   8.571  0.00  0.00    -0.160 OA
ENDBRANCH   1  14
TORSDOF 2
ENDMDL
MODEL 7
REMARK VINA RESULT:    -5.165     14.411     15.664
REMARK INTER + INTRA:          -5.964
REMARK INTER:                  -5.785
REMARK INTRA:                  -0.179
REMARK UNBOUND:                -0.196
REMARK  Name = ZINC000669371094
REMARK                            x       y       z     vdW  Elec       q    Type
REMARK                         _______ _______ _______ _____ _____    ______ ____
ROOT
ATOM      1  C   LIG    1       23.076 -22.921  14.265  0.00  0.00    -0.040 A 
ATOM      2  C   LIG    1       23.628 -22.676  15.510  0.00  0.00    +0.100 A 
ATOM      3  C   LIG    1       22.817 -22.634  16.628  0.00  0.00    +0.080 A 
ATOM      4  C   LIG    1       21.455 -22.836  16.504  0.00  0.00    -0.020 A 
ATOM      5  C   LIG    1       20.904 -23.079  15.260  0.00  0.00    +0.050 A 
ATOM      6  C   LIG    1       21.714 -23.118  14.140  0.00  0.00    +0.110 A 
ENDROOT
BRANCH   4   7
ATOM      7  C   LIG    1       20.572 -22.790  17.724  0.00  0.00    +0.320 C 
ATOM      8  N   LIG    1       21.322 -22.298  18.893  0.00  0.00    -0.540 NA
ATOM      9  C   LIG    1       21.073 -23.055  19.903  0.00  0.00    +0.550 C 
ATOM     10  O   LIG    1       20.214 -24.052  19.609  0.00  0.00    -0.210 OA
ATOM     11  N   LIG    1       20.172 -24.162  18.135  0.00  0.00    -0.460 NA
ATOM     12  H   LIG    1       19.240 -24.382  17.815  0.00  0.00    +0.370 HD
ENDBRANCH   4   7
BRANCH   1  14
ATOM     13  O   LIG    1       23.929 -22.045  12.270  0.00  0.00    -0.160 OA
ATOM     14  N   LIG    1       23.945 -22.966  13.067  0.00  0.00    +0.030 N 
ATOM     15  O   LIG    1       24.678 -23.920  12.882  0.00  0.00    -0.160 OA
ENDBRANCH   1  14
TORSDOF 2
ENDMDL
MODEL 8
REMARK VINA RESULT:    -5.164      3.024      5.331
REMARK INTER + INTRA:          -5.963
REMARK INTER:                  -5.764
REMARK INTRA:                  -0.199
REMARK UNBOUND:                -0.196
REMARK  Name = ZINC000669371094
REMARK                            x       y       z     vdW  Elec       q    Type
REMARK                         _______ _______ _______ _____ _____    ______ ____
ROOT
ATOM      1  C   LIG    1       30.863 -18.025   1.940  0.00  0.00    -0.040 A 
ATOM      2  C   LIG    1       29.516 -18.054   2.250  0.00  0.00    +0.100 A 
ATOM      3  C   LIG    1       28.836 -19.257   2.267  0.00  0.00    +0.080 A 
ATOM      4  C   LIG    1       29.503 -20.432   1.973  0.00  0.00    -0.020 A 
ATOM      5  C   LIG    1       30.849 -20.403   1.662  0.00  0.00    +0.050 A 
ATOM      6  C   LIG    1       31.528 -19.200   1.641  0.00  0.00    +0.110 A 
ENDROOT
BRANCH   4   7
ATOM      7  C   LIG    1       28.762 -21.744   1.992  0.00  0.00    +0.320 C 
ATOM      8  N   LIG    1       29.330 -22.651   3.005  0.00  0.00    -0.540 NA
ATOM      9  C   LIG    1       29.475 -23.821   2.489  0.00  0.00    +0.550 C 
ATOM     10  O   LIG    1       29.068 -23.880   1.205  0.00  0.00    -0.210 OA
ATOM     11  N   LIG    1       28.972 -22.486   0.720  0.00  0.00    -0.460 NA
ATOM     12  H   LIG    1       28.186 -22.373   0.098  0.00  0.00    +0.370 HD
ENDBRANCH   4   7
BRANCH   1  14
ATOM     13  O   LIG    1       31.022 -15.722   1.559  0.00  0.00    -0.160 OA
ATOM     14  N   LIG    1       31.590 -16.736   1.922  0.00  0.00    +0.030 N 
ATOM     15  O   LIG    1       32.755 -16.689   2.275  0.00  0.00    -0.160 OA
ENDBRANCH   1  14
TORSDOF 2
ENDMDL
MODEL 9
REMARK VINA RESULT:    -5.036     25.312     25.868
REMARK INTER + INTRA:          -5.820
REMARK INTER:                  -5.629
REMARK INTRA:                  -0.191
REMARK UNBOUND:                -0.196
REMARK  Name = ZINC000669371094
REMARK                            x       y       z     vdW  Elec       q    Type
REMARK                         _______ _______ _______ _____ _____    ______ ____
ROOT
ATOM      1  C   LIG    1       12.944  -3.686  11.677  0.00  0.00    -0.040 A 
ATOM      2  C   LIG    1       12.179  -4.226  12.696  0.00  0.00    +0.100 A 
ATOM      3  C   LIG    1       11.797  -3.437  13.764  0.00  0.00    +0.080 A 
ATOM      4  C   LIG    1       12.178  -2.109  13.816  0.00  0.00    -0.020 A 
ATOM      5  C   LIG    1       12.942  -1.570  12.799  0.00  0.00    +0.050 A 
ATOM      6  C   LIG    1       13.329  -2.359  11.732  0.00  0.00    +0.110 A 
ENDROOT
BRANCH   4   7
ATOM      7  C   LIG    1       11.759  -1.250  14.981  0.00  0.00    +0.320 C 
ATOM      8  N   LIG    1       12.936  -0.774  15.728  0.00  0.00    -0.540 NA
ATOM      9  C   LIG    1       12.728  -0.934  16.989  0.00  0.00    +0.550 C 
ATOM     10  O   LIG    1       11.519  -1.470  17.254  0.00  0.00    -0.210 OA
ATOM     11  N   LIG    1       11.022  -2.055  15.990  0.00  0.00    -0.460 NA
ATOM     12  H   LIG    1       10.025  -1.928  15.901  0.00  0.00    +0.370 HD
ENDBRANCH   4   7
BRANCH   1  14
ATOM     13  O   LIG    1       14.398  -5.155  10.582  0.00  0.00    -0.160 OA
ATOM     14  N   LIG    1       13.353  -4.531  10.533  0.00  0.00    +0.030 N 
ATOM     15  O   LIG    1       12.644  -4.606   9.546  0.00  0.00    -0.160 OA
ENDBRANCH   1  14
TORSDOF 2
ENDMDL
