MODEL 1
REMARK VINA RESULT:    -6.087      0.000      0.000
REMARK INTER + INTRA:          -7.593
REMARK INTER:                  -6.977
REMARK INTRA:                  -0.617
REMARK UNBOUND:                -0.617
REMARK  Name = ZINC000039238372
REMARK                            x       y       z     vdW  Elec       q    Type
REMARK                         _______ _______ _______ _____ _____    ______ ____
ROOT
ATOM      1  C   LIG    1       29.259 -19.191   2.871  0.00  0.00    +0.040 A 
ATOM      2  C   LIG    1       29.650 -18.080   2.112  0.00  0.00    +0.013 A 
ATOM      3  C   LIG    1       29.168 -17.919   0.832  0.00  0.00    +0.003 A 
ATOM      4  C   LIG    1       28.296 -18.850   0.290  0.00  0.00    +0.034 A 
ATOM      5  C   LIG    1       27.900 -19.950   1.023  0.00  0.00    +0.147 A 
ATOM      6  C   LIG    1       28.379 -20.136   2.313  0.00  0.00    +0.066 A 
ENDROOT
BRANCH   1   8
ATOM      7  C   LIG    1       29.372 -18.402   5.320  0.00  0.00    +0.091 C 
ATOM      8  C   LIG    1       29.768 -19.369   4.235  0.00  0.00    +0.162 C 
ATOM      9  O   LIG    1       30.509 -20.296   4.489  0.00  0.00    -0.292 OA
ENDBRANCH   1   8
BRANCH   5  10
ATOM     10  N   LIG    1       26.968 -20.936   0.430  0.00  0.00    +0.058 N 
ATOM     11  O   LIG    1       27.280 -21.535  -0.583  0.00  0.00    -0.126 OA
ATOM     12  O   LIG    1       25.891 -21.148   0.956  0.00  0.00    -0.126 OA
ENDBRANCH   5  10
BRANCH   6  13
ATOM     13  N   LIG    1       27.982 -21.240   3.052  0.00  0.00    -0.356 N 
ATOM     14  H   LIG    1       27.090 -21.605   2.938  0.00  0.00    +0.142 HD
ATOM     15  H   LIG    1       28.595 -21.648   3.683  0.00  0.00    +0.142 HD
ENDBRANCH   6  13
TORSDOF 3
ENDMDL
MODEL 2
REMARK VINA RESULT:    -5.886      2.664      4.505
REMARK INTER + INTRA:          -7.362
REMARK INTER:                  -6.802
REMARK INTRA:                  -0.561
REMARK UNBOUND:                -0.617
REMARK  Name = ZINC000039238372
REMARK                            x       y       z     vdW  Elec       q    Type
REMARK                         _______ _______ _______ _____ _____    ______ ____
ROOT
ATOM      1  C   LIG    1       27.807 -20.060   1.762  0.00  0.00    +0.040 A 
ATOM      2  C   LIG    1       27.874 -20.392   3.122  0.00  0.00    +0.013 A 
ATOM      3  C   LIG    1       28.694 -19.674   3.964  0.00  0.00    +0.003 A 
ATOM      4  C   LIG    1       29.452 -18.623   3.476  0.00  0.00    +0.034 A 
ATOM      5  C   LIG    1       29.399 -18.281   2.140  0.00  0.00    +0.147 A 
ATOM      6  C   LIG    1       28.585 -18.995   1.271  0.00  0.00    +0.066 A 
ENDROOT
BRANCH   1   8
ATOM      7  C   LIG    1       25.469 -20.956   1.164  0.00  0.00    +0.091 C 
ATOM      8  C   LIG    1       26.937 -20.820   0.859  0.00  0.00    +0.162 C 
ATOM      9  O   LIG    1       27.402 -21.338  -0.136  0.00  0.00    -0.292 OA
ENDBRANCH   1   8
BRANCH   5  10
ATOM     10  N   LIG    1       30.216 -17.156   1.632  0.00  0.00    +0.058 N 
ATOM     11  O   LIG    1       31.394 -17.075   1.930  0.00  0.00    -0.126 OA
ATOM     12  O   LIG    1       29.710 -16.311   0.916  0.00  0.00    -0.126 OA
ENDBRANCH   5  10
BRANCH   6  13
ATOM     13  N   LIG    1       28.529 -18.654  -0.072  0.00  0.00    -0.356 N 
ATOM     14  H   LIG    1       27.918 -17.962  -0.372  0.00  0.00    +0.142 HD
ATOM     15  H   LIG    1       29.100 -19.106  -0.712  0.00  0.00    +0.142 HD
ENDBRANCH   6  13
TORSDOF 3
ENDMDL
MODEL 3
REMARK VINA RESULT:    -5.662      1.952      2.947
REMARK INTER + INTRA:          -7.106
REMARK INTER:                  -6.506
REMARK INTRA:                  -0.600
REMARK UNBOUND:                -0.617
REMARK  Name = ZINC000039238372
REMARK                            x       y       z     vdW  Elec       q    Type
REMARK                         _______ _______ _______ _____ _____    ______ ____
ROOT
ATOM      1  C   LIG    1       29.497 -18.250   2.266  0.00  0.00    +0.040 A 
ATOM      2  C   LIG    1       29.430 -18.601   3.621  0.00  0.00    +0.013 A 
ATOM      3  C   LIG    1       28.611 -19.632   4.023  0.00  0.00    +0.003 A 
ATOM      4  C   LIG    1       27.853 -20.328   3.096  0.00  0.00    +0.034 A 
ATOM      5  C   LIG    1       27.907 -19.997   1.756  0.00  0.00    +0.147 A 
ATOM      6  C   LIG    1       28.720 -18.956   1.329  0.00  0.00    +0.066 A 
ENDROOT
BRANCH   1   8
ATOM      7  C   LIG    1       31.832 -17.169   2.177  0.00  0.00    +0.091 C 
ATOM      8  C   LIG    1       30.366 -17.153   1.830  0.00  0.00    +0.162 C 
ATOM      9  O   LIG    1       29.904 -16.231   1.189  0.00  0.00    -0.292 OA
ENDBRANCH   1   8
BRANCH   5  10
ATOM     10  N   LIG    1       27.091 -20.749   0.776  0.00  0.00    +0.058 N 
ATOM     11  O   LIG    1       25.878 -20.764   0.879  0.00  0.00    -0.126 OA
ATOM     12  O   LIG    1       27.633 -21.351  -0.132  0.00  0.00    -0.126 OA
ENDBRANCH   5  10
BRANCH   6  13
ATOM     13  N   LIG    1       28.777 -18.621  -0.016  0.00  0.00    -0.356 N 
ATOM     14  H   LIG    1       28.247 -17.883  -0.354  0.00  0.00    +0.142 HD
ATOM     15  H   LIG    1       29.346 -19.125  -0.617  0.00  0.00    +0.142 HD
ENDBRANCH   6  13
TORSDOF 3
ENDMDL
MODEL 4
REMARK VINA RESULT:    -5.547      1.814      3.494
REMARK INTER + INTRA:          -6.974
REMARK INTER:                  -6.357
REMARK INTRA:                  -0.617
REMARK UNBOUND:                -0.617
REMARK  Name = ZINC000039238372
REMARK                            x       y       z     vdW  Elec       q    Type
REMARK                         _______ _______ _______ _____ _____    ______ ____
ROOT
ATOM      1  C   LIG    1       29.088 -18.446   1.329  0.00  0.00    +0.040 A 
ATOM      2  C   LIG    1       29.691 -17.903   2.471  0.00  0.00    +0.013 A 
ATOM      3  C   LIG    1       29.500 -18.499   3.698  0.00  0.00    +0.003 A 
ATOM      4  C   LIG    1       28.715 -19.636   3.810  0.00  0.00    +0.034 A 
ATOM      5  C   LIG    1       28.114 -20.185   2.695  0.00  0.00    +0.147 A 
ATOM      6  C   LIG    1       28.288 -19.597   1.449  0.00  0.00    +0.066 A 
ENDROOT
BRANCH   1   8
ATOM      7  C   LIG    1       30.647 -17.831  -0.626  0.00  0.00    +0.091 C 
ATOM      8  C   LIG    1       29.286 -17.817   0.020  0.00  0.00    +0.162 C 
ATOM      9  O   LIG    1       28.353 -17.283  -0.544  0.00  0.00    -0.292 OA
ENDBRANCH   1   8
BRANCH   5  10
ATOM     10  N   LIG    1       27.279 -21.400   2.830  0.00  0.00    +0.058 N 
ATOM     11  O   LIG    1       27.770 -22.432   3.250  0.00  0.00    -0.126 OA
ATOM     12  O   LIG    1       26.102 -21.366   2.522  0.00  0.00    -0.126 OA
ENDBRANCH   5  10
BRANCH   6  13
ATOM     13  N   LIG    1       27.685 -20.147   0.328  0.00  0.00    -0.356 N 
ATOM     14  H   LIG    1       28.023 -20.975  -0.047  0.00  0.00    +0.142 HD
ATOM     15  H   LIG    1       26.926 -19.704  -0.081  0.00  0.00    +0.142 HD
ENDBRANCH   6  13
TORSDOF 3
ENDMDL
MODEL 5
REMARK VINA RESULT:    -5.329      2.919      3.277
REMARK INTER + INTRA:          -6.725
REMARK INTER:                  -6.152
REMARK INTRA:                  -0.572
REMARK UNBOUND:                -0.617
REMARK  Name = ZINC000039238372
REMARK                            x       y       z     vdW  Elec       q    Type
REMARK                         _______ _______ _______ _____ _____    ______ ____
ROOT
ATOM      1  C   LIG    1       29.523 -18.709   3.044  0.00  0.00    +0.040 A 
ATOM      2  C   LIG    1       28.534 -19.700   2.991  0.00  0.00    +0.013 A 
ATOM      3  C   LIG    1       27.877 -19.951   1.807  0.00  0.00    +0.003 A 
ATOM      4  C   LIG    1       28.191 -19.232   0.665  0.00  0.00    +0.034 A 
ATOM      5  C   LIG    1       29.163 -18.253   0.698  0.00  0.00    +0.147 A 
ATOM      6  C   LIG    1       29.833 -17.977   1.884  0.00  0.00    +0.066 A 
ENDROOT
BRANCH   1   8
ATOM      7  C   LIG    1       29.450 -18.301   5.586  0.00  0.00    +0.091 C 
ATOM      8  C   LIG    1       30.226 -18.435   4.301  0.00  0.00    +0.162 C 
ATOM      9  O   LIG    1       31.434 -18.317   4.307  0.00  0.00    -0.292 OA
ENDBRANCH   1   8
BRANCH   5  10
ATOM     10  N   LIG    1       29.487 -17.492  -0.529  0.00  0.00    +0.058 N 
ATOM     11  O   LIG    1       28.667 -16.728  -1.005  0.00  0.00    -0.126 OA
ATOM     12  O   LIG    1       30.573 -17.629  -1.061  0.00  0.00    -0.126 OA
ENDBRANCH   5  10
BRANCH   6  13
ATOM     13  N   LIG    1       30.811 -16.995   1.920  0.00  0.00    -0.356 N 
ATOM     14  H   LIG    1       31.678 -17.158   1.516  0.00  0.00    +0.142 HD
ATOM     15  H   LIG    1       30.628 -16.144   2.348  0.00  0.00    +0.142 HD
ENDBRANCH   6  13
TORSDOF 3
ENDMDL
MODEL 6
REMARK VINA RESULT:    -5.232      3.084      4.303
REMARK INTER + INTRA:          -6.614
REMARK INTER:                  -6.093
REMARK INTRA:                  -0.520
REMARK UNBOUND:                -0.617
REMARK  Name = ZINC000039238372
REMARK                            x       y       z     vdW  Elec       q    Type
REMARK                         _______ _______ _______ _____ _____    ______ ____
ROOT
ATOM      1  C   LIG    1       29.110 -19.190   1.975  0.00  0.00    +0.040 A 
ATOM      2  C   LIG    1       28.428 -19.049   0.759  0.00  0.00    +0.013 A 
ATOM      3  C   LIG    1       28.788 -18.050  -0.117  0.00  0.00    +0.003 A 
ATOM      4  C   LIG    1       29.825 -17.184   0.194  0.00  0.00    +0.034 A 
ATOM      5  C   LIG    1       30.508 -17.309   1.387  0.00  0.00    +0.147 A 
ATOM      6  C   LIG    1       30.157 -18.305   2.289  0.00  0.00    +0.066 A 
ENDROOT
BRANCH   1   8
ATOM      7  C   LIG    1       27.277 -20.537   3.182  0.00  0.00    +0.091 C 
ATOM      8  C   LIG    1       28.731 -20.251   2.914  0.00  0.00    +0.162 C 
ATOM      9  O   LIG    1       29.591 -20.899   3.475  0.00  0.00    -0.292 OA
ENDBRANCH   1   8
BRANCH   5  10
ATOM     10  N   LIG    1       31.613 -16.377   1.706  0.00  0.00    +0.058 N 
ATOM     11  O   LIG    1       31.404 -15.178   1.746  0.00  0.00    -0.126 OA
ATOM     12  O   LIG    1       32.728 -16.809   1.930  0.00  0.00    -0.126 OA
ENDBRANCH   5  10
BRANCH   6  13
ATOM     13  N   LIG    1       30.842 -18.433   3.488  0.00  0.00    -0.356 N 
ATOM     14  H   LIG    1       30.722 -17.774   4.188  0.00  0.00    +0.142 HD
ATOM     15  H   LIG    1       31.442 -19.183   3.626  0.00  0.00    +0.142 HD
ENDBRANCH   6  13
TORSDOF 3
ENDMDL
MODEL 7
REMARK VINA RESULT:    -4.959     16.420     18.334
REMARK INTER + INTRA:          -6.300
REMARK INTER:                  -5.711
REMARK INTRA:                  -0.590
REMARK UNBOUND:                -0.617
REMARK  Name = ZINC000039238372
REMARK                            x       y       z     vdW  Elec       q    Type
REMARK                         _______ _______ _______ _____ _____    ______ ____
ROOT
ATOM      1  C   LIG    1       20.660 -23.238  16.637  0.00  0.00    +0.040 A 
ATOM      2  C   LIG    1       20.751 -21.881  16.975  0.00  0.00    +0.013 A 
ATOM      3  C   LIG    1       20.940 -21.512  18.288  0.00  0.00    +0.003 A 
ATOM      4  C   LIG    1       21.044 -22.475  19.279  0.00  0.00    +0.034 A 
ATOM      5  C   LIG    1       20.958 -23.817  18.964  0.00  0.00    +0.147 A 
ATOM      6  C   LIG    1       20.760 -24.212  17.648  0.00  0.00    +0.066 A 
ENDROOT
BRANCH   1   8
ATOM      7  C   LIG    1       21.361 -23.099  14.163  0.00  0.00    +0.091 C 
ATOM      8  C   LIG    1       20.459 -23.639  15.241  0.00  0.00    +0.162 C 
ATOM      9  O   LIG    1       19.564 -24.408  14.954  0.00  0.00    -0.292 OA
ENDBRANCH   1   8
BRANCH   5  10
ATOM     10  N   LIG    1       21.070 -24.834  20.033  0.00  0.00    +0.058 N 
ATOM     11  O   LIG    1       20.277 -24.836  20.958  0.00  0.00    -0.126 OA
ATOM     12  O   LIG    1       21.954 -25.670  19.988  0.00  0.00    -0.126 OA
ENDBRANCH   5  10
BRANCH   6  13
ATOM     13  N   LIG    1       20.674 -25.559  17.329  0.00  0.00    -0.356 N 
ATOM     14  H   LIG    1       20.506 -26.212  18.026  0.00  0.00    +0.142 HD
ATOM     15  H   LIG    1       20.782 -25.847  16.410  0.00  0.00    +0.142 HD
ENDBRANCH   6  13
TORSDOF 3
ENDMDL
MODEL 8
REMARK VINA RESULT:    -4.818      3.835      5.203
REMARK INTER + INTRA:          -6.139
REMARK INTER:                  -5.519
REMARK INTRA:                  -0.620
REMARK UNBOUND:                -0.617
REMARK  Name = ZINC000039238372
REMARK                            x       y       z     vdW  Elec       q    Type
REMARK                         _______ _______ _______ _____ _____    ______ ____
ROOT
ATOM      1  C   LIG    1       30.744 -17.582   1.959  0.00  0.00    +0.040 A 
ATOM      2  C   LIG    1       29.452 -18.050   1.685  0.00  0.00    +0.013 A 
ATOM      3  C   LIG    1       28.854 -18.953   2.535  0.00  0.00    +0.003 A 
ATOM      4  C   LIG    1       29.521 -19.401   3.664  0.00  0.00    +0.034 A 
ATOM      5  C   LIG    1       30.794 -18.950   3.951  0.00  0.00    +0.147 A 
ATOM      6  C   LIG    1       31.419 -18.045   3.103  0.00  0.00    +0.066 A 
ENDROOT
BRANCH   1   8
ATOM      7  C   LIG    1       31.763 -17.035  -0.341  0.00  0.00    +0.091 C 
ATOM      8  C   LIG    1       31.388 -16.622   1.058  0.00  0.00    +0.162 C 
ATOM      9  O   LIG    1       31.618 -15.492   1.440  0.00  0.00    -0.292 OA
ENDBRANCH   1   8
BRANCH   5  10
ATOM     10  N   LIG    1       31.495 -19.438   5.160  0.00  0.00    +0.058 N 
ATOM     11  O   LIG    1       31.751 -20.623   5.279  0.00  0.00    -0.126 OA
ATOM     12  O   LIG    1       31.817 -18.655   6.035  0.00  0.00    -0.126 OA
ENDBRANCH   5  10
BRANCH   6  13
ATOM     13  N   LIG    1       32.698 -17.591   3.389  0.00  0.00    -0.356 N 
ATOM     14  H   LIG    1       33.217 -17.142   2.704  0.00  0.00    +0.142 HD
ATOM     15  H   LIG    1       33.073 -17.721   4.274  0.00  0.00    +0.142 HD
ENDBRANCH   6  13
TORSDOF 3
ENDMDL
MODEL 9
REMARK VINA RESULT:    -4.780     14.732     16.281
REMARK INTER + INTRA:          -6.095
REMARK INTER:                  -5.473
REMARK INTRA:                  -0.622
REMARK UNBOUND:                -0.617
REMARK  Name = ZINC000039238372
REMARK                            x       y       z     vdW  Elec       q    Type
REMARK                         _______ _______ _______ _____ _____    ______ ____
ROOT
ATOM      1  C   LIG    1       22.730 -22.374  17.495  0.00  0.00    +0.040 A 
ATOM      2  C   LIG    1       23.934 -22.320  16.780  0.00  0.00    +0.013 A 
ATOM      3  C   LIG    1       23.948 -22.620  15.436  0.00  0.00    +0.003 A 
ATOM      4  C   LIG    1       22.777 -22.972  14.785  0.00  0.00    +0.034 A 
ATOM      5  C   LIG    1       21.581 -23.030  15.473  0.00  0.00    +0.147 A 
ATOM      6  C   LIG    1       21.546 -22.739  16.831  0.00  0.00    +0.066 A 
ENDROOT
BRANCH   1   8
ATOM      7  C   LIG    1       23.475 -22.913  19.901  0.00  0.00    +0.091 C 
ATOM      8  C   LIG    1       22.708 -22.057  18.927  0.00  0.00    +0.162 C 
ATOM      9  O   LIG    1       22.071 -21.104  19.327  0.00  0.00    -0.292 OA
ENDBRANCH   1   8
BRANCH   5  10
ATOM     10  N   LIG    1       20.338 -23.409  14.765  0.00  0.00    +0.058 N 
ATOM     11  O   LIG    1       19.881 -22.677  13.905  0.00  0.00    -0.126 OA
ATOM     12  O   LIG    1       19.774 -24.451  15.041  0.00  0.00    -0.126 OA
ENDBRANCH   5  10
BRANCH   6  13
ATOM     13  N   LIG    1       20.346 -22.795  17.525  0.00  0.00    -0.356 N 
ATOM     14  H   LIG    1       19.759 -23.559  17.416  0.00  0.00    +0.142 HD
ATOM     15  H   LIG    1       20.095 -22.072  18.119  0.00  0.00    +0.142 HD
ENDBRANCH   6  13
TORSDOF 3
ENDMDL
