MODEL 1
REMARK VINA RESULT:    -5.947      0.000      0.000
REMARK INTER + INTRA:          -7.168
REMARK INTER:                  -6.816
REMARK INTRA:                  -0.352
REMARK UNBOUND:                -0.352
REMARK  Name = ZINC000104571319
REMARK                            x       y       z     vdW  Elec       q    Type
REMARK                         _______ _______ _______ _____ _____    ______ ____
ROOT
ATOM      1  C   LIG    1       28.019 -20.186   2.453  0.00  0.00    +0.300 A 
ATOM      2  C   LIG    1       28.831 -19.279   3.120  0.00  0.00    -0.030 A 
ATOM      3  C   LIG    1       29.401 -18.224   2.430  0.00  0.00    +0.170 A 
ATOM      4  C   LIG    1       29.160 -18.073   1.072  0.00  0.00    +0.020 A 
ATOM      5  C   LIG    1       28.350 -18.978   0.407  0.00  0.00    +0.150 A 
ATOM      6  F   LIG    1       29.717 -17.043   0.398  0.00  0.00    -0.110 F 
ATOM      7  F   LIG    1       30.192 -17.341   3.078  0.00  0.00    -0.110 F 
ATOM      8  C   LIG    1       27.784 -20.035   1.092  0.00  0.00    -0.110 A 
ENDROOT
BRANCH   8   9
ATOM      9  N   LIG    1       26.919 -21.001   0.379  0.00  0.00    +0.040 N 
ATOM     10  O   LIG    1       27.321 -21.550  -0.630  0.00  0.00    -0.180 OA
ATOM     11  O   LIG    1       25.803 -21.248   0.803  0.00  0.00    -0.130 OA
ENDBRANCH   8   9
BRANCH   1  12
ATOM     12  N   LIG    1       27.443 -21.253   3.148  0.00  0.00    -0.560 N 
ATOM     13  H   LIG    1       26.644 -21.111   3.679  0.00  0.00    +0.420 HD
BRANCH  12  14
ATOM     14  N   LIG    1       28.005 -22.496   3.079  0.00  0.00    -0.600 NA
ATOM     15  H   LIG    1       28.528 -22.609   2.223  0.00  0.00    +0.370 HD
ATOM     16  H   LIG    1       27.305 -23.216   3.172  0.00  0.00    +0.350 HD
ENDBRANCH  12  14
ENDBRANCH   1  12
TORSDOF 3
ENDMDL
MODEL 2
REMARK VINA RESULT:    -5.747      4.173      4.923
REMARK INTER + INTRA:          -6.939
REMARK INTER:                  -6.406
REMARK INTRA:                  -0.532
REMARK UNBOUND:                -0.352
REMARK  Name = ZINC000104571319
REMARK                            x       y       z     vdW  Elec       q    Type
REMARK                         _______ _______ _______ _____ _____    ______ ____
ROOT
ATOM      1  C   LIG    1       29.002 -18.325   0.501  0.00  0.00    +0.300 A 
ATOM      2  C   LIG    1       28.065 -19.338   0.356  0.00  0.00    -0.030 A 
ATOM      3  C   LIG    1       27.673 -20.078   1.457  0.00  0.00    +0.170 A 
ATOM      4  C   LIG    1       28.216 -19.808   2.704  0.00  0.00    +0.020 A 
ATOM      5  C   LIG    1       29.151 -18.796   2.849  0.00  0.00    +0.150 A 
ATOM      6  F   LIG    1       27.834 -20.531   3.779  0.00  0.00    -0.110 F 
ATOM      7  F   LIG    1       26.761 -21.066   1.317  0.00  0.00    -0.110 F 
ATOM      8  C   LIG    1       29.548 -18.058   1.750  0.00  0.00    -0.110 A 
ENDROOT
BRANCH   8   9
ATOM      9  N   LIG    1       30.547 -16.978   1.906  0.00  0.00    +0.040 N 
ATOM     10  O   LIG    1       30.279 -15.844   1.553  0.00  0.00    -0.180 OA
ATOM     11  O   LIG    1       31.639 -17.224   2.388  0.00  0.00    -0.130 OA
ENDBRANCH   8   9
BRANCH   1  12
ATOM     12  N   LIG    1       29.400 -17.575  -0.610  0.00  0.00    -0.560 N 
ATOM     13  H   LIG    1       30.253 -17.753  -1.035  0.00  0.00    +0.420 HD
BRANCH  12  14
ATOM     14  N   LIG    1       28.586 -16.592  -1.097  0.00  0.00    -0.600 NA
ATOM     15  H   LIG    1       28.423 -15.880  -0.400  0.00  0.00    +0.370 HD
ATOM     16  H   LIG    1       27.715 -16.976  -1.432  0.00  0.00    +0.350 HD
ENDBRANCH  12  14
ENDBRANCH   1  12
TORSDOF 3
ENDMDL
MODEL 3
REMARK VINA RESULT:    -5.596     15.782     16.779
REMARK INTER + INTRA:          -6.766
REMARK INTER:                  -6.210
REMARK INTRA:                  -0.556
REMARK UNBOUND:                -0.352
REMARK  Name = ZINC000104571319
REMARK                            x       y       z     vdW  Elec       q    Type
REMARK                         _______ _______ _______ _____ _____    ______ ____
ROOT
ATOM      1  C   LIG    1       20.748 -24.238  16.490  0.00  0.00    +0.300 A 
ATOM      2  C   LIG    1       20.029 -23.632  15.468  0.00  0.00    -0.030 A 
ATOM      3  C   LIG    1       20.696 -23.050  14.405  0.00  0.00    +0.170 A 
ATOM      4  C   LIG    1       22.082 -23.073  14.360  0.00  0.00    +0.020 A 
ATOM      5  C   LIG    1       22.799 -23.679  15.378  0.00  0.00    +0.150 A 
ATOM      6  F   LIG    1       22.734 -22.505  13.322  0.00  0.00    -0.110 F 
ATOM      7  F   LIG    1       19.998 -22.459  13.410  0.00  0.00    -0.110 F 
ATOM      8  C   LIG    1       22.136 -24.256  16.443  0.00  0.00    -0.110 A 
ENDROOT
BRANCH   8   9
ATOM      9  N   LIG    1       22.904 -24.901  17.531  0.00  0.00    +0.040 N 
ATOM     10  O   LIG    1       23.647 -25.833  17.283  0.00  0.00    -0.180 OA
ATOM     11  O   LIG    1       22.792 -24.500  18.676  0.00  0.00    -0.130 OA
ENDBRANCH   8   9
BRANCH   1  12
ATOM     12  N   LIG    1       20.075 -24.825  17.565  0.00  0.00    -0.560 N 
ATOM     13  H   LIG    1       19.875 -25.774  17.552  0.00  0.00    +0.420 HD
BRANCH  12  14
ATOM     14  N   LIG    1       19.701 -24.063  18.635  0.00  0.00    -0.600 NA
ATOM     15  H   LIG    1       19.215 -23.231  18.333  0.00  0.00    +0.370 HD
ATOM     16  H   LIG    1       20.498 -23.828  19.208  0.00  0.00    +0.350 HD
ENDBRANCH  12  14
ENDBRANCH   1  12
TORSDOF 3
ENDMDL
MODEL 4
REMARK VINA RESULT:    -5.558      1.458      2.748
REMARK INTER + INTRA:          -6.722
REMARK INTER:                  -6.346
REMARK INTRA:                  -0.376
REMARK UNBOUND:                -0.352
REMARK  Name = ZINC000104571319
REMARK                            x       y       z     vdW  Elec       q    Type
REMARK                         _______ _______ _______ _____ _____    ______ ____
ROOT
ATOM      1  C   LIG    1       27.940 -19.923   1.347  0.00  0.00    +0.300 A 
ATOM      2  C   LIG    1       28.687 -18.800   1.016  0.00  0.00    -0.030 A 
ATOM      3  C   LIG    1       29.418 -18.145   1.991  0.00  0.00    +0.170 A 
ATOM      4  C   LIG    1       29.405 -18.611   3.298  0.00  0.00    +0.020 A 
ATOM      5  C   LIG    1       28.661 -19.731   3.628  0.00  0.00    +0.150 A 
ATOM      6  F   LIG    1       30.118 -17.971   4.250  0.00  0.00    -0.110 F 
ATOM      7  F   LIG    1       30.144 -17.052   1.671  0.00  0.00    -0.110 F 
ATOM      8  C   LIG    1       27.926 -20.384   2.658  0.00  0.00    -0.110 A 
ENDROOT
BRANCH   8   9
ATOM      9  N   LIG    1       27.131 -21.581   3.012  0.00  0.00    +0.040 N 
ATOM     10  O   LIG    1       25.915 -21.537   2.977  0.00  0.00    -0.180 OA
ATOM     11  O   LIG    1       27.694 -22.612   3.338  0.00  0.00    -0.130 OA
ENDBRANCH   8   9
BRANCH   1  12
ATOM     12  N   LIG    1       27.200 -20.586   0.364  0.00  0.00    -0.560 N 
ATOM     13  H   LIG    1       26.278 -20.337   0.200  0.00  0.00    +0.420 HD
BRANCH  12  14
ATOM     14  N   LIG    1       27.778 -21.586  -0.366  0.00  0.00    -0.600 NA
ATOM     15  H   LIG    1       28.784 -21.556  -0.287  0.00  0.00    +0.370 HD
ATOM     16  H   LIG    1       27.490 -21.542  -1.332  0.00  0.00    +0.350 HD
ENDBRANCH  12  14
ENDBRANCH   1  12
TORSDOF 3
ENDMDL
MODEL 5
REMARK VINA RESULT:    -5.418     17.025     18.002
REMARK INTER + INTRA:          -6.561
REMARK INTER:                  -6.209
REMARK INTRA:                  -0.352
REMARK UNBOUND:                -0.352
REMARK  Name = ZINC000104571319
REMARK                            x       y       z     vdW  Elec       q    Type
REMARK                         _______ _______ _______ _____ _____    ______ ____
ROOT
ATOM      1  C   LIG    1       20.626 -24.565  17.546  0.00  0.00    +0.300 A 
ATOM      2  C   LIG    1       20.677 -24.267  18.901  0.00  0.00    -0.030 A 
ATOM      3  C   LIG    1       20.821 -22.955  19.315  0.00  0.00    +0.170 A 
ATOM      4  C   LIG    1       20.914 -21.938  18.376  0.00  0.00    +0.020 A 
ATOM      5  C   LIG    1       20.861 -22.234  17.025  0.00  0.00    +0.150 A 
ATOM      6  F   LIG    1       21.054 -20.657  18.781  0.00  0.00    -0.110 F 
ATOM      7  F   LIG    1       20.871 -22.664  20.633  0.00  0.00    -0.110 F 
ATOM      8  C   LIG    1       20.722 -23.544  16.608  0.00  0.00    -0.110 A 
ENDROOT
BRANCH   8   9
ATOM      9  N   LIG    1       20.668 -23.859  15.163  0.00  0.00    +0.040 N 
ATOM     10  O   LIG    1       21.644 -23.668  14.461  0.00  0.00    -0.180 OA
ATOM     11  O   LIG    1       19.647 -24.312  14.677  0.00  0.00    -0.130 OA
ENDBRANCH   8   9
BRANCH   1  12
ATOM     12  N   LIG    1       20.480 -25.890  17.125  0.00  0.00    -0.560 N 
ATOM     13  H   LIG    1       19.813 -26.117  16.459  0.00  0.00    +0.420 HD
BRANCH  12  14
ATOM     14  N   LIG    1       21.279 -26.865  17.652  0.00  0.00    -0.600 NA
ATOM     15  H   LIG    1       20.894 -27.219  18.515  0.00  0.00    +0.370 HD
ATOM     16  H   LIG    1       22.220 -26.527  17.788  0.00  0.00    +0.350 HD
ENDBRANCH  12  14
ENDBRANCH   1  12
TORSDOF 3
ENDMDL
MODEL 6
REMARK VINA RESULT:    -5.328     15.265     16.264
REMARK INTER + INTRA:          -6.458
REMARK INTER:                  -5.929
REMARK INTRA:                  -0.529
REMARK UNBOUND:                -0.352
REMARK  Name = ZINC000104571319
REMARK                            x       y       z     vdW  Elec       q    Type
REMARK                         _______ _______ _______ _____ _____    ______ ____
ROOT
ATOM      1  C   LIG    1       22.896 -22.649  15.785  0.00  0.00    +0.300 A 
ATOM      2  C   LIG    1       23.535 -21.936  16.791  0.00  0.00    -0.030 A 
ATOM      3  C   LIG    1       22.796 -21.376  17.817  0.00  0.00    +0.170 A 
ATOM      4  C   LIG    1       21.417 -21.527  17.841  0.00  0.00    +0.020 A 
ATOM      5  C   LIG    1       20.780 -22.238  16.838  0.00  0.00    +0.150 A 
ATOM      6  F   LIG    1       20.696 -20.979  18.843  0.00  0.00    -0.110 F 
ATOM      7  F   LIG    1       23.417 -20.682  18.797  0.00  0.00    -0.110 F 
ATOM      8  C   LIG    1       21.515 -22.794  15.810  0.00  0.00    -0.110 A 
ENDROOT
BRANCH   8   9
ATOM      9  N   LIG    1       20.832 -23.553  14.738  0.00  0.00    +0.040 N 
ATOM     10  O   LIG    1       21.101 -23.335  13.571  0.00  0.00    -0.180 OA
ATOM     11  O   LIG    1       20.001 -24.397  15.024  0.00  0.00    -0.130 OA
ENDBRANCH   8   9
BRANCH   1  12
ATOM     12  N   LIG    1       23.641 -23.215  14.747  0.00  0.00    -0.560 N 
ATOM     13  H   LIG    1       23.861 -24.159  14.767  0.00  0.00    +0.420 HD
BRANCH  12  14
ATOM     14  N   LIG    1       24.059 -22.438  13.704  0.00  0.00    -0.600 NA
ATOM     15  H   LIG    1       24.832 -21.850  13.979  0.00  0.00    +0.370 HD
ATOM     16  H   LIG    1       23.298 -21.886  13.336  0.00  0.00    +0.350 HD
ENDBRANCH  12  14
ENDBRANCH   1  12
TORSDOF 3
ENDMDL
MODEL 7
REMARK VINA RESULT:    -5.314      1.776      3.126
REMARK INTER + INTRA:          -6.443
REMARK INTER:                  -6.125
REMARK INTRA:                  -0.318
REMARK UNBOUND:                -0.352
REMARK  Name = ZINC000104571319
REMARK                            x       y       z     vdW  Elec       q    Type
REMARK                         _______ _______ _______ _____ _____    ______ ____
ROOT
ATOM      1  C   LIG    1       28.579 -18.963   1.212  0.00  0.00    +0.300 A 
ATOM      2  C   LIG    1       29.431 -18.171   1.970  0.00  0.00    -0.030 A 
ATOM      3  C   LIG    1       29.574 -18.412   3.325  0.00  0.00    +0.170 A 
ATOM      4  C   LIG    1       28.868 -19.444   3.925  0.00  0.00    +0.020 A 
ATOM      5  C   LIG    1       28.019 -20.234   3.168  0.00  0.00    +0.150 A 
ATOM      6  F   LIG    1       29.008 -19.678   5.247  0.00  0.00    -0.110 F 
ATOM      7  F   LIG    1       30.403 -17.641   4.064  0.00  0.00    -0.110 F 
ATOM      8  C   LIG    1       27.870 -19.994   1.817  0.00  0.00    -0.110 A 
ENDROOT
BRANCH   8   9
ATOM      9  N   LIG    1       26.962 -20.839   1.010  0.00  0.00    +0.040 N 
ATOM     10  O   LIG    1       25.819 -21.032   1.381  0.00  0.00    -0.180 OA
ATOM     11  O   LIG    1       27.358 -21.341  -0.027  0.00  0.00    -0.130 OA
ENDBRANCH   8   9
BRANCH   1  12
ATOM     12  N   LIG    1       28.433 -18.722  -0.157  0.00  0.00    -0.560 N 
ATOM     13  H   LIG    1       28.347 -19.464  -0.774  0.00  0.00    +0.420 HD
BRANCH  12  14
ATOM     14  N   LIG    1       28.409 -17.438  -0.625  0.00  0.00    -0.600 NA
ATOM     15  H   LIG    1       29.252 -16.945  -0.369  0.00  0.00    +0.370 HD
ATOM     16  H   LIG    1       27.590 -16.949  -0.296  0.00  0.00    +0.350 HD
ENDBRANCH  12  14
ENDBRANCH   1  12
TORSDOF 3
ENDMDL
MODEL 8
REMARK VINA RESULT:    -5.213     15.483     16.494
REMARK INTER + INTRA:          -6.327
REMARK INTER:                  -5.793
REMARK INTRA:                  -0.534
REMARK UNBOUND:                -0.352
REMARK  Name = ZINC000104571319
REMARK                            x       y       z     vdW  Elec       q    Type
REMARK                         _______ _______ _______ _____ _____    ______ ____
ROOT
ATOM      1  C   LIG    1       21.490 -23.107  17.108  0.00  0.00    +0.300 A 
ATOM      2  C   LIG    1       22.639 -22.948  17.872  0.00  0.00    -0.030 A 
ATOM      3  C   LIG    1       23.883 -23.025  17.272  0.00  0.00    +0.170 A 
ATOM      4  C   LIG    1       23.982 -23.261  15.908  0.00  0.00    +0.020 A 
ATOM      5  C   LIG    1       22.837 -23.418  15.147  0.00  0.00    +0.150 A 
ATOM      6  F   LIG    1       25.197 -23.336  15.323  0.00  0.00    -0.110 F 
ATOM      7  F   LIG    1       25.002 -22.871  18.014  0.00  0.00    -0.110 F 
ATOM      8  C   LIG    1       21.593 -23.347  15.744  0.00  0.00    -0.110 A 
ENDROOT
BRANCH   8   9
ATOM      9  N   LIG    1       20.370 -23.516  14.928  0.00  0.00    +0.040 N 
ATOM     10  O   LIG    1       19.650 -24.482  15.104  0.00  0.00    -0.180 OA
ATOM     11  O   LIG    1       20.083 -22.688  14.082  0.00  0.00    -0.130 OA
ENDBRANCH   8   9
BRANCH   1  12
ATOM     12  N   LIG    1       20.232 -23.030  17.712  0.00  0.00    -0.560 N 
ATOM     13  H   LIG    1       19.730 -22.202  17.683  0.00  0.00    +0.420 HD
BRANCH  12  14
ATOM     14  N   LIG    1       19.710 -24.123  18.344  0.00  0.00    -0.600 NA
ATOM     15  H   LIG    1       20.293 -24.935  18.200  0.00  0.00    +0.370 HD
ATOM     16  H   LIG    1       18.764 -24.299  18.041  0.00  0.00    +0.350 HD
ENDBRANCH  12  14
ENDBRANCH   1  12
TORSDOF 3
ENDMDL
MODEL 9
REMARK VINA RESULT:    -5.068      2.885      3.660
REMARK INTER + INTRA:          -6.161
REMARK INTER:                  -5.607
REMARK INTRA:                  -0.554
REMARK UNBOUND:                -0.352
REMARK  Name = ZINC000104571319
REMARK                            x       y       z     vdW  Elec       q    Type
REMARK                         _______ _______ _______ _____ _____    ______ ____
ROOT
ATOM      1  C   LIG    1       28.577 -19.424   2.613  0.00  0.00    +0.300 A 
ATOM      2  C   LIG    1       28.374 -19.157   1.265  0.00  0.00    -0.030 A 
ATOM      3  C   LIG    1       29.063 -18.125   0.655  0.00  0.00    +0.170 A 
ATOM      4  C   LIG    1       29.956 -17.357   1.388  0.00  0.00    +0.020 A 
ATOM      5  C   LIG    1       30.159 -17.624   2.731  0.00  0.00    +0.150 A 
ATOM      6  F   LIG    1       30.628 -16.349   0.791  0.00  0.00    -0.110 F 
ATOM      7  F   LIG    1       28.866 -17.863  -0.657  0.00  0.00    -0.110 F 
ATOM      8  C   LIG    1       29.470 -18.651   3.345  0.00  0.00    -0.110 A 
ENDROOT
BRANCH   8   9
ATOM      9  N   LIG    1       29.687 -18.935   4.781  0.00  0.00    +0.040 N 
ATOM     10  O   LIG    1       29.400 -18.098   5.618  0.00  0.00    -0.180 OA
ATOM     11  O   LIG    1       30.153 -20.006   5.127  0.00  0.00    -0.130 OA
ENDBRANCH   8   9
BRANCH   1  12
ATOM     12  N   LIG    1       27.882 -20.467   3.232  0.00  0.00    -0.560 N 
ATOM     13  H   LIG    1       27.053 -20.286   3.700  0.00  0.00    +0.420 HD
BRANCH  12  14
ATOM     14  N   LIG    1       28.373 -21.741   3.178  0.00  0.00    -0.600 NA
ATOM     15  H   LIG    1       28.848 -21.908   2.303  0.00  0.00    +0.370 HD
ATOM     16  H   LIG    1       27.639 -22.417   3.325  0.00  0.00    +0.350 HD
ENDBRANCH  12  14
ENDBRANCH   1  12
TORSDOF 3
ENDMDL
