MODEL 1
REMARK VINA RESULT:    -7.043      0.000      0.000
REMARK INTER + INTRA:          -7.744
REMARK INTER:                  -7.455
REMARK INTRA:                  -0.289
REMARK UNBOUND:                -0.289
REMARK  Name = ZINC000235550415
REMARK                            x       y       z     vdW  Elec       q    Type
REMARK                         _______ _______ _______ _____ _____    ______ ____
ROOT
ATOM      1  C   LIG    1       31.246 -17.460   1.123  0.00  0.00    +0.090 C 
ATOM      2  C   LIG    1       29.723 -17.319   1.152  0.00  0.00    +0.060 C 
ATOM      3  C   LIG    1       29.148 -17.495  -0.237  0.00  0.00    +0.530 C 
ATOM      4  N   LIG    1       28.331 -18.561  -0.194  0.00  0.00    -0.650 N 
ATOM      5  H   LIG    1       27.833 -18.891  -0.959  0.00  0.00    +0.430 HD
ATOM      6  C   LIG    1       28.282 -19.140   1.073  0.00  0.00    +0.220 A 
ATOM      7  C   LIG    1       27.573 -20.243   1.545  0.00  0.00    -0.070 A 
ATOM      8  C   LIG    1       27.691 -20.627   2.867  0.00  0.00    +0.140 A 
ATOM      9  C   LIG    1       28.509 -19.924   3.731  0.00  0.00    +0.020 A 
ATOM     10  C   LIG    1       29.216 -18.827   3.270  0.00  0.00    +0.140 A 
ATOM     11  O   LIG    1       29.379 -16.803  -1.206  0.00  0.00    -0.470 OA
ATOM     12  C   LIG    1       29.102 -18.440   1.955  0.00  0.00    -0.140 A 
ENDROOT
BRANCH   7  13
ATOM     13  N   LIG    1       26.694 -21.004   0.631  0.00  0.00    +0.040 N 
ATOM     14  O   LIG    1       27.132 -21.422  -0.426  0.00  0.00    -0.180 OA
ATOM     15  O   LIG    1       25.534 -21.215   0.934  0.00  0.00    -0.140 OA
ENDBRANCH   7  13
TORSDOF 1
ENDMDL
MODEL 2
REMARK VINA RESULT:    -6.730      1.249      4.099
REMARK INTER + INTRA:          -7.413
REMARK INTER:                  -7.126
REMARK INTRA:                  -0.287
REMARK UNBOUND:                -0.289
REMARK  Name = ZINC000235550415
REMARK                            x       y       z     vdW  Elec       q    Type
REMARK                         _______ _______ _______ _____ _____    ______ ____
ROOT
ATOM      1  C   LIG    1       26.099 -21.012   2.767  0.00  0.00    +0.090 C 
ATOM      2  C   LIG    1       27.472 -21.040   2.090  0.00  0.00    +0.060 C 
ATOM      3  C   LIG    1       27.339 -20.752   0.610  0.00  0.00    +0.530 C 
ATOM      4  N   LIG    1       28.037 -19.631   0.362  0.00  0.00    -0.650 N 
ATOM      5  H   LIG    1       28.115 -19.227  -0.517  0.00  0.00    +0.430 HD
ATOM      6  C   LIG    1       28.636 -19.115   1.510  0.00  0.00    +0.220 A 
ATOM      7  C   LIG    1       29.434 -17.987   1.695  0.00  0.00    -0.070 A 
ATOM      8  C   LIG    1       29.917 -17.680   2.951  0.00  0.00    +0.140 A 
ATOM      9  C   LIG    1       29.617 -18.485   4.034  0.00  0.00    +0.020 A 
ATOM     10  C   LIG    1       28.826 -19.607   3.860  0.00  0.00    +0.140 A 
ATOM     11  O   LIG    1       26.720 -21.409  -0.200  0.00  0.00    -0.470 OA
ATOM     12  C   LIG    1       28.342 -19.918   2.610  0.00  0.00    -0.140 A 
ENDROOT
BRANCH   7  13
ATOM     13  N   LIG    1       29.762 -17.117   0.544  0.00  0.00    +0.040 N 
ATOM     14  O   LIG    1       28.939 -16.933  -0.334  0.00  0.00    -0.180 OA
ATOM     15  O   LIG    1       30.855 -16.585   0.475  0.00  0.00    -0.140 OA
ENDBRANCH   7  13
TORSDOF 1
ENDMDL
MODEL 3
REMARK VINA RESULT:    -6.368      3.292      5.227
REMARK INTER + INTRA:          -7.030
REMARK INTER:                  -6.766
REMARK INTRA:                  -0.264
REMARK UNBOUND:                -0.289
REMARK  Name = ZINC000235550415
REMARK                            x       y       z     vdW  Elec       q    Type
REMARK                         _______ _______ _______ _____ _____    ______ ____
ROOT
ATOM      1  C   LIG    1       28.602 -21.102   3.037  0.00  0.00    +0.090 C 
ATOM      2  C   LIG    1       28.454 -19.591   3.231  0.00  0.00    +0.060 C 
ATOM      3  C   LIG    1       29.442 -19.091   4.262  0.00  0.00    +0.530 C 
ATOM      4  N   LIG    1       30.244 -18.207   3.644  0.00  0.00    -0.650 N 
ATOM      5  H   LIG    1       30.970 -17.736   4.083  0.00  0.00    +0.430 HD
ATOM      6  C   LIG    1       29.916 -18.046   2.298  0.00  0.00    +0.220 A 
ATOM      7  C   LIG    1       30.483 -17.242   1.311  0.00  0.00    -0.070 A 
ATOM      8  C   LIG    1       29.971 -17.257   0.028  0.00  0.00    +0.140 A 
ATOM      9  C   LIG    1       28.895 -18.064  -0.288  0.00  0.00    +0.020 A 
ATOM     10  C   LIG    1       28.325 -18.865   0.687  0.00  0.00    +0.140 A 
ATOM     11  O   LIG    1       29.500 -19.423   5.427  0.00  0.00    -0.470 OA
ATOM     12  C   LIG    1       28.832 -18.855   1.966  0.00  0.00    -0.140 A 
ENDROOT
BRANCH   7  13
ATOM     13  N   LIG    1       31.636 -16.373   1.636  0.00  0.00    +0.040 N 
ATOM     14  O   LIG    1       32.333 -16.624   2.603  0.00  0.00    -0.180 OA
ATOM     15  O   LIG    1       31.888 -15.408   0.938  0.00  0.00    -0.140 OA
ENDBRANCH   7  13
TORSDOF 1
ENDMDL
MODEL 4
REMARK VINA RESULT:    -6.306      3.048      4.817
REMARK INTER + INTRA:          -6.964
REMARK INTER:                  -6.674
REMARK INTRA:                  -0.290
REMARK UNBOUND:                -0.289
REMARK  Name = ZINC000235550415
REMARK                            x       y       z     vdW  Elec       q    Type
REMARK                         _______ _______ _______ _____ _____    ______ ____
ROOT
ATOM      1  C   LIG    1       27.688 -21.175   0.047  0.00  0.00    +0.090 C 
ATOM      2  C   LIG    1       27.262 -20.163   1.113  0.00  0.00    +0.060 C 
ATOM      3  C   LIG    1       27.222 -20.817   2.478  0.00  0.00    +0.530 C 
ATOM      4  N   LIG    1       28.113 -20.173   3.251  0.00  0.00    -0.650 N 
ATOM      5  H   LIG    1       28.285 -20.397   4.179  0.00  0.00    +0.430 HD
ATOM      6  C   LIG    1       28.764 -19.147   2.566  0.00  0.00    +0.220 A 
ATOM      7  C   LIG    1       29.743 -18.249   2.986  0.00  0.00    -0.070 A 
ATOM      8  C   LIG    1       30.239 -17.307   2.106  0.00  0.00    +0.140 A 
ATOM      9  C   LIG    1       29.771 -17.244   0.808  0.00  0.00    +0.020 A 
ATOM     10  C   LIG    1       28.798 -18.132   0.383  0.00  0.00    +0.140 A 
ATOM     11  O   LIG    1       26.517 -21.746   2.812  0.00  0.00    -0.470 OA
ATOM     12  C   LIG    1       28.300 -19.073   1.255  0.00  0.00    -0.140 A 
ENDROOT
BRANCH   7  13
ATOM     13  N   LIG    1       30.254 -18.305   4.373  0.00  0.00    +0.040 N 
ATOM     14  O   LIG    1       29.474 -18.281   5.309  0.00  0.00    -0.180 OA
ATOM     15  O   LIG    1       31.452 -18.377   4.580  0.00  0.00    -0.140 OA
ENDBRANCH   7  13
TORSDOF 1
ENDMDL
MODEL 5
REMARK VINA RESULT:    -5.427     23.911     25.244
REMARK INTER + INTRA:          -6.034
REMARK INTER:                  -5.791
REMARK INTRA:                  -0.243
REMARK UNBOUND:                -0.289
REMARK  Name = ZINC000235550415
REMARK                            x       y       z     vdW  Elec       q    Type
REMARK                         _______ _______ _______ _____ _____    ______ ____
ROOT
ATOM      1  C   LIG    1       14.411 -13.081  23.256  0.00  0.00    +0.090 C 
ATOM      2  C   LIG    1       14.315 -13.182  21.732  0.00  0.00    +0.060 C 
ATOM      3  C   LIG    1       12.982 -12.654  21.249  0.00  0.00    +0.530 C 
ATOM      4  N   LIG    1       13.240 -11.608  20.444  0.00  0.00    -0.650 N 
ATOM      5  H   LIG    1       12.553 -11.086  20.000  0.00  0.00    +0.430 HD
ATOM      6  C   LIG    1       14.606 -11.359  20.322  0.00  0.00    +0.220 A 
ATOM      7  C   LIG    1       15.295 -10.387  19.598  0.00  0.00    -0.070 A 
ATOM      8  C   LIG    1       16.675 -10.344  19.637  0.00  0.00    +0.140 A 
ATOM      9  C   LIG    1       17.384 -11.261  20.390  0.00  0.00    +0.020 A 
ATOM     10  C   LIG    1       16.708 -12.230  21.111  0.00  0.00    +0.140 A 
ATOM     11  O   LIG    1       11.887 -13.091  21.533  0.00  0.00    -0.470 OA
ATOM     12  C   LIG    1       15.333 -12.277  21.076  0.00  0.00    -0.140 A 
ENDROOT
BRANCH   7  13
ATOM     13  N   LIG    1       14.548  -9.400  18.789  0.00  0.00    +0.040 N 
ATOM     14  O   LIG    1       13.376  -9.596  18.519  0.00  0.00    -0.180 OA
ATOM     15  O   LIG    1       15.103  -8.390  18.394  0.00  0.00    -0.140 OA
ENDBRANCH   7  13
TORSDOF 1
ENDMDL
MODEL 6
REMARK VINA RESULT:    -5.284     21.495     22.445
REMARK INTER + INTRA:          -5.882
REMARK INTER:                  -5.595
REMARK INTRA:                  -0.287
REMARK UNBOUND:                -0.289
REMARK  Name = ZINC000235550415
REMARK                            x       y       z     vdW  Elec       q    Type
REMARK                         _______ _______ _______ _____ _____    ______ ____
ROOT
ATOM      1  C   LIG    1       25.759  -0.704  15.545  0.00  0.00    +0.090 C 
ATOM      2  C   LIG    1       24.952   0.219  14.630  0.00  0.00    +0.060 C 
ATOM      3  C   LIG    1       25.865   0.918  13.645  0.00  0.00    +0.530 C 
ATOM      4  N   LIG    1       25.477   0.546  12.414  0.00  0.00    -0.650 N 
ATOM      5  H   LIG    1       25.901   0.854  11.597  0.00  0.00    +0.430 HD
ATOM      6  C   LIG    1       24.396  -0.335  12.444  0.00  0.00    +0.220 A 
ATOM      7  C   LIG    1       23.696  -0.954  11.410  0.00  0.00    -0.070 A 
ATOM      8  C   LIG    1       22.643  -1.800  11.698  0.00  0.00    +0.140 A 
ATOM      9  C   LIG    1       22.274  -2.039  13.008  0.00  0.00    +0.020 A 
ATOM     10  C   LIG    1       22.963  -1.428  14.040  0.00  0.00    +0.140 A 
ATOM     11  O   LIG    1       26.775   1.673  13.915  0.00  0.00    -0.470 OA
ATOM     12  C   LIG    1       24.014  -0.584  13.759  0.00  0.00    -0.140 A 
ENDROOT
BRANCH   7  13
ATOM     13  N   LIG    1       24.081  -0.707  10.003  0.00  0.00    +0.040 N 
ATOM     14  O   LIG    1       25.254  -0.560   9.710  0.00  0.00    -0.180 OA
ATOM     15  O   LIG    1       23.226  -0.652   9.137  0.00  0.00    -0.140 OA
ENDBRANCH   7  13
TORSDOF 1
ENDMDL
MODEL 7
REMARK VINA RESULT:    -5.234     15.865     17.931
REMARK INTER + INTRA:          -5.829
REMARK INTER:                  -5.536
REMARK INTRA:                  -0.293
REMARK UNBOUND:                -0.289
REMARK  Name = ZINC000235550415
REMARK                            x       y       z     vdW  Elec       q    Type
REMARK                         _______ _______ _______ _____ _____    ______ ____
ROOT
ATOM      1  C   LIG    1       22.446 -21.433  19.825  0.00  0.00    +0.090 C 
ATOM      2  C   LIG    1       22.323 -22.795  19.140  0.00  0.00    +0.060 C 
ATOM      3  C   LIG    1       20.880 -23.254  19.127  0.00  0.00    +0.530 C 
ATOM      4  N   LIG    1       20.517 -23.377  17.839  0.00  0.00    -0.650 N 
ATOM      5  H   LIG    1       19.634 -23.659  17.551  0.00  0.00    +0.430 HD
ATOM      6  C   LIG    1       21.553 -23.053  16.963  0.00  0.00    +0.220 A 
ATOM      7  C   LIG    1       21.600 -23.046  15.570  0.00  0.00    -0.070 A 
ATOM      8  C   LIG    1       22.763 -22.680  14.921  0.00  0.00    +0.140 A 
ATOM      9  C   LIG    1       23.886 -22.321  15.641  0.00  0.00    +0.020 A 
ATOM     10  C   LIG    1       23.847 -22.326  17.025  0.00  0.00    +0.140 A 
ATOM     11  O   LIG    1       20.183 -23.470  20.095  0.00  0.00    -0.470 OA
ATOM     12  C   LIG    1       22.691 -22.689  17.677  0.00  0.00    -0.140 A 
ENDROOT
BRANCH   7  13
ATOM     13  N   LIG    1       20.405 -23.428  14.787  0.00  0.00    +0.040 N 
ATOM     14  O   LIG    1       19.804 -24.452  15.056  0.00  0.00    -0.180 OA
ATOM     15  O   LIG    1       20.022 -22.719  13.874  0.00  0.00    -0.140 OA
ENDBRANCH   7  13
TORSDOF 1
ENDMDL
MODEL 8
REMARK VINA RESULT:    -5.217      2.831      3.241
REMARK INTER + INTRA:          -5.812
REMARK INTER:                  -5.518
REMARK INTRA:                  -0.294
REMARK UNBOUND:                -0.289
REMARK  Name = ZINC000235550415
REMARK                            x       y       z     vdW  Elec       q    Type
REMARK                         _______ _______ _______ _____ _____    ______ ____
ROOT
ATOM      1  C   LIG    1       30.288 -16.998   2.197  0.00  0.00    +0.090 C 
ATOM      2  C   LIG    1       30.714 -18.155   1.290  0.00  0.00    +0.060 C 
ATOM      3  C   LIG    1       31.712 -19.045   1.999  0.00  0.00    +0.530 C 
ATOM      4  N   LIG    1       31.158 -20.266   2.089  0.00  0.00    -0.650 N 
ATOM      5  H   LIG    1       31.593 -21.027   2.503  0.00  0.00    +0.430 HD
ATOM      6  C   LIG    1       29.886 -20.313   1.519  0.00  0.00    +0.220 A 
ATOM      7  C   LIG    1       28.980 -21.365   1.399  0.00  0.00    -0.070 A 
ATOM      8  C   LIG    1       27.761 -21.160   0.781  0.00  0.00    +0.140 A 
ATOM      9  C   LIG    1       27.431 -19.916   0.278  0.00  0.00    +0.020 A 
ATOM     10  C   LIG    1       28.326 -18.867   0.392  0.00  0.00    +0.140 A 
ATOM     11  O   LIG    1       32.806 -18.718   2.409  0.00  0.00    -0.470 OA
ATOM     12  C   LIG    1       29.541 -19.065   1.006  0.00  0.00    -0.140 A 
ENDROOT
BRANCH   7  13
ATOM     13  N   LIG    1       29.321 -22.701   1.934  0.00  0.00    +0.040 N 
ATOM     14  O   LIG    1       29.084 -23.698   1.276  0.00  0.00    -0.180 OA
ATOM     15  O   LIG    1       29.839 -22.805   3.031  0.00  0.00    -0.140 OA
ENDBRANCH   7  13
TORSDOF 1
ENDMDL
MODEL 9
REMARK VINA RESULT:    -5.142      3.722      4.804
REMARK INTER + INTRA:          -5.732
REMARK INTER:                  -5.521
REMARK INTRA:                  -0.210
REMARK UNBOUND:                -0.289
REMARK  Name = ZINC000235550415
REMARK                            x       y       z     vdW  Elec       q    Type
REMARK                         _______ _______ _______ _____ _____    ______ ____
ROOT
ATOM      1  C   LIG    1       28.286 -19.178   0.435  0.00  0.00    +0.090 C 
ATOM      2  C   LIG    1       28.326 -19.284   1.961  0.00  0.00    +0.060 C 
ATOM      3  C   LIG    1       28.239 -20.732   2.393  0.00  0.00    +0.530 C 
ATOM      4  N   LIG    1       29.371 -21.013   3.062  0.00  0.00    -0.650 N 
ATOM      5  H   LIG    1       29.569 -21.881   3.448  0.00  0.00    +0.430 HD
ATOM      6  C   LIG    1       30.227 -19.915   3.137  0.00  0.00    +0.220 A 
ATOM      7  C   LIG    1       31.481 -19.776   3.729  0.00  0.00    -0.070 A 
ATOM      8  C   LIG    1       32.144 -18.565   3.668  0.00  0.00    +0.140 A 
ATOM      9  C   LIG    1       31.572 -17.485   3.023  0.00  0.00    +0.020 A 
ATOM     10  C   LIG    1       30.327 -17.615   2.434  0.00  0.00    +0.140 A 
ATOM     11  O   LIG    1       27.322 -21.496   2.178  0.00  0.00    -0.470 OA
ATOM     12  C   LIG    1       29.663 -18.818   2.491  0.00  0.00    -0.140 A 
ENDROOT
BRANCH   7  13
ATOM     13  N   LIG    1       32.104 -20.925   4.422  0.00  0.00    +0.040 N 
ATOM     14  O   LIG    1       32.542 -21.860   3.776  0.00  0.00    -0.180 OA
ATOM     15  O   LIG    1       32.181 -20.935   5.637  0.00  0.00    -0.140 OA
ENDBRANCH   7  13
TORSDOF 1
ENDMDL
