MODEL 1
REMARK VINA RESULT:    -6.355      0.000      0.000
REMARK INTER + INTRA:          -7.035
REMARK INTER:                  -6.727
REMARK INTRA:                  -0.308
REMARK UNBOUND:                -0.308
REMARK  Name = ZINC000039168908
REMARK                            x       y       z     vdW  Elec       q    Type
REMARK                         _______ _______ _______ _____ _____    ______ ____
ROOT
ATOM      1  O   LIG    1       29.392 -16.954  -1.600  0.00  0.00    -0.480 OA
ATOM      2  C   LIG    1       29.475 -17.380  -0.465  0.00  0.00    +0.660 C 
ATOM      3  N   LIG    1       28.576 -18.282  -0.024  0.00  0.00    -0.660 N 
ATOM      4  H   LIG    1       27.878 -18.606  -0.615  0.00  0.00    +0.440 HD
ATOM      5  C   LIG    1       28.655 -18.751   1.293  0.00  0.00    +0.240 A 
ATOM      6  C   LIG    1       29.434 -18.055   2.210  0.00  0.00    -0.180 A 
ATOM      7  C   LIG    1       30.164 -16.816   1.756  0.00  0.00    +0.360 C 
ATOM      8  C   LIG    1       29.530 -18.497   3.513  0.00  0.00    +0.150 A 
ATOM      9  C   LIG    1       28.848 -19.636   3.905  0.00  0.00    +0.020 A 
ATOM     10  C   LIG    1       28.071 -20.331   2.995  0.00  0.00    +0.140 A 
ATOM     11  C   LIG    1       27.971 -19.891   1.689  0.00  0.00    -0.080 A 
ATOM     12  O   LIG    1       30.467 -16.949   0.337  0.00  0.00    -0.340 OA
ENDROOT
BRANCH  11  13
ATOM     13  N   LIG    1       27.139 -20.634   0.716  0.00  0.00    +0.040 N 
ATOM     14  O   LIG    1       25.927 -20.647   0.837  0.00  0.00    -0.180 OA
ATOM     15  O   LIG    1       27.666 -21.233  -0.204  0.00  0.00    -0.130 OA
ENDBRANCH  11  13
TORSDOF 1
ENDMDL
MODEL 2
REMARK VINA RESULT:    -6.208      1.174      3.783
REMARK INTER + INTRA:          -6.880
REMARK INTER:                  -6.577
REMARK INTRA:                  -0.302
REMARK UNBOUND:                -0.308
REMARK  Name = ZINC000039168908
REMARK                            x       y       z     vdW  Elec       q    Type
REMARK                         _______ _______ _______ _____ _____    ______ ____
ROOT
ATOM      1  O   LIG    1       26.787 -21.528  -0.331  0.00  0.00    -0.480 OA
ATOM      2  C   LIG    1       27.226 -20.956   0.647  0.00  0.00    +0.660 C 
ATOM      3  N   LIG    1       28.190 -20.026   0.499  0.00  0.00    -0.660 N 
ATOM      4  H   LIG    1       28.519 -19.799  -0.385  0.00  0.00    +0.440 HD
ATOM      5  C   LIG    1       28.715 -19.388   1.630  0.00  0.00    +0.240 A 
ATOM      6  C   LIG    1       28.482 -19.939   2.884  0.00  0.00    -0.180 A 
ATOM      7  C   LIG    1       27.673 -21.208   2.984  0.00  0.00    +0.360 C 
ATOM      8  C   LIG    1       28.986 -19.329   4.013  0.00  0.00    +0.150 A 
ATOM      9  C   LIG    1       29.727 -18.166   3.894  0.00  0.00    +0.020 A 
ATOM     10  C   LIG    1       29.962 -17.615   2.647  0.00  0.00    +0.140 A 
ATOM     11  C   LIG    1       29.459 -18.223   1.513  0.00  0.00    -0.080 A 
ATOM     12  O   LIG    1       26.740 -21.254   1.867  0.00  0.00    -0.340 OA
ENDROOT
BRANCH  11  13
ATOM     13  N   LIG    1       29.712 -17.634   0.179  0.00  0.00    +0.040 N 
ATOM     14  O   LIG    1       29.167 -16.591  -0.139  0.00  0.00    -0.180 OA
ATOM     15  O   LIG    1       30.464 -18.191  -0.601  0.00  0.00    -0.130 OA
ENDBRANCH  11  13
TORSDOF 1
ENDMDL
MODEL 3
REMARK VINA RESULT:    -5.827      2.915      5.111
REMARK INTER + INTRA:          -6.476
REMARK INTER:                  -6.178
REMARK INTRA:                  -0.298
REMARK UNBOUND:                -0.308
REMARK  Name = ZINC000039168908
REMARK                            x       y       z     vdW  Elec       q    Type
REMARK                         _______ _______ _______ _____ _____    ______ ____
ROOT
ATOM      1  O   LIG    1       31.336 -19.763   5.304  0.00  0.00    -0.480 OA
ATOM      2  C   LIG    1       30.726 -19.628   4.263  0.00  0.00    +0.660 C 
ATOM      3  N   LIG    1       30.884 -18.501   3.539  0.00  0.00    -0.660 N 
ATOM      4  H   LIG    1       31.496 -17.810   3.838  0.00  0.00    +0.440 HD
ATOM      5  C   LIG    1       30.158 -18.333   2.353  0.00  0.00    +0.240 A 
ATOM      6  C   LIG    1       29.066 -19.157   2.109  0.00  0.00    -0.180 A 
ATOM      7  C   LIG    1       28.696 -20.201   3.133  0.00  0.00    +0.360 C 
ATOM      8  C   LIG    1       28.336 -19.014   0.948  0.00  0.00    +0.150 A 
ATOM      9  C   LIG    1       28.695 -18.046   0.026  0.00  0.00    +0.020 A 
ATOM     10  C   LIG    1       29.781 -17.224   0.265  0.00  0.00    +0.140 A 
ATOM     11  C   LIG    1       30.514 -17.364   1.428  0.00  0.00    -0.080 A 
ATOM     12  O   LIG    1       29.903 -20.606   3.841  0.00  0.00    -0.340 OA
ENDROOT
BRANCH  11  13
ATOM     13  N   LIG    1       31.676 -16.483   1.684  0.00  0.00    +0.040 N 
ATOM     14  O   LIG    1       32.757 -16.968   1.970  0.00  0.00    -0.180 OA
ATOM     15  O   LIG    1       31.552 -15.274   1.611  0.00  0.00    -0.130 OA
ENDBRANCH  11  13
TORSDOF 1
ENDMDL
MODEL 4
REMARK VINA RESULT:    -5.337     24.548     25.764
REMARK INTER + INTRA:          -5.957
REMARK INTER:                  -5.678
REMARK INTRA:                  -0.279
REMARK UNBOUND:                -0.308
REMARK  Name = ZINC000039168908
REMARK                            x       y       z     vdW  Elec       q    Type
REMARK                         _______ _______ _______ _____ _____    ______ ____
ROOT
ATOM      1  O   LIG    1       11.539  -9.986  22.345  0.00  0.00    -0.480 OA
ATOM      2  C   LIG    1       12.682 -10.355  22.161  0.00  0.00    +0.660 C 
ATOM      3  N   LIG    1       13.253 -10.179  20.952  0.00  0.00    -0.660 N 
ATOM      4  H   LIG    1       12.761  -9.742  20.238  0.00  0.00    +0.440 HD
ATOM      5  C   LIG    1       14.560 -10.630  20.732  0.00  0.00    +0.240 A 
ATOM      6  C   LIG    1       15.124 -11.526  21.632  0.00  0.00    -0.180 A 
ATOM      7  C   LIG    1       14.307 -11.985  22.814  0.00  0.00    +0.360 C 
ATOM      8  C   LIG    1       16.411 -11.984  21.438  0.00  0.00    +0.150 A 
ATOM      9  C   LIG    1       17.138 -11.548  20.344  0.00  0.00    +0.020 A 
ATOM     10  C   LIG    1       16.580 -10.657  19.446  0.00  0.00    +0.140 A 
ATOM     11  C   LIG    1       15.290 -10.196  19.636  0.00  0.00    -0.080 A 
ATOM     12  O   LIG    1       13.367 -10.930  23.167  0.00  0.00    -0.340 OA
ENDROOT
BRANCH  11  13
ATOM     13  N   LIG    1       14.693  -9.244  18.673  0.00  0.00    +0.040 N 
ATOM     14  O   LIG    1       13.577  -9.446  18.229  0.00  0.00    -0.180 OA
ATOM     15  O   LIG    1       15.317  -8.257  18.325  0.00  0.00    -0.130 OA
ENDBRANCH  11  13
TORSDOF 1
ENDMDL
MODEL 5
REMARK VINA RESULT:    -5.122     15.963     17.344
REMARK INTER + INTRA:          -5.730
REMARK INTER:                  -5.432
REMARK INTRA:                  -0.298
REMARK UNBOUND:                -0.308
REMARK  Name = ZINC000039168908
REMARK                            x       y       z     vdW  Elec       q    Type
REMARK                         _______ _______ _______ _____ _____    ______ ____
ROOT
ATOM      1  O   LIG    1       25.458 -23.136  18.355  0.00  0.00    -0.480 OA
ATOM      2  C   LIG    1       24.739 -23.102  17.377  0.00  0.00    +0.660 C 
ATOM      3  N   LIG    1       23.400 -23.085  17.535  0.00  0.00    -0.660 N 
ATOM      4  H   LIG    1       23.012 -23.079  18.425  0.00  0.00    +0.440 HD
ATOM      5  C   LIG    1       22.571 -23.075  16.406  0.00  0.00    +0.240 A 
ATOM      6  C   LIG    1       23.110 -23.408  15.170  0.00  0.00    -0.180 A 
ATOM      7  C   LIG    1       24.571 -23.774  15.087  0.00  0.00    +0.360 C 
ATOM      8  C   LIG    1       22.316 -23.404  14.043  0.00  0.00    +0.150 A 
ATOM      9  C   LIG    1       20.977 -23.066  14.148  0.00  0.00    +0.020 A 
ATOM     10  C   LIG    1       20.436 -22.734  15.376  0.00  0.00    +0.140 A 
ATOM     11  C   LIG    1       21.229 -22.738  16.508  0.00  0.00    -0.080 A 
ATOM     12  O   LIG    1       25.286 -23.078  16.148  0.00  0.00    -0.340 OA
ENDROOT
BRANCH  11  13
ATOM     13  N   LIG    1       20.649 -22.383  17.823  0.00  0.00    +0.040 N 
ATOM     14  O   LIG    1       20.465 -23.248  18.661  0.00  0.00    -0.180 OA
ATOM     15  O   LIG    1       20.355 -21.227  18.067  0.00  0.00    -0.130 OA
ENDBRANCH  11  13
TORSDOF 1
ENDMDL
MODEL 6
REMARK VINA RESULT:    -5.075      3.641      4.448
REMARK INTER + INTRA:          -5.680
REMARK INTER:                  -5.392
REMARK INTRA:                  -0.288
REMARK UNBOUND:                -0.308
REMARK  Name = ZINC000039168908
REMARK                            x       y       z     vdW  Elec       q    Type
REMARK                         _______ _______ _______ _____ _____    ______ ____
ROOT
ATOM      1  O   LIG    1       34.352 -18.107   1.355  0.00  0.00    -0.480 OA
ATOM      2  C   LIG    1       33.151 -18.217   1.501  0.00  0.00    +0.660 C 
ATOM      3  N   LIG    1       32.667 -18.858   2.584  0.00  0.00    -0.660 N 
ATOM      4  H   LIG    1       33.273 -19.213   3.254  0.00  0.00    +0.440 HD
ATOM      5  C   LIG    1       31.283 -19.009   2.737  0.00  0.00    +0.240 A 
ATOM      6  C   LIG    1       30.456 -18.795   1.641  0.00  0.00    -0.180 A 
ATOM      7  C   LIG    1       31.079 -18.411   0.322  0.00  0.00    +0.360 C 
ATOM      8  C   LIG    1       29.090 -18.934   1.766  0.00  0.00    +0.150 A 
ATOM      9  C   LIG    1       28.544 -19.289   2.988  0.00  0.00    +0.020 A 
ATOM     10  C   LIG    1       29.364 -19.504   4.082  0.00  0.00    +0.140 A 
ATOM     11  C   LIG    1       30.734 -19.365   3.960  0.00  0.00    -0.080 A 
ATOM     12  O   LIG    1       32.318 -17.692   0.584  0.00  0.00    -0.340 OA
ENDROOT
BRANCH  11  13
ATOM     13  N   LIG    1       31.611 -19.595   5.130  0.00  0.00    +0.040 N 
ATOM     14  O   LIG    1       31.848 -20.732   5.499  0.00  0.00    -0.180 OA
ATOM     15  O   LIG    1       32.094 -18.649   5.724  0.00  0.00    -0.130 OA
ENDBRANCH  11  13
TORSDOF 1
ENDMDL
MODEL 7
REMARK VINA RESULT:    -5.059     15.654     17.615
REMARK INTER + INTRA:          -5.664
REMARK INTER:                  -5.370
REMARK INTRA:                  -0.293
REMARK UNBOUND:                -0.308
REMARK  Name = ZINC000039168908
REMARK                            x       y       z     vdW  Elec       q    Type
REMARK                         _______ _______ _______ _____ _____    ______ ____
ROOT
ATOM      1  O   LIG    1       20.467 -23.717  19.551  0.00  0.00    -0.480 OA
ATOM      2  C   LIG    1       21.332 -23.541  18.716  0.00  0.00    +0.660 C 
ATOM      3  N   LIG    1       21.049 -23.735  17.412  0.00  0.00    -0.660 N 
ATOM      4  H   LIG    1       20.155 -23.993  17.139  0.00  0.00    +0.440 HD
ATOM      5  C   LIG    1       22.055 -23.560  16.453  0.00  0.00    +0.240 A 
ATOM      6  C   LIG    1       23.380 -23.513  16.867  0.00  0.00    -0.180 A 
ATOM      7  C   LIG    1       23.691 -23.657  18.336  0.00  0.00    +0.360 C 
ATOM      8  C   LIG    1       24.389 -23.340  15.943  0.00  0.00    +0.150 A 
ATOM      9  C   LIG    1       24.077 -23.213  14.600  0.00  0.00    +0.020 A 
ATOM     10  C   LIG    1       22.759 -23.259  14.184  0.00  0.00    +0.140 A 
ATOM     11  C   LIG    1       21.745 -23.433  15.107  0.00  0.00    -0.080 A 
ATOM     12  O   LIG    1       22.561 -23.150  19.102  0.00  0.00    -0.340 OA
ENDROOT
BRANCH  11  13
ATOM     13  N   LIG    1       20.334 -23.484  14.661  0.00  0.00    +0.040 N 
ATOM     14  O   LIG    1       19.628 -24.424  14.981  0.00  0.00    -0.180 OA
ATOM     15  O   LIG    1       19.880 -22.587  13.974  0.00  0.00    -0.130 OA
ENDBRANCH  11  13
TORSDOF 1
ENDMDL
MODEL 8
REMARK VINA RESULT:    -4.935     24.603     25.654
REMARK INTER + INTRA:          -5.532
REMARK INTER:                  -5.225
REMARK INTRA:                  -0.307
REMARK UNBOUND:                -0.308
REMARK  Name = ZINC000039168908
REMARK                            x       y       z     vdW  Elec       q    Type
REMARK                         _______ _______ _______ _____ _____    ______ ____
ROOT
ATOM      1  O   LIG    1       15.487  -9.548  18.429  0.00  0.00    -0.480 OA
ATOM      2  C   LIG    1       15.053  -9.790  19.538  0.00  0.00    +0.660 C 
ATOM      3  N   LIG    1       15.190 -11.030  20.051  0.00  0.00    -0.660 N 
ATOM      4  H   LIG    1       15.651 -11.719  19.547  0.00  0.00    +0.440 HD
ATOM      5  C   LIG    1       14.664 -11.316  21.317  0.00  0.00    +0.240 A 
ATOM      6  C   LIG    1       13.742 -10.441  21.877  0.00  0.00    -0.180 A 
ATOM      7  C   LIG    1       13.336  -9.213  21.101  0.00  0.00    +0.360 C 
ATOM      8  C   LIG    1       13.212 -10.699  23.124  0.00  0.00    +0.150 A 
ATOM      9  C   LIG    1       13.600 -11.834  23.815  0.00  0.00    +0.020 A 
ATOM     10  C   LIG    1       14.517 -12.708  23.260  0.00  0.00    +0.140 A 
ATOM     11  C   LIG    1       15.051 -12.453  22.011  0.00  0.00    -0.080 A 
ATOM     12  O   LIG    1       14.444  -8.818  20.242  0.00  0.00    -0.340 OA
ENDROOT
BRANCH  11  13
ATOM     13  N   LIG    1       16.032 -13.389  21.417  0.00  0.00    +0.040 N 
ATOM     14  O   LIG    1       17.195 -13.051  21.288  0.00  0.00    -0.180 OA
ATOM     15  O   LIG    1       15.675 -14.496  21.056  0.00  0.00    -0.130 OA
ENDBRANCH  11  13
TORSDOF 1
ENDMDL
MODEL 9
REMARK VINA RESULT:    -4.855     20.756     22.118
REMARK INTER + INTRA:          -5.447
REMARK INTER:                  -5.150
REMARK INTRA:                  -0.298
REMARK UNBOUND:                -0.308
REMARK  Name = ZINC000039168908
REMARK                            x       y       z     vdW  Elec       q    Type
REMARK                         _______ _______ _______ _____ _____    ______ ____
ROOT
ATOM      1  O   LIG    1       27.773   2.741  12.283  0.00  0.00    -0.480 OA
ATOM      2  C   LIG    1       26.924   1.883  12.144  0.00  0.00    +0.660 C 
ATOM      3  N   LIG    1       26.440   1.617  10.913  0.00  0.00    -0.660 N 
ATOM      4  H   LIG    1       26.783   2.094  10.140  0.00  0.00    +0.440 HD
ATOM      5  C   LIG    1       25.441   0.648  10.757  0.00  0.00    +0.240 A 
ATOM      6  C   LIG    1       24.741   0.217  11.877  0.00  0.00    -0.180 A 
ATOM      7  C   LIG    1       25.077   0.810  13.222  0.00  0.00    +0.360 C 
ATOM      8  C   LIG    1       23.753  -0.738  11.750  0.00  0.00    +0.150 A 
ATOM      9  C   LIG    1       23.462  -1.265  10.504  0.00  0.00    +0.020 A 
ATOM     10  C   LIG    1       24.157  -0.837   9.387  0.00  0.00    +0.140 A 
ATOM     11  C   LIG    1       25.147   0.120   9.509  0.00  0.00    -0.080 A 
ATOM     12  O   LIG    1       26.479   1.204  13.218  0.00  0.00    -0.340 OA
ENDROOT
BRANCH  11  13
ATOM     13  N   LIG    1       25.890   0.578   8.314  0.00  0.00    +0.040 N 
ATOM     14  O   LIG    1       27.108   0.560   8.310  0.00  0.00    -0.180 OA
ATOM     15  O   LIG    1       25.283   0.973   7.334  0.00  0.00    -0.130 OA
ENDBRANCH  11  13
TORSDOF 1
ENDMDL
