MODEL 1
REMARK VINA RESULT:    -5.882      0.000      0.000
REMARK INTER + INTRA:          -7.084
REMARK INTER:                  -6.741
REMARK INTRA:                  -0.343
REMARK UNBOUND:                -0.343
REMARK  Name = ZINC000044185449
REMARK                            x       y       z     vdW  Elec       q    Type
REMARK                         _______ _______ _______ _____ _____    ______ ____
ROOT
ATOM      1  C   LIG    1       27.984 -20.193   2.428  0.00  0.00    +0.310 A 
ATOM      2  C   LIG    1       28.794 -19.286   3.097  0.00  0.00    -0.060 A 
ATOM      3  C   LIG    1       29.386 -18.246   2.403  0.00  0.00    +0.200 A 
ATOM      4  C   LIG    1       29.171 -18.113   1.041  0.00  0.00    -0.050 A 
ATOM      5  C   LIG    1       28.365 -19.015   0.373  0.00  0.00    +0.180 A 
ATOM      6  F   LIG    1       30.174 -17.363   3.052  0.00  0.00    -0.120 F 
ATOM      7  C   LIG    1       27.776 -20.058   1.061  0.00  0.00    -0.130 A 
ENDROOT
BRANCH   7   8
ATOM      8  N   LIG    1       26.912 -21.024   0.344  0.00  0.00    +0.040 N 
ATOM      9  O   LIG    1       25.794 -21.265   0.760  0.00  0.00    -0.140 OA
ATOM     10  O   LIG    1       27.321 -21.577  -0.661  0.00  0.00    -0.190 OA
ENDBRANCH   7   8
BRANCH   1  11
ATOM     11  N   LIG    1       27.385 -21.244   3.126  0.00  0.00    -0.570 N 
ATOM     12  H   LIG    1       26.571 -21.089   3.633  0.00  0.00    +0.420 HD
BRANCH  11  13
ATOM     13  N   LIG    1       27.944 -22.490   3.097  0.00  0.00    -0.600 NA
ATOM     14  H   LIG    1       28.803 -22.513   3.625  0.00  0.00    +0.350 HD
ATOM     15  H   LIG    1       28.094 -22.797   2.147  0.00  0.00    +0.370 HD
ENDBRANCH  11  13
ENDBRANCH   1  11
TORSDOF 3
ENDMDL
MODEL 2
REMARK VINA RESULT:    -5.690      4.148      4.845
REMARK INTER + INTRA:          -6.864
REMARK INTER:                  -6.339
REMARK INTRA:                  -0.525
REMARK UNBOUND:                -0.343
REMARK  Name = ZINC000044185449
REMARK                            x       y       z     vdW  Elec       q    Type
REMARK                         _______ _______ _______ _____ _____    ______ ____
ROOT
ATOM      1  C   LIG    1       28.881 -18.422   0.551  0.00  0.00    +0.310 A 
ATOM      2  C   LIG    1       27.940 -19.431   0.398  0.00  0.00    -0.060 A 
ATOM      3  C   LIG    1       27.553 -20.186   1.491  0.00  0.00    +0.200 A 
ATOM      4  C   LIG    1       28.107 -19.935   2.735  0.00  0.00    -0.050 A 
ATOM      5  C   LIG    1       29.044 -18.931   2.889  0.00  0.00    +0.180 A 
ATOM      6  F   LIG    1       26.639 -21.168   1.344  0.00  0.00    -0.120 F 
ATOM      7  C   LIG    1       29.437 -18.178   1.801  0.00  0.00    -0.130 A 
ENDROOT
BRANCH   7   8
ATOM      8  N   LIG    1       30.441 -17.102   1.967  0.00  0.00    +0.040 N 
ATOM      9  O   LIG    1       31.515 -17.347   2.486  0.00  0.00    -0.140 OA
ATOM     10  O   LIG    1       30.192 -15.973   1.585  0.00  0.00    -0.190 OA
ENDBRANCH   7   8
BRANCH   1  11
ATOM     11  N   LIG    1       29.273 -17.658  -0.551  0.00  0.00    -0.570 N 
ATOM     12  H   LIG    1       30.113 -17.846  -0.998  0.00  0.00    +0.420 HD
BRANCH  11  13
ATOM     13  N   LIG    1       28.474 -16.644  -0.998  0.00  0.00    -0.600 NA
ATOM     14  H   LIG    1       28.560 -16.529  -1.996  0.00  0.00    +0.350 HD
ATOM     15  H   LIG    1       28.680 -15.781  -0.515  0.00  0.00    +0.370 HD
ENDBRANCH  11  13
ENDBRANCH   1  11
TORSDOF 3
ENDMDL
MODEL 3
REMARK VINA RESULT:    -5.447      1.584      2.704
REMARK INTER + INTRA:          -6.586
REMARK INTER:                  -6.255
REMARK INTRA:                  -0.331
REMARK UNBOUND:                -0.343
REMARK  Name = ZINC000044185449
REMARK                            x       y       z     vdW  Elec       q    Type
REMARK                         _______ _______ _______ _____ _____    ______ ____
ROOT
ATOM      1  C   LIG    1       28.550 -19.030   1.174  0.00  0.00    +0.310 A 
ATOM      2  C   LIG    1       29.339 -18.318   2.067  0.00  0.00    -0.060 A 
ATOM      3  C   LIG    1       29.351 -18.665   3.407  0.00  0.00    +0.200 A 
ATOM      4  C   LIG    1       28.574 -19.720   3.855  0.00  0.00    -0.050 A 
ATOM      5  C   LIG    1       27.788 -20.430   2.967  0.00  0.00    +0.180 A 
ATOM      6  F   LIG    1       30.117 -17.973   4.276  0.00  0.00    -0.120 F 
ATOM      7  C   LIG    1       27.768 -20.085   1.630  0.00  0.00    -0.130 A 
ENDROOT
BRANCH   7   8
ATOM      8  N   LIG    1       26.925 -20.846   0.680  0.00  0.00    +0.040 N 
ATOM      9  O   LIG    1       25.721 -20.908   0.849  0.00  0.00    -0.140 OA
ATOM     10  O   LIG    1       27.437 -21.410  -0.270  0.00  0.00    -0.190 OA
ENDBRANCH   7   8
BRANCH   1  11
ATOM     11  N   LIG    1       28.536 -18.683  -0.178  0.00  0.00    -0.570 N 
ATOM     12  H   LIG    1       28.638 -19.369  -0.857  0.00  0.00    +0.420 HD
BRANCH  11  13
ATOM     13  N   LIG    1       28.378 -17.376  -0.547  0.00  0.00    -0.600 NA
ATOM     14  H   LIG    1       28.722 -17.221  -1.482  0.00  0.00    +0.350 HD
ATOM     15  H   LIG    1       28.830 -16.758   0.112  0.00  0.00    +0.370 HD
ENDBRANCH  11  13
ENDBRANCH   1  11
TORSDOF 3
ENDMDL
MODEL 4
REMARK VINA RESULT:    -5.297     15.936     16.881
REMARK INTER + INTRA:          -6.414
REMARK INTER:                  -5.876
REMARK INTRA:                  -0.537
REMARK UNBOUND:                -0.343
REMARK  Name = ZINC000044185449
REMARK                            x       y       z     vdW  Elec       q    Type
REMARK                         _______ _______ _______ _____ _____    ______ ____
ROOT
ATOM      1  C   LIG    1       20.733 -24.201  16.473  0.00  0.00    +0.310 A 
ATOM      2  C   LIG    1       20.014 -23.612  15.443  0.00  0.00    -0.060 A 
ATOM      3  C   LIG    1       20.682 -23.029  14.380  0.00  0.00    +0.200 A 
ATOM      4  C   LIG    1       22.066 -23.032  14.348  0.00  0.00    -0.050 A 
ATOM      5  C   LIG    1       22.783 -23.618  15.373  0.00  0.00    +0.180 A 
ATOM      6  F   LIG    1       19.983 -22.455  13.377  0.00  0.00    -0.120 F 
ATOM      7  C   LIG    1       22.122 -24.197  16.439  0.00  0.00    -0.130 A 
ENDROOT
BRANCH   7   8
ATOM      8  N   LIG    1       22.893 -24.825  17.536  0.00  0.00    +0.040 N 
ATOM      9  O   LIG    1       23.589 -25.798  17.312  0.00  0.00    -0.140 OA
ATOM     10  O   LIG    1       22.830 -24.367  18.663  0.00  0.00    -0.190 OA
ENDBRANCH   7   8
BRANCH   1  11
ATOM     11  N   LIG    1       20.062 -24.791  17.547  0.00  0.00    -0.570 N 
ATOM     12  H   LIG    1       19.854 -25.739  17.528  0.00  0.00    +0.420 HD
BRANCH  11  13
ATOM     13  N   LIG    1       19.699 -24.034  18.624  0.00  0.00    -0.600 NA
ATOM     14  H   LIG    1       19.067 -23.297  18.351  0.00  0.00    +0.350 HD
ATOM     15  H   LIG    1       20.510 -23.659  19.093  0.00  0.00    +0.370 HD
ENDBRANCH  11  13
ENDBRANCH   1  11
TORSDOF 3
ENDMDL
MODEL 5
REMARK VINA RESULT:    -5.257      1.545      2.694
REMARK INTER + INTRA:          -6.368
REMARK INTER:                  -5.959
REMARK INTRA:                  -0.409
REMARK UNBOUND:                -0.343
REMARK  Name = ZINC000044185449
REMARK                            x       y       z     vdW  Elec       q    Type
REMARK                         _______ _______ _______ _____ _____    ______ ____
ROOT
ATOM      1  C   LIG    1       28.289 -20.179   1.213  0.00  0.00    +0.310 A 
ATOM      2  C   LIG    1       28.880 -18.989   0.812  0.00  0.00    -0.060 A 
ATOM      3  C   LIG    1       29.423 -18.135   1.755  0.00  0.00    +0.200 A 
ATOM      4  C   LIG    1       29.373 -18.468   3.098  0.00  0.00    -0.050 A 
ATOM      5  C   LIG    1       28.785 -19.652   3.500  0.00  0.00    +0.180 A 
ATOM      6  F   LIG    1       29.997 -16.977   1.366  0.00  0.00    -0.120 F 
ATOM      7  C   LIG    1       28.238 -20.506   2.563  0.00  0.00    -0.130 A 
ENDROOT
BRANCH   7   8
ATOM      8  N   LIG    1       27.608 -21.775   2.994  0.00  0.00    +0.040 N 
ATOM      9  O   LIG    1       28.295 -22.764   3.175  0.00  0.00    -0.140 OA
ATOM     10  O   LIG    1       26.404 -21.828   3.169  0.00  0.00    -0.190 OA
ENDBRANCH   7   8
BRANCH   1  11
ATOM     11  N   LIG    1       27.741 -21.044   0.263  0.00  0.00    -0.570 N 
ATOM     12  H   LIG    1       28.324 -21.572  -0.307  0.00  0.00    +0.420 HD
BRANCH  11  13
ATOM     13  N   LIG    1       26.385 -21.147   0.135  0.00  0.00    -0.600 NA
ATOM     14  H   LIG    1       25.921 -20.365   0.571  0.00  0.00    +0.350 HD
ATOM     15  H   LIG    1       26.052 -22.022   0.511  0.00  0.00    +0.370 HD
ENDBRANCH  11  13
ENDBRANCH   1  11
TORSDOF 3
ENDMDL
MODEL 6
REMARK VINA RESULT:    -5.181     15.211     16.110
REMARK INTER + INTRA:          -6.281
REMARK INTER:                  -5.746
REMARK INTRA:                  -0.535
REMARK UNBOUND:                -0.343
REMARK  Name = ZINC000044185449
REMARK                            x       y       z     vdW  Elec       q    Type
REMARK                         _______ _______ _______ _____ _____    ______ ____
ROOT
ATOM      1  C   LIG    1       21.602 -22.821  16.873  0.00  0.00    +0.310 A 
ATOM      2  C   LIG    1       22.765 -22.491  17.555  0.00  0.00    -0.060 A 
ATOM      3  C   LIG    1       23.960 -22.376  16.867  0.00  0.00    +0.200 A 
ATOM      4  C   LIG    1       23.994 -22.592  15.500  0.00  0.00    -0.050 A 
ATOM      5  C   LIG    1       22.837 -22.920  14.819  0.00  0.00    +0.180 A 
ATOM      6  F   LIG    1       25.092 -22.056  17.529  0.00  0.00    -0.120 F 
ATOM      7  C   LIG    1       21.642 -23.042  15.501  0.00  0.00    -0.130 A 
ENDROOT
BRANCH   7   8
ATOM      8  N   LIG    1       20.403 -23.393  14.771  0.00  0.00    +0.040 N 
ATOM      9  O   LIG    1       19.814 -24.426  15.033  0.00  0.00    -0.140 OA
ATOM     10  O   LIG    1       19.973 -22.649  13.908  0.00  0.00    -0.190 OA
ENDBRANCH   7   8
BRANCH   1  11
ATOM     11  N   LIG    1       20.394 -22.937  17.565  0.00  0.00    -0.570 N 
ATOM     12  H   LIG    1       19.815 -22.164  17.664  0.00  0.00    +0.420 HD
BRANCH  11  13
ATOM     13  N   LIG    1       20.027 -24.138  18.102  0.00  0.00    -0.600 NA
ATOM     14  H   LIG    1       20.450 -24.273  19.007  0.00  0.00    +0.350 HD
ATOM     15  H   LIG    1       20.257 -24.898  17.478  0.00  0.00    +0.370 HD
ENDBRANCH  11  13
ENDBRANCH   1  11
TORSDOF 3
ENDMDL
MODEL 7
REMARK VINA RESULT:    -5.097     15.047     16.006
REMARK INTER + INTRA:          -6.185
REMARK INTER:                  -5.671
REMARK INTRA:                  -0.514
REMARK UNBOUND:                -0.343
REMARK  Name = ZINC000044185449
REMARK                            x       y       z     vdW  Elec       q    Type
REMARK                         _______ _______ _______ _____ _____    ______ ____
ROOT
ATOM      1  C   LIG    1       22.764 -22.577  15.933  0.00  0.00    +0.310 A 
ATOM      2  C   LIG    1       23.373 -21.865  16.957  0.00  0.00    -0.060 A 
ATOM      3  C   LIG    1       22.608 -21.341  17.983  0.00  0.00    +0.200 A 
ATOM      4  C   LIG    1       21.236 -21.525  17.987  0.00  0.00    -0.050 A 
ATOM      5  C   LIG    1       20.627 -22.233  16.968  0.00  0.00    +0.180 A 
ATOM      6  F   LIG    1       23.199 -20.647  18.980  0.00  0.00    -0.120 F 
ATOM      7  C   LIG    1       21.385 -22.754  15.938  0.00  0.00    -0.130 A 
ENDROOT
BRANCH   7   8
ATOM      8  N   LIG    1       20.732 -23.513  14.847  0.00  0.00    +0.040 N 
ATOM      9  O   LIG    1       19.924 -24.385  15.111  0.00  0.00    -0.140 OA
ATOM     10  O   LIG    1       21.003 -23.265  13.686  0.00  0.00    -0.190 OA
ENDBRANCH   7   8
BRANCH   1  11
ATOM     11  N   LIG    1       23.533 -23.108  14.895  0.00  0.00    -0.570 N 
ATOM     12  H   LIG    1       23.760 -24.052  14.893  0.00  0.00    +0.420 HD
BRANCH  11  13
ATOM     13  N   LIG    1       23.966 -22.299  13.883  0.00  0.00    -0.600 NA
ATOM     14  H   LIG    1       23.214 -21.725  13.532  0.00  0.00    +0.350 HD
ATOM     15  H   LIG    1       24.384 -22.841  13.141  0.00  0.00    +0.370 HD
ENDBRANCH  11  13
ENDBRANCH   1  11
TORSDOF 3
ENDMDL
MODEL 8
REMARK VINA RESULT:    -5.023      4.183      4.864
REMARK INTER + INTRA:          -6.100
REMARK INTER:                  -5.773
REMARK INTRA:                  -0.327
REMARK UNBOUND:                -0.343
REMARK  Name = ZINC000044185449
REMARK                            x       y       z     vdW  Elec       q    Type
REMARK                         _______ _______ _______ _____ _____    ______ ____
ROOT
ATOM      1  C   LIG    1       29.607 -18.245   2.274  0.00  0.00    +0.310 A 
ATOM      2  C   LIG    1       28.917 -18.641   1.136  0.00  0.00    -0.060 A 
ATOM      3  C   LIG    1       27.974 -19.651   1.217  0.00  0.00    +0.200 A 
ATOM      4  C   LIG    1       27.721 -20.265   2.431  0.00  0.00    -0.050 A 
ATOM      5  C   LIG    1       28.406 -19.872   3.565  0.00  0.00    +0.180 A 
ATOM      6  F   LIG    1       27.303 -20.037   0.111  0.00  0.00    -0.120 F 
ATOM      7  C   LIG    1       29.352 -18.869   3.490  0.00  0.00    -0.130 A 
ENDROOT
BRANCH   7   8
ATOM      8  N   LIG    1       30.086 -18.448   4.705  0.00  0.00    +0.040 N 
ATOM      9  O   LIG    1       29.471 -18.088   5.693  0.00  0.00    -0.140 OA
ATOM     10  O   LIG    1       31.303 -18.464   4.718  0.00  0.00    -0.190 OA
ENDBRANCH   7   8
BRANCH   1  11
ATOM     11  N   LIG    1       30.559 -17.227   2.196  0.00  0.00    -0.570 N 
ATOM     12  H   LIG    1       31.437 -17.352   2.590  0.00  0.00    +0.420 HD
BRANCH  11  13
ATOM     13  N   LIG    1       30.254 -16.053   1.567  0.00  0.00    -0.600 NA
ATOM     14  H   LIG    1       30.931 -15.338   1.787  0.00  0.00    +0.350 HD
ATOM     15  H   LIG    1       29.319 -15.750   1.800  0.00  0.00    +0.370 HD
ENDBRANCH  11  13
ENDBRANCH   1  11
TORSDOF 3
ENDMDL
MODEL 9
REMARK VINA RESULT:    -4.949     24.266     25.150
REMARK INTER + INTRA:          -6.016
REMARK INTER:                  -5.500
REMARK INTRA:                  -0.516
REMARK UNBOUND:                -0.343
REMARK  Name = ZINC000044185449
REMARK                            x       y       z     vdW  Elec       q    Type
REMARK                         _______ _______ _______ _____ _____    ______ ____
ROOT
ATOM      1  C   LIG    1       15.570 -10.388  20.264  0.00  0.00    +0.310 A 
ATOM      2  C   LIG    1       16.616 -11.298  20.326  0.00  0.00    -0.060 A 
ATOM      3  C   LIG    1       16.561 -12.353  21.219  0.00  0.00    +0.200 A 
ATOM      4  C   LIG    1       15.463 -12.499  22.050  0.00  0.00    -0.050 A 
ATOM      5  C   LIG    1       14.421 -11.594  21.990  0.00  0.00    +0.180 A 
ATOM      6  F   LIG    1       17.578 -13.239  21.281  0.00  0.00    -0.120 F 
ATOM      7  C   LIG    1       14.473 -10.535  21.104  0.00  0.00    -0.130 A 
ENDROOT
BRANCH   7   8
ATOM      8  N   LIG    1       13.356  -9.566  21.040  0.00  0.00    +0.040 N 
ATOM      9  O   LIG    1       13.150  -8.812  21.973  0.00  0.00    -0.140 OA
ATOM     10  O   LIG    1       12.643  -9.524  20.054  0.00  0.00    -0.190 OA
ENDBRANCH   7   8
BRANCH   1  11
ATOM     11  N   LIG    1       15.623  -9.321  19.363  0.00  0.00    -0.570 N 
ATOM     12  H   LIG    1       16.062  -8.493  19.616  0.00  0.00    +0.420 HD
BRANCH  11  13
ATOM     13  N   LIG    1       15.055  -9.443  18.127  0.00  0.00    -0.600 NA
ATOM     14  H   LIG    1       15.761  -9.463  17.406  0.00  0.00    +0.350 HD
ATOM     15  H   LIG    1       14.389  -8.704  17.960  0.00  0.00    +0.370 HD
ENDBRANCH  11  13
ENDBRANCH   1  11
TORSDOF 3
ENDMDL
