MODEL 1
REMARK VINA RESULT:    -6.001      0.000      0.000
REMARK INTER + INTRA:          -6.495
REMARK INTER:                  -6.703
REMARK INTRA:                   0.207
REMARK UNBOUND:                 0.207
REMARK  Name = ZINC000062723655
REMARK                            x       y       z     vdW  Elec       q    Type
REMARK                         _______ _______ _______ _____ _____    ______ ____
ROOT
ATOM      1  C   LIG    1       28.834 -19.299   3.085  0.00  0.00    +0.220 A 
ATOM      2  C   LIG    1       29.408 -18.242   2.390  0.00  0.00    -0.010 A 
ATOM      3  C   LIG    1       29.147 -18.080   1.042  0.00  0.00    +0.080 A 
ATOM      4  C   LIG    1       28.316 -18.969   0.387  0.00  0.00    +0.020 A 
ATOM      5  C   LIG    1       27.742 -20.021   1.075  0.00  0.00    +0.010 A 
ATOM      6  C   LIG    1       28.002 -20.192   2.421  0.00  0.00    -0.110 A 
ATOM      7  C   LIG    1       27.376 -21.340   3.171  0.00  0.00    +0.120 C 
ENDROOT
BRANCH   1   9
ATOM      8  C   LIG    1       29.617 -18.346   5.234  0.00  0.00    +0.290 C 
ATOM      9  N   LIG    1       29.095 -19.465   4.446  0.00  0.00    -0.740 N 
ATOM     10  H   LIG    1       28.931 -20.322   4.870  0.00  0.00    +0.410 HD
ENDBRANCH   1   9
BRANCH   5  11
ATOM     11  N   LIG    1       26.852 -20.970   0.368  0.00  0.00    +0.020 N 
ATOM     12  O   LIG    1       27.274 -21.613  -0.575  0.00  0.00    -0.150 OA
ATOM     13  O   LIG    1       25.698 -21.108   0.731  0.00  0.00    -0.150 OA
ENDBRANCH   5  11
TORSDOF 2
ENDMDL
MODEL 2
REMARK VINA RESULT:    -5.669      1.510      2.720
REMARK INTER + INTRA:          -6.124
REMARK INTER:                  -6.052
REMARK INTRA:                  -0.072
REMARK UNBOUND:                 0.207
REMARK  Name = ZINC000062723655
REMARK                            x       y       z     vdW  Elec       q    Type
REMARK                         _______ _______ _______ _____ _____    ______ ____
ROOT
ATOM      1  C   LIG    1       29.442 -18.136   2.370  0.00  0.00    +0.220 A 
ATOM      2  C   LIG    1       29.495 -18.494   3.711  0.00  0.00    -0.010 A 
ATOM      3  C   LIG    1       28.812 -19.610   4.154  0.00  0.00    +0.080 A 
ATOM      4  C   LIG    1       28.077 -20.370   3.263  0.00  0.00    +0.020 A 
ATOM      5  C   LIG    1       28.022 -20.017   1.928  0.00  0.00    +0.010 A 
ATOM      6  C   LIG    1       28.698 -18.899   1.479  0.00  0.00    -0.110 A 
ATOM      7  C   LIG    1       28.639 -18.515   0.023  0.00  0.00    +0.120 C 
ENDROOT
BRANCH   1   9
ATOM      8  C   LIG    1       31.580 -16.908   2.114  0.00  0.00    +0.290 C 
ATOM      9  N   LIG    1       30.132 -17.008   1.920  0.00  0.00    -0.740 N 
ATOM     10  H   LIG    1       29.651 -16.290   1.478  0.00  0.00    +0.410 HD
ENDBRANCH   1   9
BRANCH   5  11
ATOM     11  N   LIG    1       27.234 -20.834   0.978  0.00  0.00    +0.020 N 
ATOM     12  O   LIG    1       26.048 -20.609   0.820  0.00  0.00    -0.150 OA
ATOM     13  O   LIG    1       27.772 -21.731   0.354  0.00  0.00    -0.150 OA
ENDBRANCH   5  11
TORSDOF 2
ENDMDL
MODEL 3
REMARK VINA RESULT:    -5.544      3.664      5.066
REMARK INTER + INTRA:          -5.985
REMARK INTER:                  -5.936
REMARK INTRA:                  -0.048
REMARK UNBOUND:                 0.207
REMARK  Name = ZINC000062723655
REMARK                            x       y       z     vdW  Elec       q    Type
REMARK                         _______ _______ _______ _____ _____    ______ ____
ROOT
ATOM      1  C   LIG    1       28.747 -18.833   1.398  0.00  0.00    +0.220 A 
ATOM      2  C   LIG    1       28.568 -19.274   2.703  0.00  0.00    -0.010 A 
ATOM      3  C   LIG    1       29.384 -18.795   3.710  0.00  0.00    +0.080 A 
ATOM      4  C   LIG    1       30.377 -17.879   3.420  0.00  0.00    +0.020 A 
ATOM      5  C   LIG    1       30.558 -17.437   2.122  0.00  0.00    +0.010 A 
ATOM      6  C   LIG    1       29.749 -17.916   1.109  0.00  0.00    -0.110 A 
ATOM      7  C   LIG    1       29.946 -17.434  -0.305  0.00  0.00    +0.120 C 
ENDROOT
BRANCH   1   9
ATOM      8  C   LIG    1       27.276 -20.621   0.515  0.00  0.00    +0.290 C 
ATOM      9  N   LIG    1       27.924 -19.315   0.378  0.00  0.00    -0.740 N 
ATOM     10  H   LIG    1       27.782 -18.785  -0.422  0.00  0.00    +0.410 HD
ENDBRANCH   1   9
BRANCH   5  11
ATOM     11  N   LIG    1       31.622 -16.455   1.816  0.00  0.00    +0.020 N 
ATOM     12  O   LIG    1       32.767 -16.833   1.643  0.00  0.00    -0.150 OA
ATOM     13  O   LIG    1       31.353 -15.271   1.735  0.00  0.00    -0.150 OA
ENDBRANCH   5  11
TORSDOF 2
ENDMDL
MODEL 4
REMARK VINA RESULT:    -5.293      3.644      4.544
REMARK INTER + INTRA:          -5.704
REMARK INTER:                  -5.646
REMARK INTRA:                  -0.058
REMARK UNBOUND:                 0.207
REMARK  Name = ZINC000062723655
REMARK                            x       y       z     vdW  Elec       q    Type
REMARK                         _______ _______ _______ _____ _____    ______ ____
ROOT
ATOM      1  C   LIG    1       28.936 -18.920   2.125  0.00  0.00    +0.220 A 
ATOM      2  C   LIG    1       28.341 -18.966   0.872  0.00  0.00    -0.010 A 
ATOM      3  C   LIG    1       28.821 -18.170  -0.150  0.00  0.00    +0.080 A 
ATOM      4  C   LIG    1       29.894 -17.328   0.075  0.00  0.00    +0.020 A 
ATOM      5  C   LIG    1       30.490 -17.279   1.322  0.00  0.00    +0.010 A 
ATOM      6  C   LIG    1       30.011 -18.069   2.349  0.00  0.00    -0.110 A 
ATOM      7  C   LIG    1       30.661 -18.016   3.708  0.00  0.00    +0.120 C 
ENDROOT
BRANCH   1   9
ATOM      8  C   LIG    1       27.372 -20.678   2.902  0.00  0.00    +0.290 C 
ATOM      9  N   LIG    1       28.452 -19.724   3.160  0.00  0.00    -0.740 N 
ATOM     10  H   LIG    1       28.832 -19.649   4.050  0.00  0.00    +0.410 HD
ENDBRANCH   1   9
BRANCH   5  11
ATOM     11  N   LIG    1       31.639 -16.376   1.558  0.00  0.00    +0.020 N 
ATOM     12  O   LIG    1       32.776 -16.798   1.453  0.00  0.00    -0.150 OA
ATOM     13  O   LIG    1       31.447 -15.212   1.857  0.00  0.00    -0.150 OA
ENDBRANCH   5  11
TORSDOF 2
ENDMDL
MODEL 5
REMARK VINA RESULT:    -5.267     23.035     24.484
REMARK INTER + INTRA:          -5.675
REMARK INTER:                  -5.628
REMARK INTRA:                  -0.047
REMARK UNBOUND:                 0.207
REMARK  Name = ZINC000062723655
REMARK                            x       y       z     vdW  Elec       q    Type
REMARK                         _______ _______ _______ _____ _____    ______ ____
ROOT
ATOM      1  C   LIG    1       16.005 -12.187  21.504  0.00  0.00    +0.220 A 
ATOM      2  C   LIG    1       14.931 -12.409  22.356  0.00  0.00    -0.010 A 
ATOM      3  C   LIG    1       13.788 -11.641  22.240  0.00  0.00    +0.080 A 
ATOM      4  C   LIG    1       13.714 -10.652  21.278  0.00  0.00    +0.020 A 
ATOM      5  C   LIG    1       14.780 -10.428  20.427  0.00  0.00    +0.010 A 
ATOM      6  C   LIG    1       15.928 -11.189  20.540  0.00  0.00    -0.110 A 
ATOM      7  C   LIG    1       17.090 -10.945  19.613  0.00  0.00    +0.120 C 
ENDROOT
BRANCH   1   9
ATOM      8  C   LIG    1       17.058 -14.418  21.735  0.00  0.00    +0.290 C 
ATOM      9  N   LIG    1       17.161 -12.962  21.618  0.00  0.00    -0.740 N 
ATOM     10  H   LIG    1       18.032 -12.535  21.622  0.00  0.00    +0.410 HD
ENDBRANCH   1   9
BRANCH   5  11
ATOM     11  N   LIG    1       14.696  -9.368  19.397  0.00  0.00    +0.020 N 
ATOM     12  O   LIG    1       15.194  -8.277  19.604  0.00  0.00    -0.150 OA
ATOM     13  O   LIG    1       14.129  -9.588  18.342  0.00  0.00    -0.150 OA
ENDBRANCH   5  11
TORSDOF 2
ENDMDL
MODEL 6
REMARK VINA RESULT:    -5.106     14.778     16.003
REMARK INTER + INTRA:          -5.495
REMARK INTER:                  -5.453
REMARK INTRA:                  -0.042
REMARK UNBOUND:                 0.207
REMARK  Name = ZINC000062723655
REMARK                            x       y       z     vdW  Elec       q    Type
REMARK                         _______ _______ _______ _____ _____    ______ ____
ROOT
ATOM      1  C   LIG    1       23.160 -22.958  15.048  0.00  0.00    +0.220 A 
ATOM      2  C   LIG    1       22.348 -23.251  13.960  0.00  0.00    -0.010 A 
ATOM      3  C   LIG    1       20.974 -23.256  14.106  0.00  0.00    +0.080 A 
ATOM      4  C   LIG    1       20.408 -22.968  15.334  0.00  0.00    +0.020 A 
ATOM      5  C   LIG    1       21.212 -22.674  16.419  0.00  0.00    +0.010 A 
ATOM      6  C   LIG    1       22.587 -22.673  16.282  0.00  0.00    -0.110 A 
ATOM      7  C   LIG    1       23.464 -22.353  17.464  0.00  0.00    +0.120 C 
ENDROOT
BRANCH   1   9
ATOM      8  C   LIG    1       25.297 -24.210  14.962  0.00  0.00    +0.290 C 
ATOM      9  N   LIG    1       24.549 -22.952  14.903  0.00  0.00    -0.740 N 
ATOM     10  H   LIG    1       25.019 -22.114  14.765  0.00  0.00    +0.410 HD
ENDBRANCH   1   9
BRANCH   5  11
ATOM     11  N   LIG    1       20.601 -22.366  17.732  0.00  0.00    +0.020 N 
ATOM     12  O   LIG    1       20.349 -21.213  18.030  0.00  0.00    -0.150 OA
ATOM     13  O   LIG    1       20.351 -23.266  18.513  0.00  0.00    -0.150 OA
ENDBRANCH   5  11
TORSDOF 2
ENDMDL
MODEL 7
REMARK VINA RESULT:    -4.992     15.002     16.064
REMARK INTER + INTRA:          -5.368
REMARK INTER:                  -5.293
REMARK INTRA:                  -0.075
REMARK UNBOUND:                 0.207
REMARK  Name = ZINC000062723655
REMARK                            x       y       z     vdW  Elec       q    Type
REMARK                         _______ _______ _______ _____ _____    ______ ____
ROOT
ATOM      1  C   LIG    1       23.149 -21.731  17.083  0.00  0.00    +0.220 A 
ATOM      2  C   LIG    1       24.241 -22.107  16.310  0.00  0.00    -0.010 A 
ATOM      3  C   LIG    1       24.098 -23.083  15.343  0.00  0.00    +0.080 A 
ATOM      4  C   LIG    1       22.870 -23.685  15.144  0.00  0.00    +0.020 A 
ATOM      5  C   LIG    1       21.781 -23.314  15.910  0.00  0.00    +0.010 A 
ATOM      6  C   LIG    1       21.918 -22.342  16.883  0.00  0.00    -0.110 A 
ATOM      7  C   LIG    1       20.730 -21.937  17.718  0.00  0.00    +0.120 C 
ENDROOT
BRANCH   1   9
ATOM      8  C   LIG    1       24.095 -21.008  19.256  0.00  0.00    +0.290 C 
ATOM      9  N   LIG    1       23.291 -20.745  18.061  0.00  0.00    -0.740 N 
ATOM     10  H   LIG    1       22.855 -19.885  17.949  0.00  0.00    +0.410 HD
ENDBRANCH   1   9
BRANCH   5  11
ATOM     11  N   LIG    1       20.467 -23.961  15.693  0.00  0.00    +0.020 N 
ATOM     12  O   LIG    1       20.166 -24.954  16.330  0.00  0.00    -0.150 OA
ATOM     13  O   LIG    1       19.689 -23.501  14.878  0.00  0.00    -0.150 OA
ENDBRANCH   5  11
TORSDOF 2
ENDMDL
MODEL 8
REMARK VINA RESULT:    -4.982     14.773     16.081
REMARK INTER + INTRA:          -5.357
REMARK INTER:                  -5.321
REMARK INTRA:                  -0.036
REMARK UNBOUND:                 0.207
REMARK  Name = ZINC000062723655
REMARK                            x       y       z     vdW  Elec       q    Type
REMARK                         _______ _______ _______ _____ _____    ______ ____
ROOT
ATOM      1  C   LIG    1       23.254 -22.027  17.129  0.00  0.00    +0.220 A 
ATOM      2  C   LIG    1       22.547 -21.331  18.102  0.00  0.00    -0.010 A 
ATOM      3  C   LIG    1       21.166 -21.364  18.106  0.00  0.00    +0.080 A 
ATOM      4  C   LIG    1       20.488 -22.087  17.144  0.00  0.00    +0.020 A 
ATOM      5  C   LIG    1       21.188 -22.781  16.174  0.00  0.00    +0.010 A 
ATOM      6  C   LIG    1       22.569 -22.749  16.161  0.00  0.00    -0.110 A 
ATOM      7  C   LIG    1       23.331 -23.506  15.104  0.00  0.00    +0.120 C 
ENDROOT
BRANCH   1   9
ATOM      8  C   LIG    1       25.379 -21.546  18.310  0.00  0.00    +0.290 C 
ATOM      9  N   LIG    1       24.650 -21.996  17.123  0.00  0.00    -0.740 N 
ATOM     10  H   LIG    1       25.138 -22.273  16.330  0.00  0.00    +0.410 HD
ENDBRANCH   1   9
BRANCH   5  11
ATOM     11  N   LIG    1       20.457 -23.556  15.145  0.00  0.00    +0.020 N 
ATOM     12  O   LIG    1       20.037 -24.668  15.406  0.00  0.00    -0.150 OA
ATOM     13  O   LIG    1       20.276 -23.080  14.040  0.00  0.00    -0.150 OA
ENDBRANCH   5  11
TORSDOF 2
ENDMDL
MODEL 9
REMARK VINA RESULT:    -4.749     23.672     24.580
REMARK INTER + INTRA:          -5.097
REMARK INTER:                  -5.031
REMARK INTRA:                  -0.066
REMARK UNBOUND:                 0.207
REMARK  Name = ZINC000062723655
REMARK                            x       y       z     vdW  Elec       q    Type
REMARK                         _______ _______ _______ _____ _____    ______ ____
ROOT
ATOM      1  C   LIG    1       15.797 -12.459  21.449  0.00  0.00    +0.220 A 
ATOM      2  C   LIG    1       17.042 -12.056  20.985  0.00  0.00    -0.010 A 
ATOM      3  C   LIG    1       17.159 -10.905  20.230  0.00  0.00    +0.080 A 
ATOM      4  C   LIG    1       16.036 -10.155  19.936  0.00  0.00    +0.020 A 
ATOM      5  C   LIG    1       14.795 -10.551  20.397  0.00  0.00    +0.010 A 
ATOM      6  C   LIG    1       14.670 -11.703  21.148  0.00  0.00    -0.110 A 
ATOM      7  C   LIG    1       13.316 -12.135  21.650  0.00  0.00    +0.120 C 
ENDROOT
BRANCH   1   9
ATOM      8  C   LIG    1       15.822 -14.933  21.579  0.00  0.00    +0.290 C 
ATOM      9  N   LIG    1       15.676 -13.621  22.213  0.00  0.00    -0.740 N 
ATOM     10  H   LIG    1       15.495 -13.560  23.164  0.00  0.00    +0.410 HD
ENDBRANCH   1   9
BRANCH   5  11
ATOM     11  N   LIG    1       13.595  -9.742  20.080  0.00  0.00    +0.020 N 
ATOM     12  O   LIG    1       13.198  -8.906  20.871  0.00  0.00    -0.150 OA
ATOM     13  O   LIG    1       13.006  -9.914  19.028  0.00  0.00    -0.150 OA
ENDBRANCH   5  11
TORSDOF 2
ENDMDL
