MODEL 1
REMARK VINA RESULT:    -5.589      0.000      0.000
REMARK INTER + INTRA:          -6.464
REMARK INTER:                  -6.406
REMARK INTRA:                  -0.058
REMARK UNBOUND:                -0.058
REMARK  Name = ZINC000016678103
REMARK                            x       y       z     vdW  Elec       q    Type
REMARK                         _______ _______ _______ _____ _____    ______ ____
ROOT
ATOM      1  C   LIG    1       27.419 -20.399   1.320  0.00  0.00    +0.180 A 
ATOM      2  C   LIG    1       27.797 -20.287   2.648  0.00  0.00    -0.100 A 
ATOM      3  C   LIG    1       28.708 -19.311   3.028  0.00  0.00    +0.260 A 
ATOM      4  C   LIG    1       29.240 -18.450   2.075  0.00  0.00    -0.140 A 
ATOM      5  C   LIG    1       28.861 -18.566   0.752  0.00  0.00    +0.050 A 
ATOM      6  C   LIG    1       30.230 -17.391   2.485  0.00  0.00    +0.120 C 
ATOM      7  C   LIG    1       27.957 -19.540   0.371  0.00  0.00    +0.000 A 
ENDROOT
BRANCH   5   8
ATOM      8  N   LIG    1       29.428 -17.649  -0.262  0.00  0.00    +0.020 N 
ATOM      9  O   LIG    1       28.852 -16.610  -0.533  0.00  0.00    -0.140 OA
ATOM     10  O   LIG    1       30.471 -17.932  -0.825  0.00  0.00    -0.150 OA
ENDBRANCH   5   8
BRANCH   3  11
ATOM     11  N   LIG    1       29.093 -19.195   4.365  0.00  0.00    -0.860 N 
ATOM     12  H   LIG    1       29.942 -19.558   4.660  0.00  0.00    +0.410 HD
ATOM     13  H   LIG    1       28.510 -18.750   5.001  0.00  0.00    +0.410 HD
ENDBRANCH   3  11
BRANCH   1  15
ATOM     14  C   LIG    1       25.159 -21.135   1.290  0.00  0.00    +0.250 C 
ATOM     15  O   LIG    1       26.528 -21.354   0.945  0.00  0.00    -0.300 OA
ENDBRANCH   1  15
TORSDOF 3
ENDMDL
MODEL 2
REMARK VINA RESULT:    -5.586      1.608      3.983
REMARK INTER + INTRA:          -6.461
REMARK INTER:                  -6.733
REMARK INTRA:                   0.272
REMARK UNBOUND:                -0.058
REMARK  Name = ZINC000016678103
REMARK                            x       y       z     vdW  Elec       q    Type
REMARK                         _______ _______ _______ _____ _____    ______ ____
ROOT
ATOM      1  C   LIG    1       29.199 -18.060   0.950  0.00  0.00    +0.180 A 
ATOM      2  C   LIG    1       29.411 -18.163   2.315  0.00  0.00    -0.100 A 
ATOM      3  C   LIG    1       28.804 -19.185   3.034  0.00  0.00    +0.260 A 
ATOM      4  C   LIG    1       27.986 -20.100   2.382  0.00  0.00    -0.140 A 
ATOM      5  C   LIG    1       27.778 -19.992   1.021  0.00  0.00    +0.050 A 
ATOM      6  C   LIG    1       27.326 -21.208   3.160  0.00  0.00    +0.120 C 
ATOM      7  C   LIG    1       28.377 -18.973   0.304  0.00  0.00    +0.000 A 
ENDROOT
BRANCH   5   8
ATOM      8  N   LIG    1       26.906 -20.968   0.328  0.00  0.00    +0.020 N 
ATOM      9  O   LIG    1       27.336 -21.605  -0.618  0.00  0.00    -0.140 OA
ATOM     10  O   LIG    1       25.759 -21.134   0.703  0.00  0.00    -0.150 OA
ENDBRANCH   5   8
BRANCH   3  11
ATOM     11  N   LIG    1       29.013 -19.292   4.410  0.00  0.00    -0.860 N 
ATOM     12  H   LIG    1       28.724 -20.086   4.885  0.00  0.00    +0.410 HD
ATOM     13  H   LIG    1       29.450 -18.572   4.892  0.00  0.00    +0.410 HD
ENDBRANCH   3  11
BRANCH   1  15
ATOM     14  C   LIG    1       30.773 -17.443  -0.721  0.00  0.00    +0.250 C 
ATOM     15  O   LIG    1       29.791 -17.061   0.243  0.00  0.00    -0.300 OA
ENDBRANCH   1  15
TORSDOF 3
ENDMDL
MODEL 3
REMARK VINA RESULT:    -5.495      2.500      4.899
REMARK INTER + INTRA:          -6.356
REMARK INTER:                  -6.353
REMARK INTRA:                  -0.003
REMARK UNBOUND:                -0.058
REMARK  Name = ZINC000016678103
REMARK                            x       y       z     vdW  Elec       q    Type
REMARK                         _______ _______ _______ _____ _____    ______ ____
ROOT
ATOM      1  C   LIG    1       29.389 -18.626   3.379  0.00  0.00    +0.180 A 
ATOM      2  C   LIG    1       29.375 -18.131   2.086  0.00  0.00    -0.100 A 
ATOM      3  C   LIG    1       28.657 -18.793   1.099  0.00  0.00    +0.260 A 
ATOM      4  C   LIG    1       27.955 -19.951   1.412  0.00  0.00    -0.140 A 
ATOM      5  C   LIG    1       27.973 -20.442   2.703  0.00  0.00    +0.050 A 
ATOM      6  C   LIG    1       27.176 -20.672   0.343  0.00  0.00    +0.120 C 
ATOM      7  C   LIG    1       28.691 -19.787   3.685  0.00  0.00    +0.000 A 
ENDROOT
BRANCH   5   8
ATOM      8  N   LIG    1       27.225 -21.676   3.034  0.00  0.00    +0.020 N 
ATOM      9  O   LIG    1       27.821 -22.728   3.184  0.00  0.00    -0.140 OA
ATOM     10  O   LIG    1       26.014 -21.640   3.158  0.00  0.00    -0.150 OA
ENDBRANCH   5   8
BRANCH   3  11
ATOM     11  N   LIG    1       28.640 -18.298  -0.206  0.00  0.00    -0.860 N 
ATOM     12  H   LIG    1       27.959 -17.663  -0.476  0.00  0.00    +0.410 HD
ATOM     13  H   LIG    1       29.312 -18.588  -0.844  0.00  0.00    +0.410 HD
ENDBRANCH   3  11
BRANCH   1  15
ATOM     14  C   LIG    1       29.918 -18.438   5.689  0.00  0.00    +0.250 C 
ATOM     15  O   LIG    1       30.091 -17.980   4.347  0.00  0.00    -0.300 OA
ENDBRANCH   1  15
TORSDOF 3
ENDMDL
MODEL 4
REMARK VINA RESULT:    -5.451      2.329      3.374
REMARK INTER + INTRA:          -6.306
REMARK INTER:                  -6.255
REMARK INTRA:                  -0.051
REMARK UNBOUND:                -0.058
REMARK  Name = ZINC000016678103
REMARK                            x       y       z     vdW  Elec       q    Type
REMARK                         _______ _______ _______ _____ _____    ______ ____
ROOT
ATOM      1  C   LIG    1       27.506 -20.482   1.739  0.00  0.00    +0.180 A 
ATOM      2  C   LIG    1       27.871 -19.595   0.740  0.00  0.00    -0.100 A 
ATOM      3  C   LIG    1       28.793 -18.592   1.011  0.00  0.00    +0.260 A 
ATOM      4  C   LIG    1       29.344 -18.481   2.281  0.00  0.00    -0.140 A 
ATOM      5  C   LIG    1       28.975 -19.367   3.274  0.00  0.00    +0.050 A 
ATOM      6  C   LIG    1       30.343 -17.392   2.576  0.00  0.00    +0.120 C 
ATOM      7  C   LIG    1       28.054 -20.363   3.009  0.00  0.00    +0.000 A 
ENDROOT
BRANCH   5   8
ATOM      8  N   LIG    1       29.563 -19.247   4.627  0.00  0.00    +0.020 N 
ATOM      9  O   LIG    1       29.078 -18.475   5.436  0.00  0.00    -0.140 OA
ATOM     10  O   LIG    1       30.532 -19.919   4.933  0.00  0.00    -0.150 OA
ENDBRANCH   5   8
BRANCH   3  11
ATOM     11  N   LIG    1       29.164 -17.695   0.007  0.00  0.00    -0.860 N 
ATOM     12  H   LIG    1       29.672 -18.006  -0.759  0.00  0.00    +0.410 HD
ATOM     13  H   LIG    1       28.914 -16.760   0.075  0.00  0.00    +0.410 HD
ENDBRANCH   3  11
BRANCH   1  15
ATOM     14  C   LIG    1       25.258 -21.059   1.223  0.00  0.00    +0.250 C 
ATOM     15  O   LIG    1       26.603 -21.465   1.479  0.00  0.00    -0.300 OA
ENDBRANCH   1  15
TORSDOF 3
ENDMDL
MODEL 5
REMARK VINA RESULT:    -5.230      2.643      4.612
REMARK INTER + INTRA:          -6.052
REMARK INTER:                  -5.997
REMARK INTRA:                  -0.056
REMARK UNBOUND:                -0.058
REMARK  Name = ZINC000016678103
REMARK                            x       y       z     vdW  Elec       q    Type
REMARK                         _______ _______ _______ _____ _____    ______ ____
ROOT
ATOM      1  C   LIG    1       29.576 -17.819   0.878  0.00  0.00    +0.180 A 
ATOM      2  C   LIG    1       28.603 -18.581   0.253  0.00  0.00    -0.100 A 
ATOM      3  C   LIG    1       27.933 -19.567   0.966  0.00  0.00    +0.260 A 
ATOM      4  C   LIG    1       28.242 -19.786   2.303  0.00  0.00    -0.140 A 
ATOM      5  C   LIG    1       29.214 -19.024   2.922  0.00  0.00    +0.050 A 
ATOM      6  C   LIG    1       27.516 -20.855   3.078  0.00  0.00    +0.120 C 
ATOM      7  C   LIG    1       29.885 -18.046   2.212  0.00  0.00    +0.000 A 
ENDROOT
BRANCH   5   8
ATOM      8  N   LIG    1       29.541 -19.259   4.346  0.00  0.00    +0.020 N 
ATOM      9  O   LIG    1       30.346 -20.120   4.652  0.00  0.00    -0.140 OA
ATOM     10  O   LIG    1       29.005 -18.591   5.213  0.00  0.00    -0.150 OA
ENDBRANCH   5   8
BRANCH   3  11
ATOM     11  N   LIG    1       26.951 -20.338   0.340  0.00  0.00    -0.860 N 
ATOM     12  H   LIG    1       26.048 -20.353   0.692  0.00  0.00    +0.410 HD
ATOM     13  H   LIG    1       27.173 -20.858  -0.448  0.00  0.00    +0.410 HD
ENDBRANCH   3  11
BRANCH   1  15
ATOM     14  C   LIG    1       30.838 -17.242  -1.053  0.00  0.00    +0.250 C 
ATOM     15  O   LIG    1       30.235 -16.854   0.183  0.00  0.00    -0.300 OA
ENDBRANCH   1  15
TORSDOF 3
ENDMDL
MODEL 6
REMARK VINA RESULT:    -5.077      2.811      3.724
REMARK INTER + INTRA:          -5.877
REMARK INTER:                  -5.816
REMARK INTRA:                  -0.061
REMARK UNBOUND:                -0.058
REMARK  Name = ZINC000016678103
REMARK                            x       y       z     vdW  Elec       q    Type
REMARK                         _______ _______ _______ _____ _____    ______ ____
ROOT
ATOM      1  C   LIG    1       29.500 -18.870   3.505  0.00  0.00    +0.180 A 
ATOM      2  C   LIG    1       28.660 -19.298   2.490  0.00  0.00    -0.100 A 
ATOM      3  C   LIG    1       28.830 -18.812   1.201  0.00  0.00    +0.260 A 
ATOM      4  C   LIG    1       29.841 -17.897   0.933  0.00  0.00    -0.140 A 
ATOM      5  C   LIG    1       30.676 -17.473   1.948  0.00  0.00    +0.050 A 
ATOM      6  C   LIG    1       30.026 -17.368  -0.466  0.00  0.00    +0.120 C 
ATOM      7  C   LIG    1       30.505 -17.952   3.233  0.00  0.00    +0.000 A 
ENDROOT
BRANCH   5   8
ATOM      8  N   LIG    1       31.752 -16.498   1.661  0.00  0.00    +0.020 N 
ATOM      9  O   LIG    1       31.515 -15.303   1.689  0.00  0.00    -0.140 OA
ATOM     10  O   LIG    1       32.875 -16.890   1.396  0.00  0.00    -0.150 OA
ENDBRANCH   5   8
BRANCH   3  11
ATOM     11  N   LIG    1       27.985 -19.240   0.174  0.00  0.00    -0.860 N 
ATOM     12  H   LIG    1       27.391 -18.609  -0.260  0.00  0.00    +0.410 HD
ATOM     13  H   LIG    1       27.994 -20.169  -0.105  0.00  0.00    +0.410 HD
ENDBRANCH   3  11
BRANCH   1  15
ATOM     14  C   LIG    1       29.690 -18.468   5.840  0.00  0.00    +0.250 C 
ATOM     15  O   LIG    1       29.336 -19.343   4.769  0.00  0.00    -0.300 OA
ENDBRANCH   1  15
TORSDOF 3
ENDMDL
MODEL 7
REMARK VINA RESULT:    -4.752     15.304     17.038
REMARK INTER + INTRA:          -5.504
REMARK INTER:                  -5.445
REMARK INTRA:                  -0.060
REMARK UNBOUND:                -0.058
REMARK  Name = ZINC000016678103
REMARK                            x       y       z     vdW  Elec       q    Type
REMARK                         _______ _______ _______ _____ _____    ______ ____
ROOT
ATOM      1  C   LIG    1       24.386 -23.013  16.392  0.00  0.00    +0.180 A 
ATOM      2  C   LIG    1       24.218 -23.282  15.043  0.00  0.00    -0.100 A 
ATOM      3  C   LIG    1       22.942 -23.305  14.497  0.00  0.00    +0.260 A 
ATOM      4  C   LIG    1       21.838 -23.060  15.304  0.00  0.00    -0.140 A 
ATOM      5  C   LIG    1       22.010 -22.793  16.648  0.00  0.00    +0.050 A 
ATOM      6  C   LIG    1       20.452 -23.086  14.712  0.00  0.00    +0.120 C 
ATOM      7  C   LIG    1       23.279 -22.774  17.195  0.00  0.00    +0.000 A 
ENDROOT
BRANCH   5   8
ATOM      8  N   LIG    1       20.832 -22.533  17.506  0.00  0.00    +0.020 N 
ATOM      9  O   LIG    1       20.331 -23.441  18.146  0.00  0.00    -0.140 OA
ATOM     10  O   LIG    1       20.363 -21.410  17.573  0.00  0.00    -0.150 OA
ENDBRANCH   5   8
BRANCH   3  11
ATOM     11  N   LIG    1       22.768 -23.576  13.138  0.00  0.00    -0.860 N 
ATOM     12  H   LIG    1       22.855 -24.484  12.809  0.00  0.00    +0.410 HD
ATOM     13  H   LIG    1       22.560 -22.856  12.522  0.00  0.00    +0.410 HD
ENDBRANCH   3  11
BRANCH   1  15
ATOM     14  C   LIG    1       25.830 -22.161  18.078  0.00  0.00    +0.250 C 
ATOM     15  O   LIG    1       25.634 -22.990  16.931  0.00  0.00    -0.300 OA
ENDBRANCH   1  15
TORSDOF 3
ENDMDL
MODEL 8
REMARK VINA RESULT:    -4.688     16.115     17.665
REMARK INTER + INTRA:          -5.431
REMARK INTER:                  -5.547
REMARK INTRA:                   0.116
REMARK UNBOUND:                -0.058
REMARK  Name = ZINC000016678103
REMARK                            x       y       z     vdW  Elec       q    Type
REMARK                         _______ _______ _______ _____ _____    ______ ____
ROOT
ATOM      1  C   LIG    1       22.383 -21.712  17.999  0.00  0.00    +0.180 A 
ATOM      2  C   LIG    1       21.410 -22.403  18.703  0.00  0.00    -0.100 A 
ATOM      3  C   LIG    1       20.686 -23.408  18.075  0.00  0.00    +0.260 A 
ATOM      4  C   LIG    1       20.938 -23.716  16.744  0.00  0.00    -0.140 A 
ATOM      5  C   LIG    1       21.908 -23.023  16.047  0.00  0.00    +0.050 A 
ATOM      6  C   LIG    1       20.152 -24.805  16.061  0.00  0.00    +0.120 C 
ATOM      7  C   LIG    1       22.627 -22.019  16.668  0.00  0.00    +0.000 A 
ENDROOT
BRANCH   5   8
ATOM      8  N   LIG    1       22.175 -23.352  14.628  0.00  0.00    +0.020 N 
ATOM      9  O   LIG    1       21.329 -23.127  13.781  0.00  0.00    -0.140 OA
ATOM     10  O   LIG    1       23.240 -23.849  14.308  0.00  0.00    -0.150 OA
ENDBRANCH   5   8
BRANCH   3  11
ATOM     11  N   LIG    1       19.704 -24.107  18.780  0.00  0.00    -0.860 N 
ATOM     12  H   LIG    1       19.286 -24.888  18.386  0.00  0.00    +0.410 HD
ATOM     13  H   LIG    1       19.440 -23.812  19.666  0.00  0.00    +0.410 HD
ENDBRANCH   3  11
BRANCH   1  15
ATOM     14  C   LIG    1       24.429 -21.042  19.008  0.00  0.00    +0.250 C 
ATOM     15  O   LIG    1       23.094 -20.727  18.611  0.00  0.00    -0.300 OA
ENDBRANCH   1  15
TORSDOF 3
ENDMDL
MODEL 9
REMARK VINA RESULT:    -4.672     21.082     22.376
REMARK INTER + INTRA:          -5.413
REMARK INTER:                  -5.361
REMARK INTRA:                  -0.052
REMARK UNBOUND:                -0.058
REMARK  Name = ZINC000016678103
REMARK                            x       y       z     vdW  Elec       q    Type
REMARK                         _______ _______ _______ _____ _____    ______ ____
ROOT
ATOM      1  C   LIG    1       24.393  -0.330  11.021  0.00  0.00    +0.180 A 
ATOM      2  C   LIG    1       23.383  -1.277  11.078  0.00  0.00    -0.100 A 
ATOM      3  C   LIG    1       22.942  -1.743  12.310  0.00  0.00    +0.260 A 
ATOM      4  C   LIG    1       23.515  -1.260  13.480  0.00  0.00    -0.140 A 
ATOM      5  C   LIG    1       24.522  -0.317  13.417  0.00  0.00    +0.050 A 
ATOM      6  C   LIG    1       23.039  -1.765  14.817  0.00  0.00    +0.120 C 
ATOM      7  C   LIG    1       24.966   0.145  12.192  0.00  0.00    +0.000 A 
ENDROOT
BRANCH   5   8
ATOM      8  N   LIG    1       25.132   0.197  14.664  0.00  0.00    +0.020 N 
ATOM      9  O   LIG    1       26.177  -0.279  15.072  0.00  0.00    -0.140 OA
ATOM     10  O   LIG    1       24.589   1.095  15.284  0.00  0.00    -0.150 OA
ENDBRANCH   5   8
BRANCH   3  11
ATOM     11  N   LIG    1       21.925  -2.697  12.373  0.00  0.00    -0.860 N 
ATOM     12  H   LIG    1       21.422  -2.818  13.194  0.00  0.00    +0.410 HD
ATOM     13  H   LIG    1       21.719  -3.239  11.595  0.00  0.00    +0.410 HD
ENDBRANCH   3  11
BRANCH   1  15
ATOM     14  C   LIG    1       23.925   0.013   8.716  0.00  0.00    +0.250 C 
ATOM     15  O   LIG    1       24.828   0.128   9.817  0.00  0.00    -0.300 OA
ENDBRANCH   1  15
TORSDOF 3
ENDMDL
