MODEL 1
REMARK VINA RESULT:    -4.875      0.000      0.000
REMARK INTER + INTRA:          -5.252
REMARK INTER:                  -5.160
REMARK INTRA:                  -0.092
REMARK UNBOUND:                -0.092
REMARK  Name = ZINC000004683075
REMARK                            x       y       z     vdW  Elec       q    Type
REMARK                         _______ _______ _______ _____ _____    ______ ____
ROOT
ATOM      1  C   LIG    1       27.585 -19.963   1.135  0.00  0.00    +0.150 C 
ATOM      2  C   LIG    1       28.971 -19.790   0.465  0.00  0.00    +0.070 C 
ATOM      3  C   LIG    1       29.977 -20.205   1.586  0.00  0.00    +0.040 C 
ATOM      4  C   LIG    1       29.831 -19.106   2.644  0.00  0.00    -0.010 C 
ATOM      5  C   LIG    1       28.653 -19.235   3.220  0.00  0.00    -0.030 C 
ATOM      6  C   LIG    1       29.174 -21.373   2.268  0.00  0.00    +0.060 C 
ATOM      7  C   LIG    1       27.926 -20.460   2.575  0.00  0.00    +0.050 C 
ENDROOT
BRANCH   1   9
ATOM      8  O   LIG    1       27.245 -21.508  -0.572  0.00  0.00    -0.170 OA
ATOM      9  N   LIG    1       26.790 -20.965   0.419  0.00  0.00    -0.010 N 
ATOM     10  O   LIG    1       25.678 -21.258   0.819  0.00  0.00    -0.160 OA
ENDBRANCH   1   9
TORSDOF 1
ENDMDL
MODEL 2
REMARK VINA RESULT:    -4.782      1.251      1.953
REMARK INTER + INTRA:          -5.154
REMARK INTER:                  -5.035
REMARK INTRA:                  -0.119
REMARK UNBOUND:                -0.092
REMARK  Name = ZINC000004683075
REMARK                            x       y       z     vdW  Elec       q    Type
REMARK                         _______ _______ _______ _____ _____    ______ ____
ROOT
ATOM      1  C   LIG    1       29.184 -20.381   0.396  0.00  0.00    +0.150 C 
ATOM      2  C   LIG    1       30.186 -20.603   1.556  0.00  0.00    +0.070 C 
ATOM      3  C   LIG    1       29.755 -19.548   2.624  0.00  0.00    +0.040 C 
ATOM      4  C   LIG    1       30.089 -18.201   1.973  0.00  0.00    -0.010 C 
ATOM      5  C   LIG    1       29.249 -17.998   0.978  0.00  0.00    -0.030 C 
ATOM      6  C   LIG    1       28.193 -19.579   2.439  0.00  0.00    +0.060 C 
ATOM      7  C   LIG    1       28.274 -19.219   0.906  0.00  0.00    +0.050 C 
ENDROOT
BRANCH   1   9
ATOM      8  O   LIG    1       28.703 -22.637   0.703  0.00  0.00    -0.170 OA
ATOM      9  N   LIG    1       28.391 -21.591   0.162  0.00  0.00    -0.010 N 
ATOM     10  O   LIG    1       27.418 -21.549  -0.569  0.00  0.00    -0.160 OA
ENDBRANCH   1   9
TORSDOF 1
ENDMDL
MODEL 3
REMARK VINA RESULT:    -4.615     24.622     25.633
REMARK INTER + INTRA:          -4.977
REMARK INTER:                  -4.896
REMARK INTRA:                  -0.081
REMARK UNBOUND:                -0.092
REMARK  Name = ZINC000004683075
REMARK                            x       y       z     vdW  Elec       q    Type
REMARK                         _______ _______ _______ _____ _____    ______ ____
ROOT
ATOM      1  C   LIG    1       14.944  -9.632  20.251  0.00  0.00    +0.150 C 
ATOM      2  C   LIG    1       15.312 -11.047  20.760  0.00  0.00    +0.070 C 
ATOM      3  C   LIG    1       13.946 -11.633  21.242  0.00  0.00    +0.040 C 
ATOM      4  C   LIG    1       13.584 -10.779  22.463  0.00  0.00    -0.010 C 
ATOM      5  C   LIG    1       13.274  -9.567  22.047  0.00  0.00    -0.030 C 
ATOM      6  C   LIG    1       12.979 -11.021  20.163  0.00  0.00    +0.060 C 
ATOM      7  C   LIG    1       13.404  -9.538  20.489  0.00  0.00    +0.050 C 
ENDROOT
BRANCH   1   9
ATOM      8  O   LIG    1       15.057  -8.444  18.253  0.00  0.00    -0.170 OA
ATOM      9  N   LIG    1       15.253  -9.502  18.824  0.00  0.00    -0.010 N 
ATOM     10  O   LIG    1       15.711 -10.449  18.212  0.00  0.00    -0.160 OA
ENDBRANCH   1   9
TORSDOF 1
ENDMDL
MODEL 4
REMARK VINA RESULT:    -4.601     11.820     12.340
REMARK INTER + INTRA:          -4.962
REMARK INTER:                  -4.858
REMARK INTRA:                  -0.103
REMARK UNBOUND:                -0.092
REMARK  Name = ZINC000004683075
REMARK                            x       y       z     vdW  Elec       q    Type
REMARK                         _______ _______ _______ _____ _____    ______ ____
ROOT
ATOM      1  C   LIG    1       27.230  -8.088  -0.433  0.00  0.00    +0.150 C 
ATOM      2  C   LIG    1       25.718  -8.126  -0.098  0.00  0.00    +0.070 C 
ATOM      3  C   LIG    1       25.263  -9.532  -0.606  0.00  0.00    +0.040 C 
ATOM      4  C   LIG    1       25.399  -9.439  -2.130  0.00  0.00    -0.010 C 
ATOM      5  C   LIG    1       26.681  -9.398  -2.433  0.00  0.00    -0.030 C 
ATOM      6  C   LIG    1       26.536 -10.386  -0.253  0.00  0.00    +0.060 C 
ATOM      7  C   LIG    1       27.499  -9.472  -1.103  0.00  0.00    +0.050 C 
ENDROOT
BRANCH   1   9
ATOM      8  O   LIG    1       27.468  -7.796   1.863  0.00  0.00    -0.170 OA
ATOM      9  N   LIG    1       28.024  -7.943   0.790  0.00  0.00    -0.010 N 
ATOM     10  O   LIG    1       29.240  -7.977   0.733  0.00  0.00    -0.160 OA
ENDBRANCH   1   9
TORSDOF 1
ENDMDL
MODEL 5
REMARK VINA RESULT:    -4.525      2.490      3.080
REMARK INTER + INTRA:          -4.881
REMARK INTER:                  -4.765
REMARK INTRA:                  -0.116
REMARK UNBOUND:                -0.092
REMARK  Name = ZINC000004683075
REMARK                            x       y       z     vdW  Elec       q    Type
REMARK                         _______ _______ _______ _____ _____    ______ ____
ROOT
ATOM      1  C   LIG    1       28.928 -21.741   1.522  0.00  0.00    +0.150 C 
ATOM      2  C   LIG    1       29.912 -20.550   1.407  0.00  0.00    +0.070 C 
ATOM      3  C   LIG    1       29.008 -19.299   1.652  0.00  0.00    +0.040 C 
ATOM      4  C   LIG    1       28.086 -19.261   0.427  0.00  0.00    -0.010 C 
ATOM      5  C   LIG    1       27.245 -20.272   0.506  0.00  0.00    -0.030 C 
ATOM      6  C   LIG    1       28.023 -19.870   2.738  0.00  0.00    +0.060 C 
ATOM      7  C   LIG    1       27.554 -21.062   1.820  0.00  0.00    +0.050 C 
ENDROOT
BRANCH   1   9
ATOM      8  O   LIG    1       28.493 -23.369   3.126  0.00  0.00    -0.170 OA
ATOM      9  N   LIG    1       29.316 -22.624   2.625  0.00  0.00    -0.010 N 
ATOM     10  O   LIG    1       30.462 -22.618   3.036  0.00  0.00    -0.160 OA
ENDBRANCH   1   9
TORSDOF 1
ENDMDL
MODEL 6
REMARK VINA RESULT:    -4.311     16.192     17.156
REMARK INTER + INTRA:          -4.655
REMARK INTER:                  -4.534
REMARK INTRA:                  -0.121
REMARK UNBOUND:                -0.092
REMARK  Name = ZINC000004683075
REMARK                            x       y       z     vdW  Elec       q    Type
REMARK                         _______ _______ _______ _____ _____    ______ ____
ROOT
ATOM      1  C   LIG    1       21.490 -23.913  16.298  0.00  0.00    +0.150 C 
ATOM      2  C   LIG    1       20.552 -24.298  17.468  0.00  0.00    +0.070 C 
ATOM      3  C   LIG    1       20.615 -23.057  18.416  0.00  0.00    +0.040 C 
ATOM      4  C   LIG    1       22.053 -23.068  18.948  0.00  0.00    -0.010 C 
ATOM      5  C   LIG    1       22.866 -22.749  17.962  0.00  0.00    -0.030 C 
ATOM      6  C   LIG    1       20.708 -21.897  17.357  0.00  0.00    +0.060 C 
ATOM      7  C   LIG    1       22.004 -22.490  16.683  0.00  0.00    +0.050 C 
ENDROOT
BRANCH   1   9
ATOM      8  O   LIG    1       21.237 -23.330  14.059  0.00  0.00    -0.170 OA
ATOM      9  N   LIG    1       20.746 -23.867  15.036  0.00  0.00    -0.010 N 
ATOM     10  O   LIG    1       19.640 -24.371  14.962  0.00  0.00    -0.160 OA
ENDBRANCH   1   9
TORSDOF 1
ENDMDL
MODEL 7
REMARK VINA RESULT:    -4.308      4.390      5.022
REMARK INTER + INTRA:          -4.652
REMARK INTER:                  -4.532
REMARK INTRA:                  -0.120
REMARK UNBOUND:                -0.092
REMARK  Name = ZINC000004683075
REMARK                            x       y       z     vdW  Elec       q    Type
REMARK                         _______ _______ _______ _____ _____    ______ ____
ROOT
ATOM      1  C   LIG    1       31.408 -18.318   1.735  0.00  0.00    +0.150 C 
ATOM      2  C   LIG    1       31.036 -18.852   0.330  0.00  0.00    +0.070 C 
ATOM      3  C   LIG    1       29.568 -18.357   0.124  0.00  0.00    +0.040 C 
ATOM      4  C   LIG    1       28.758 -19.153   1.154  0.00  0.00    -0.010 C 
ATOM      5  C   LIG    1       29.068 -18.716   2.357  0.00  0.00    -0.030 C 
ATOM      6  C   LIG    1       29.640 -16.955   0.833  0.00  0.00    +0.060 C 
ATOM      7  C   LIG    1       30.121 -17.569   2.203  0.00  0.00    +0.050 C 
ENDROOT
BRANCH   1   9
ATOM      8  O   LIG    1       32.774 -16.631   2.572  0.00  0.00    -0.170 OA
ATOM      9  N   LIG    1       32.540 -17.392   1.650  0.00  0.00    -0.010 N 
ATOM     10  O   LIG    1       33.250 -17.387   0.661  0.00  0.00    -0.160 OA
ENDBRANCH   1   9
TORSDOF 1
ENDMDL
MODEL 8
REMARK VINA RESULT:    -4.204      1.928      2.683
REMARK INTER + INTRA:          -4.541
REMARK INTER:                  -4.522
REMARK INTRA:                  -0.019
REMARK UNBOUND:                -0.092
REMARK  Name = ZINC000004683075
REMARK                            x       y       z     vdW  Elec       q    Type
REMARK                         _______ _______ _______ _____ _____    ______ ____
ROOT
ATOM      1  C   LIG    1       28.964 -20.691   2.391  0.00  0.00    +0.150 C 
ATOM      2  C   LIG    1       28.621 -19.182   2.470  0.00  0.00    +0.070 C 
ATOM      3  C   LIG    1       28.589 -18.732   0.974  0.00  0.00    +0.040 C 
ATOM      4  C   LIG    1       30.047 -18.854   0.517  0.00  0.00    -0.010 C 
ATOM      5  C   LIG    1       30.358 -20.133   0.450  0.00  0.00    -0.030 C 
ATOM      6  C   LIG    1       27.968 -20.013   0.306  0.00  0.00    +0.060 C 
ATOM      7  C   LIG    1       29.098 -20.963   0.859  0.00  0.00    +0.050 C 
ENDROOT
BRANCH   1   9
ATOM      8  O   LIG    1       28.055 -22.682   3.180  0.00  0.00    -0.170 OA
ATOM      9  N   LIG    1       27.882 -21.495   2.965  0.00  0.00    -0.010 N 
ATOM     10  O   LIG    1       26.813 -20.977   3.231  0.00  0.00    -0.160 OA
ENDBRANCH   1   9
TORSDOF 1
ENDMDL
MODEL 9
REMARK VINA RESULT:    -4.183     13.428     13.936
REMARK INTER + INTRA:          -4.520
REMARK INTER:                  -4.430
REMARK INTRA:                  -0.090
REMARK UNBOUND:                -0.092
REMARK  Name = ZINC000004683075
REMARK                            x       y       z     vdW  Elec       q    Type
REMARK                         _______ _______ _______ _____ _____    ______ ____
ROOT
ATOM      1  C   LIG    1       27.257  -6.578   0.037  0.00  0.00    +0.150 C 
ATOM      2  C   LIG    1       26.541  -6.788   1.394  0.00  0.00    +0.070 C 
ATOM      3  C   LIG    1       25.063  -7.092   0.988  0.00  0.00    +0.040 C 
ATOM      4  C   LIG    1       24.559  -5.771   0.396  0.00  0.00    -0.010 C 
ATOM      5  C   LIG    1       25.164  -5.573  -0.757  0.00  0.00    -0.030 C 
ATOM      6  C   LIG    1       25.296  -7.928  -0.324  0.00  0.00    +0.060 C 
ATOM      7  C   LIG    1       26.124  -6.780  -1.018  0.00  0.00    +0.050 C 
ENDROOT
BRANCH   1   9
ATOM      8  O   LIG    1       28.898  -8.028   0.823  0.00  0.00    -0.170 OA
ATOM      9  N   LIG    1       28.315  -7.575  -0.146  0.00  0.00    -0.010 N 
ATOM     10  O   LIG    1       28.607  -7.955  -1.265  0.00  0.00    -0.160 OA
ENDBRANCH   1   9
TORSDOF 1
ENDMDL
