MODEL 1
REMARK VINA RESULT:    -5.262      0.000      0.000
REMARK INTER + INTRA:          -6.230
REMARK INTER:                  -6.185
REMARK INTRA:                  -0.046
REMARK UNBOUND:                -0.046
REMARK  Name = ZINC000066352334
REMARK                            x       y       z     vdW  Elec       q    Type
REMARK                         _______ _______ _______ _____ _____    ______ ____
ROOT
ATOM      1  C   LIG    1       29.303 -19.100   3.390  0.00  0.00    +0.400 A 
ATOM      2  C   LIG    1       29.148 -18.526   2.137  0.00  0.00    -0.120 A 
ATOM      3  C   LIG    1       28.328 -19.153   1.205  0.00  0.00    +0.260 A 
ATOM      4  C   LIG    1       27.693 -20.338   1.572  0.00  0.00    -0.170 A 
ATOM      5  C   LIG    1       27.897 -20.847   2.838  0.00  0.00    +0.460 A 
ATOM      6  N   LIG    1       28.686 -20.230   3.697  0.00  0.00    -0.550 NA
ENDROOT
BRANCH   4   7
ATOM      7  N   LIG    1       26.810 -21.043   0.615  0.00  0.00    +0.050 N 
ATOM      8  O   LIG    1       27.266 -21.474  -0.429  0.00  0.00    -0.140 OA
ATOM      9  O   LIG    1       25.629 -21.190   0.871  0.00  0.00    -0.170 OA
ENDBRANCH   4   7
BRANCH   1  11
ATOM     10  C   LIG    1       31.511 -18.575   4.092  0.00  0.00    +0.280 C 
ATOM     11  O   LIG    1       30.101 -18.499   4.309  0.00  0.00    -0.290 OA
ENDBRANCH   1  11
BRANCH   3  12
ATOM     12  O   LIG    1       28.150 -18.624  -0.032  0.00  0.00    -0.270 OA
ATOM     13  C   LIG    1       28.884 -17.437  -0.342  0.00  0.00    +0.270 C 
ENDBRANCH   3  12
TORSDOF 3
ENDMDL
MODEL 2
REMARK VINA RESULT:    -4.917      2.164      4.672
REMARK INTER + INTRA:          -5.825
REMARK INTER:                  -5.620
REMARK INTRA:                  -0.205
REMARK UNBOUND:                -0.046
REMARK  Name = ZINC000066352334
REMARK                            x       y       z     vdW  Elec       q    Type
REMARK                         _______ _______ _______ _____ _____    ______ ____
ROOT
ATOM      1  C   LIG    1       27.561 -20.240   1.804  0.00  0.00    +0.400 A 
ATOM      2  C   LIG    1       28.238 -19.832   2.943  0.00  0.00    -0.120 A 
ATOM      3  C   LIG    1       29.181 -18.816   2.840  0.00  0.00    +0.260 A 
ATOM      4  C   LIG    1       29.408 -18.247   1.588  0.00  0.00    -0.170 A 
ATOM      5  C   LIG    1       28.696 -18.707   0.500  0.00  0.00    +0.460 A 
ATOM      6  N   LIG    1       27.811 -19.677   0.632  0.00  0.00    -0.550 NA
ENDROOT
BRANCH   4   7
ATOM      7  N   LIG    1       30.403 -17.163   1.426  0.00  0.00    +0.050 N 
ATOM      8  O   LIG    1       31.565 -17.434   1.177  0.00  0.00    -0.140 OA
ATOM      9  O   LIG    1       30.061 -16.000   1.544  0.00  0.00    -0.170 OA
ENDBRANCH   4   7
BRANCH   1  11
ATOM     10  C   LIG    1       25.415 -21.042   1.176  0.00  0.00    +0.280 C 
ATOM     11  O   LIG    1       26.638 -21.231   1.891  0.00  0.00    -0.290 OA
ENDBRANCH   1  11
BRANCH   3  12
ATOM     12  O   LIG    1       29.865 -18.387   3.932  0.00  0.00    -0.270 OA
ATOM     13  C   LIG    1       29.395 -18.831   5.206  0.00  0.00    +0.270 C 
ENDBRANCH   3  12
TORSDOF 3
ENDMDL
MODEL 3
REMARK VINA RESULT:    -4.887      2.729      4.759
REMARK INTER + INTRA:          -5.790
REMARK INTER:                  -5.647
REMARK INTRA:                  -0.143
REMARK UNBOUND:                -0.046
REMARK  Name = ZINC000066352334
REMARK                            x       y       z     vdW  Elec       q    Type
REMARK                         _______ _______ _______ _____ _____    ______ ____
ROOT
ATOM      1  C   LIG    1       28.510 -19.094   1.729  0.00  0.00    +0.400 A 
ATOM      2  C   LIG    1       28.836 -18.438   0.552  0.00  0.00    -0.120 A 
ATOM      3  C   LIG    1       29.884 -17.524   0.557  0.00  0.00    +0.260 A 
ATOM      4  C   LIG    1       30.566 -17.304   1.753  0.00  0.00    -0.170 A 
ATOM      5  C   LIG    1       30.182 -17.995   2.883  0.00  0.00    +0.460 A 
ATOM      6  N   LIG    1       29.180 -18.852   2.845  0.00  0.00    -0.550 NA
ENDROOT
BRANCH   4   7
ATOM      7  N   LIG    1       31.688 -16.339   1.810  0.00  0.00    +0.050 N 
ATOM      8  O   LIG    1       31.462 -15.142   1.812  0.00  0.00    -0.140 OA
ATOM      9  O   LIG    1       32.836 -16.743   1.853  0.00  0.00    -0.170 OA
ENDBRANCH   4   7
BRANCH   1  11
ATOM     10  C   LIG    1       27.110 -20.551   0.480  0.00  0.00    +0.280 C 
ATOM     11  O   LIG    1       27.490 -19.989   1.737  0.00  0.00    -0.290 OA
ENDBRANCH   1  11
BRANCH   3  12
ATOM     12  O   LIG    1       30.235 -16.860  -0.574  0.00  0.00    -0.270 OA
ATOM     13  C   LIG    1       31.248 -17.456  -1.387  0.00  0.00    +0.270 C 
ENDBRANCH   3  12
TORSDOF 3
ENDMDL
MODEL 4
REMARK VINA RESULT:    -4.871      2.151      3.387
REMARK INTER + INTRA:          -5.771
REMARK INTER:                  -5.588
REMARK INTRA:                  -0.184
REMARK UNBOUND:                -0.046
REMARK  Name = ZINC000066352334
REMARK                            x       y       z     vdW  Elec       q    Type
REMARK                         _______ _______ _______ _____ _____    ______ ____
ROOT
ATOM      1  C   LIG    1       29.221 -18.778   3.443  0.00  0.00    +0.400 A 
ATOM      2  C   LIG    1       28.539 -19.458   2.446  0.00  0.00    -0.120 A 
ATOM      3  C   LIG    1       28.653 -19.022   1.131  0.00  0.00    +0.260 A 
ATOM      4  C   LIG    1       29.455 -17.912   0.869  0.00  0.00    -0.170 A 
ATOM      5  C   LIG    1       30.103 -17.287   1.915  0.00  0.00    +0.460 A 
ATOM      6  N   LIG    1       29.968 -17.725   3.153  0.00  0.00    -0.550 NA
ENDROOT
BRANCH   4   7
ATOM      7  N   LIG    1       29.608 -17.407  -0.514  0.00  0.00    +0.050 N 
ATOM      8  O   LIG    1       28.732 -16.724  -1.014  0.00  0.00    -0.140 OA
ATOM      9  O   LIG    1       30.609 -17.677  -1.153  0.00  0.00    -0.170 OA
ENDBRANCH   4   7
BRANCH   1  11
ATOM     10  C   LIG    1       29.729 -18.373   5.728  0.00  0.00    +0.280 C 
ATOM     11  O   LIG    1       29.118 -19.194   4.731  0.00  0.00    -0.290 OA
ENDBRANCH   1  11
BRANCH   3  12
ATOM     12  O   LIG    1       28.001 -19.660   0.126  0.00  0.00    -0.270 OA
ATOM     13  C   LIG    1       26.949 -20.552   0.501  0.00  0.00    +0.270 C 
ENDBRANCH   3  12
TORSDOF 3
ENDMDL
MODEL 5
REMARK VINA RESULT:    -4.796     23.492     24.312
REMARK INTER + INTRA:          -5.683
REMARK INTER:                  -5.506
REMARK INTRA:                  -0.176
REMARK UNBOUND:                -0.046
REMARK  Name = ZINC000066352334
REMARK                            x       y       z     vdW  Elec       q    Type
REMARK                         _______ _______ _______ _____ _____    ______ ____
ROOT
ATOM      1  C   LIG    1       16.195 -12.984  21.201  0.00  0.00    +0.400 A 
ATOM      2  C   LIG    1       14.873 -12.871  20.799  0.00  0.00    -0.120 A 
ATOM      3  C   LIG    1       14.470 -11.725  20.121  0.00  0.00    +0.260 A 
ATOM      4  C   LIG    1       15.418 -10.734  19.873  0.00  0.00    -0.170 A 
ATOM      5  C   LIG    1       16.715 -10.920  20.305  0.00  0.00    +0.460 A 
ATOM      6  N   LIG    1       17.063 -12.017  20.951  0.00  0.00    -0.550 NA
ENDROOT
BRANCH   4   7
ATOM      7  N   LIG    1       15.038  -9.496  19.155  0.00  0.00    +0.050 N 
ATOM      8  O   LIG    1       14.935  -8.446  19.765  0.00  0.00    -0.140 OA
ATOM      9  O   LIG    1       14.828  -9.527  17.956  0.00  0.00    -0.170 OA
ENDBRANCH   4   7
BRANCH   1  11
ATOM     10  C   LIG    1       16.240 -15.358  21.297  0.00  0.00    +0.280 C 
ATOM     11  O   LIG    1       16.602 -14.096  21.864  0.00  0.00    -0.290 OA
ENDBRANCH   1  11
BRANCH   3  12
ATOM     12  O   LIG    1       13.185 -11.575  19.710  0.00  0.00    -0.270 OA
ATOM     13  C   LIG    1       12.233 -11.172  20.697  0.00  0.00    +0.270 C 
ENDBRANCH   3  12
TORSDOF 3
ENDMDL
MODEL 6
REMARK VINA RESULT:    -4.728      2.112      3.269
REMARK INTER + INTRA:          -5.603
REMARK INTER:                  -5.436
REMARK INTRA:                  -0.167
REMARK UNBOUND:                -0.046
REMARK  Name = ZINC000066352334
REMARK                            x       y       z     vdW  Elec       q    Type
REMARK                         _______ _______ _______ _____ _____    ______ ____
ROOT
ATOM      1  C   LIG    1       29.494 -17.825   1.378  0.00  0.00    +0.400 A 
ATOM      2  C   LIG    1       29.658 -18.131   2.720  0.00  0.00    -0.120 A 
ATOM      3  C   LIG    1       28.982 -19.225   3.251  0.00  0.00    +0.260 A 
ATOM      4  C   LIG    1       28.164 -19.972   2.405  0.00  0.00    -0.170 A 
ATOM      5  C   LIG    1       28.051 -19.605   1.080  0.00  0.00    +0.460 A 
ATOM      6  N   LIG    1       28.702 -18.558   0.610  0.00  0.00    -0.550 NA
ENDROOT
BRANCH   4   7
ATOM      7  N   LIG    1       27.424 -21.145   2.922  0.00  0.00    +0.050 N 
ATOM      8  O   LIG    1       28.004 -22.201   3.102  0.00  0.00    -0.140 OA
ATOM      9  O   LIG    1       26.234 -21.055   3.166  0.00  0.00    -0.170 OA
ENDBRANCH   4   7
BRANCH   1  11
ATOM     10  C   LIG    1       31.297 -16.289   1.552  0.00  0.00    +0.280 C 
ATOM     11  O   LIG    1       30.147 -16.760   0.848  0.00  0.00    -0.290 OA
ENDBRANCH   1  11
BRANCH   3  12
ATOM     12  O   LIG    1       29.116 -19.557   4.560  0.00  0.00    -0.270 OA
ATOM     13  C   LIG    1       29.929 -18.702   5.366  0.00  0.00    +0.270 C 
ENDBRANCH   3  12
TORSDOF 3
ENDMDL
MODEL 7
REMARK VINA RESULT:    -4.687     14.200     15.735
REMARK INTER + INTRA:          -5.554
REMARK INTER:                  -5.391
REMARK INTRA:                  -0.163
REMARK UNBOUND:                -0.046
REMARK  Name = ZINC000066352334
REMARK                            x       y       z     vdW  Elec       q    Type
REMARK                         _______ _______ _______ _____ _____    ______ ____
ROOT
ATOM      1  C   LIG    1       23.256 -23.172  13.937  0.00  0.00    +0.400 A 
ATOM      2  C   LIG    1       23.815 -22.559  15.047  0.00  0.00    -0.120 A 
ATOM      3  C   LIG    1       23.024 -22.351  16.172  0.00  0.00    +0.260 A 
ATOM      4  C   LIG    1       21.695 -22.770  16.135  0.00  0.00    -0.170 A 
ATOM      5  C   LIG    1       21.211 -23.373  14.993  0.00  0.00    +0.460 A 
ATOM      6  N   LIG    1       21.988 -23.551  13.940  0.00  0.00    -0.550 NA
ENDROOT
BRANCH   4   7
ATOM      7  N   LIG    1       20.813 -22.570  17.307  0.00  0.00    +0.050 N 
ATOM      8  O   LIG    1       20.342 -21.470  17.534  0.00  0.00    -0.140 OA
ATOM      9  O   LIG    1       20.559 -23.505  18.045  0.00  0.00    -0.170 OA
ENDBRANCH   4   7
BRANCH   1  11
ATOM     10  C   LIG    1       24.216 -22.266  11.962  0.00  0.00    +0.280 C 
ATOM     11  O   LIG    1       24.016 -23.381  12.832  0.00  0.00    -0.290 OA
ENDBRANCH   1  11
BRANCH   3  12
ATOM     12  O   LIG    1       23.533 -21.754  17.280  0.00  0.00    -0.270 OA
ATOM     13  C   LIG    1       24.882 -22.075  17.628  0.00  0.00    +0.270 C 
ENDBRANCH   3  12
TORSDOF 3
ENDMDL
MODEL 8
REMARK VINA RESULT:    -4.642     14.887     16.018
REMARK INTER + INTRA:          -5.502
REMARK INTER:                  -5.267
REMARK INTRA:                  -0.235
REMARK UNBOUND:                -0.046
REMARK  Name = ZINC000066352334
REMARK                            x       y       z     vdW  Elec       q    Type
REMARK                         _______ _______ _______ _____ _____    ______ ____
ROOT
ATOM      1  C   LIG    1       22.882 -22.022  17.814  0.00  0.00    +0.400 A 
ATOM      2  C   LIG    1       23.399 -22.648  16.690  0.00  0.00    -0.120 A 
ATOM      3  C   LIG    1       22.526 -23.086  15.700  0.00  0.00    +0.260 A 
ATOM      4  C   LIG    1       21.160 -22.876  15.881  0.00  0.00    -0.170 A 
ATOM      5  C   LIG    1       20.722 -22.246  17.028  0.00  0.00    +0.460 A 
ATOM      6  N   LIG    1       21.577 -21.847  17.950  0.00  0.00    -0.550 NA
ENDROOT
BRANCH   4   7
ATOM      7  N   LIG    1       20.190 -23.325  14.857  0.00  0.00    +0.050 N 
ATOM      8  O   LIG    1       19.619 -24.393  14.986  0.00  0.00    -0.140 OA
ATOM      9  O   LIG    1       19.964 -22.627  13.885  0.00  0.00    -0.170 OA
ENDBRANCH   4   7
BRANCH   1  11
ATOM     10  C   LIG    1       25.061 -21.273  18.395  0.00  0.00    +0.280 C 
ATOM     11  O   LIG    1       23.723 -21.589  18.787  0.00  0.00    -0.290 OA
ENDBRANCH   1  11
BRANCH   3  12
ATOM     12  O   LIG    1       22.991 -23.703  14.585  0.00  0.00    -0.270 OA
ATOM     13  C   LIG    1       23.673 -22.888  13.629  0.00  0.00    +0.270 C 
ENDBRANCH   3  12
TORSDOF 3
ENDMDL
MODEL 9
REMARK VINA RESULT:    -4.483     14.950     16.215
REMARK INTER + INTRA:          -5.314
REMARK INTER:                  -5.124
REMARK INTRA:                  -0.190
REMARK UNBOUND:                -0.046
REMARK  Name = ZINC000066352334
REMARK                            x       y       z     vdW  Elec       q    Type
REMARK                         _______ _______ _______ _____ _____    ______ ____
ROOT
ATOM      1  C   LIG    1       24.184 -22.809  16.560  0.00  0.00    +0.400 A 
ATOM      2  C   LIG    1       23.054 -22.569  17.327  0.00  0.00    -0.120 A 
ATOM      3  C   LIG    1       21.799 -22.771  16.762  0.00  0.00    +0.260 A 
ATOM      4  C   LIG    1       21.730 -23.209  15.440  0.00  0.00    -0.170 A 
ATOM      5  C   LIG    1       22.900 -23.426  14.741  0.00  0.00    +0.460 A 
ATOM      6  N   LIG    1       24.074 -23.219  15.306  0.00  0.00    -0.550 NA
ENDROOT
BRANCH   4   7
ATOM      7  N   LIG    1       20.418 -23.438  14.794  0.00  0.00    +0.050 N 
ATOM      8  O   LIG    1       20.003 -22.650  13.963  0.00  0.00    -0.140 OA
ATOM      9  O   LIG    1       19.754 -24.413  15.094  0.00  0.00    -0.170 OA
ENDBRANCH   4   7
BRANCH   1  11
ATOM     10  C   LIG    1       25.499 -21.736  18.222  0.00  0.00    +0.280 C 
ATOM     11  O   LIG    1       25.414 -22.615  17.099  0.00  0.00    -0.290 OA
ENDBRANCH   1  11
BRANCH   3  12
ATOM     12  O   LIG    1       20.669 -22.548  17.479  0.00  0.00    -0.270 OA
ATOM     13  C   LIG    1       20.436 -23.398  18.604  0.00  0.00    +0.270 C 
ENDBRANCH   3  12
TORSDOF 3
ENDMDL
