MODEL 1
REMARK VINA RESULT:    -5.205      0.000      0.000
REMARK INTER + INTRA:          -6.697
REMARK INTER:                  -6.422
REMARK INTRA:                  -0.275
REMARK UNBOUND:                -0.275
REMARK  Name = ZINC000067801361
REMARK                            x       y       z     vdW  Elec       q    Type
REMARK                         _______ _______ _______ _____ _____    ______ ____
ROOT
ATOM      1  N   LIG    1       29.154 -18.634   2.374  0.00  0.00    -0.330 N 
ATOM      2  C   LIG    1       29.253 -18.095   1.141  0.00  0.00    +0.270 A 
ATOM      3  C   LIG    1       28.477 -18.827   0.309  0.00  0.00    -0.030 A 
ATOM      4  C   LIG    1       27.884 -19.848   1.057  0.00  0.00    +0.120 A 
ATOM      5  N   LIG    1       28.294 -19.737   2.295  0.00  0.00    -0.210 NA
ENDROOT
BRANCH   4   6
ATOM      6  N   LIG    1       26.959 -20.880   0.539  0.00  0.00    +0.050 N 
ATOM      7  O   LIG    1       25.936 -21.141   1.147  0.00  0.00    -0.130 OA
ATOM      8  O   LIG    1       27.221 -21.469  -0.494  0.00  0.00    -0.130 OA
ENDBRANCH   4   6
BRANCH   1   9
ATOM      9  C   LIG    1       29.832 -18.154   3.581  0.00  0.00    +0.330 C 
BRANCH   9  10
ATOM     10  C   LIG    1       31.319 -17.952   3.285  0.00  0.00    +0.020 C 
BRANCH  10  12
ATOM     11  C   LIG    1       31.583 -18.760   5.635  0.00  0.00    +0.030 C 
ATOM     12  C   LIG    1       32.150 -18.838   4.215  0.00  0.00    -0.020 C 
ATOM     13  C   LIG    1       32.097 -20.285   3.722  0.00  0.00    +0.020 C 
ENDBRANCH  10  12
ENDBRANCH   9  10
ENDBRANCH   1   9
TORSDOF 4
ENDMDL
MODEL 2
REMARK VINA RESULT:    -5.059     21.045     21.887
REMARK INTER + INTRA:          -6.517
REMARK INTER:                  -6.310
REMARK INTRA:                  -0.207
REMARK UNBOUND:                -0.275
REMARK  Name = ZINC000067801361
REMARK                            x       y       z     vdW  Elec       q    Type
REMARK                         _______ _______ _______ _____ _____    ______ ____
ROOT
ATOM      1  N   LIG    1       24.121  -0.404  10.816  0.00  0.00    -0.330 N 
ATOM      2  C   LIG    1       23.482  -1.195   9.929  0.00  0.00    +0.270 A 
ATOM      3  C   LIG    1       23.772  -0.739   8.688  0.00  0.00    -0.030 A 
ATOM      4  C   LIG    1       24.616   0.368   8.821  0.00  0.00    +0.120 A 
ATOM      5  N   LIG    1       24.821   0.574  10.097  0.00  0.00    -0.210 NA
ENDROOT
BRANCH   4   6
ATOM      6  N   LIG    1       25.174   1.172   7.711  0.00  0.00    +0.050 N 
ATOM      7  O   LIG    1       25.375   0.655   6.626  0.00  0.00    -0.130 OA
ATOM      8  O   LIG    1       25.434   2.349   7.883  0.00  0.00    -0.130 OA
ENDBRANCH   4   6
BRANCH   1   9
ATOM      9  C   LIG    1       24.083  -0.539  12.274  0.00  0.00    +0.330 C 
BRANCH   9  10
ATOM     10  C   LIG    1       23.027  -1.575  12.664  0.00  0.00    +0.020 C 
BRANCH  10  12
ATOM     11  C   LIG    1       24.413  -1.220  14.713  0.00  0.00    +0.030 C 
ATOM     12  C   LIG    1       23.188  -1.938  14.142  0.00  0.00    -0.020 C 
ATOM     13  C   LIG    1       21.938  -1.506  14.912  0.00  0.00    +0.020 C 
ENDBRANCH  10  12
ENDBRANCH   9  10
ENDBRANCH   1   9
TORSDOF 4
ENDMDL
MODEL 3
REMARK VINA RESULT:    -5.017      1.852      2.447
REMARK INTER + INTRA:          -6.465
REMARK INTER:                  -6.138
REMARK INTRA:                  -0.328
REMARK UNBOUND:                -0.275
REMARK  Name = ZINC000067801361
REMARK                            x       y       z     vdW  Elec       q    Type
REMARK                         _______ _______ _______ _____ _____    ______ ____
ROOT
ATOM      1  N   LIG    1       29.063 -18.259   1.202  0.00  0.00    -0.330 N 
ATOM      2  C   LIG    1       28.884 -18.815   2.418  0.00  0.00    +0.270 A 
ATOM      3  C   LIG    1       28.077 -19.891   2.265  0.00  0.00    -0.030 A 
ATOM      4  C   LIG    1       27.751 -19.996   0.909  0.00  0.00    +0.120 A 
ATOM      5  N   LIG    1       28.336 -19.015   0.271  0.00  0.00    -0.210 NA
ENDROOT
BRANCH   4   6
ATOM      6  N   LIG    1       26.887 -21.033   0.302  0.00  0.00    +0.050 N 
ATOM      7  O   LIG    1       25.783 -21.254   0.767  0.00  0.00    -0.130 OA
ATOM      8  O   LIG    1       27.280 -21.665  -0.662  0.00  0.00    -0.130 OA
ENDBRANCH   4   6
BRANCH   1   9
ATOM      9  C   LIG    1       29.868 -17.072   0.907  0.00  0.00    +0.330 C 
BRANCH   9  10
ATOM     10  C   LIG    1       30.765 -16.753   2.104  0.00  0.00    +0.020 C 
BRANCH  10  12
ATOM     11  C   LIG    1       32.665 -18.357   1.860  0.00  0.00    +0.030 C 
ATOM     12  C   LIG    1       32.232 -16.899   1.697  0.00  0.00    -0.020 C 
ATOM     13  C   LIG    1       32.400 -16.477   0.235  0.00  0.00    +0.020 C 
ENDBRANCH  10  12
ENDBRANCH   9  10
ENDBRANCH   1   9
TORSDOF 4
ENDMDL
MODEL 4
REMARK VINA RESULT:    -4.993      1.231      1.800
REMARK INTER + INTRA:          -6.436
REMARK INTER:                  -6.089
REMARK INTRA:                  -0.347
REMARK UNBOUND:                -0.275
REMARK  Name = ZINC000067801361
REMARK                            x       y       z     vdW  Elec       q    Type
REMARK                         _______ _______ _______ _____ _____    ______ ____
ROOT
ATOM      1  N   LIG    1       28.955 -18.854   2.520  0.00  0.00    -0.330 N 
ATOM      2  C   LIG    1       28.547 -19.697   3.492  0.00  0.00    +0.270 A 
ATOM      3  C   LIG    1       27.698 -20.590   2.933  0.00  0.00    -0.030 A 
ATOM      4  C   LIG    1       27.583 -20.284   1.573  0.00  0.00    +0.120 A 
ATOM      5  N   LIG    1       28.331 -19.239   1.326  0.00  0.00    -0.210 NA
ENDROOT
BRANCH   4   6
ATOM      6  N   LIG    1       26.753 -21.010   0.587  0.00  0.00    +0.050 N 
ATOM      7  O   LIG    1       25.577 -21.225   0.822  0.00  0.00    -0.130 OA
ATOM      8  O   LIG    1       27.245 -21.393  -0.459  0.00  0.00    -0.130 OA
ENDBRANCH   4   6
BRANCH   1   9
ATOM      9  C   LIG    1       29.881 -17.732   2.686  0.00  0.00    +0.330 C 
BRANCH   9  10
ATOM     10  C   LIG    1       31.151 -18.217   3.388  0.00  0.00    +0.020 C 
BRANCH  10  12
ATOM     11  C   LIG    1       33.257 -18.304   2.046  0.00  0.00    +0.030 C 
ATOM     12  C   LIG    1       31.980 -19.061   2.418  0.00  0.00    -0.020 C 
ATOM     13  C   LIG    1       32.348 -20.388   3.084  0.00  0.00    +0.020 C 
ENDBRANCH  10  12
ENDBRANCH   9  10
ENDBRANCH   1   9
TORSDOF 4
ENDMDL
MODEL 5
REMARK VINA RESULT:    -4.875     13.697     14.711
REMARK INTER + INTRA:          -6.290
REMARK INTER:                  -6.067
REMARK INTRA:                  -0.223
REMARK UNBOUND:                -0.275
REMARK  Name = ZINC000067801361
REMARK                            x       y       z     vdW  Elec       q    Type
REMARK                         _______ _______ _______ _____ _____    ______ ____
ROOT
ATOM      1  N   LIG    1       24.966  -5.931   0.334  0.00  0.00    -0.330 N 
ATOM      2  C   LIG    1       24.692  -6.170   1.633  0.00  0.00    +0.270 A 
ATOM      3  C   LIG    1       23.608  -5.434   1.968  0.00  0.00    -0.030 A 
ATOM      4  C   LIG    1       23.205  -4.720   0.835  0.00  0.00    +0.120 A 
ATOM      5  N   LIG    1       24.022  -5.012  -0.144  0.00  0.00    -0.210 NA
ENDROOT
BRANCH   4   6
ATOM      6  N   LIG    1       22.057  -3.789   0.759  0.00  0.00    +0.050 N 
ATOM      7  O   LIG    1       21.546  -3.367   1.781  0.00  0.00    -0.130 OA
ATOM      8  O   LIG    1       21.623  -3.445  -0.326  0.00  0.00    -0.130 OA
ENDBRANCH   4   6
BRANCH   1   9
ATOM      9  C   LIG    1       26.061  -6.522  -0.439  0.00  0.00    +0.330 C 
BRANCH   9  10
ATOM     10  C   LIG    1       25.747  -7.992  -0.727  0.00  0.00    +0.020 C 
BRANCH  10  12
ATOM     11  C   LIG    1       26.521 -10.338  -0.353  0.00  0.00    +0.030 C 
ATOM     12  C   LIG    1       26.676  -8.884   0.098  0.00  0.00    -0.020 C 
ATOM     13  C   LIG    1       28.125  -8.438  -0.105  0.00  0.00    +0.020 C 
ENDBRANCH  10  12
ENDBRANCH   9  10
ENDBRANCH   1   9
TORSDOF 4
ENDMDL
MODEL 6
REMARK VINA RESULT:    -4.731     12.722     13.868
REMARK INTER + INTRA:          -6.112
REMARK INTER:                  -5.772
REMARK INTRA:                  -0.341
REMARK UNBOUND:                -0.275
REMARK  Name = ZINC000067801361
REMARK                            x       y       z     vdW  Elec       q    Type
REMARK                         _______ _______ _______ _____ _____    ______ ____
ROOT
ATOM      1  N   LIG    1       25.848  -6.992   0.466  0.00  0.00    -0.330 N 
ATOM      2  C   LIG    1       25.484  -6.290  -0.626  0.00  0.00    +0.270 A 
ATOM      3  C   LIG    1       24.560  -5.379  -0.242  0.00  0.00    -0.030 A 
ATOM      4  C   LIG    1       24.351  -5.530   1.133  0.00  0.00    +0.120 A 
ATOM      5  N   LIG    1       25.119  -6.501   1.558  0.00  0.00    -0.210 NA
ENDROOT
BRANCH   4   6
ATOM      6  N   LIG    1       23.419  -4.735   1.962  0.00  0.00    +0.050 N 
ATOM      7  O   LIG    1       22.449  -4.205   1.450  0.00  0.00    -0.130 OA
ATOM      8  O   LIG    1       23.622  -4.608   3.156  0.00  0.00    -0.130 OA
ENDBRANCH   4   6
BRANCH   1   9
ATOM      9  C   LIG    1       26.828  -8.080   0.505  0.00  0.00    +0.330 C 
BRANCH   9  10
ATOM     10  C   LIG    1       27.428  -8.276  -0.889  0.00  0.00    +0.020 C 
BRANCH  10  12
ATOM     11  C   LIG    1       26.512 -10.517  -0.269  0.00  0.00    +0.030 C 
ATOM     12  C   LIG    1       27.050  -9.662  -1.418  0.00  0.00    -0.020 C 
ATOM     13  C   LIG    1       25.974  -9.520  -2.496  0.00  0.00    +0.020 C 
ENDBRANCH  10  12
ENDBRANCH   9  10
ENDBRANCH   1   9
TORSDOF 4
ENDMDL
MODEL 7
REMARK VINA RESULT:    -4.603     23.735     24.274
REMARK INTER + INTRA:          -5.955
REMARK INTER:                  -5.766
REMARK INTRA:                  -0.189
REMARK UNBOUND:                -0.275
REMARK  Name = ZINC000067801361
REMARK                            x       y       z     vdW  Elec       q    Type
REMARK                         _______ _______ _______ _____ _____    ______ ____
ROOT
ATOM      1  N   LIG    1       15.840 -11.811  21.097  0.00  0.00    -0.330 N 
ATOM      2  C   LIG    1       17.005 -11.427  20.536  0.00  0.00    +0.270 A 
ATOM      3  C   LIG    1       16.724 -10.478  19.613  0.00  0.00    -0.030 A 
ATOM      4  C   LIG    1       15.341 -10.274  19.610  0.00  0.00    +0.120 A 
ATOM      5  N   LIG    1       14.808 -11.078  20.495  0.00  0.00    -0.210 NA
ENDROOT
BRANCH   4   6
ATOM      6  N   LIG    1       14.605  -9.322  18.749  0.00  0.00    +0.050 N 
ATOM      7  O   LIG    1       15.164  -8.324  18.329  0.00  0.00    -0.130 OA
ATOM      8  O   LIG    1       13.442  -9.535  18.461  0.00  0.00    -0.130 OA
ENDBRANCH   4   6
BRANCH   1   9
ATOM      9  C   LIG    1       15.680 -12.820  22.147  0.00  0.00    +0.330 C 
BRANCH   9  10
ATOM     10  C   LIG    1       16.784 -13.871  22.017  0.00  0.00    +0.020 C 
BRANCH  10  12
ATOM     11  C   LIG    1       16.098 -16.127  21.192  0.00  0.00    +0.030 C 
ATOM     12  C   LIG    1       16.238 -15.239  22.430  0.00  0.00    -0.020 C 
ATOM     13  C   LIG    1       17.202 -15.894  23.421  0.00  0.00    +0.020 C 
ENDBRANCH  10  12
ENDBRANCH   9  10
ENDBRANCH   1   9
TORSDOF 4
ENDMDL
MODEL 8
REMARK VINA RESULT:    -4.583      3.800      5.729
REMARK INTER + INTRA:          -5.931
REMARK INTER:                  -5.676
REMARK INTRA:                  -0.255
REMARK UNBOUND:                -0.275
REMARK  Name = ZINC000067801361
REMARK                            x       y       z     vdW  Elec       q    Type
REMARK                         _______ _______ _______ _____ _____    ______ ____
ROOT
ATOM      1  N   LIG    1       30.125 -19.420   3.424  0.00  0.00    -0.330 N 
ATOM      2  C   LIG    1       30.422 -19.258   4.730  0.00  0.00    +0.270 A 
ATOM      3  C   LIG    1       31.563 -18.534   4.805  0.00  0.00    -0.030 A 
ATOM      4  C   LIG    1       31.977 -18.244   3.501  0.00  0.00    +0.120 A 
ATOM      5  N   LIG    1       31.118 -18.780   2.672  0.00  0.00    -0.210 NA
ENDROOT
BRANCH   4   6
ATOM      6  N   LIG    1       33.182 -17.471   3.124  0.00  0.00    +0.050 N 
ATOM      7  O   LIG    1       33.751 -17.706   2.073  0.00  0.00    -0.130 OA
ATOM      8  O   LIG    1       33.604 -16.602   3.865  0.00  0.00    -0.130 OA
ENDBRANCH   4   6
BRANCH   1   9
ATOM      9  C   LIG    1       28.970 -20.143   2.887  0.00  0.00    +0.330 C 
BRANCH   9  10
ATOM     10  C   LIG    1       28.315 -19.311   1.783  0.00  0.00    +0.020 C 
BRANCH  10  12
ATOM     11  C   LIG    1       28.966 -21.380   0.542  0.00  0.00    +0.030 C 
ATOM     12  C   LIG    1       27.977 -20.214   0.595  0.00  0.00    -0.020 C 
ATOM     13  C   LIG    1       26.555 -20.758   0.757  0.00  0.00    +0.020 C 
ENDBRANCH  10  12
ENDBRANCH   9  10
ENDBRANCH   1   9
TORSDOF 4
ENDMDL
MODEL 9
REMARK VINA RESULT:    -4.472      3.891      5.519
REMARK INTER + INTRA:          -5.793
REMARK INTER:                  -5.568
REMARK INTRA:                  -0.226
REMARK UNBOUND:                -0.275
REMARK  Name = ZINC000067801361
REMARK                            x       y       z     vdW  Elec       q    Type
REMARK                         _______ _______ _______ _____ _____    ______ ____
ROOT
ATOM      1  N   LIG    1       30.296 -19.288   4.078  0.00  0.00    -0.330 N 
ATOM      2  C   LIG    1       31.019 -18.458   4.857  0.00  0.00    +0.270 A 
ATOM      3  C   LIG    1       32.019 -19.181   5.413  0.00  0.00    -0.030 A 
ATOM      4  C   LIG    1       31.902 -20.499   4.959  0.00  0.00    +0.120 A 
ATOM      5  N   LIG    1       30.866 -20.566   4.163  0.00  0.00    -0.210 NA
ENDROOT
BRANCH   4   6
ATOM      6  N   LIG    1       32.792 -21.624   5.322  0.00  0.00    +0.050 N 
ATOM      7  O   LIG    1       33.292 -21.671   6.432  0.00  0.00    -0.130 OA
ATOM      8  O   LIG    1       33.027 -22.501   4.510  0.00  0.00    -0.130 OA
ENDBRANCH   4   6
BRANCH   1   9
ATOM      9  C   LIG    1       29.119 -18.921   3.287  0.00  0.00    +0.330 C 
BRANCH   9  10
ATOM     10  C   LIG    1       29.561 -18.169   2.031  0.00  0.00    +0.020 C 
BRANCH  10  12
ATOM     11  C   LIG    1       28.916 -17.633  -0.323  0.00  0.00    +0.030 C 
ATOM     12  C   LIG    1       28.688 -18.591   0.848  0.00  0.00    -0.020 C 
ATOM     13  C   LIG    1       29.058 -20.014   0.423  0.00  0.00    +0.020 C 
ENDBRANCH  10  12
ENDBRANCH   9  10
ENDBRANCH   1   9
TORSDOF 4
ENDMDL
