MODEL 1
REMARK VINA RESULT:    -5.839      0.000      0.000
REMARK INTER + INTRA:          -6.277
REMARK INTER:                  -6.181
REMARK INTRA:                  -0.096
REMARK UNBOUND:                -0.096
REMARK  Name = ZINC000038338980
REMARK                            x       y       z     vdW  Elec       q    Type
REMARK                         _______ _______ _______ _____ _____    ______ ____
ROOT
ATOM      1  C   LIG    1       27.978 -20.411   2.445  0.00  0.00    +0.030 A 
ATOM      2  C   LIG    1       27.848 -20.085   1.131  0.00  0.00    +0.050 A 
ATOM      3  C   LIG    1       28.465 -18.956   0.590  0.00  0.00    +0.060 A 
ATOM      4  C   LIG    1       29.226 -18.126   1.350  0.00  0.00    +0.180 A 
ATOM      5  C   LIG    1       29.401 -18.404   2.717  0.00  0.00    +0.030 A 
ATOM      6  N   LIG    1       30.043 -17.851   3.733  0.00  0.00    -0.240 NA
ATOM      7  N   LIG    1       29.844 -18.563   4.788  0.00  0.00    -0.170 N 
ATOM      8  H   LIG    1       30.218 -18.350   5.658  0.00  0.00    +0.480 HD
ATOM      9  N   LIG    1       29.096 -19.587   4.565  0.00  0.00    -0.250 NA
ATOM     10 CL   LIG    1       26.889 -21.101   0.099  0.00  0.00    -0.010 Cl
ATOM     11  C   LIG    1       28.747 -19.590   3.288  0.00  0.00    +0.050 A 
ENDROOT
BRANCH   1  13
ATOM     12  O   LIG    1       27.958 -22.623   3.210  0.00  0.00    -0.120 OA
ATOM     13  N   LIG    1       27.309 -21.617   2.984  0.00  0.00    +0.020 N 
ATOM     14  O   LIG    1       26.113 -21.601   3.208  0.00  0.00    -0.120 OA
ENDBRANCH   1  13
TORSDOF 1
ENDMDL
MODEL 2
REMARK VINA RESULT:    -5.771      3.730      4.725
REMARK INTER + INTRA:          -6.205
REMARK INTER:                  -6.061
REMARK INTRA:                  -0.144
REMARK UNBOUND:                -0.096
REMARK  Name = ZINC000038338980
REMARK                            x       y       z     vdW  Elec       q    Type
REMARK                         _______ _______ _______ _____ _____    ______ ____
ROOT
ATOM      1  C   LIG    1       28.884 -18.624   1.063  0.00  0.00    +0.030 A 
ATOM      2  C   LIG    1       29.403 -18.373   2.295  0.00  0.00    +0.050 A 
ATOM      3  C   LIG    1       28.996 -19.089   3.422  0.00  0.00    +0.060 A 
ATOM      4  C   LIG    1       28.061 -20.071   3.345  0.00  0.00    +0.180 A 
ATOM      5  C   LIG    1       27.483 -20.381   2.101  0.00  0.00    +0.030 A 
ATOM      6  N   LIG    1       26.579 -21.236   1.650  0.00  0.00    -0.240 NA
ATOM      7  N   LIG    1       26.443 -21.066   0.381  0.00  0.00    -0.170 N 
ATOM      8  H   LIG    1       25.832 -21.584  -0.168  0.00  0.00    +0.480 HD
ATOM      9  N   LIG    1       27.204 -20.137  -0.083  0.00  0.00    -0.250 NA
ATOM     10 CL   LIG    1       30.604 -17.131   2.469  0.00  0.00    -0.010 Cl
ATOM     11  C   LIG    1       27.907 -19.624   0.914  0.00  0.00    +0.050 A 
ENDROOT
BRANCH   1  13
ATOM     12  O   LIG    1       28.705 -16.872  -0.479  0.00  0.00    -0.120 OA
ATOM     13  N   LIG    1       29.339 -17.845  -0.111  0.00  0.00    +0.020 N 
ATOM     14  O   LIG    1       30.350 -18.174  -0.705  0.00  0.00    -0.120 OA
ENDBRANCH   1  13
TORSDOF 1
ENDMDL
MODEL 3
REMARK VINA RESULT:    -5.706     14.694     15.479
REMARK INTER + INTRA:          -6.136
REMARK INTER:                  -5.999
REMARK INTRA:                  -0.138
REMARK UNBOUND:                -0.096
REMARK  Name = ZINC000038338980
REMARK                            x       y       z     vdW  Elec       q    Type
REMARK                         _______ _______ _______ _____ _____    ______ ____
ROOT
ATOM      1  C   LIG    1       21.694 -22.782  15.662  0.00  0.00    +0.030 A 
ATOM      2  C   LIG    1       22.952 -22.902  15.159  0.00  0.00    +0.050 A 
ATOM      3  C   LIG    1       24.069 -22.438  15.856  0.00  0.00    +0.060 A 
ATOM      4  C   LIG    1       23.954 -21.840  17.070  0.00  0.00    +0.180 A 
ATOM      5  C   LIG    1       22.682 -21.682  17.648  0.00  0.00    +0.030 A 
ATOM      6  N   LIG    1       22.193 -21.172  18.767  0.00  0.00    -0.240 NA
ATOM      7  N   LIG    1       20.913 -21.307  18.761  0.00  0.00    -0.170 N 
ATOM      8  H   LIG    1       20.338 -21.005  19.482  0.00  0.00    +0.480 HD
ATOM      9  N   LIG    1       20.477 -21.887  17.697  0.00  0.00    -0.250 NA
ATOM     10 CL   LIG    1       23.174 -23.656  13.611  0.00  0.00    -0.010 Cl
ATOM     11  C   LIG    1       21.505 -22.167  16.912  0.00  0.00    +0.050 A 
ENDROOT
BRANCH   1  13
ATOM     12  O   LIG    1       20.067 -24.383  15.147  0.00  0.00    -0.120 OA
ATOM     13  N   LIG    1       20.532 -23.286  14.895  0.00  0.00    +0.020 N 
ATOM     14  O   LIG    1       20.039 -22.602  14.017  0.00  0.00    -0.120 OA
ENDBRANCH   1  13
TORSDOF 1
ENDMDL
MODEL 4
REMARK VINA RESULT:    -5.337      2.339      3.003
REMARK INTER + INTRA:          -5.745
REMARK INTER:                  -5.587
REMARK INTRA:                  -0.158
REMARK UNBOUND:                -0.096
REMARK  Name = ZINC000038338980
REMARK                            x       y       z     vdW  Elec       q    Type
REMARK                         _______ _______ _______ _____ _____    ______ ____
ROOT
ATOM      1  C   LIG    1       29.308 -18.918   2.899  0.00  0.00    +0.030 A 
ATOM      2  C   LIG    1       28.347 -19.587   2.207  0.00  0.00    +0.050 A 
ATOM      3  C   LIG    1       28.059 -19.287   0.874  0.00  0.00    +0.060 A 
ATOM      4  C   LIG    1       28.722 -18.311   0.203  0.00  0.00    +0.180 A 
ATOM      5  C   LIG    1       29.728 -17.579   0.860  0.00  0.00    +0.030 A 
ATOM      6  N   LIG    1       30.556 -16.595   0.548  0.00  0.00    -0.240 NA
ATOM      7  N   LIG    1       31.279 -16.318   1.577  0.00  0.00    -0.170 N 
ATOM      8  H   LIG    1       31.960 -15.627   1.585  0.00  0.00    +0.480 HD
ATOM      9  N   LIG    1       31.001 -17.056   2.595  0.00  0.00    -0.250 NA
ATOM     10 CL   LIG    1       27.458 -20.849   3.002  0.00  0.00    -0.010 Cl
ATOM     11  C   LIG    1       30.029 -17.891   2.264  0.00  0.00    +0.050 A 
ENDROOT
BRANCH   1  13
ATOM     12  O   LIG    1       30.406 -20.126   4.576  0.00  0.00    -0.120 OA
ATOM     13  N   LIG    1       29.588 -19.263   4.311  0.00  0.00    +0.020 N 
ATOM     14  O   LIG    1       29.005 -18.681   5.207  0.00  0.00    -0.120 OA
ENDBRANCH   1  13
TORSDOF 1
ENDMDL
MODEL 5
REMARK VINA RESULT:    -5.226     24.080     24.704
REMARK INTER + INTRA:          -5.628
REMARK INTER:                  -5.472
REMARK INTRA:                  -0.155
REMARK UNBOUND:                -0.096
REMARK  Name = ZINC000038338980
REMARK                            x       y       z     vdW  Elec       q    Type
REMARK                         _______ _______ _______ _____ _____    ______ ____
ROOT
ATOM      1  C   LIG    1       15.114 -11.623  21.504  0.00  0.00    +0.030 A 
ATOM      2  C   LIG    1       14.173 -11.411  22.463  0.00  0.00    +0.050 A 
ATOM      3  C   LIG    1       13.356 -10.279  22.453  0.00  0.00    +0.060 A 
ATOM      4  C   LIG    1       13.462  -9.332  21.486  0.00  0.00    +0.180 A 
ATOM      5  C   LIG    1       14.416  -9.487  20.465  0.00  0.00    +0.030 A 
ATOM      6  N   LIG    1       14.798  -8.805  19.397  0.00  0.00    -0.240 NA
ATOM      7  N   LIG    1       15.748  -9.447  18.810  0.00  0.00    -0.170 N 
ATOM      8  H   LIG    1       16.186  -9.137  18.003  0.00  0.00    +0.480 HD
ATOM      9  N   LIG    1       16.052 -10.545  19.410  0.00  0.00    -0.250 NA
ATOM     10 CL   LIG    1       13.982 -12.582  23.731  0.00  0.00    -0.010 Cl
ATOM     11  C   LIG    1       15.280 -10.677  20.477  0.00  0.00    +0.050 A 
ENDROOT
BRANCH   1  13
ATOM     12  O   LIG    1       15.580 -13.865  21.019  0.00  0.00    -0.120 OA
ATOM     13  N   LIG    1       15.963 -12.835  21.545  0.00  0.00    +0.020 N 
ATOM     14  O   LIG    1       17.046 -12.801  22.101  0.00  0.00    -0.120 OA
ENDBRANCH   1  13
TORSDOF 1
ENDMDL
MODEL 6
REMARK VINA RESULT:    -5.046     15.096     15.966
REMARK INTER + INTRA:          -5.437
REMARK INTER:                  -5.290
REMARK INTRA:                  -0.148
REMARK UNBOUND:                -0.096
REMARK  Name = ZINC000038338980
REMARK                            x       y       z     vdW  Elec       q    Type
REMARK                         _______ _______ _______ _____ _____    ______ ____
ROOT
ATOM      1  C   LIG    1       21.810 -22.582  17.102  0.00  0.00    +0.030 A 
ATOM      2  C   LIG    1       23.133 -22.626  17.417  0.00  0.00    +0.050 A 
ATOM      3  C   LIG    1       24.108 -22.899  16.455  0.00  0.00    +0.060 A 
ATOM      4  C   LIG    1       23.783 -23.137  15.158  0.00  0.00    +0.180 A 
ATOM      5  C   LIG    1       22.434 -23.108  14.765  0.00  0.00    +0.030 A 
ATOM      6  N   LIG    1       21.759 -23.282  13.640  0.00  0.00    -0.240 NA
ATOM      7  N   LIG    1       20.503 -23.131  13.880  0.00  0.00    -0.170 N 
ATOM      8  H   LIG    1       19.813 -23.213  13.203  0.00  0.00    +0.480 HD
ATOM      9  N   LIG    1       20.261 -22.860  15.115  0.00  0.00    -0.250 NA
ATOM     10 CL   LIG    1       23.621 -22.333  19.057  0.00  0.00    -0.010 Cl
ATOM     11  C   LIG    1       21.407 -22.824  15.777  0.00  0.00    +0.050 A 
ENDROOT
BRANCH   1  13
ATOM     12  O   LIG    1       20.371 -23.188  18.845  0.00  0.00    -0.120 OA
ATOM     13  N   LIG    1       20.804 -22.288  18.147  0.00  0.00    +0.020 N 
ATOM     14  O   LIG    1       20.413 -21.147  18.312  0.00  0.00    -0.120 OA
ENDBRANCH   1  13
TORSDOF 1
ENDMDL
MODEL 7
REMARK VINA RESULT:    -5.011     23.770     24.468
REMARK INTER + INTRA:          -5.400
REMARK INTER:                  -5.266
REMARK INTRA:                  -0.134
REMARK UNBOUND:                -0.096
REMARK  Name = ZINC000038338980
REMARK                            x       y       z     vdW  Elec       q    Type
REMARK                         _______ _______ _______ _____ _____    ______ ____
ROOT
ATOM      1  C   LIG    1       14.792 -10.659  19.871  0.00  0.00    +0.030 A 
ATOM      2  C   LIG    1       15.856 -11.283  20.445  0.00  0.00    +0.050 A 
ATOM      3  C   LIG    1       15.703 -12.443  21.207  0.00  0.00    +0.060 A 
ATOM      4  C   LIG    1       14.484 -13.005  21.414  0.00  0.00    +0.180 A 
ATOM      5  C   LIG    1       13.342 -12.410  20.850  0.00  0.00    +0.030 A 
ATOM      6  N   LIG    1       12.041 -12.656  20.832  0.00  0.00    -0.240 NA
ATOM      7  N   LIG    1       11.455 -11.747  20.134  0.00  0.00    -0.170 N 
ATOM      8  H   LIG    1       10.497 -11.722  19.981  0.00  0.00    +0.480 HD
ATOM      9  N   LIG    1       12.276 -10.875  19.660  0.00  0.00    -0.250 NA
ATOM     10 CL   LIG    1       17.445 -10.620  20.223  0.00  0.00    -0.010 Cl
ATOM     11  C   LIG    1       13.501 -11.186  20.052  0.00  0.00    +0.050 A 
ENDROOT
BRANCH   1  13
ATOM     12  O   LIG    1       15.049  -9.499  17.854  0.00  0.00    -0.120 OA
ATOM     13  N   LIG    1       14.991  -9.431  19.069  0.00  0.00    +0.020 N 
ATOM     14  O   LIG    1       15.092  -8.351  19.624  0.00  0.00    -0.120 OA
ENDBRANCH   1  13
TORSDOF 1
ENDMDL
MODEL 8
REMARK VINA RESULT:    -4.997     21.819     22.677
REMARK INTER + INTRA:          -5.386
REMARK INTER:                  -5.230
REMARK INTRA:                  -0.156
REMARK UNBOUND:                -0.096
REMARK  Name = ZINC000038338980
REMARK                            x       y       z     vdW  Elec       q    Type
REMARK                         _______ _______ _______ _____ _____    ______ ____
ROOT
ATOM      1  C   LIG    1       24.002  -0.257  13.263  0.00  0.00    +0.030 A 
ATOM      2  C   LIG    1       23.005  -1.163  13.076  0.00  0.00    +0.050 A 
ATOM      3  C   LIG    1       22.720  -1.691  11.816  0.00  0.00    +0.060 A 
ATOM      4  C   LIG    1       23.423  -1.326  10.713  0.00  0.00    +0.180 A 
ATOM      5  C   LIG    1       24.467  -0.392  10.835  0.00  0.00    +0.030 A 
ATOM      6  N   LIG    1       25.338   0.184  10.022  0.00  0.00    -0.240 NA
ATOM      7  N   LIG    1       26.082   0.981  10.707  0.00  0.00    -0.170 N 
ATOM      8  H   LIG    1       26.795   1.515  10.321  0.00  0.00    +0.480 HD
ATOM      9  N   LIG    1       25.778   0.996  11.958  0.00  0.00    -0.250 NA
ATOM     10 CL   LIG    1       22.064  -1.676  14.442  0.00  0.00    -0.010 Cl
ATOM     11  C   LIG    1       24.765   0.169  12.161  0.00  0.00    +0.050 A 
ENDROOT
BRANCH   1  13
ATOM     12  O   LIG    1       25.035  -0.307  15.362  0.00  0.00    -0.120 OA
ATOM     13  N   LIG    1       24.277   0.283  14.614  0.00  0.00    +0.020 N 
ATOM     14  O   LIG    1       23.750   1.320  14.974  0.00  0.00    -0.120 OA
ENDBRANCH   1  13
TORSDOF 1
ENDMDL
MODEL 9
REMARK VINA RESULT:    -4.971     23.842     24.489
REMARK INTER + INTRA:          -5.358
REMARK INTER:                  -5.209
REMARK INTRA:                  -0.149
REMARK UNBOUND:                -0.096
REMARK  Name = ZINC000038338980
REMARK                            x       y       z     vdW  Elec       q    Type
REMARK                         _______ _______ _______ _____ _____    ______ ____
ROOT
ATOM      1  C   LIG    1       14.445 -10.526  20.323  0.00  0.00    +0.030 A 
ATOM      2  C   LIG    1       15.502 -10.111  19.575  0.00  0.00    +0.050 A 
ATOM      3  C   LIG    1       16.774 -10.667  19.730  0.00  0.00    +0.060 A 
ATOM      4  C   LIG    1       17.018 -11.648  20.636  0.00  0.00    +0.180 A 
ATOM      5  C   LIG    1       15.969 -12.123  21.444  0.00  0.00    +0.030 A 
ATOM      6  N   LIG    1       15.828 -13.029  22.398  0.00  0.00    -0.240 NA
ATOM      7  N   LIG    1       14.601 -13.033  22.789  0.00  0.00    -0.170 N 
ATOM      8  H   LIG    1       14.261 -13.619  23.483  0.00  0.00    +0.480 HD
ATOM      9  N   LIG    1       13.874 -12.177  22.160  0.00  0.00    -0.250 NA
ATOM     10 CL   LIG    1       15.264  -8.860  18.396  0.00  0.00    -0.010 Cl
ATOM     11  C   LIG    1       14.632 -11.535  21.285  0.00  0.00    +0.050 A 
ENDROOT
BRANCH   1  13
ATOM     12  O   LIG    1       12.762  -8.981  20.833  0.00  0.00    -0.120 OA
ATOM     13  N   LIG    1       13.110  -9.915  20.132  0.00  0.00    +0.020 N 
ATOM     14  O   LIG    1       12.363 -10.341  19.271  0.00  0.00    -0.120 OA
ENDBRANCH   1  13
TORSDOF 1
ENDMDL
