MODEL 1
REMARK VINA RESULT:    -5.668      0.000      0.000
REMARK INTER + INTRA:          -6.109
REMARK INTER:                  -6.000
REMARK INTRA:                  -0.109
REMARK UNBOUND:                -0.109
REMARK  Name = ZINC000238502439
REMARK                            x       y       z     vdW  Elec       q    Type
REMARK                         _______ _______ _______ _____ _____    ______ ____
ROOT
ATOM      1  C   LIG    1       29.799 -18.824   5.900  0.00  0.00    +0.170 C 
ATOM      2  C   LIG    1       29.520 -18.729   4.422  0.00  0.00    +0.120 A 
ATOM      3  C   LIG    1       28.748 -19.580   3.727  0.00  0.00    -0.020 A 
ATOM      4  C   LIG    1       28.752 -19.119   2.338  0.00  0.00    -0.100 A 
ATOM      5  C   LIG    1       28.153 -19.568   1.159  0.00  0.00    +0.040 A 
ATOM      6  C   LIG    1       28.389 -18.857  -0.002  0.00  0.00    +0.050 A 
ATOM      7  C   LIG    1       29.202 -17.735   0.040  0.00  0.00    +0.330 A 
ATOM      8  N   LIG    1       29.757 -17.328   1.163  0.00  0.00    -0.450 NA
ATOM      9  C   LIG    1       29.566 -17.971   2.307  0.00  0.00    +0.300 A 
ATOM     10  N   LIG    1       30.011 -17.759   3.590  0.00  0.00    -0.570 N 
ATOM     11  H   LIG    1       30.590 -17.031   3.864  0.00  0.00    +0.430 HD
ENDROOT
BRANCH   5  12
ATOM     12  N   LIG    1       27.290 -20.771   1.154  0.00  0.00    +0.030 N 
ATOM     13  O   LIG    1       26.101 -20.669   1.393  0.00  0.00    -0.140 OA
ATOM     14  O   LIG    1       27.771 -21.864   0.912  0.00  0.00    -0.160 OA
ENDBRANCH   5  12
TORSDOF 1
ENDMDL
MODEL 2
REMARK VINA RESULT:    -5.147     15.201     16.060
REMARK INTER + INTRA:          -5.558
REMARK INTER:                  -5.455
REMARK INTRA:                  -0.103
REMARK UNBOUND:                -0.109
REMARK  Name = ZINC000238502439
REMARK                            x       y       z     vdW  Elec       q    Type
REMARK                         _______ _______ _______ _____ _____    ______ ____
ROOT
ATOM      1  C   LIG    1       26.034 -23.822  16.511  0.00  0.00    +0.170 C 
ATOM      2  C   LIG    1       24.615 -23.585  16.062  0.00  0.00    +0.120 A 
ATOM      3  C   LIG    1       23.602 -23.224  16.866  0.00  0.00    -0.020 A 
ATOM      4  C   LIG    1       22.411 -23.105  16.023  0.00  0.00    -0.100 A 
ATOM      5  C   LIG    1       21.077 -22.769  16.261  0.00  0.00    +0.040 A 
ATOM      6  C   LIG    1       20.208 -22.760  15.186  0.00  0.00    +0.050 A 
ATOM      7  C   LIG    1       20.682 -23.080  13.924  0.00  0.00    +0.330 A 
ATOM      8  N   LIG    1       21.945 -23.394  13.721  0.00  0.00    -0.450 NA
ATOM      9  C   LIG    1       22.824 -23.419  14.714  0.00  0.00    +0.300 A 
ATOM     10  N   LIG    1       24.168 -23.700  14.773  0.00  0.00    -0.570 N 
ATOM     11  H   LIG    1       24.718 -23.945  14.013  0.00  0.00    +0.430 HD
ENDROOT
BRANCH   5  12
ATOM     12  N   LIG    1       20.608 -22.432  17.624  0.00  0.00    +0.030 N 
ATOM     13  O   LIG    1       20.420 -21.270  17.934  0.00  0.00    -0.140 OA
ATOM     14  O   LIG    1       20.411 -23.319  18.436  0.00  0.00    -0.160 OA
ENDBRANCH   5  12
TORSDOF 1
ENDMDL
MODEL 3
REMARK VINA RESULT:    -4.969     15.176     16.169
REMARK INTER + INTRA:          -5.369
REMARK INTER:                  -5.265
REMARK INTRA:                  -0.105
REMARK UNBOUND:                -0.109
REMARK  Name = ZINC000238502439
REMARK                            x       y       z     vdW  Elec       q    Type
REMARK                         _______ _______ _______ _____ _____    ______ ____
ROOT
ATOM      1  C   LIG    1       26.053 -24.141  15.946  0.00  0.00    +0.170 C 
ATOM      2  C   LIG    1       24.714 -23.537  16.287  0.00  0.00    +0.120 A 
ATOM      3  C   LIG    1       23.576 -23.752  15.608  0.00  0.00    -0.020 A 
ATOM      4  C   LIG    1       22.530 -22.978  16.278  0.00  0.00    -0.100 A 
ATOM      5  C   LIG    1       21.163 -22.790  16.057  0.00  0.00    +0.040 A 
ATOM      6  C   LIG    1       20.474 -21.962  16.923  0.00  0.00    +0.050 A 
ATOM      7  C   LIG    1       21.151 -21.353  17.968  0.00  0.00    +0.330 A 
ATOM      8  N   LIG    1       22.440 -21.545  18.158  0.00  0.00    -0.450 NA
ATOM      9  C   LIG    1       23.153 -22.328  17.359  0.00  0.00    +0.300 A 
ATOM     10  N   LIG    1       24.477 -22.694  17.340  0.00  0.00    -0.570 N 
ATOM     11  H   LIG    1       25.146 -22.396  17.976  0.00  0.00    +0.430 HD
ENDROOT
BRANCH   5  12
ATOM     12  N   LIG    1       20.475 -23.458  14.930  0.00  0.00    +0.030 N 
ATOM     13  O   LIG    1       19.800 -24.452  15.131  0.00  0.00    -0.140 OA
ATOM     14  O   LIG    1       20.584 -23.014  13.801  0.00  0.00    -0.160 OA
ENDBRANCH   5  12
TORSDOF 1
ENDMDL
MODEL 4
REMARK VINA RESULT:    -4.917     14.134     15.991
REMARK INTER + INTRA:          -5.314
REMARK INTER:                  -5.206
REMARK INTRA:                  -0.108
REMARK UNBOUND:                -0.109
REMARK  Name = ZINC000238502439
REMARK                            x       y       z     vdW  Elec       q    Type
REMARK                         _______ _______ _______ _____ _____    ______ ____
ROOT
ATOM      1  C   LIG    1       24.183 -22.067  12.308  0.00  0.00    +0.170 C 
ATOM      2  C   LIG    1       23.311 -22.497  13.459  0.00  0.00    +0.120 A 
ATOM      3  C   LIG    1       23.487 -22.129  14.738  0.00  0.00    -0.020 A 
ATOM      4  C   LIG    1       22.423 -22.769  15.515  0.00  0.00    -0.100 A 
ATOM      5  C   LIG    1       22.072 -22.776  16.866  0.00  0.00    +0.040 A 
ATOM      6  C   LIG    1       20.969 -23.518  17.246  0.00  0.00    +0.050 A 
ATOM      7  C   LIG    1       20.257 -24.221  16.287  0.00  0.00    +0.330 A 
ATOM      8  N   LIG    1       20.606 -24.199  15.017  0.00  0.00    -0.450 NA
ATOM      9  C   LIG    1       21.654 -23.506  14.594  0.00  0.00    +0.300 A 
ATOM     10  N   LIG    1       22.217 -23.314  13.355  0.00  0.00    -0.570 N 
ATOM     11  H   LIG    1       21.889 -23.702  12.530  0.00  0.00    +0.430 HD
ENDROOT
BRANCH   5  12
ATOM     12  N   LIG    1       22.857 -22.012  17.862  0.00  0.00    +0.030 N 
ATOM     13  O   LIG    1       22.637 -20.827  18.031  0.00  0.00    -0.140 OA
ATOM     14  O   LIG    1       23.724 -22.570  18.511  0.00  0.00    -0.160 OA
ENDBRANCH   5  12
TORSDOF 1
ENDMDL
MODEL 5
REMARK VINA RESULT:    -4.824     16.582     17.964
REMARK INTER + INTRA:          -5.216
REMARK INTER:                  -5.109
REMARK INTRA:                  -0.107
REMARK UNBOUND:                -0.109
REMARK  Name = ZINC000238502439
REMARK                            x       y       z     vdW  Elec       q    Type
REMARK                         _______ _______ _______ _____ _____    ______ ____
ROOT
ATOM      1  C   LIG    1       22.273 -27.071  19.666  0.00  0.00    +0.170 C 
ATOM      2  C   LIG    1       21.886 -25.740  19.076  0.00  0.00    +0.120 A 
ATOM      3  C   LIG    1       21.561 -25.532  17.790  0.00  0.00    -0.020 A 
ATOM      4  C   LIG    1       21.256 -24.107  17.654  0.00  0.00    -0.100 A 
ATOM      5  C   LIG    1       20.862 -23.291  16.591  0.00  0.00    +0.040 A 
ATOM      6  C   LIG    1       20.659 -21.947  16.845  0.00  0.00    +0.050 A 
ATOM      7  C   LIG    1       20.849 -21.460  18.128  0.00  0.00    +0.330 A 
ATOM      8  N   LIG    1       21.219 -22.247  19.117  0.00  0.00    -0.450 NA
ATOM      9  C   LIG    1       21.430 -23.544  18.932  0.00  0.00    +0.300 A 
ATOM     10  N   LIG    1       21.806 -24.564  19.773  0.00  0.00    -0.570 N 
ATOM     11  H   LIG    1       21.991 -24.465  20.719  0.00  0.00    +0.430 HD
ENDROOT
BRANCH   5  12
ATOM     12  N   LIG    1       20.669 -23.848  15.234  0.00  0.00    +0.030 N 
ATOM     13  O   LIG    1       21.542 -23.725  14.394  0.00  0.00    -0.140 OA
ATOM     14  O   LIG    1       19.635 -24.430  14.956  0.00  0.00    -0.160 OA
ENDBRANCH   5  12
TORSDOF 1
ENDMDL
MODEL 6
REMARK VINA RESULT:    -4.603     21.062     22.114
REMARK INTER + INTRA:          -4.982
REMARK INTER:                  -4.873
REMARK INTRA:                  -0.109
REMARK UNBOUND:                -0.109
REMARK  Name = ZINC000238502439
REMARK                            x       y       z     vdW  Elec       q    Type
REMARK                         _______ _______ _______ _____ _____    ______ ____
ROOT
ATOM      1  C   LIG    1       22.165  -1.696  14.642  0.00  0.00    +0.170 C 
ATOM      2  C   LIG    1       22.886  -1.244  13.398  0.00  0.00    +0.120 A 
ATOM      3  C   LIG    1       23.790  -0.253  13.348  0.00  0.00    -0.020 A 
ATOM      4  C   LIG    1       24.233  -0.153  11.957  0.00  0.00    -0.100 A 
ATOM      5  C   LIG    1       25.140   0.665  11.278  0.00  0.00    +0.040 A 
ATOM      6  C   LIG    1       25.305   0.465   9.920  0.00  0.00    +0.050 A 
ATOM      7  C   LIG    1       24.575  -0.526   9.284  0.00  0.00    +0.330 A 
ATOM      8  N   LIG    1       23.724  -1.287   9.943  0.00  0.00    -0.450 NA
ATOM      9  C   LIG    1       23.525  -1.140  11.246  0.00  0.00    +0.300 A 
ATOM     10  N   LIG    1       22.721  -1.788  12.153  0.00  0.00    -0.570 N 
ATOM     11  H   LIG    1       22.122  -2.521  11.941  0.00  0.00    +0.430 HD
ENDROOT
BRANCH   5  12
ATOM     12  N   LIG    1       25.903   1.713  11.993  0.00  0.00    +0.030 N 
ATOM     13  O   LIG    1       26.946   1.431  12.555  0.00  0.00    -0.140 OA
ATOM     14  O   LIG    1       25.486   2.857  12.020  0.00  0.00    -0.160 OA
ENDBRANCH   5  12
TORSDOF 1
ENDMDL
MODEL 7
REMARK VINA RESULT:    -4.549      3.291      4.734
REMARK INTER + INTRA:          -4.924
REMARK INTER:                  -4.817
REMARK INTRA:                  -0.107
REMARK UNBOUND:                -0.109
REMARK  Name = ZINC000238502439
REMARK                            x       y       z     vdW  Elec       q    Type
REMARK                         _______ _______ _______ _____ _____    ______ ____
ROOT
ATOM      1  C   LIG    1       32.999 -21.839  -0.910  0.00  0.00    +0.170 C 
ATOM      2  C   LIG    1       31.609 -21.413  -0.513  0.00  0.00    +0.120 A 
ATOM      3  C   LIG    1       31.225 -20.147  -0.288  0.00  0.00    -0.020 A 
ATOM      4  C   LIG    1       29.806 -20.190   0.069  0.00  0.00    -0.100 A 
ATOM      5  C   LIG    1       28.856 -19.224   0.408  0.00  0.00    +0.040 A 
ATOM      6  C   LIG    1       27.571 -19.648   0.693  0.00  0.00    +0.050 A 
ATOM      7  C   LIG    1       27.272 -21.000   0.633  0.00  0.00    +0.330 A 
ATOM      8  N   LIG    1       28.183 -21.895   0.311  0.00  0.00    -0.450 NA
ATOM      9  C   LIG    1       29.432 -21.546   0.029  0.00  0.00    +0.300 A 
ATOM     10  N   LIG    1       30.548 -22.261  -0.334  0.00  0.00    -0.570 N 
ATOM     11  H   LIG    1       30.580 -23.224  -0.444  0.00  0.00    +0.430 HD
ENDROOT
BRANCH   5  12
ATOM     12  N   LIG    1       29.214 -17.789   0.459  0.00  0.00    +0.030 N 
ATOM     13  O   LIG    1       29.770 -17.334   1.442  0.00  0.00    -0.140 OA
ATOM     14  O   LIG    1       28.950 -17.061  -0.482  0.00  0.00    -0.160 OA
ENDBRANCH   5  12
TORSDOF 1
ENDMDL
MODEL 8
REMARK VINA RESULT:    -4.543     15.379     17.066
REMARK INTER + INTRA:          -4.918
REMARK INTER:                  -4.841
REMARK INTRA:                  -0.077
REMARK UNBOUND:                -0.109
REMARK  Name = ZINC000238502439
REMARK                            x       y       z     vdW  Elec       q    Type
REMARK                         _______ _______ _______ _____ _____    ______ ____
ROOT
ATOM      1  C   LIG    1       20.657 -24.404  20.432  0.00  0.00    +0.170 C 
ATOM      2  C   LIG    1       20.921 -24.104  18.979  0.00  0.00    +0.120 A 
ATOM      3  C   LIG    1       22.092 -23.679  18.480  0.00  0.00    -0.020 A 
ATOM      4  C   LIG    1       21.905 -23.515  17.037  0.00  0.00    -0.100 A 
ATOM      5  C   LIG    1       22.731 -23.110  15.986  0.00  0.00    +0.040 A 
ATOM      6  C   LIG    1       22.193 -23.076  14.713  0.00  0.00    +0.050 A 
ATOM      7  C   LIG    1       20.870 -23.441  14.524  0.00  0.00    +0.330 A 
ATOM      8  N   LIG    1       20.108 -23.821  15.529  0.00  0.00    -0.450 NA
ATOM      9  C   LIG    1       20.570 -23.872  16.771  0.00  0.00    +0.300 A 
ATOM     10  N   LIG    1       20.003 -24.230  17.971  0.00  0.00    -0.570 N 
ATOM     11  H   LIG    1       19.087 -24.526  18.086  0.00  0.00    +0.430 HD
ENDROOT
BRANCH   5  12
ATOM     12  N   LIG    1       24.140 -22.728  16.229  0.00  0.00    +0.030 N 
ATOM     13  O   LIG    1       25.043 -23.433  15.816  0.00  0.00    -0.140 OA
ATOM     14  O   LIG    1       24.398 -21.708  16.843  0.00  0.00    -0.160 OA
ENDBRANCH   5  12
TORSDOF 1
ENDMDL
MODEL 9
REMARK VINA RESULT:    -4.392      2.733      3.894
REMARK INTER + INTRA:          -4.758
REMARK INTER:                  -4.669
REMARK INTRA:                  -0.089
REMARK UNBOUND:                -0.109
REMARK  Name = ZINC000238502439
REMARK                            x       y       z     vdW  Elec       q    Type
REMARK                         _______ _______ _______ _____ _____    ______ ____
ROOT
ATOM      1  C   LIG    1       33.692 -20.787  -1.583  0.00  0.00    +0.170 C 
ATOM      2  C   LIG    1       32.478 -20.307  -0.830  0.00  0.00    +0.120 A 
ATOM      3  C   LIG    1       31.330 -20.991  -0.701  0.00  0.00    -0.020 A 
ATOM      4  C   LIG    1       30.429 -20.162   0.101  0.00  0.00    -0.100 A 
ATOM      5  C   LIG    1       29.122 -20.313   0.569  0.00  0.00    +0.040 A 
ATOM      6  C   LIG    1       28.579 -19.288   1.322  0.00  0.00    +0.050 A 
ATOM      7  C   LIG    1       29.339 -18.159   1.584  0.00  0.00    +0.330 A 
ATOM      8  N   LIG    1       30.570 -18.037   1.133  0.00  0.00    -0.450 NA
ATOM      9  C   LIG    1       31.143 -18.987   0.405  0.00  0.00    +0.300 A 
ATOM     10  N   LIG    1       32.385 -19.111  -0.169  0.00  0.00    -0.570 N 
ATOM     11  H   LIG    1       33.090 -18.448  -0.118  0.00  0.00    +0.430 HD
ENDROOT
BRANCH   5  12
ATOM     12  N   LIG    1       28.342 -21.535   0.269  0.00  0.00    +0.030 N 
ATOM     13  O   LIG    1       27.419 -21.489  -0.523  0.00  0.00    -0.140 OA
ATOM     14  O   LIG    1       28.624 -22.586   0.816  0.00  0.00    -0.160 OA
ENDBRANCH   5  12
TORSDOF 1
ENDMDL
