MODEL 1
REMARK VINA RESULT:    -5.528      0.000      0.000
REMARK INTER + INTRA:          -6.490
REMARK INTER:                  -6.174
REMARK INTRA:                  -0.316
REMARK UNBOUND:                -0.316
REMARK  Name = ZINC000037420488
REMARK                            x       y       z     vdW  Elec       q    Type
REMARK                         _______ _______ _______ _____ _____    ______ ____
ROOT
ATOM      1  C   LIG    1       28.409 -19.125   1.201  0.00  0.00    +0.290 A 
ATOM      2  C   LIG    1       29.182 -18.428   2.122  0.00  0.00    -0.050 A 
ATOM      3  C   LIG    1       29.263 -18.870   3.428  0.00  0.00    +0.140 A 
ATOM      4  C   LIG    1       28.577 -20.003   3.821  0.00  0.00    -0.040 A 
ATOM      5  C   LIG    1       27.805 -20.700   2.907  0.00  0.00    +0.190 A 
ATOM      6  F   LIG    1       27.136 -21.808   3.294  0.00  0.00    -0.120 F 
ATOM      7  C   LIG    1       27.715 -20.261   1.599  0.00  0.00    -0.150 A 
ENDROOT
BRANCH   1   9
ATOM      8  C   LIG    1       28.935 -17.405  -0.504  0.00  0.00    +0.320 C 
ATOM      9  N   LIG    1       28.325 -18.680  -0.120  0.00  0.00    -0.740 N 
ATOM     10  H   LIG    1       27.862 -19.217  -0.784  0.00  0.00    +0.410 HD
ENDBRANCH   1   9
BRANCH   7  11
ATOM     11  N   LIG    1       26.891 -21.006   0.621  0.00  0.00    +0.020 N 
ATOM     12  O   LIG    1       25.693 -21.125   0.800  0.00  0.00    -0.130 OA
ATOM     13  O   LIG    1       27.411 -21.500  -0.363  0.00  0.00    -0.130 OA
ENDBRANCH   7  11
TORSDOF 2
ENDMDL
MODEL 2
REMARK VINA RESULT:    -5.394      2.229      3.217
REMARK INTER + INTRA:          -6.340
REMARK INTER:                  -5.979
REMARK INTRA:                  -0.362
REMARK UNBOUND:                -0.316
REMARK  Name = ZINC000037420488
REMARK                            x       y       z     vdW  Elec       q    Type
REMARK                         _______ _______ _______ _____ _____    ______ ____
ROOT
ATOM      1  C   LIG    1       28.690 -19.378   2.882  0.00  0.00    +0.290 A 
ATOM      2  C   LIG    1       29.326 -18.314   2.254  0.00  0.00    -0.050 A 
ATOM      3  C   LIG    1       29.136 -18.098   0.904  0.00  0.00    +0.140 A 
ATOM      4  C   LIG    1       28.316 -18.939   0.174  0.00  0.00    -0.040 A 
ATOM      5  C   LIG    1       27.681 -20.001   0.796  0.00  0.00    +0.190 A 
ATOM      6  F   LIG    1       26.881 -20.822   0.081  0.00  0.00    -0.120 F 
ATOM      7  C   LIG    1       27.871 -20.226   2.147  0.00  0.00    -0.150 A 
ENDROOT
BRANCH   1   9
ATOM      8  C   LIG    1       29.568 -18.595   5.064  0.00  0.00    +0.320 C 
ATOM      9  N   LIG    1       28.880 -19.599   4.248  0.00  0.00    -0.740 N 
ATOM     10  H   LIG    1       28.557 -20.418   4.657  0.00  0.00    +0.410 HD
ENDBRANCH   1   9
BRANCH   7  11
ATOM     11  N   LIG    1       27.192 -21.361   2.813  0.00  0.00    +0.020 N 
ATOM     12  O   LIG    1       27.840 -22.319   3.195  0.00  0.00    -0.130 OA
ATOM     13  O   LIG    1       25.986 -21.338   2.977  0.00  0.00    -0.130 OA
ENDBRANCH   7  11
TORSDOF 2
ENDMDL
MODEL 3
REMARK VINA RESULT:    -5.185     24.010     24.863
REMARK INTER + INTRA:          -6.107
REMARK INTER:                  -5.696
REMARK INTRA:                  -0.410
REMARK UNBOUND:                -0.316
REMARK  Name = ZINC000037420488
REMARK                            x       y       z     vdW  Elec       q    Type
REMARK                         _______ _______ _______ _____ _____    ______ ____
ROOT
ATOM      1  C   LIG    1       14.370 -10.910  21.078  0.00  0.00    +0.290 A 
ATOM      2  C   LIG    1       14.564 -11.939  21.991  0.00  0.00    -0.050 A 
ATOM      3  C   LIG    1       15.770 -12.611  22.026  0.00  0.00    +0.140 A 
ATOM      4  C   LIG    1       16.784 -12.263  21.154  0.00  0.00    -0.040 A 
ATOM      5  C   LIG    1       16.595 -11.239  20.242  0.00  0.00    +0.190 A 
ATOM      6  F   LIG    1       17.588 -10.901  19.391  0.00  0.00    -0.120 F 
ATOM      7  C   LIG    1       15.388 -10.565  20.198  0.00  0.00    -0.150 A 
ENDROOT
BRANCH   1   9
ATOM      8  C   LIG    1       12.839  -9.229  22.065  0.00  0.00    +0.320 C 
ATOM      9  N   LIG    1       13.151 -10.229  21.040  0.00  0.00    -0.740 N 
ATOM     10  H   LIG    1       12.511 -10.418  20.335  0.00  0.00    +0.410 HD
ENDBRANCH   1   9
BRANCH   7  11
ATOM     11  N   LIG    1       15.185  -9.469  19.223  0.00  0.00    +0.020 N 
ATOM     12  O   LIG    1       15.026  -9.725  18.044  0.00  0.00    -0.130 OA
ATOM     13  O   LIG    1       15.177  -8.312  19.602  0.00  0.00    -0.130 OA
ENDBRANCH   7  11
TORSDOF 2
ENDMDL
MODEL 4
REMARK VINA RESULT:    -5.067      3.719      4.634
REMARK INTER + INTRA:          -5.975
REMARK INTER:                  -5.577
REMARK INTRA:                  -0.398
REMARK UNBOUND:                -0.316
REMARK  Name = ZINC000037420488
REMARK                            x       y       z     vdW  Elec       q    Type
REMARK                         _______ _______ _______ _____ _____    ______ ____
ROOT
ATOM      1  C   LIG    1       29.276 -18.709   2.883  0.00  0.00    +0.290 A 
ATOM      2  C   LIG    1       28.347 -19.736   2.988  0.00  0.00    -0.050 A 
ATOM      3  C   LIG    1       27.669 -20.169   1.866  0.00  0.00    +0.140 A 
ATOM      4  C   LIG    1       27.912 -19.582   0.638  0.00  0.00    -0.040 A 
ATOM      5  C   LIG    1       28.837 -18.557   0.530  0.00  0.00    +0.190 A 
ATOM      6  F   LIG    1       29.072 -17.984  -0.671  0.00  0.00    -0.120 F 
ATOM      7  C   LIG    1       29.515 -18.115   1.650  0.00  0.00    -0.150 A 
ENDROOT
BRANCH   1   9
ATOM      8  C   LIG    1       29.482 -18.633   5.352  0.00  0.00    +0.320 C 
ATOM      9  N   LIG    1       29.964 -18.269   4.017  0.00  0.00    -0.740 N 
ATOM     10  H   LIG    1       30.760 -17.723   3.920  0.00  0.00    +0.410 HD
ENDBRANCH   1   9
BRANCH   7  11
ATOM     11  N   LIG    1       30.505 -17.020   1.535  0.00  0.00    +0.020 N 
ATOM     12  O   LIG    1       31.672 -17.276   1.300  0.00  0.00    -0.130 OA
ATOM     13  O   LIG    1       30.152 -15.863   1.675  0.00  0.00    -0.130 OA
ENDBRANCH   7  11
TORSDOF 2
ENDMDL
MODEL 5
REMARK VINA RESULT:    -5.018      2.782      3.491
REMARK INTER + INTRA:          -5.921
REMARK INTER:                  -5.477
REMARK INTRA:                  -0.443
REMARK UNBOUND:                -0.316
REMARK  Name = ZINC000037420488
REMARK                            x       y       z     vdW  Elec       q    Type
REMARK                         _______ _______ _______ _____ _____    ______ ____
ROOT
ATOM      1  C   LIG    1       29.821 -17.992   2.390  0.00  0.00    +0.290 A 
ATOM      2  C   LIG    1       29.506 -18.616   3.591  0.00  0.00    -0.050 A 
ATOM      3  C   LIG    1       28.571 -19.633   3.614  0.00  0.00    +0.140 A 
ATOM      4  C   LIG    1       27.949 -20.031   2.446  0.00  0.00    -0.040 A 
ATOM      5  C   LIG    1       28.260 -19.411   1.247  0.00  0.00    +0.190 A 
ATOM      6  F   LIG    1       27.650 -19.801   0.107  0.00  0.00    -0.120 F 
ATOM      7  C   LIG    1       29.191 -18.389   1.218  0.00  0.00    -0.150 A 
ENDROOT
BRANCH   1   9
ATOM      8  C   LIG    1       32.195 -17.280   2.426  0.00  0.00    +0.320 C 
ATOM      9  N   LIG    1       30.766 -16.964   2.364  0.00  0.00    -0.740 N 
ATOM     10  H   LIG    1       30.475 -16.039   2.305  0.00  0.00    +0.410 HD
ENDBRANCH   1   9
BRANCH   7  11
ATOM     11  N   LIG    1       29.524 -17.726  -0.064  0.00  0.00    +0.020 N 
ATOM     12  O   LIG    1       30.454 -18.133  -0.736  0.00  0.00    -0.130 OA
ATOM     13  O   LIG    1       28.869 -16.773  -0.445  0.00  0.00    -0.130 OA
ENDBRANCH   7  11
TORSDOF 2
ENDMDL
MODEL 6
REMARK VINA RESULT:    -4.919      3.248      3.668
REMARK INTER + INTRA:          -5.810
REMARK INTER:                  -5.372
REMARK INTRA:                  -0.438
REMARK UNBOUND:                -0.316
REMARK  Name = ZINC000037420488
REMARK                            x       y       z     vdW  Elec       q    Type
REMARK                         _______ _______ _______ _____ _____    ______ ____
ROOT
ATOM      1  C   LIG    1       29.666 -18.257   2.266  0.00  0.00    +0.290 A 
ATOM      2  C   LIG    1       29.258 -18.129   0.944  0.00  0.00    -0.050 A 
ATOM      3  C   LIG    1       28.268 -18.953   0.446  0.00  0.00    +0.140 A 
ATOM      4  C   LIG    1       27.683 -19.905   1.259  0.00  0.00    -0.040 A 
ATOM      5  C   LIG    1       28.087 -20.036   2.577  0.00  0.00    +0.190 A 
ATOM      6  F   LIG    1       27.513 -20.967   3.370  0.00  0.00    -0.120 F 
ATOM      7  C   LIG    1       29.081 -19.218   3.081  0.00  0.00    -0.150 A 
ENDROOT
BRANCH   1   9
ATOM      8  C   LIG    1       32.058 -17.610   2.349  0.00  0.00    +0.320 C 
ATOM      9  N   LIG    1       30.667 -17.424   2.772  0.00  0.00    -0.740 N 
ATOM     10  H   LIG    1       30.442 -16.724   3.405  0.00  0.00    +0.410 HD
ENDBRANCH   1   9
BRANCH   7  11
ATOM     11  N   LIG    1       29.514 -19.357   4.490  0.00  0.00    +0.020 N 
ATOM     12  O   LIG    1       28.944 -18.732   5.366  0.00  0.00    -0.130 OA
ATOM     13  O   LIG    1       30.440 -20.096   4.773  0.00  0.00    -0.130 OA
ENDBRANCH   7  11
TORSDOF 2
ENDMDL
MODEL 7
REMARK VINA RESULT:    -4.918     22.589     23.265
REMARK INTER + INTRA:          -5.808
REMARK INTER:                  -5.380
REMARK INTRA:                  -0.428
REMARK UNBOUND:                -0.316
REMARK  Name = ZINC000037420488
REMARK                            x       y       z     vdW  Elec       q    Type
REMARK                         _______ _______ _______ _____ _____    ______ ____
ROOT
ATOM      1  C   LIG    1       24.060   0.013  13.289  0.00  0.00    +0.290 A 
ATOM      2  C   LIG    1       24.671   0.202  12.056  0.00  0.00    -0.050 A 
ATOM      3  C   LIG    1       24.255  -0.528  10.960  0.00  0.00    +0.140 A 
ATOM      4  C   LIG    1       23.231  -1.448  11.088  0.00  0.00    -0.040 A 
ATOM      5  C   LIG    1       22.619  -1.641  12.315  0.00  0.00    +0.190 A 
ATOM      6  F   LIG    1       21.619  -2.541  12.437  0.00  0.00    -0.120 F 
ATOM      7  C   LIG    1       23.035  -0.916  13.417  0.00  0.00    -0.150 A 
ENDROOT
BRANCH   1   9
ATOM      8  C   LIG    1       24.033   2.135  14.569  0.00  0.00    +0.320 C 
ATOM      9  N   LIG    1       24.479   0.750  14.398  0.00  0.00    -0.740 N 
ATOM     10  H   LIG    1       25.067   0.345  15.056  0.00  0.00    +0.410 HD
ENDBRANCH   1   9
BRANCH   7  11
ATOM     11  N   LIG    1       22.381  -1.121  14.730  0.00  0.00    +0.020 N 
ATOM     12  O   LIG    1       21.491  -0.373  15.090  0.00  0.00    -0.130 OA
ATOM     13  O   LIG    1       22.734  -2.038  15.449  0.00  0.00    -0.130 OA
ENDBRANCH   7  11
TORSDOF 2
ENDMDL
MODEL 8
REMARK VINA RESULT:    -4.808     15.390     16.340
REMARK INTER + INTRA:          -5.686
REMARK INTER:                  -5.253
REMARK INTRA:                  -0.433
REMARK UNBOUND:                -0.316
REMARK  Name = ZINC000037420488
REMARK                            x       y       z     vdW  Elec       q    Type
REMARK                         _______ _______ _______ _____ _____    ______ ____
ROOT
ATOM      1  C   LIG    1       23.003 -22.918  16.288  0.00  0.00    +0.290 A 
ATOM      2  C   LIG    1       23.800 -23.145  15.173  0.00  0.00    -0.050 A 
ATOM      3  C   LIG    1       23.219 -23.302  13.931  0.00  0.00    +0.140 A 
ATOM      4  C   LIG    1       21.845 -23.235  13.793  0.00  0.00    -0.040 A 
ATOM      5  C   LIG    1       21.047 -23.009  14.902  0.00  0.00    +0.190 A 
ATOM      6  F   LIG    1       19.704 -22.943  14.765  0.00  0.00    -0.120 F 
ATOM      7  C   LIG    1       21.622 -22.856  16.150  0.00  0.00    -0.150 A 
ENDROOT
BRANCH   1   9
ATOM      8  C   LIG    1       24.200 -21.479  17.913  0.00  0.00    +0.320 C 
ATOM      9  N   LIG    1       23.589 -22.759  17.546  0.00  0.00    -0.740 N 
ATOM     10  H   LIG    1       23.591 -23.496  18.177  0.00  0.00    +0.410 HD
ENDBRANCH   1   9
BRANCH   7  11
ATOM     11  N   LIG    1       20.769 -22.614  17.336  0.00  0.00    +0.020 N 
ATOM     12  O   LIG    1       20.407 -21.484  17.605  0.00  0.00    -0.130 OA
ATOM     13  O   LIG    1       20.431 -23.547  18.043  0.00  0.00    -0.130 OA
ENDBRANCH   7  11
TORSDOF 2
ENDMDL
MODEL 9
REMARK VINA RESULT:    -4.791     14.194     15.401
REMARK INTER + INTRA:          -5.667
REMARK INTER:                  -5.303
REMARK INTRA:                  -0.364
REMARK UNBOUND:                -0.316
REMARK  Name = ZINC000037420488
REMARK                            x       y       z     vdW  Elec       q    Type
REMARK                         _______ _______ _______ _____ _____    ______ ____
ROOT
ATOM      1  C   LIG    1       22.737 -22.946  14.781  0.00  0.00    +0.290 A 
ATOM      2  C   LIG    1       23.906 -22.588  15.440  0.00  0.00    -0.050 A 
ATOM      3  C   LIG    1       23.869 -22.268  16.783  0.00  0.00    +0.140 A 
ATOM      4  C   LIG    1       22.672 -22.303  17.473  0.00  0.00    -0.040 A 
ATOM      5  C   LIG    1       21.504 -22.659  16.819  0.00  0.00    +0.190 A 
ATOM      6  F   LIG    1       20.335 -22.693  17.495  0.00  0.00    -0.120 F 
ATOM      7  C   LIG    1       21.533 -22.975  15.473  0.00  0.00    -0.150 A 
ENDROOT
BRANCH   1   9
ATOM      8  C   LIG    1       23.871 -22.787  12.582  0.00  0.00    +0.320 C 
ATOM      9  N   LIG    1       22.772 -23.270  13.422  0.00  0.00    -0.740 N 
ATOM     10  H   LIG    1       22.068 -23.814  13.035  0.00  0.00    +0.410 HD
ENDBRANCH   1   9
BRANCH   7  11
ATOM     11  N   LIG    1       20.285 -23.357  14.773  0.00  0.00    +0.020 N 
ATOM     12  O   LIG    1       19.740 -24.413  15.033  0.00  0.00    -0.130 OA
ATOM     13  O   LIG    1       19.805 -22.613  13.937  0.00  0.00    -0.130 OA
ENDBRANCH   7  11
TORSDOF 2
ENDMDL
