MODEL 1
REMARK VINA RESULT:    -5.520      0.000      0.000
REMARK INTER + INTRA:          -6.695
REMARK INTER:                  -6.488
REMARK INTRA:                  -0.207
REMARK UNBOUND:                -0.207
REMARK  Name = ZINC000070503655
REMARK                            x       y       z     vdW  Elec       q    Type
REMARK                         _______ _______ _______ _____ _____    ______ ____
ROOT
ATOM      1  C   LIG    1       29.678 -18.531   2.677  0.00  0.00    +0.140 A 
ATOM      2  C   LIG    1       28.674 -19.485   2.633  0.00  0.00    +0.040 A 
ATOM      3  C   LIG    1       27.960 -19.685   1.448  0.00  0.00    -0.130 A 
ATOM      4  C   LIG    1       28.265 -18.921   0.317  0.00  0.00    +0.090 A 
ATOM      5  C   LIG    1       29.265 -17.974   0.373  0.00  0.00    +0.100 A 
ATOM      6  C   LIG    1       29.968 -17.772   1.548  0.00  0.00    +0.000 A 
ENDROOT
BRANCH   1   8
ATOM      7  C   LIG    1       29.511 -18.400   5.030  0.00  0.00    +0.230 C 
ATOM      8  N   LIG    1       30.395 -18.326   3.858  0.00  0.00    -0.500 N 
ATOM      9  C   LIG    1       31.503 -19.282   3.974  0.00  0.00    +0.230 C 
ENDBRANCH   1   8
BRANCH   6  10
ATOM     10  N   LIG    1       31.040 -16.754   1.599  0.00  0.00    +0.020 N 
ATOM     11  O   LIG    1       32.194 -17.074   1.377  0.00  0.00    -0.090 OA
ATOM     12  O   LIG    1       30.769 -15.596   1.863  0.00  0.00    -0.190 OA
ENDBRANCH   6  10
BRANCH   3  13
ATOM     13  C   LIG    1       26.892 -20.696   1.391  0.00  0.00    +0.500 C 
ATOM     14  O   LIG    1       26.819 -21.450   0.443  0.00  0.00    -0.440 OA
ENDBRANCH   3  13
TORSDOF 3
ENDMDL
MODEL 2
REMARK VINA RESULT:    -5.272      2.445      4.730
REMARK INTER + INTRA:          -6.403
REMARK INTER:                  -6.193
REMARK INTRA:                  -0.210
REMARK UNBOUND:                -0.207
REMARK  Name = ZINC000070503655
REMARK                            x       y       z     vdW  Elec       q    Type
REMARK                         _______ _______ _______ _____ _____    ______ ____
ROOT
ATOM      1  C   LIG    1       28.996 -19.257   1.304  0.00  0.00    +0.140 A 
ATOM      2  C   LIG    1       29.506 -18.545   2.377  0.00  0.00    +0.040 A 
ATOM      3  C   LIG    1       29.181 -18.929   3.681  0.00  0.00    -0.130 A 
ATOM      4  C   LIG    1       28.344 -20.029   3.892  0.00  0.00    +0.090 A 
ATOM      5  C   LIG    1       27.842 -20.730   2.816  0.00  0.00    +0.100 A 
ATOM      6  C   LIG    1       28.159 -20.346   1.525  0.00  0.00    +0.000 A 
ENDROOT
BRANCH   1   8
ATOM      7  C   LIG    1       28.699 -17.590  -0.343  0.00  0.00    +0.230 C 
ATOM      8  N   LIG    1       29.316 -18.878  -0.002  0.00  0.00    -0.500 N 
ATOM      9  C   LIG    1       30.772 -18.832  -0.194  0.00  0.00    +0.230 C 
ENDBRANCH   1   8
BRANCH   6  10
ATOM     10  N   LIG    1       27.615 -21.104   0.377  0.00  0.00    +0.020 N 
ATOM     11  O   LIG    1       28.326 -21.887  -0.227  0.00  0.00    -0.090 OA
ATOM     12  O   LIG    1       26.456 -20.946   0.036  0.00  0.00    -0.190 OA
ENDBRANCH   6  10
BRANCH   3  13
ATOM     13  C   LIG    1       29.718 -18.178   4.827  0.00  0.00    +0.500 C 
ATOM     14  O   LIG    1       30.660 -18.618   5.453  0.00  0.00    -0.440 OA
ENDBRANCH   3  13
TORSDOF 3
ENDMDL
MODEL 3
REMARK VINA RESULT:    -5.098     23.664     24.893
REMARK INTER + INTRA:          -6.199
REMARK INTER:                  -5.929
REMARK INTRA:                  -0.269
REMARK UNBOUND:                -0.207
REMARK  Name = ZINC000070503655
REMARK                            x       y       z     vdW  Elec       q    Type
REMARK                         _______ _______ _______ _____ _____    ______ ____
ROOT
ATOM      1  C   LIG    1       14.561 -11.362  20.880  0.00  0.00    +0.140 A 
ATOM      2  C   LIG    1       14.954 -12.436  21.663  0.00  0.00    +0.040 A 
ATOM      3  C   LIG    1       16.301 -12.804  21.709  0.00  0.00    -0.130 A 
ATOM      4  C   LIG    1       17.243 -12.086  20.965  0.00  0.00    +0.090 A 
ATOM      5  C   LIG    1       16.840 -11.019  20.190  0.00  0.00    +0.100 A 
ATOM      6  C   LIG    1       15.505 -10.658  20.140  0.00  0.00    +0.000 A 
ENDROOT
BRANCH   1   8
ATOM      7  C   LIG    1       12.391 -12.067  20.268  0.00  0.00    +0.230 C 
ATOM      8  N   LIG    1       13.216 -10.989  20.830  0.00  0.00    -0.500 N 
ATOM      9  C   LIG    1       12.730 -10.592  22.158  0.00  0.00    +0.230 C 
ENDBRANCH   1   8
BRANCH   6  10
ATOM     10  N   LIG    1       15.083  -9.512  19.305  0.00  0.00    +0.020 N 
ATOM     11  O   LIG    1       14.829  -9.679  18.126  0.00  0.00    -0.090 OA
ATOM     12  O   LIG    1       14.989  -8.402  19.797  0.00  0.00    -0.190 OA
ENDBRANCH   6  10
BRANCH   3  13
ATOM     13  C   LIG    1       16.727 -13.944  22.537  0.00  0.00    +0.500 C 
ATOM     14  O   LIG    1       17.888 -14.050  22.873  0.00  0.00    -0.440 OA
ENDBRANCH   3  13
TORSDOF 3
ENDMDL
MODEL 4
REMARK VINA RESULT:    -5.090      2.589      3.809
REMARK INTER + INTRA:          -6.189
REMARK INTER:                  -5.931
REMARK INTRA:                  -0.258
REMARK UNBOUND:                -0.207
REMARK  Name = ZINC000070503655
REMARK                            x       y       z     vdW  Elec       q    Type
REMARK                         _______ _______ _______ _____ _____    ______ ____
ROOT
ATOM      1  C   LIG    1       28.864 -19.669   2.059  0.00  0.00    +0.140 A 
ATOM      2  C   LIG    1       28.570 -19.068   0.845  0.00  0.00    +0.040 A 
ATOM      3  C   LIG    1       29.069 -17.793   0.564  0.00  0.00    -0.130 A 
ATOM      4  C   LIG    1       29.862 -17.135   1.510  0.00  0.00    +0.090 A 
ATOM      5  C   LIG    1       30.148 -17.743   2.713  0.00  0.00    +0.100 A 
ATOM      6  C   LIG    1       29.649 -19.003   2.994  0.00  0.00    +0.000 A 
ENDROOT
BRANCH   1   8
ATOM      7  C   LIG    1       26.929 -20.894   2.639  0.00  0.00    +0.230 C 
ATOM      8  N   LIG    1       28.368 -20.943   2.346  0.00  0.00    -0.500 N 
ATOM      9  C   LIG    1       28.650 -21.877   1.248  0.00  0.00    +0.230 C 
ENDBRANCH   1   8
BRANCH   6  10
ATOM     10  N   LIG    1       29.961 -19.647   4.288  0.00  0.00    +0.020 N 
ATOM     11  O   LIG    1       30.897 -20.422   4.372  0.00  0.00    -0.090 OA
ATOM     12  O   LIG    1       29.283 -19.403   5.270  0.00  0.00    -0.190 OA
ENDBRANCH   6  10
BRANCH   3  13
ATOM     13  C   LIG    1       28.761 -17.147  -0.721  0.00  0.00    +0.500 C 
ATOM     14  O   LIG    1       29.659 -16.842  -1.478  0.00  0.00    -0.440 OA
ENDBRANCH   3  13
TORSDOF 3
ENDMDL
MODEL 5
REMARK VINA RESULT:    -4.996     20.766     22.269
REMARK INTER + INTRA:          -6.079
REMARK INTER:                  -5.830
REMARK INTRA:                  -0.249
REMARK UNBOUND:                -0.207
REMARK  Name = ZINC000070503655
REMARK                            x       y       z     vdW  Elec       q    Type
REMARK                         _______ _______ _______ _____ _____    ______ ____
ROOT
ATOM      1  C   LIG    1       23.969  -0.029  13.376  0.00  0.00    +0.140 A 
ATOM      2  C   LIG    1       24.605   0.142  12.156  0.00  0.00    +0.040 A 
ATOM      3  C   LIG    1       24.172  -0.582  11.042  0.00  0.00    -0.130 A 
ATOM      4  C   LIG    1       23.100  -1.471  11.165  0.00  0.00    +0.090 A 
ATOM      5  C   LIG    1       22.476  -1.633  12.384  0.00  0.00    +0.100 A 
ATOM      6  C   LIG    1       22.908  -0.921  13.489  0.00  0.00    +0.000 A 
ENDROOT
BRANCH   1   8
ATOM      7  C   LIG    1       25.732   0.252  14.923  0.00  0.00    +0.230 C 
ATOM      8  N   LIG    1       24.398   0.691  14.494  0.00  0.00    -0.500 N 
ATOM      9  C   LIG    1       24.379   2.135  14.229  0.00  0.00    +0.230 C 
ENDBRANCH   1   8
BRANCH   6  10
ATOM     10  N   LIG    1       22.232  -1.101  14.792  0.00  0.00    +0.020 N 
ATOM     11  O   LIG    1       22.524  -2.045  15.505  0.00  0.00    -0.090 OA
ATOM     12  O   LIG    1       21.383  -0.306  15.153  0.00  0.00    -0.190 OA
ENDBRANCH   6  10
BRANCH   3  13
ATOM     13  C   LIG    1       24.842  -0.407   9.743  0.00  0.00    +0.500 C 
ATOM     14  O   LIG    1       24.184  -0.320   8.727  0.00  0.00    -0.440 OA
ENDBRANCH   3  13
TORSDOF 3
ENDMDL
MODEL 6
REMARK VINA RESULT:    -4.942     20.394     21.859
REMARK INTER + INTRA:          -6.016
REMARK INTER:                  -5.772
REMARK INTRA:                  -0.244
REMARK UNBOUND:                -0.207
REMARK  Name = ZINC000070503655
REMARK                            x       y       z     vdW  Elec       q    Type
REMARK                         _______ _______ _______ _____ _____    ______ ____
ROOT
ATOM      1  C   LIG    1       24.280   0.355  12.155  0.00  0.00    +0.140 A 
ATOM      2  C   LIG    1       23.604  -0.023  13.305  0.00  0.00    +0.040 A 
ATOM      3  C   LIG    1       22.750  -1.129  13.274  0.00  0.00    -0.130 A 
ATOM      4  C   LIG    1       22.586  -1.846  12.085  0.00  0.00    +0.090 A 
ATOM      5  C   LIG    1       23.263  -1.460  10.948  0.00  0.00    +0.100 A 
ATOM      6  C   LIG    1       24.103  -0.361  10.976  0.00  0.00    +0.000 A 
ENDROOT
BRANCH   1   8
ATOM      7  C   LIG    1       24.373   2.716  12.111  0.00  0.00    +0.230 C 
ATOM      8  N   LIG    1       25.134   1.461  12.179  0.00  0.00    -0.500 N 
ATOM      9  C   LIG    1       25.997   1.433  13.366  0.00  0.00    +0.230 C 
ENDBRANCH   1   8
BRANCH   6  10
ATOM     10  N   LIG    1       24.826   0.046   9.751  0.00  0.00    +0.020 N 
ATOM     11  O   LIG    1       25.967  -0.336   9.562  0.00  0.00    -0.090 OA
ATOM     12  O   LIG    1       24.280   0.762   8.931  0.00  0.00    -0.190 OA
ENDBRANCH   6  10
BRANCH   3  13
ATOM     13  C   LIG    1       22.029  -1.538  14.489  0.00  0.00    +0.500 C 
ATOM     14  O   LIG    1       22.640  -1.982  15.439  0.00  0.00    -0.440 OA
ENDBRANCH   3  13
TORSDOF 3
ENDMDL
MODEL 7
REMARK VINA RESULT:    -4.917     15.557     17.101
REMARK INTER + INTRA:          -5.986
REMARK INTER:                  -5.775
REMARK INTRA:                  -0.211
REMARK UNBOUND:                -0.207
REMARK  Name = ZINC000070503655
REMARK                            x       y       z     vdW  Elec       q    Type
REMARK                         _______ _______ _______ _____ _____    ______ ____
ROOT
ATOM      1  C   LIG    1       21.884 -23.002  16.630  0.00  0.00    +0.140 A 
ATOM      2  C   LIG    1       23.150 -22.890  17.183  0.00  0.00    +0.040 A 
ATOM      3  C   LIG    1       24.276 -23.123  16.389  0.00  0.00    -0.130 A 
ATOM      4  C   LIG    1       24.116 -23.467  15.042  0.00  0.00    +0.090 A 
ATOM      5  C   LIG    1       22.851 -23.575  14.504  0.00  0.00    +0.100 A 
ATOM      6  C   LIG    1       21.737 -23.351  15.292  0.00  0.00    +0.000 A 
ENDROOT
BRANCH   1   8
ATOM      7  C   LIG    1       20.639 -23.778  18.482  0.00  0.00    +0.230 C 
ATOM      8  N   LIG    1       20.754 -22.770  17.419  0.00  0.00    -0.500 N 
ATOM      9  C   LIG    1       20.773 -21.413  17.980  0.00  0.00    +0.230 C 
ENDBRANCH   1   8
BRANCH   6  10
ATOM     10  N   LIG    1       20.384 -23.470  14.705  0.00  0.00    +0.020 N 
ATOM     11  O   LIG    1       19.701 -24.450  14.942  0.00  0.00    -0.090 OA
ATOM     12  O   LIG    1       19.952 -22.587  13.985  0.00  0.00    -0.190 OA
ENDBRANCH   6  10
BRANCH   3  13
ATOM     13  C   LIG    1       25.624 -23.006  16.967  0.00  0.00    +0.500 C 
ATOM     14  O   LIG    1       25.769 -22.549  18.081  0.00  0.00    -0.440 OA
ENDBRANCH   3  13
TORSDOF 3
ENDMDL
MODEL 8
REMARK VINA RESULT:    -4.804     12.049     13.514
REMARK INTER + INTRA:          -5.854
REMARK INTER:                  -5.592
REMARK INTRA:                  -0.262
REMARK UNBOUND:                -0.207
REMARK  Name = ZINC000070503655
REMARK                            x       y       z     vdW  Elec       q    Type
REMARK                         _______ _______ _______ _____ _____    ______ ____
ROOT
ATOM      1  C   LIG    1       26.227  -6.153  -0.543  0.00  0.00    +0.140 A 
ATOM      2  C   LIG    1       25.150  -5.282  -0.481  0.00  0.00    +0.040 A 
ATOM      3  C   LIG    1       24.236  -5.384   0.570  0.00  0.00    -0.130 A 
ATOM      4  C   LIG    1       24.413  -6.364   1.552  0.00  0.00    +0.090 A 
ATOM      5  C   LIG    1       25.488  -7.225   1.480  0.00  0.00    +0.100 A 
ATOM      6  C   LIG    1       26.390  -7.128   0.435  0.00  0.00    +0.000 A 
ENDROOT
BRANCH   1   8
ATOM      7  C   LIG    1       26.591  -6.622  -2.829  0.00  0.00    +0.230 C 
ATOM      8  N   LIG    1       27.144  -6.056  -1.591  0.00  0.00    -0.500 N 
ATOM      9  C   LIG    1       27.569  -4.665  -1.793  0.00  0.00    +0.230 C 
ENDBRANCH   1   8
BRANCH   6  10
ATOM     10  N   LIG    1       27.539  -8.057   0.366  0.00  0.00    +0.020 N 
ATOM     11  O   LIG    1       27.453  -9.086  -0.279  0.00  0.00    -0.090 OA
ATOM     12  O   LIG    1       28.572  -7.792   0.955  0.00  0.00    -0.190 OA
ENDBRANCH   6  10
BRANCH   3  13
ATOM     13  C   LIG    1       23.090  -4.463   0.644  0.00  0.00    +0.500 C 
ATOM     14  O   LIG    1       22.678  -4.091   1.723  0.00  0.00    -0.440 OA
ENDBRANCH   3  13
TORSDOF 3
ENDMDL
MODEL 9
REMARK VINA RESULT:    -4.524      2.471      3.228
REMARK INTER + INTRA:          -5.525
REMARK INTER:                  -5.253
REMARK INTRA:                  -0.272
REMARK UNBOUND:                -0.207
REMARK  Name = ZINC000070503655
REMARK                            x       y       z     vdW  Elec       q    Type
REMARK                         _______ _______ _______ _____ _____    ______ ____
ROOT
ATOM      1  C   LIG    1       30.653 -20.231   2.125  0.00  0.00    +0.140 A 
ATOM      2  C   LIG    1       29.820 -20.614   1.086  0.00  0.00    +0.040 A 
ATOM      3  C   LIG    1       28.436 -20.480   1.222  0.00  0.00    -0.130 A 
ATOM      4  C   LIG    1       27.902 -19.961   2.406  0.00  0.00    +0.090 A 
ATOM      5  C   LIG    1       28.741 -19.584   3.433  0.00  0.00    +0.100 A 
ATOM      6  C   LIG    1       30.111 -19.723   3.301  0.00  0.00    +0.000 A 
ENDROOT
BRANCH   1   8
ATOM      7  C   LIG    1       32.431 -21.778   1.953  0.00  0.00    +0.230 C 
ATOM      8  N   LIG    1       32.038 -20.363   1.995  0.00  0.00    -0.500 N 
ATOM      9  C   LIG    1       32.526 -19.646   0.811  0.00  0.00    +0.230 C 
ENDBRANCH   1   8
BRANCH   6  10
ATOM     10  N   LIG    1       31.003 -19.315   4.409  0.00  0.00    +0.020 N 
ATOM     11  O   LIG    1       31.454 -18.184   4.443  0.00  0.00    -0.090 OA
ATOM     12  O   LIG    1       31.287 -20.111   5.286  0.00  0.00    -0.190 OA
ENDBRANCH   6  10
BRANCH   3  13
ATOM     13  C   LIG    1       27.544 -20.884   0.124  0.00  0.00    +0.500 C 
ATOM     14  O   LIG    1       26.473 -21.399   0.369  0.00  0.00    -0.440 OA
ENDBRANCH   3  13
TORSDOF 3
ENDMDL
