MODEL 1
REMARK VINA RESULT:    -5.882      0.000      0.000
REMARK INTER + INTRA:          -6.822
REMARK INTER:                  -6.742
REMARK INTRA:                  -0.081
REMARK UNBOUND:                -0.081
REMARK  Name = ZINC000034168138
REMARK                            x       y       z     vdW  Elec       q    Type
REMARK                         _______ _______ _______ _____ _____    ______ ____
ROOT
ATOM      1  C   LIG    1       29.086 -18.047   0.637  0.00  0.00    +0.200 A 
ATOM      2  C   LIG    1       28.179 -19.028   0.262  0.00  0.00    +0.070 A 
ATOM      3  C   LIG    1       27.704 -19.924   1.199  0.00  0.00    -0.010 A 
ATOM      4  C   LIG    1       28.132 -19.847   2.511  0.00  0.00    +0.070 A 
ATOM      5  C   LIG    1       29.037 -18.872   2.892  0.00  0.00    +0.060 A 
ATOM      6  C   LIG    1       29.520 -17.975   1.957  0.00  0.00    +0.070 A 
ATOM      7  F   LIG    1       30.404 -17.023   2.328  0.00  0.00    -0.130 F 
ENDROOT
BRANCH   3   8
ATOM      8  N   LIG    1       26.736 -20.969   0.797  0.00  0.00    +0.030 N 
ATOM      9  O   LIG    1       25.789 -21.231   1.518  0.00  0.00    -0.150 OA
ATOM     10  O   LIG    1       26.886 -21.567  -0.253  0.00  0.00    -0.150 OA
ENDBRANCH   3   8
BRANCH   1  11
ATOM     11  N   LIG    1       29.570 -17.139  -0.310  0.00  0.00    -0.580 N 
ATOM     12  H   LIG    1       30.506 -16.882  -0.302  0.00  0.00    +0.410 HD
BRANCH  11  13
ATOM     13  N   LIG    1       28.725 -16.612  -1.244  0.00  0.00    -0.600 NA
ATOM     14  H   LIG    1       28.510 -15.649  -1.035  0.00  0.00    +0.370 HD
ATOM     15  H   LIG    1       27.884 -17.162  -1.323  0.00  0.00    +0.340 HD
ENDBRANCH  11  13
ENDBRANCH   1  11
TORSDOF 3
ENDMDL
MODEL 2
REMARK VINA RESULT:    -5.809      2.140      2.950
REMARK INTER + INTRA:          -6.739
REMARK INTER:                  -6.647
REMARK INTRA:                  -0.093
REMARK UNBOUND:                -0.081
REMARK  Name = ZINC000034168138
REMARK                            x       y       z     vdW  Elec       q    Type
REMARK                         _______ _______ _______ _____ _____    ______ ____
ROOT
ATOM      1  C   LIG    1       28.803 -19.192   3.138  0.00  0.00    +0.200 A 
ATOM      2  C   LIG    1       27.969 -20.093   2.493  0.00  0.00    +0.070 A 
ATOM      3  C   LIG    1       27.780 -20.005   1.128  0.00  0.00    -0.010 A 
ATOM      4  C   LIG    1       28.421 -19.018   0.402  0.00  0.00    +0.070 A 
ATOM      5  C   LIG    1       29.255 -18.116   1.039  0.00  0.00    +0.060 A 
ATOM      6  C   LIG    1       29.443 -18.196   2.407  0.00  0.00    +0.070 A 
ATOM      7  F   LIG    1       30.257 -17.316   3.030  0.00  0.00    -0.130 F 
ENDROOT
BRANCH   3   8
ATOM      8  N   LIG    1       26.890 -20.967   0.440  0.00  0.00    +0.030 N 
ATOM      9  O   LIG    1       25.779 -21.194   0.885  0.00  0.00    -0.150 OA
ATOM     10  O   LIG    1       27.268 -21.531  -0.571  0.00  0.00    -0.150 OA
ENDBRANCH   3   8
BRANCH   1  11
ATOM     11  N   LIG    1       28.995 -19.278   4.521  0.00  0.00    -0.580 N 
ATOM     12  H   LIG    1       28.305 -18.965   5.126  0.00  0.00    +0.410 HD
BRANCH  11  13
ATOM     13  N   LIG    1       30.155 -19.802   5.018  0.00  0.00    -0.600 NA
ATOM     14  H   LIG    1       30.700 -20.231   4.285  0.00  0.00    +0.370 HD
ATOM     15  H   LIG    1       29.967 -20.456   5.761  0.00  0.00    +0.340 HD
ENDBRANCH  11  13
ENDBRANCH   1  11
TORSDOF 3
ENDMDL
MODEL 3
REMARK VINA RESULT:    -5.512      2.927      4.234
REMARK INTER + INTRA:          -6.398
REMARK INTER:                  -6.361
REMARK INTRA:                  -0.037
REMARK UNBOUND:                -0.081
REMARK  Name = ZINC000034168138
REMARK                            x       y       z     vdW  Elec       q    Type
REMARK                         _______ _______ _______ _____ _____    ______ ____
ROOT
ATOM      1  C   LIG    1       27.524 -20.218   1.158  0.00  0.00    +0.200 A 
ATOM      2  C   LIG    1       28.111 -19.151   0.493  0.00  0.00    +0.070 A 
ATOM      3  C   LIG    1       28.968 -18.304   1.168  0.00  0.00    -0.010 A 
ATOM      4  C   LIG    1       29.242 -18.517   2.506  0.00  0.00    +0.070 A 
ATOM      5  C   LIG    1       28.659 -19.578   3.175  0.00  0.00    +0.060 A 
ATOM      6  C   LIG    1       27.796 -20.427   2.507  0.00  0.00    +0.070 A 
ATOM      7  F   LIG    1       27.227 -21.463   3.159  0.00  0.00    -0.130 F 
ENDROOT
BRANCH   3   8
ATOM      8  N   LIG    1       29.594 -17.167   0.457  0.00  0.00    +0.030 N 
ATOM      9  O   LIG    1       29.424 -17.029  -0.741  0.00  0.00    -0.150 OA
ATOM     10  O   LIG    1       30.280 -16.368   1.071  0.00  0.00    -0.150 OA
ENDBRANCH   3   8
BRANCH   1  11
ATOM     11  N   LIG    1       26.654 -21.076   0.478  0.00  0.00    -0.580 N 
ATOM     12  H   LIG    1       26.987 -21.631  -0.244  0.00  0.00    +0.410 HD
BRANCH  11  13
ATOM     13  N   LIG    1       25.335 -21.132   0.831  0.00  0.00    -0.600 NA
ATOM     14  H   LIG    1       25.082 -22.060   1.136  0.00  0.00    +0.370 HD
ATOM     15  H   LIG    1       24.745 -20.826   0.073  0.00  0.00    +0.340 HD
ENDBRANCH  11  13
ENDBRANCH   1  11
TORSDOF 3
ENDMDL
MODEL 4
REMARK VINA RESULT:    -5.340      3.401      3.890
REMARK INTER + INTRA:          -6.201
REMARK INTER:                  -6.097
REMARK INTRA:                  -0.104
REMARK UNBOUND:                -0.081
REMARK  Name = ZINC000034168138
REMARK                            x       y       z     vdW  Elec       q    Type
REMARK                         _______ _______ _______ _____ _____    ______ ____
ROOT
ATOM      1  C   LIG    1       28.929 -18.513   0.897  0.00  0.00    +0.200 A 
ATOM      2  C   LIG    1       29.617 -18.124   2.038  0.00  0.00    +0.070 A 
ATOM      3  C   LIG    1       29.368 -18.753   3.242  0.00  0.00    -0.010 A 
ATOM      4  C   LIG    1       28.435 -19.770   3.313  0.00  0.00    +0.070 A 
ATOM      5  C   LIG    1       27.746 -20.163   2.179  0.00  0.00    +0.060 A 
ATOM      6  C   LIG    1       27.986 -19.533   0.972  0.00  0.00    +0.070 A 
ATOM      7  F   LIG    1       27.314 -19.916  -0.136  0.00  0.00    -0.130 F 
ENDROOT
BRANCH   3   8
ATOM      8  N   LIG    1       30.102 -18.338   4.458  0.00  0.00    +0.030 N 
ATOM      9  O   LIG    1       31.316 -18.238   4.434  0.00  0.00    -0.150 OA
ATOM     10  O   LIG    1       29.492 -18.094   5.484  0.00  0.00    -0.150 OA
ENDBRANCH   3   8
BRANCH   1  11
ATOM     11  N   LIG    1       29.178 -17.878  -0.323  0.00  0.00    -0.580 N 
ATOM     12  H   LIG    1       29.894 -18.193  -0.897  0.00  0.00    +0.410 HD
BRANCH  11  13
ATOM     13  N   LIG    1       28.414 -16.812  -0.706  0.00  0.00    -0.600 NA
ATOM     14  H   LIG    1       27.912 -17.015  -1.557  0.00  0.00    +0.370 HD
ATOM     15  H   LIG    1       28.976 -15.981  -0.806  0.00  0.00    +0.340 HD
ENDBRANCH  11  13
ENDBRANCH   1  11
TORSDOF 3
ENDMDL
MODEL 5
REMARK VINA RESULT:    -5.334      4.246      5.291
REMARK INTER + INTRA:          -6.194
REMARK INTER:                  -6.116
REMARK INTRA:                  -0.078
REMARK UNBOUND:                -0.081
REMARK  Name = ZINC000034168138
REMARK                            x       y       z     vdW  Elec       q    Type
REMARK                         _______ _______ _______ _____ _____    ______ ____
ROOT
ATOM      1  C   LIG    1       29.222 -18.817   3.269  0.00  0.00    +0.200 A 
ATOM      2  C   LIG    1       30.293 -17.939   3.172  0.00  0.00    +0.070 A 
ATOM      3  C   LIG    1       30.625 -17.387   1.951  0.00  0.00    -0.010 A 
ATOM      4  C   LIG    1       29.891 -17.706   0.824  0.00  0.00    +0.070 A 
ATOM      5  C   LIG    1       28.823 -18.580   0.913  0.00  0.00    +0.060 A 
ATOM      6  C   LIG    1       28.490 -19.142   2.132  0.00  0.00    +0.070 A 
ATOM      7  F   LIG    1       27.446 -19.995   2.220  0.00  0.00    -0.130 F 
ENDROOT
BRANCH   3   8
ATOM      8  N   LIG    1       31.767 -16.451   1.849  0.00  0.00    +0.030 N 
ATOM      9  O   LIG    1       32.854 -16.764   2.301  0.00  0.00    -0.150 OA
ATOM     10  O   LIG    1       31.620 -15.366   1.314  0.00  0.00    -0.150 OA
ENDBRANCH   3   8
BRANCH   1  11
ATOM     11  N   LIG    1       28.885 -19.380   4.504  0.00  0.00    -0.580 N 
ATOM     12  H   LIG    1       27.974 -19.664   4.675  0.00  0.00    +0.410 HD
BRANCH  11  13
ATOM     13  N   LIG    1       29.839 -19.527   5.471  0.00  0.00    -0.600 NA
ATOM     14  H   LIG    1       29.875 -18.716   6.069  0.00  0.00    +0.370 HD
ATOM     15  H   LIG    1       30.741 -19.717   5.062  0.00  0.00    +0.340 HD
ENDBRANCH  11  13
ENDBRANCH   1  11
TORSDOF 3
ENDMDL
MODEL 6
REMARK VINA RESULT:    -5.120     16.290     17.735
REMARK INTER + INTRA:          -5.949
REMARK INTER:                  -5.871
REMARK INTRA:                  -0.078
REMARK UNBOUND:                -0.081
REMARK  Name = ZINC000034168138
REMARK                            x       y       z     vdW  Elec       q    Type
REMARK                         _______ _______ _______ _____ _____    ______ ____
ROOT
ATOM      1  C   LIG    1       20.905 -24.039  16.654  0.00  0.00    +0.200 A 
ATOM      2  C   LIG    1       22.171 -23.640  17.061  0.00  0.00    +0.070 A 
ATOM      3  C   LIG    1       23.028 -23.040  16.160  0.00  0.00    -0.010 A 
ATOM      4  C   LIG    1       22.628 -22.835  14.853  0.00  0.00    +0.070 A 
ATOM      5  C   LIG    1       21.368 -23.231  14.441  0.00  0.00    +0.060 A 
ATOM      6  C   LIG    1       20.507 -23.838  15.336  0.00  0.00    +0.070 A 
ATOM      7  F   LIG    1       19.276 -24.224  14.934  0.00  0.00    -0.130 F 
ENDROOT
BRANCH   3   8
ATOM      8  N   LIG    1       24.377 -22.614  16.595  0.00  0.00    +0.030 N 
ATOM      9  O   LIG    1       24.513 -21.600  17.256  0.00  0.00    -0.150 OA
ATOM     10  O   LIG    1       25.353 -23.278  16.291  0.00  0.00    -0.150 OA
ENDBRANCH   3   8
BRANCH   1  11
ATOM     11  N   LIG    1       20.035 -24.649  17.563  0.00  0.00    -0.580 N 
ATOM     12  H   LIG    1       19.649 -25.515  17.359  0.00  0.00    +0.410 HD
BRANCH  11  13
ATOM     13  N   LIG    1       19.728 -24.023  18.738  0.00  0.00    -0.600 NA
ATOM     14  H   LIG    1       18.860 -24.371  19.116  0.00  0.00    +0.370 HD
ATOM     15  H   LIG    1       19.697 -23.023  18.619  0.00  0.00    +0.340 HD
ENDBRANCH  11  13
ENDBRANCH   1  11
TORSDOF 3
ENDMDL
MODEL 7
REMARK VINA RESULT:    -4.838     24.292     25.007
REMARK INTER + INTRA:          -5.626
REMARK INTER:                  -5.538
REMARK INTRA:                  -0.087
REMARK UNBOUND:                -0.081
REMARK  Name = ZINC000034168138
REMARK                            x       y       z     vdW  Elec       q    Type
REMARK                         _______ _______ _______ _____ _____    ______ ____
ROOT
ATOM      1  C   LIG    1       15.487 -10.332  20.333  0.00  0.00    +0.200 A 
ATOM      2  C   LIG    1       16.345 -11.398  20.565  0.00  0.00    +0.070 A 
ATOM      3  C   LIG    1       16.050 -12.321  21.549  0.00  0.00    -0.010 A 
ATOM      4  C   LIG    1       14.901 -12.185  22.304  0.00  0.00    +0.070 A 
ATOM      5  C   LIG    1       14.041 -11.125  22.079  0.00  0.00    +0.060 A 
ATOM      6  C   LIG    1       14.334 -10.194  21.099  0.00  0.00    +0.070 A 
ATOM      7  F   LIG    1       13.494  -9.159  20.878  0.00  0.00    -0.130 F 
ENDROOT
BRANCH   3   8
ATOM      8  N   LIG    1       16.966 -13.457  21.795  0.00  0.00    +0.030 N 
ATOM      9  O   LIG    1       16.739 -14.543  21.291  0.00  0.00    -0.150 OA
ATOM     10  O   LIG    1       17.947 -13.307  22.501  0.00  0.00    -0.150 OA
ENDBRANCH   3   8
BRANCH   1  11
ATOM     11  N   LIG    1       15.783  -9.395  19.339  0.00  0.00    -0.580 N 
ATOM     12  H   LIG    1       16.466  -8.724  19.493  0.00  0.00    +0.410 HD
BRANCH  11  13
ATOM     13  N   LIG    1       15.111  -9.425  18.150  0.00  0.00    -0.600 NA
ATOM     14  H   LIG    1       15.227  -8.558  17.648  0.00  0.00    +0.370 HD
ATOM     15  H   LIG    1       14.135  -9.633  18.292  0.00  0.00    +0.340 HD
ENDBRANCH  11  13
ENDBRANCH   1  11
TORSDOF 3
ENDMDL
MODEL 8
REMARK VINA RESULT:    -4.743     15.799     16.840
REMARK INTER + INTRA:          -5.517
REMARK INTER:                  -5.430
REMARK INTRA:                  -0.087
REMARK UNBOUND:                -0.081
REMARK  Name = ZINC000034168138
REMARK                            x       y       z     vdW  Elec       q    Type
REMARK                         _______ _______ _______ _____ _____    ______ ____
ROOT
ATOM      1  C   LIG    1       23.166 -22.777  15.143  0.00  0.00    +0.200 A 
ATOM      2  C   LIG    1       22.587 -22.560  16.385  0.00  0.00    +0.070 A 
ATOM      3  C   LIG    1       21.215 -22.623  16.528  0.00  0.00    -0.010 A 
ATOM      4  C   LIG    1       20.417 -22.902  15.434  0.00  0.00    +0.070 A 
ATOM      5  C   LIG    1       20.988 -23.120  14.193  0.00  0.00    +0.060 A 
ATOM      6  C   LIG    1       22.361 -23.052  14.042  0.00  0.00    +0.070 A 
ATOM      7  F   LIG    1       22.919 -23.265  12.831  0.00  0.00    -0.130 F 
ENDROOT
BRANCH   3   8
ATOM      8  N   LIG    1       20.598 -22.391  17.853  0.00  0.00    +0.030 N 
ATOM      9  O   LIG    1       20.375 -21.254  18.231  0.00  0.00    -0.150 OA
ATOM     10  O   LIG    1       20.313 -23.336  18.566  0.00  0.00    -0.150 OA
ENDBRANCH   3   8
BRANCH   1  11
ATOM     11  N   LIG    1       24.556 -22.712  14.995  0.00  0.00    -0.580 N 
ATOM     12  H   LIG    1       24.959 -21.962  14.531  0.00  0.00    +0.410 HD
BRANCH  11  13
ATOM     13  N   LIG    1       25.343 -23.706  15.504  0.00  0.00    -0.600 NA
ATOM     14  H   LIG    1       25.016 -24.613  15.208  0.00  0.00    +0.370 HD
ATOM     15  H   LIG    1       25.394 -23.648  16.509  0.00  0.00    +0.340 HD
ENDBRANCH  11  13
ENDBRANCH   1  11
TORSDOF 3
ENDMDL
MODEL 9
REMARK VINA RESULT:    -4.619     25.197     25.595
REMARK INTER + INTRA:          -5.375
REMARK INTER:                  -5.296
REMARK INTRA:                  -0.079
REMARK UNBOUND:                -0.081
REMARK  Name = ZINC000034168138
REMARK                            x       y       z     vdW  Elec       q    Type
REMARK                         _______ _______ _______ _____ _____    ______ ____
ROOT
ATOM      1  C   LIG    1       13.950  -2.346  11.563  0.00  0.00    +0.200 A 
ATOM      2  C   LIG    1       13.121  -1.532  12.322  0.00  0.00    +0.070 A 
ATOM      3  C   LIG    1       12.034  -2.073  12.978  0.00  0.00    -0.010 A 
ATOM      4  C   LIG    1       11.769  -3.427  12.881  0.00  0.00    +0.070 A 
ATOM      5  C   LIG    1       12.592  -4.244  12.127  0.00  0.00    +0.060 A 
ATOM      6  C   LIG    1       13.679  -3.707  11.462  0.00  0.00    +0.070 A 
ATOM      7  F   LIG    1       14.482  -4.505  10.726  0.00  0.00    -0.130 F 
ENDROOT
BRANCH   3   8
ATOM      8  N   LIG    1       11.150  -1.204  13.786  0.00  0.00    +0.030 N 
ATOM      9  O   LIG    1        9.991  -1.034  13.452  0.00  0.00    -0.150 OA
ATOM     10  O   LIG    1       11.581  -0.658  14.786  0.00  0.00    -0.150 OA
ENDBRANCH   3   8
BRANCH   1  11
ATOM     11  N   LIG    1       15.051  -1.800  10.896  0.00  0.00    -0.580 N 
ATOM     12  H   LIG    1       15.929  -2.200  11.001  0.00  0.00    +0.410 HD
BRANCH  11  13
ATOM     13  N   LIG    1       14.891  -0.703  10.098  0.00  0.00    -0.600 NA
ATOM     14  H   LIG    1       14.001  -0.259  10.269  0.00  0.00    +0.370 HD
ATOM     15  H   LIG    1       14.993  -0.946   9.125  0.00  0.00    +0.340 HD
ENDBRANCH  11  13
ENDBRANCH   1  11
TORSDOF 3
ENDMDL
