MODEL 1
REMARK VINA RESULT:    -6.583      0.000      0.000
REMARK INTER + INTRA:          -7.031
REMARK INTER:                  -6.968
REMARK INTRA:                  -0.063
REMARK UNBOUND:                -0.063
REMARK  Name = ZINC000110768734
REMARK                            x       y       z     vdW  Elec       q    Type
REMARK                         _______ _______ _______ _____ _____    ______ ____
ROOT
ATOM      1  C   LIG    1       31.664 -18.099   3.412  0.00  0.00    +0.090 C 
ATOM      2  C   LIG    1       30.383 -17.410   2.937  0.00  0.00    +0.060 C 
ATOM      3  C   LIG    1       30.669 -16.523   1.745  0.00  0.00    +0.530 C 
ATOM      4  N   LIG    1       29.942 -16.993   0.718  0.00  0.00    -0.660 N 
ATOM      5  H   LIG    1       29.942 -16.603  -0.170  0.00  0.00    +0.420 HD
ATOM      6  C   LIG    1       29.185 -18.110   1.075  0.00  0.00    +0.200 A 
ATOM      7  C   LIG    1       28.308 -18.893   0.327  0.00  0.00    +0.010 A 
ATOM      8  C   LIG    1       27.665 -19.965   0.912  0.00  0.00    +0.150 A 
ATOM      9  C   LIG    1       27.886 -20.271   2.243  0.00  0.00    -0.070 A 
ATOM     10  C   LIG    1       28.755 -19.497   2.992  0.00  0.00    +0.160 A 
ATOM     11  O   LIG    1       31.415 -15.566   1.720  0.00  0.00    -0.480 OA
ATOM     12  C   LIG    1       29.396 -18.428   2.414  0.00  0.00    -0.140 A 
ENDROOT
BRANCH   9  13
ATOM     13  N   LIG    1       27.194 -21.422   2.864  0.00  0.00    +0.030 N 
ATOM     14  O   LIG    1       25.984 -21.404   3.002  0.00  0.00    -0.160 OA
ATOM     15  O   LIG    1       27.835 -22.388   3.238  0.00  0.00    -0.160 OA
ENDBRANCH   9  13
TORSDOF 1
ENDMDL
MODEL 2
REMARK VINA RESULT:    -6.526      2.748      4.614
REMARK INTER + INTRA:          -6.970
REMARK INTER:                  -6.907
REMARK INTRA:                  -0.064
REMARK UNBOUND:                -0.063
REMARK  Name = ZINC000110768734
REMARK                            x       y       z     vdW  Elec       q    Type
REMARK                         _______ _______ _______ _____ _____    ______ ____
ROOT
ATOM      1  C   LIG    1       26.041 -21.039   2.988  0.00  0.00    +0.090 C 
ATOM      2  C   LIG    1       27.343 -21.093   2.187  0.00  0.00    +0.060 C 
ATOM      3  C   LIG    1       27.084 -20.761   0.733  0.00  0.00    +0.530 C 
ATOM      4  N   LIG    1       27.795 -19.657   0.447  0.00  0.00    -0.660 N 
ATOM      5  H   LIG    1       27.806 -19.231  -0.425  0.00  0.00    +0.420 HD
ATOM      6  C   LIG    1       28.515 -19.192   1.548  0.00  0.00    +0.200 A 
ATOM      7  C   LIG    1       29.365 -18.096   1.684  0.00  0.00    +0.010 A 
ATOM      8  C   LIG    1       29.973 -17.838   2.895  0.00  0.00    +0.150 A 
ATOM      9  C   LIG    1       29.744 -18.661   3.982  0.00  0.00    -0.070 A 
ATOM     10  C   LIG    1       28.902 -19.752   3.854  0.00  0.00    +0.160 A 
ATOM     11  O   LIG    1       26.370 -21.375  -0.031  0.00  0.00    -0.480 OA
ATOM     12  C   LIG    1       28.296 -20.014   2.650  0.00  0.00    -0.140 A 
ENDROOT
BRANCH   9  13
ATOM     13  N   LIG    1       30.399 -18.378   5.279  0.00  0.00    +0.030 N 
ATOM     14  O   LIG    1       29.724 -18.111   6.257  0.00  0.00    -0.160 OA
ATOM     15  O   LIG    1       31.614 -18.410   5.368  0.00  0.00    -0.160 OA
ENDBRANCH   9  13
TORSDOF 1
ENDMDL
MODEL 3
REMARK VINA RESULT:    -6.427      1.273      2.404
REMARK INTER + INTRA:          -6.865
REMARK INTER:                  -6.792
REMARK INTRA:                  -0.074
REMARK UNBOUND:                -0.063
REMARK  Name = ZINC000110768734
REMARK                            x       y       z     vdW  Elec       q    Type
REMARK                         _______ _______ _______ _____ _____    ______ ____
ROOT
ATOM      1  C   LIG    1       28.702 -16.979  -0.725  0.00  0.00    +0.090 C 
ATOM      2  C   LIG    1       29.669 -17.959  -0.057  0.00  0.00    +0.060 C 
ATOM      3  C   LIG    1       30.746 -17.209   0.697  0.00  0.00    +0.530 C 
ATOM      4  N   LIG    1       30.636 -17.552   1.991  0.00  0.00    -0.660 N 
ATOM      5  H   LIG    1       31.211 -17.210   2.693  0.00  0.00    +0.420 HD
ATOM      6  C   LIG    1       29.598 -18.458   2.211  0.00  0.00    +0.200 A 
ATOM      7  C   LIG    1       29.147 -19.062   3.384  0.00  0.00    +0.010 A 
ATOM      8  C   LIG    1       28.084 -19.940   3.346  0.00  0.00    +0.150 A 
ATOM      9  C   LIG    1       27.457 -20.228   2.148  0.00  0.00    -0.070 A 
ATOM     10  C   LIG    1       27.899 -19.633   0.979  0.00  0.00    +0.160 A 
ATOM     11  O   LIG    1       31.557 -16.441   0.223  0.00  0.00    -0.480 OA
ATOM     12  C   LIG    1       28.959 -18.760   1.011  0.00  0.00    -0.140 A 
ENDROOT
BRANCH   9  13
ATOM     13  N   LIG    1       26.316 -21.170   2.115  0.00  0.00    +0.030 N 
ATOM     14  O   LIG    1       26.009 -21.791   3.117  0.00  0.00    -0.160 OA
ATOM     15  O   LIG    1       25.683 -21.325   1.086  0.00  0.00    -0.160 OA
ENDBRANCH   9  13
TORSDOF 1
ENDMDL
MODEL 4
REMARK VINA RESULT:    -6.370      1.215      5.273
REMARK INTER + INTRA:          -6.806
REMARK INTER:                  -6.742
REMARK INTRA:                  -0.064
REMARK UNBOUND:                -0.063
REMARK  Name = ZINC000110768734
REMARK                            x       y       z     vdW  Elec       q    Type
REMARK                         _______ _______ _______ _____ _____    ______ ____
ROOT
ATOM      1  C   LIG    1       28.493 -20.740   0.103  0.00  0.00    +0.090 C 
ATOM      2  C   LIG    1       27.810 -19.823   1.120  0.00  0.00    +0.060 C 
ATOM      3  C   LIG    1       27.093 -20.641   2.173  0.00  0.00    +0.530 C 
ATOM      4  N   LIG    1       27.654 -20.342   3.356  0.00  0.00    -0.660 N 
ATOM      5  H   LIG    1       27.378 -20.731   4.200  0.00  0.00    +0.420 HD
ATOM      6  C   LIG    1       28.681 -19.405   3.233  0.00  0.00    +0.200 A 
ATOM      7  C   LIG    1       29.510 -18.830   4.194  0.00  0.00    +0.010 A 
ATOM      8  C   LIG    1       30.470 -17.911   3.820  0.00  0.00    +0.150 A 
ATOM      9  C   LIG    1       30.617 -17.555   2.492  0.00  0.00    -0.070 A 
ATOM     10  C   LIG    1       29.797 -18.122   1.532  0.00  0.00    +0.160 A 
ATOM     11  O   LIG    1       26.183 -21.420   1.985  0.00  0.00    -0.480 OA
ATOM     12  C   LIG    1       28.839 -19.036   1.900  0.00  0.00    -0.140 A 
ENDROOT
BRANCH   9  13
ATOM     13  N   LIG    1       31.649 -16.570   2.098  0.00  0.00    +0.030 N 
ATOM     14  O   LIG    1       31.318 -15.488   1.647  0.00  0.00    -0.160 OA
ATOM     15  O   LIG    1       32.830 -16.841   2.223  0.00  0.00    -0.160 OA
ENDBRANCH   9  13
TORSDOF 1
ENDMDL
MODEL 5
REMARK VINA RESULT:    -6.087      1.436      5.001
REMARK INTER + INTRA:          -6.506
REMARK INTER:                  -6.433
REMARK INTRA:                  -0.073
REMARK UNBOUND:                -0.063
REMARK  Name = ZINC000110768734
REMARK                            x       y       z     vdW  Elec       q    Type
REMARK                         _______ _______ _______ _____ _____    ______ ____
ROOT
ATOM      1  C   LIG    1       28.317 -19.717   4.008  0.00  0.00    +0.090 C 
ATOM      2  C   LIG    1       28.722 -20.212   2.618  0.00  0.00    +0.060 C 
ATOM      3  C   LIG    1       27.501 -20.632   1.828  0.00  0.00    +0.530 C 
ATOM      4  N   LIG    1       27.442 -19.843   0.742  0.00  0.00    -0.660 N 
ATOM      5  H   LIG    1       26.750 -19.904   0.066  0.00  0.00    +0.420 HD
ATOM      6  C   LIG    1       28.492 -18.924   0.698  0.00  0.00    +0.200 A 
ATOM      7  C   LIG    1       28.803 -17.939  -0.237  0.00  0.00    +0.010 A 
ATOM      8  C   LIG    1       29.914 -17.141  -0.059  0.00  0.00    +0.150 A 
ATOM      9  C   LIG    1       30.726 -17.310   1.048  0.00  0.00    -0.070 A 
ATOM     10  C   LIG    1       30.424 -18.286   1.981  0.00  0.00    +0.160 A 
ATOM     11  O   LIG    1       26.721 -21.514   2.119  0.00  0.00    -0.480 OA
ATOM     12  C   LIG    1       29.319 -19.085   1.806  0.00  0.00    -0.140 A 
ENDROOT
BRANCH   9  13
ATOM     13  N   LIG    1       31.916 -16.450   1.233  0.00  0.00    +0.030 N 
ATOM     14  O   LIG    1       32.029 -15.419   0.594  0.00  0.00    -0.160 OA
ATOM     15  O   LIG    1       32.783 -16.772   2.026  0.00  0.00    -0.160 OA
ENDBRANCH   9  13
TORSDOF 1
ENDMDL
MODEL 6
REMARK VINA RESULT:    -5.765      2.173      5.366
REMARK INTER + INTRA:          -6.166
REMARK INTER:                  -6.093
REMARK INTRA:                  -0.072
REMARK UNBOUND:                -0.063
REMARK  Name = ZINC000110768734
REMARK                            x       y       z     vdW  Elec       q    Type
REMARK                         _______ _______ _______ _____ _____    ______ ____
ROOT
ATOM      1  C   LIG    1       26.415 -20.817   0.946  0.00  0.00    +0.090 C 
ATOM      2  C   LIG    1       27.540 -20.360   1.877  0.00  0.00    +0.060 C 
ATOM      3  C   LIG    1       28.196 -21.552   2.540  0.00  0.00    +0.530 C 
ATOM      4  N   LIG    1       29.485 -21.556   2.160  0.00  0.00    -0.660 N 
ATOM      5  H   LIG    1       30.132 -22.220   2.446  0.00  0.00    +0.420 HD
ATOM      6  C   LIG    1       29.788 -20.495   1.306  0.00  0.00    +0.200 A 
ATOM      7  C   LIG    1       30.985 -20.133   0.691  0.00  0.00    +0.010 A 
ATOM      8  C   LIG    1       31.035 -19.021  -0.124  0.00  0.00    +0.150 A 
ATOM      9  C   LIG    1       29.902 -18.257  -0.338  0.00  0.00    -0.070 A 
ATOM     10  C   LIG    1       28.710 -18.611   0.271  0.00  0.00    +0.160 A 
ATOM     11  O   LIG    1       27.661 -22.354   3.275  0.00  0.00    -0.480 OA
ATOM     12  C   LIG    1       28.655 -19.716   1.085  0.00  0.00    -0.140 A 
ENDROOT
BRANCH   9  13
ATOM     13  N   LIG    1       29.963 -17.066  -1.214  0.00  0.00    +0.030 N 
ATOM     14  O   LIG    1       31.039 -16.559  -1.478  0.00  0.00    -0.160 OA
ATOM     15  O   LIG    1       28.938 -16.593  -1.670  0.00  0.00    -0.160 OA
ENDBRANCH   9  13
TORSDOF 1
ENDMDL
MODEL 7
REMARK VINA RESULT:    -5.489     20.565     21.925
REMARK INTER + INTRA:          -5.873
REMARK INTER:                  -5.801
REMARK INTRA:                  -0.072
REMARK UNBOUND:                -0.063
REMARK  Name = ZINC000110768734
REMARK                            x       y       z     vdW  Elec       q    Type
REMARK                         _______ _______ _______ _____ _____    ______ ____
ROOT
ATOM      1  C   LIG    1       24.549   1.893  13.426  0.00  0.00    +0.090 C 
ATOM      2  C   LIG    1       25.017   0.496  13.015  0.00  0.00    +0.060 C 
ATOM      3  C   LIG    1       24.200  -0.565  13.719  0.00  0.00    +0.530 C 
ATOM      4  N   LIG    1       23.574  -1.279  12.768  0.00  0.00    -0.660 N 
ATOM      5  H   LIG    1       22.982  -2.025  12.952  0.00  0.00    +0.420 HD
ATOM      6  C   LIG    1       23.872  -0.823  11.483  0.00  0.00    +0.200 A 
ATOM      7  C   LIG    1       23.444  -1.271  10.235  0.00  0.00    +0.010 A 
ATOM      8  C   LIG    1       23.886  -0.647   9.086  0.00  0.00    +0.150 A 
ATOM      9  C   LIG    1       24.755   0.426   9.163  0.00  0.00    -0.070 A 
ATOM     10  C   LIG    1       25.184   0.876  10.400  0.00  0.00    +0.160 A 
ATOM     11  O   LIG    1       24.123  -0.740  14.917  0.00  0.00    -0.480 OA
ATOM     12  C   LIG    1       24.749   0.257  11.546  0.00  0.00    -0.140 A 
ENDROOT
BRANCH   9  13
ATOM     13  N   LIG    1       25.224   1.092   7.928  0.00  0.00    +0.030 N 
ATOM     14  O   LIG    1       25.659   2.228   7.975  0.00  0.00    -0.160 OA
ATOM     15  O   LIG    1       25.175   0.502   6.862  0.00  0.00    -0.160 OA
ENDBRANCH   9  13
TORSDOF 1
ENDMDL
MODEL 8
REMARK VINA RESULT:    -5.367     12.953     14.867
REMARK INTER + INTRA:          -5.744
REMARK INTER:                  -5.671
REMARK INTRA:                  -0.074
REMARK UNBOUND:                -0.063
REMARK  Name = ZINC000110768734
REMARK                            x       y       z     vdW  Elec       q    Type
REMARK                         _______ _______ _______ _____ _____    ______ ____
ROOT
ATOM      1  C   LIG    1       27.090  -5.399  -1.127  0.00  0.00    +0.090 C 
ATOM      2  C   LIG    1       26.092  -6.448  -0.631  0.00  0.00    +0.060 C 
ATOM      3  C   LIG    1       26.732  -7.335   0.414  0.00  0.00    +0.530 C 
ATOM      4  N   LIG    1       26.033  -7.177   1.551  0.00  0.00    -0.660 N 
ATOM      5  H   LIG    1       26.237  -7.636   2.380  0.00  0.00    +0.420 HD
ATOM      6  C   LIG    1       24.980  -6.274   1.401  0.00  0.00    +0.200 A 
ATOM      7  C   LIG    1       24.024  -5.829   2.313  0.00  0.00    +0.010 A 
ATOM      8  C   LIG    1       23.066  -4.917   1.922  0.00  0.00    +0.150 A 
ATOM      9  C   LIG    1       23.044  -4.438   0.624  0.00  0.00    -0.070 A 
ATOM     10  C   LIG    1       23.990  -4.876  -0.287  0.00  0.00    +0.160 A 
ATOM     11  O   LIG    1       27.696  -8.056   0.257  0.00  0.00    -0.480 OA
ATOM     12  C   LIG    1       24.945  -5.785   0.098  0.00  0.00    -0.140 A 
ENDROOT
BRANCH   9  13
ATOM     13  N   LIG    1       22.014  -3.459   0.212  0.00  0.00    +0.030 N 
ATOM     14  O   LIG    1       21.174  -3.085   1.011  0.00  0.00    -0.160 OA
ATOM     15  O   LIG    1       22.005  -3.028  -0.928  0.00  0.00    -0.160 OA
ENDBRANCH   9  13
TORSDOF 1
ENDMDL
MODEL 9
REMARK VINA RESULT:    -5.183     20.922     21.642
REMARK INTER + INTRA:          -5.549
REMARK INTER:                  -5.485
REMARK INTRA:                  -0.064
REMARK UNBOUND:                -0.063
REMARK  Name = ZINC000110768734
REMARK                            x       y       z     vdW  Elec       q    Type
REMARK                         _______ _______ _______ _____ _____    ______ ____
ROOT
ATOM      1  C   LIG    1       27.158   1.308  10.098  0.00  0.00    +0.090 C 
ATOM      2  C   LIG    1       25.649   1.511   9.945  0.00  0.00    +0.060 C 
ATOM      3  C   LIG    1       25.205   1.142   8.546  0.00  0.00    +0.530 C 
ATOM      4  N   LIG    1       24.331   0.129   8.663  0.00  0.00    -0.660 N 
ATOM      5  H   LIG    1       23.892  -0.298   7.910  0.00  0.00    +0.420 HD
ATOM      6  C   LIG    1       24.125  -0.242   9.992  0.00  0.00    +0.200 A 
ATOM      7  C   LIG    1       23.314  -1.229  10.549  0.00  0.00    +0.010 A 
ATOM      8  C   LIG    1       23.279  -1.407  11.917  0.00  0.00    +0.150 A 
ATOM      9  C   LIG    1       24.048  -0.610  12.746  0.00  0.00    -0.070 A 
ATOM     10  C   LIG    1       24.856   0.372  12.200  0.00  0.00    +0.160 A 
ATOM     11  O   LIG    1       25.568   1.664   7.513  0.00  0.00    -0.480 OA
ATOM     12  C   LIG    1       24.892   0.555  10.839  0.00  0.00    -0.140 A 
ENDROOT
BRANCH   9  13
ATOM     13  N   LIG    1       24.007  -0.807  14.212  0.00  0.00    +0.030 N 
ATOM     14  O   LIG    1       22.967  -0.632  14.821  0.00  0.00    -0.160 OA
ATOM     15  O   LIG    1       25.013  -1.145  14.809  0.00  0.00    -0.160 OA
ENDBRANCH   9  13
TORSDOF 1
ENDMDL
