MODEL 1
REMARK VINA RESULT:    -5.276      0.000      0.000
REMARK INTER + INTRA:          -6.153
REMARK INTER:                  -6.047
REMARK INTRA:                  -0.105
REMARK UNBOUND:                -0.105
REMARK  Name = ZINC000097447146
REMARK                            x       y       z     vdW  Elec       q    Type
REMARK                         _______ _______ _______ _____ _____    ______ ____
ROOT
ATOM      1  C   LIG    1       28.581 -18.918   1.247  0.00  0.00    +0.220 A 
ATOM      2  C   LIG    1       29.474 -18.122   1.949  0.00  0.00    -0.070 A 
ATOM      3  C   LIG    1       29.743 -18.393   3.279  0.00  0.00    +0.180 A 
ATOM      4  C   LIG    1       29.117 -19.460   3.909  0.00  0.00    +0.040 A 
ATOM      5  C   LIG    1       28.223 -20.254   3.206  0.00  0.00    +0.160 A 
ATOM      6  F   LIG    1       30.614 -17.620   3.963  0.00  0.00    -0.110 F 
ATOM      7  C   LIG    1       27.952 -19.980   1.880  0.00  0.00    -0.080 A 
ENDROOT
BRANCH   7   8
ATOM      8  N   LIG    1       26.998 -20.827   1.130  0.00  0.00    +0.040 N 
ATOM      9  O   LIG    1       25.800 -20.706   1.314  0.00  0.00    -0.130 OA
ATOM     10  O   LIG    1       27.412 -21.646   0.329  0.00  0.00    -0.170 OA
ENDBRANCH   7   8
BRANCH   1  12
ATOM     11  C   LIG    1       28.789 -17.406  -0.578  0.00  0.00    +0.270 C 
ATOM     12  O   LIG    1       28.316 -18.652  -0.060  0.00  0.00    -0.270 OA
ENDBRANCH   1  12
BRANCH   4  13
ATOM     13  O   LIG    1       29.381 -19.726   5.217  0.00  0.00    -0.470 OA
ATOM     14  H   LIG    1       29.181 -18.993   5.816  0.00  0.00    +0.400 HD
ENDBRANCH   4  13
TORSDOF 3
ENDMDL
MODEL 2
REMARK VINA RESULT:    -5.269      2.410      3.969
REMARK INTER + INTRA:          -6.144
REMARK INTER:                  -5.939
REMARK INTRA:                  -0.205
REMARK UNBOUND:                -0.105
REMARK  Name = ZINC000097447146
REMARK                            x       y       z     vdW  Elec       q    Type
REMARK                         _______ _______ _______ _____ _____    ______ ____
ROOT
ATOM      1  C   LIG    1       29.000 -18.740   2.136  0.00  0.00    +0.220 A 
ATOM      2  C   LIG    1       28.352 -19.645   2.964  0.00  0.00    -0.070 A 
ATOM      3  C   LIG    1       27.452 -20.549   2.428  0.00  0.00    +0.180 A 
ATOM      4  C   LIG    1       27.199 -20.549   1.063  0.00  0.00    +0.040 A 
ATOM      5  C   LIG    1       27.847 -19.643   0.237  0.00  0.00    +0.160 A 
ATOM      6  F   LIG    1       26.821 -21.431   3.233  0.00  0.00    -0.110 F 
ATOM      7  C   LIG    1       28.742 -18.738   0.773  0.00  0.00    -0.080 A 
ENDROOT
BRANCH   7   8
ATOM      8  N   LIG    1       29.434 -17.771  -0.108  0.00  0.00    +0.040 N 
ATOM      9  O   LIG    1       28.928 -16.688  -0.341  0.00  0.00    -0.130 OA
ATOM     10  O   LIG    1       30.509 -18.060  -0.601  0.00  0.00    -0.170 OA
ENDBRANCH   7   8
BRANCH   1  12
ATOM     11  C   LIG    1       31.152 -18.364   3.076  0.00  0.00    +0.270 C 
ATOM     12  O   LIG    1       29.884 -17.851   2.662  0.00  0.00    -0.270 OA
ENDBRANCH   1  12
BRANCH   4  13
ATOM     13  O   LIG    1       26.314 -21.438   0.536  0.00  0.00    -0.470 OA
ATOM     14  H   LIG    1       26.475 -21.649  -0.395  0.00  0.00    +0.400 HD
ENDBRANCH   4  13
TORSDOF 3
ENDMDL
MODEL 3
REMARK VINA RESULT:    -5.141      2.581      3.977
REMARK INTER + INTRA:          -5.998
REMARK INTER:                  -5.826
REMARK INTRA:                  -0.172
REMARK UNBOUND:                -0.105
REMARK  Name = ZINC000097447146
REMARK                            x       y       z     vdW  Elec       q    Type
REMARK                         _______ _______ _______ _____ _____    ______ ____
ROOT
ATOM      1  C   LIG    1       29.327 -18.842   2.294  0.00  0.00    +0.220 A 
ATOM      2  C   LIG    1       28.659 -19.091   1.105  0.00  0.00    -0.070 A 
ATOM      3  C   LIG    1       27.585 -19.963   1.085  0.00  0.00    +0.180 A 
ATOM      4  C   LIG    1       27.177 -20.588   2.257  0.00  0.00    +0.040 A 
ATOM      5  C   LIG    1       27.848 -20.338   3.445  0.00  0.00    +0.160 A 
ATOM      6  F   LIG    1       26.932 -20.206  -0.072  0.00  0.00    -0.110 F 
ATOM      7  C   LIG    1       28.923 -19.472   3.462  0.00  0.00    -0.080 A 
ENDROOT
BRANCH   7   8
ATOM      8  N   LIG    1       29.638 -19.205   4.730  0.00  0.00    +0.040 N 
ATOM      9  O   LIG    1       30.509 -19.967   5.110  0.00  0.00    -0.130 OA
ATOM     10  O   LIG    1       29.354 -18.224   5.394  0.00  0.00    -0.170 OA
ENDBRANCH   7   8
BRANCH   1  12
ATOM     11  C   LIG    1       30.174 -16.684   1.762  0.00  0.00    +0.270 C 
ATOM     12  O   LIG    1       30.383 -17.986   2.313  0.00  0.00    -0.270 OA
ENDBRANCH   1  12
BRANCH   4  13
ATOM     13  O   LIG    1       26.122 -21.446   2.238  0.00  0.00    -0.470 OA
ATOM     14  H   LIG    1       26.173 -22.118   1.544  0.00  0.00    +0.400 HD
ENDBRANCH   4  13
TORSDOF 3
ENDMDL
MODEL 4
REMARK VINA RESULT:    -5.132      3.008      3.988
REMARK INTER + INTRA:          -5.988
REMARK INTER:                  -5.851
REMARK INTRA:                  -0.136
REMARK UNBOUND:                -0.105
REMARK  Name = ZINC000097447146
REMARK                            x       y       z     vdW  Elec       q    Type
REMARK                         _______ _______ _______ _____ _____    ______ ____
ROOT
ATOM      1  C   LIG    1       29.820 -18.029   1.348  0.00  0.00    +0.220 A 
ATOM      2  C   LIG    1       28.811 -18.918   1.688  0.00  0.00    -0.070 A 
ATOM      3  C   LIG    1       28.618 -19.270   3.012  0.00  0.00    +0.180 A 
ATOM      4  C   LIG    1       29.435 -18.733   3.999  0.00  0.00    +0.040 A 
ATOM      5  C   LIG    1       30.444 -17.846   3.656  0.00  0.00    +0.160 A 
ATOM      6  F   LIG    1       27.636 -20.135   3.346  0.00  0.00    -0.110 F 
ATOM      7  C   LIG    1       30.639 -17.499   2.334  0.00  0.00    -0.080 A 
ENDROOT
BRANCH   7   8
ATOM      8  N   LIG    1       31.715 -16.551   1.968  0.00  0.00    +0.040 N 
ATOM      9  O   LIG    1       31.443 -15.398   1.687  0.00  0.00    -0.130 OA
ATOM     10  O   LIG    1       32.874 -16.925   1.948  0.00  0.00    -0.170 OA
ENDBRANCH   7   8
BRANCH   1  12
ATOM     11  C   LIG    1       28.862 -17.238  -0.681  0.00  0.00    +0.270 C 
ATOM     12  O   LIG    1       30.009 -17.683   0.047  0.00  0.00    -0.270 OA
ENDBRANCH   1  12
BRANCH   4  13
ATOM     13  O   LIG    1       29.247 -19.080   5.301  0.00  0.00    -0.470 OA
ATOM     14  H   LIG    1       29.590 -19.956   5.529  0.00  0.00    +0.400 HD
ENDBRANCH   4  13
TORSDOF 3
ENDMDL
MODEL 5
REMARK VINA RESULT:    -5.097     14.595     15.948
REMARK INTER + INTRA:          -5.948
REMARK INTER:                  -5.781
REMARK INTRA:                  -0.166
REMARK UNBOUND:                -0.105
REMARK  Name = ZINC000097447146
REMARK                            x       y       z     vdW  Elec       q    Type
REMARK                         _______ _______ _______ _____ _____    ______ ____
ROOT
ATOM      1  C   LIG    1       22.595 -22.730  15.656  0.00  0.00    +0.220 A 
ATOM      2  C   LIG    1       23.409 -22.076  16.569  0.00  0.00    -0.070 A 
ATOM      3  C   LIG    1       22.849 -21.448  17.668  0.00  0.00    +0.180 A 
ATOM      4  C   LIG    1       21.473 -21.475  17.855  0.00  0.00    +0.040 A 
ATOM      5  C   LIG    1       20.661 -22.128  16.940  0.00  0.00    +0.160 A 
ATOM      6  F   LIG    1       23.640 -20.811  18.558  0.00  0.00    -0.110 F 
ATOM      7  C   LIG    1       21.221 -22.750  15.841  0.00  0.00    -0.080 A 
ENDROOT
BRANCH   7   8
ATOM      8  N   LIG    1       20.354 -23.448  14.865  0.00  0.00    +0.040 N 
ATOM      9  O   LIG    1       20.066 -22.910  13.811  0.00  0.00    -0.130 OA
ATOM     10  O   LIG    1       19.928 -24.561  15.118  0.00  0.00    -0.170 OA
ENDBRANCH   7   8
BRANCH   1  12
ATOM     11  C   LIG    1       23.571 -22.511  13.498  0.00  0.00    +0.270 C 
ATOM     12  O   LIG    1       23.145 -23.347  14.576  0.00  0.00    -0.270 OA
ENDBRANCH   1  12
BRANCH   4  13
ATOM     13  O   LIG    1       20.922 -20.857  18.934  0.00  0.00    -0.470 OA
ATOM     14  H   LIG    1       20.093 -20.395  18.743  0.00  0.00    +0.400 HD
ENDBRANCH   4  13
TORSDOF 3
ENDMDL
MODEL 6
REMARK VINA RESULT:    -5.030     14.348     15.673
REMARK INTER + INTRA:          -5.870
REMARK INTER:                  -5.717
REMARK INTRA:                  -0.153
REMARK UNBOUND:                -0.105
REMARK  Name = ZINC000097447146
REMARK                            x       y       z     vdW  Elec       q    Type
REMARK                         _______ _______ _______ _____ _____    ______ ____
ROOT
ATOM      1  C   LIG    1       21.890 -22.565  16.466  0.00  0.00    +0.220 A 
ATOM      2  C   LIG    1       23.151 -22.364  17.006  0.00  0.00    -0.070 A 
ATOM      3  C   LIG    1       24.275 -22.756  16.302  0.00  0.00    +0.180 A 
ATOM      4  C   LIG    1       24.139 -23.351  15.054  0.00  0.00    +0.040 A 
ATOM      5  C   LIG    1       22.877 -23.552  14.516  0.00  0.00    +0.160 A 
ATOM      6  F   LIG    1       25.504 -22.561  16.827  0.00  0.00    -0.110 F 
ATOM      7  C   LIG    1       21.755 -23.164  15.222  0.00  0.00    -0.080 A 
ENDROOT
BRANCH   7   8
ATOM      8  N   LIG    1       20.408 -23.378  14.647  0.00  0.00    +0.040 N 
ATOM      9  O   LIG    1       19.772 -24.374  14.939  0.00  0.00    -0.130 OA
ATOM     10  O   LIG    1       19.937 -22.557  13.880  0.00  0.00    -0.170 OA
ENDBRANCH   7   8
BRANCH   1  12
ATOM     11  C   LIG    1       20.997 -21.430  18.356  0.00  0.00    +0.270 C 
ATOM     12  O   LIG    1       20.784 -22.179  17.158  0.00  0.00    -0.270 OA
ENDBRANCH   1  12
BRANCH   4  13
ATOM     13  O   LIG    1       25.244 -23.738  14.362  0.00  0.00    -0.470 OA
ATOM     14  H   LIG    1       25.960 -23.086  14.366  0.00  0.00    +0.400 HD
ENDBRANCH   4  13
TORSDOF 3
ENDMDL
MODEL 7
REMARK VINA RESULT:    -4.985      2.372      3.895
REMARK INTER + INTRA:          -5.819
REMARK INTER:                  -5.667
REMARK INTRA:                  -0.152
REMARK UNBOUND:                -0.105
REMARK  Name = ZINC000097447146
REMARK                            x       y       z     vdW  Elec       q    Type
REMARK                         _______ _______ _______ _____ _____    ______ ____
ROOT
ATOM      1  C   LIG    1       28.302 -19.299   1.419  0.00  0.00    +0.220 A 
ATOM      2  C   LIG    1       28.263 -18.642   0.198  0.00  0.00    -0.070 A 
ATOM      3  C   LIG    1       29.147 -17.609  -0.060  0.00  0.00    +0.180 A 
ATOM      4  C   LIG    1       30.074 -17.233   0.905  0.00  0.00    +0.040 A 
ATOM      5  C   LIG    1       30.111 -17.892   2.125  0.00  0.00    +0.160 A 
ATOM      6  F   LIG    1       29.110 -16.968  -1.247  0.00  0.00    -0.110 F 
ATOM      7  C   LIG    1       29.224 -18.919   2.382  0.00  0.00    -0.080 A 
ENDROOT
BRANCH   7   8
ATOM      8  N   LIG    1       29.265 -19.622   3.684  0.00  0.00    +0.040 N 
ATOM      9  O   LIG    1       29.896 -20.656   3.799  0.00  0.00    -0.130 OA
ATOM     10  O   LIG    1       28.665 -19.165   4.641  0.00  0.00    -0.170 OA
ENDBRANCH   7   8
BRANCH   1  12
ATOM     11  C   LIG    1       26.735 -20.866   0.553  0.00  0.00    +0.270 C 
ATOM     12  O   LIG    1       27.433 -20.314   1.672  0.00  0.00    -0.270 OA
ENDBRANCH   1  12
BRANCH   4  13
ATOM     13  O   LIG    1       30.943 -16.218   0.652  0.00  0.00    -0.470 OA
ATOM     14  H   LIG    1       30.651 -15.358   0.985  0.00  0.00    +0.400 HD
ENDBRANCH   4  13
TORSDOF 3
ENDMDL
MODEL 8
REMARK VINA RESULT:    -4.935      3.179      4.265
REMARK INTER + INTRA:          -5.762
REMARK INTER:                  -5.582
REMARK INTRA:                  -0.179
REMARK UNBOUND:                -0.105
REMARK  Name = ZINC000097447146
REMARK                            x       y       z     vdW  Elec       q    Type
REMARK                         _______ _______ _______ _____ _____    ______ ____
ROOT
ATOM      1  C   LIG    1       30.220 -18.137   2.679  0.00  0.00    +0.220 A 
ATOM      2  C   LIG    1       29.398 -18.523   3.728  0.00  0.00    -0.070 A 
ATOM      3  C   LIG    1       29.943 -18.783   4.973  0.00  0.00    +0.180 A 
ATOM      4  C   LIG    1       31.312 -18.658   5.170  0.00  0.00    +0.040 A 
ATOM      5  C   LIG    1       32.132 -18.274   4.120  0.00  0.00    +0.160 A 
ATOM      6  F   LIG    1       29.144 -19.158   5.995  0.00  0.00    -0.110 F 
ATOM      7  C   LIG    1       31.588 -18.019   2.877  0.00  0.00    -0.080 A 
ENDROOT
BRANCH   7   8
ATOM      8  N   LIG    1       32.463 -17.608   1.756  0.00  0.00    +0.040 N 
ATOM      9  O   LIG    1       32.972 -18.450   1.039  0.00  0.00    -0.130 OA
ATOM     10  O   LIG    1       32.675 -16.426   1.552  0.00  0.00    -0.170 OA
ENDBRANCH   7   8
BRANCH   1  12
ATOM     11  C   LIG    1       28.841 -18.888   0.892  0.00  0.00    +0.270 C 
ATOM     12  O   LIG    1       29.685 -17.881   1.455  0.00  0.00    -0.270 OA
ENDBRANCH   1  12
BRANCH   4  13
ATOM     13  O   LIG    1       31.848 -18.915   6.394  0.00  0.00    -0.470 OA
ATOM     14  H   LIG    1       31.544 -18.317   7.091  0.00  0.00    +0.400 HD
ENDBRANCH   4  13
TORSDOF 3
ENDMDL
MODEL 9
REMARK VINA RESULT:    -4.904      1.600      3.271
REMARK INTER + INTRA:          -5.727
REMARK INTER:                  -5.546
REMARK INTRA:                  -0.180
REMARK UNBOUND:                -0.105
REMARK  Name = ZINC000097447146
REMARK                            x       y       z     vdW  Elec       q    Type
REMARK                         _______ _______ _______ _____ _____    ______ ____
ROOT
ATOM      1  C   LIG    1       28.893 -19.924   1.917  0.00  0.00    +0.220 A 
ATOM      2  C   LIG    1       29.639 -18.838   2.348  0.00  0.00    -0.070 A 
ATOM      3  C   LIG    1       29.680 -17.682   1.589  0.00  0.00    +0.180 A 
ATOM      4  C   LIG    1       28.973 -17.611   0.396  0.00  0.00    +0.040 A 
ATOM      5  C   LIG    1       28.228 -18.699  -0.034  0.00  0.00    +0.160 A 
ATOM      6  F   LIG    1       30.406 -16.623   2.008  0.00  0.00    -0.110 F 
ATOM      7  C   LIG    1       28.192 -19.854   0.722  0.00  0.00    -0.080 A 
ENDROOT
BRANCH   7   8
ATOM      8  N   LIG    1       27.396 -21.014   0.263  0.00  0.00    +0.040 N 
ATOM      9  O   LIG    1       27.883 -21.820  -0.510  0.00  0.00    -0.130 OA
ATOM     10  O   LIG    1       26.254 -21.163   0.658  0.00  0.00    -0.170 OA
ENDBRANCH   7   8
BRANCH   1  12
ATOM     11  C   LIG    1       29.945 -21.970   2.519  0.00  0.00    +0.270 C 
ATOM     12  O   LIG    1       28.853 -21.060   2.663  0.00  0.00    -0.270 OA
ENDBRANCH   1  12
BRANCH   4  13
ATOM     13  O   LIG    1       29.013 -16.475  -0.352  0.00  0.00    -0.470 OA
ATOM     14  H   LIG    1       28.302 -15.849  -0.155  0.00  0.00    +0.400 HD
ENDBRANCH   4  13
TORSDOF 3
ENDMDL
