MODEL 1
REMARK VINA RESULT:    -5.717      0.000      0.000
REMARK INTER + INTRA:          -6.123
REMARK INTER:                  -6.051
REMARK INTRA:                  -0.071
REMARK UNBOUND:                -0.071
REMARK  Name = ZINC000149859162
REMARK                            x       y       z     vdW  Elec       q    Type
REMARK                         _______ _______ _______ _____ _____    ______ ____
ROOT
ATOM      1  C   LIG    1       28.328 -21.305  -0.125  0.00  0.00    +0.240 C 
ATOM      2  N   LIG    1       27.973 -20.517   1.063  0.00  0.00    -0.490 N 
ATOM      3  C   LIG    1       27.748 -21.385   2.220  0.00  0.00    +0.200 C 
ATOM      4  C   LIG    1       27.408 -20.510   3.432  0.00  0.00    +0.040 C 
ATOM      5  C   LIG    1       28.663 -19.721   3.811  0.00  0.00    +0.090 C 
ATOM      6  C   LIG    1       29.269 -19.105   2.575  0.00  0.00    -0.130 A 
ATOM      7  C   LIG    1       30.203 -18.094   2.738  0.00  0.00    +0.130 A 
ATOM      8  C   LIG    1       30.792 -17.500   1.640  0.00  0.00    -0.080 A 
ATOM      9  C   LIG    1       30.449 -17.916   0.366  0.00  0.00    +0.120 A 
ATOM     10  C   LIG    1       29.519 -18.918   0.196  0.00  0.00    -0.010 A 
ATOM     11  C   LIG    1       28.918 -19.520   1.302  0.00  0.00    +0.180 A 
ENDROOT
BRANCH   8  12
ATOM     12  N   LIG    1       31.788 -16.422   1.826  0.00  0.00    +0.030 N 
ATOM     13  O   LIG    1       31.617 -15.338   1.298  0.00  0.00    -0.170 OA
ATOM     14  O   LIG    1       32.780 -16.619   2.506  0.00  0.00    -0.170 OA
ENDBRANCH   8  12
TORSDOF 1
ENDMDL
MODEL 2
REMARK VINA RESULT:    -5.637      2.189      3.125
REMARK INTER + INTRA:          -6.038
REMARK INTER:                  -5.963
REMARK INTRA:                  -0.075
REMARK UNBOUND:                -0.071
REMARK  Name = ZINC000149859162
REMARK                            x       y       z     vdW  Elec       q    Type
REMARK                         _______ _______ _______ _____ _____    ______ ____
ROOT
ATOM      1  C   LIG    1       29.596 -18.510   4.475  0.00  0.00    +0.240 C 
ATOM      2  N   LIG    1       29.283 -19.419   3.364  0.00  0.00    -0.490 N 
ATOM      3  C   LIG    1       27.983 -20.063   3.564  0.00  0.00    +0.200 C 
ATOM      4  C   LIG    1       27.698 -20.976   2.366  0.00  0.00    +0.040 C 
ATOM      5  C   LIG    1       27.477 -20.090   1.138  0.00  0.00    +0.090 C 
ATOM      6  C   LIG    1       28.568 -19.051   1.059  0.00  0.00    -0.130 A 
ATOM      7  C   LIG    1       28.741 -18.374  -0.137  0.00  0.00    +0.130 A 
ATOM      8  C   LIG    1       29.721 -17.409  -0.261  0.00  0.00    -0.080 A 
ATOM      9  C   LIG    1       30.537 -17.115   0.815  0.00  0.00    +0.120 A 
ATOM     10  C   LIG    1       30.374 -17.787   2.007  0.00  0.00    -0.010 A 
ATOM     11  C   LIG    1       29.387 -18.764   2.138  0.00  0.00    +0.180 A 
ENDROOT
BRANCH   8  12
ATOM     12  N   LIG    1       29.896 -16.692  -1.543  0.00  0.00    +0.030 N 
ATOM     13  O   LIG    1       28.921 -16.366  -2.197  0.00  0.00    -0.170 OA
ATOM     14  O   LIG    1       31.015 -16.428  -1.947  0.00  0.00    -0.170 OA
ENDBRANCH   8  12
TORSDOF 1
ENDMDL
MODEL 3
REMARK VINA RESULT:    -5.430     20.771     21.797
REMARK INTER + INTRA:          -5.819
REMARK INTER:                  -5.744
REMARK INTRA:                  -0.075
REMARK UNBOUND:                -0.071
REMARK  Name = ZINC000149859162
REMARK                            x       y       z     vdW  Elec       q    Type
REMARK                         _______ _______ _______ _____ _____    ______ ____
ROOT
ATOM      1  C   LIG    1       24.314   1.179  14.255  0.00  0.00    +0.240 C 
ATOM      2  N   LIG    1       24.174  -0.093  13.534  0.00  0.00    -0.490 N 
ATOM      3  C   LIG    1       22.838  -0.661  13.726  0.00  0.00    +0.200 C 
ATOM      4  C   LIG    1       22.742  -1.969  12.932  0.00  0.00    +0.040 C 
ATOM      5  C   LIG    1       22.774  -1.620  11.442  0.00  0.00    +0.090 C 
ATOM      6  C   LIG    1       23.896  -0.649  11.173  0.00  0.00    -0.130 A 
ATOM      7  C   LIG    1       24.303  -0.468   9.860  0.00  0.00    +0.130 A 
ATOM      8  C   LIG    1       25.321   0.415   9.558  0.00  0.00    -0.080 A 
ATOM      9  C   LIG    1       25.941   1.123  10.570  0.00  0.00    +0.120 A 
ATOM     10  C   LIG    1       25.544   0.945  11.878  0.00  0.00    -0.010 A 
ATOM     11  C   LIG    1       24.518   0.054  12.190  0.00  0.00    +0.180 A 
ENDROOT
BRANCH   8  12
ATOM     12  N   LIG    1       25.747   0.601   8.153  0.00  0.00    +0.030 N 
ATOM     13  O   LIG    1       24.915   0.634   7.264  0.00  0.00    -0.170 OA
ATOM     14  O   LIG    1       26.929   0.720   7.885  0.00  0.00    -0.170 OA
ENDBRANCH   8  12
TORSDOF 1
ENDMDL
MODEL 4
REMARK VINA RESULT:    -5.282     16.404     17.982
REMARK INTER + INTRA:          -5.662
REMARK INTER:                  -5.585
REMARK INTRA:                  -0.077
REMARK UNBOUND:                -0.071
REMARK  Name = ZINC000149859162
REMARK                            x       y       z     vdW  Elec       q    Type
REMARK                         _______ _______ _______ _____ _____    ______ ____
ROOT
ATOM      1  C   LIG    1       22.264 -21.450  20.493  0.00  0.00    +0.240 C 
ATOM      2  N   LIG    1       23.137 -21.168  19.346  0.00  0.00    -0.490 N 
ATOM      3  C   LIG    1       24.521 -21.549  19.634  0.00  0.00    +0.200 C 
ATOM      4  C   LIG    1       25.379 -21.258  18.398  0.00  0.00    +0.040 C 
ATOM      5  C   LIG    1       24.959 -22.230  17.292  0.00  0.00    +0.090 C 
ATOM      6  C   LIG    1       23.455 -22.257  17.185  0.00  0.00    -0.130 A 
ATOM      7  C   LIG    1       22.891 -22.808  16.045  0.00  0.00    +0.130 A 
ATOM      8  C   LIG    1       21.519 -22.863  15.899  0.00  0.00    -0.080 A 
ATOM      9  C   LIG    1       20.700 -22.366  16.895  0.00  0.00    +0.120 A 
ATOM     10  C   LIG    1       21.254 -21.814  18.031  0.00  0.00    -0.010 A 
ATOM     11  C   LIG    1       22.639 -21.753  18.183  0.00  0.00    +0.180 A 
ENDROOT
BRANCH   8  12
ATOM     12  N   LIG    1       20.927 -23.453  14.678  0.00  0.00    +0.030 N 
ATOM     13  O   LIG    1       21.546 -23.429  13.629  0.00  0.00    -0.170 OA
ATOM     14  O   LIG    1       19.821 -23.963  14.721  0.00  0.00    -0.170 OA
ENDBRANCH   8  12
TORSDOF 1
ENDMDL
MODEL 5
REMARK VINA RESULT:    -5.271      3.421      5.054
REMARK INTER + INTRA:          -5.650
REMARK INTER:                  -5.582
REMARK INTRA:                  -0.068
REMARK UNBOUND:                -0.071
REMARK  Name = ZINC000149859162
REMARK                            x       y       z     vdW  Elec       q    Type
REMARK                         _______ _______ _______ _____ _____    ______ ____
ROOT
ATOM      1  C   LIG    1       33.278 -19.238   1.557  0.00  0.00    +0.240 C 
ATOM      2  N   LIG    1       32.103 -18.453   1.960  0.00  0.00    -0.490 N 
ATOM      3  C   LIG    1       32.228 -17.061   1.525  0.00  0.00    +0.200 C 
ATOM      4  C   LIG    1       30.967 -16.298   1.948  0.00  0.00    +0.040 C 
ATOM      5  C   LIG    1       29.794 -16.832   1.122  0.00  0.00    +0.090 C 
ATOM      6  C   LIG    1       29.810 -18.339   1.132  0.00  0.00    -0.130 A 
ATOM      7  C   LIG    1       28.664 -19.008   0.730  0.00  0.00    +0.130 A 
ATOM      8  C   LIG    1       28.627 -20.388   0.715  0.00  0.00    -0.080 A 
ATOM      9  C   LIG    1       29.740 -21.111   1.103  0.00  0.00    +0.120 A 
ATOM     10  C   LIG    1       30.882 -20.453   1.506  0.00  0.00    -0.010 A 
ATOM     11  C   LIG    1       30.925 -19.059   1.527  0.00  0.00    +0.180 A 
ENDROOT
BRANCH   8  12
ATOM     12  N   LIG    1       27.399 -21.092   0.284  0.00  0.00    +0.030 N 
ATOM     13  O   LIG    1       26.436 -21.145   1.028  0.00  0.00    -0.170 OA
ATOM     14  O   LIG    1       27.351 -21.618  -0.813  0.00  0.00    -0.170 OA
ENDBRANCH   8  12
TORSDOF 1
ENDMDL
MODEL 6
REMARK VINA RESULT:    -5.012     21.033     22.341
REMARK INTER + INTRA:          -5.377
REMARK INTER:                  -5.301
REMARK INTRA:                  -0.076
REMARK UNBOUND:                -0.071
REMARK  Name = ZINC000149859162
REMARK                            x       y       z     vdW  Elec       q    Type
REMARK                         _______ _______ _______ _____ _____    ______ ____
ROOT
ATOM      1  C   LIG    1       26.068   2.281  10.227  0.00  0.00    +0.240 C 
ATOM      2  N   LIG    1       24.873   1.459   9.994  0.00  0.00    -0.490 N 
ATOM      3  C   LIG    1       25.021   0.648   8.784  0.00  0.00    +0.200 C 
ATOM      4  C   LIG    1       23.760  -0.206   8.607  0.00  0.00    +0.040 C 
ATOM      5  C   LIG    1       23.728  -1.241   9.734  0.00  0.00    +0.090 C 
ATOM      6  C   LIG    1       24.009  -0.565  11.052  0.00  0.00    -0.130 A 
ATOM      7  C   LIG    1       23.702  -1.250  12.217  0.00  0.00    +0.130 A 
ATOM      8  C   LIG    1       23.944  -0.679  13.451  0.00  0.00    -0.080 A 
ATOM      9  C   LIG    1       24.497   0.586  13.527  0.00  0.00    +0.120 A 
ATOM     10  C   LIG    1       24.802   1.275  12.373  0.00  0.00    -0.010 A 
ATOM     11  C   LIG    1       24.557   0.704  11.124  0.00  0.00    +0.180 A 
ENDROOT
BRANCH   8  12
ATOM     12  N   LIG    1       23.613  -1.420  14.688  0.00  0.00    +0.030 N 
ATOM     13  O   LIG    1       24.315  -1.299  15.676  0.00  0.00    -0.170 OA
ATOM     14  O   LIG    1       22.640  -2.152  14.718  0.00  0.00    -0.170 OA
ENDBRANCH   8  12
TORSDOF 1
ENDMDL
MODEL 7
REMARK VINA RESULT:    -4.915     16.407     18.299
REMARK INTER + INTRA:          -5.273
REMARK INTER:                  -5.200
REMARK INTRA:                  -0.073
REMARK UNBOUND:                -0.071
REMARK  Name = ZINC000149859162
REMARK                            x       y       z     vdW  Elec       q    Type
REMARK                         _______ _______ _______ _____ _____    ______ ____
ROOT
ATOM      1  C   LIG    1       24.920 -21.187  18.449  0.00  0.00    +0.240 C 
ATOM      2  N   LIG    1       23.875 -22.078  18.973  0.00  0.00    -0.490 N 
ATOM      3  C   LIG    1       23.227 -21.492  20.148  0.00  0.00    +0.200 C 
ATOM      4  C   LIG    1       22.132 -22.449  20.634  0.00  0.00    +0.040 C 
ATOM      5  C   LIG    1       21.022 -22.469  19.581  0.00  0.00    +0.090 C 
ATOM      6  C   LIG    1       21.625 -22.637  18.209  0.00  0.00    -0.130 A 
ATOM      7  C   LIG    1       20.789 -23.009  17.168  0.00  0.00    +0.130 A 
ATOM      8  C   LIG    1       21.289 -23.171  15.891  0.00  0.00    -0.080 A 
ATOM      9  C   LIG    1       22.634 -22.963  15.647  0.00  0.00    +0.120 A 
ATOM     10  C   LIG    1       23.472 -22.596  16.678  0.00  0.00    -0.010 A 
ATOM     11  C   LIG    1       22.973 -22.433  17.971  0.00  0.00    +0.180 A 
ENDROOT
BRANCH   8  12
ATOM     12  N   LIG    1       20.387 -23.567  14.787  0.00  0.00    +0.030 N 
ATOM     13  O   LIG    1       19.604 -24.488  14.942  0.00  0.00    -0.170 OA
ATOM     14  O   LIG    1       20.428 -22.975  13.724  0.00  0.00    -0.170 OA
ENDBRANCH   8  12
TORSDOF 1
ENDMDL
MODEL 8
REMARK VINA RESULT:    -4.768     24.959     26.337
REMARK INTER + INTRA:          -5.117
REMARK INTER:                  -5.043
REMARK INTRA:                  -0.075
REMARK UNBOUND:                -0.071
REMARK  Name = ZINC000149859162
REMARK                            x       y       z     vdW  Elec       q    Type
REMARK                         _______ _______ _______ _____ _____    ______ ____
ROOT
ATOM      1  C   LIG    1       12.297 -12.264  24.303  0.00  0.00    +0.240 C 
ATOM      2  N   LIG    1       13.722 -12.455  24.002  0.00  0.00    -0.490 N 
ATOM      3  C   LIG    1       14.063 -13.879  23.959  0.00  0.00    +0.200 C 
ATOM      4  C   LIG    1       15.551 -14.018  23.615  0.00  0.00    +0.040 C 
ATOM      5  C   LIG    1       15.746 -13.555  22.170  0.00  0.00    +0.090 C 
ATOM      6  C   LIG    1       15.036 -12.242  21.956  0.00  0.00    -0.130 A 
ATOM      7  C   LIG    1       15.361 -11.499  20.832  0.00  0.00    +0.130 A 
ATOM      8  C   LIG    1       14.736 -10.292  20.586  0.00  0.00    -0.080 A 
ATOM      9  C   LIG    1       13.780  -9.820  21.466  0.00  0.00    +0.120 A 
ATOM     10  C   LIG    1       13.454 -10.552  22.587  0.00  0.00    -0.010 A 
ATOM     11  C   LIG    1       14.083 -11.770  22.843  0.00  0.00    +0.180 A 
ENDROOT
BRANCH   8  12
ATOM     12  N   LIG    1       15.090  -9.507  19.383  0.00  0.00    +0.030 N 
ATOM     13  O   LIG    1       15.289 -10.073  18.323  0.00  0.00    -0.170 OA
ATOM     14  O   LIG    1       15.183  -8.294  19.452  0.00  0.00    -0.170 OA
ENDBRANCH   8  12
TORSDOF 1
ENDMDL
MODEL 9
REMARK VINA RESULT:    -4.664     16.735     18.665
REMARK INTER + INTRA:          -5.007
REMARK INTER:                  -4.940
REMARK INTRA:                  -0.067
REMARK UNBOUND:                -0.071
REMARK  Name = ZINC000149859162
REMARK                            x       y       z     vdW  Elec       q    Type
REMARK                         _______ _______ _______ _____ _____    ______ ____
ROOT
ATOM      1  C   LIG    1       24.073 -22.721  15.098  0.00  0.00    +0.240 C 
ATOM      2  N   LIG    1       22.615 -22.624  15.253  0.00  0.00    -0.490 N 
ATOM      3  C   LIG    1       21.926 -23.140  14.068  0.00  0.00    +0.200 C 
ATOM      4  C   LIG    1       20.413 -23.038  14.296  0.00  0.00    +0.040 C 
ATOM      5  C   LIG    1       20.034 -24.032  15.396  0.00  0.00    +0.090 C 
ATOM      6  C   LIG    1       20.988 -23.895  16.556  0.00  0.00    -0.130 A 
ATOM      7  C   LIG    1       20.628 -24.458  17.770  0.00  0.00    +0.130 A 
ATOM      8  C   LIG    1       21.468 -24.366  18.862  0.00  0.00    -0.080 A 
ATOM      9  C   LIG    1       22.678 -23.708  18.746  0.00  0.00    +0.120 A 
ATOM     10  C   LIG    1       23.042 -23.143  17.543  0.00  0.00    -0.010 A 
ATOM     11  C   LIG    1       22.197 -23.230  16.437  0.00  0.00    +0.180 A 
ENDROOT
BRANCH   8  12
ATOM     12  N   LIG    1       21.072 -24.971  20.153  0.00  0.00    +0.030 N 
ATOM     13  O   LIG    1       20.355 -24.353  20.920  0.00  0.00    -0.170 OA
ATOM     14  O   LIG    1       21.465 -26.085  20.450  0.00  0.00    -0.170 OA
ENDBRANCH   8  12
TORSDOF 1
ENDMDL
