MODEL 1
REMARK VINA RESULT:    -5.607      0.000      0.000
REMARK INTER + INTRA:          -7.182
REMARK INTER:                  -6.919
REMARK INTRA:                  -0.263
REMARK UNBOUND:                -0.263
REMARK  Name = ZINC000594890313
REMARK                            x       y       z     vdW  Elec       q    Type
REMARK                         _______ _______ _______ _____ _____    ______ ____
ROOT
ATOM      1  C   LIG    1       27.769 -19.983   0.978  0.00  0.00    -0.190 A 
ATOM      2  C   LIG    1       28.147 -19.944   2.277  0.00  0.00    +0.360 A 
ATOM      3  N   LIG    1       28.970 -18.887   2.435  0.00  0.00    -0.350 N 
ATOM      4  N   LIG    1       29.104 -18.255   1.191  0.00  0.00    -0.270 NA
ATOM      5  C   LIG    1       28.388 -18.916   0.318  0.00  0.00    +0.320 A 
ENDROOT
BRANCH   1   7
ATOM      6  O   LIG    1       27.220 -21.594  -0.628  0.00  0.00    -0.160 OA
ATOM      7  N   LIG    1       26.865 -20.982   0.363  0.00  0.00    +0.070 N 
ATOM      8  O   LIG    1       25.770 -21.195   0.851  0.00  0.00    -0.170 OA
ENDBRANCH   1   7
BRANCH   3   9
ATOM      9  C   LIG    1       29.612 -18.474   3.684  0.00  0.00    +0.340 C 
BRANCH   9  10
ATOM     10  C   LIG    1       30.993 -17.888   3.380  0.00  0.00    +0.030 C 
BRANCH  10  11
ATOM     11  C   LIG    1       32.057 -18.648   4.175  0.00  0.00    -0.010 C 
ATOM     12  C   LIG    1       31.737 -18.765   5.675  0.00  0.00    +0.010 C 
ATOM     13  C   LIG    1       32.272 -20.205   5.597  0.00  0.00    +0.010 C 
ATOM     14  C   LIG    1       31.904 -20.177   4.105  0.00  0.00    +0.010 C 
ENDBRANCH  10  11
ENDBRANCH   9  10
ENDBRANCH   3   9
TORSDOF 4
ENDMDL
MODEL 2
REMARK VINA RESULT:    -5.160      3.797      5.552
REMARK INTER + INTRA:          -6.629
REMARK INTER:                  -6.348
REMARK INTRA:                  -0.281
REMARK UNBOUND:                -0.263
REMARK  Name = ZINC000594890313
REMARK                            x       y       z     vdW  Elec       q    Type
REMARK                         _______ _______ _______ _____ _____    ______ ____
ROOT
ATOM      1  C   LIG    1       31.856 -17.594   1.717  0.00  0.00    -0.190 A 
ATOM      2  C   LIG    1       30.751 -17.906   2.435  0.00  0.00    +0.360 A 
ATOM      3  N   LIG    1       30.842 -19.206   2.787  0.00  0.00    -0.350 N 
ATOM      4  N   LIG    1       32.042 -19.710   2.267  0.00  0.00    -0.270 NA
ATOM      5  C   LIG    1       32.646 -18.745   1.622  0.00  0.00    +0.320 A 
ENDROOT
BRANCH   1   7
ATOM      6  O   LIG    1       31.564 -15.282   1.507  0.00  0.00    -0.160 OA
ATOM      7  N   LIG    1       32.168 -16.272   1.132  0.00  0.00    +0.070 N 
ATOM      8  O   LIG    1       33.032 -16.171   0.280  0.00  0.00    -0.170 OA
ENDBRANCH   1   7
BRANCH   3   9
ATOM      9  C   LIG    1       29.860 -19.957   3.571  0.00  0.00    +0.340 C 
BRANCH   9  10
ATOM     10  C   LIG    1       28.448 -19.571   3.125  0.00  0.00    +0.030 C 
BRANCH  10  11
ATOM     11  C   LIG    1       27.944 -20.583   2.094  0.00  0.00    -0.010 C 
ATOM     12  C   LIG    1       26.422 -20.802   2.139  0.00  0.00    +0.010 C 
ATOM     13  C   LIG    1       26.461 -20.836   0.602  0.00  0.00    +0.010 C 
ATOM     14  C   LIG    1       27.736 -19.983   0.693  0.00  0.00    +0.010 C 
ENDBRANCH  10  11
ENDBRANCH   9  10
ENDBRANCH   3   9
TORSDOF 4
ENDMDL
MODEL 3
REMARK VINA RESULT:    -5.101      3.768      5.581
REMARK INTER + INTRA:          -6.557
REMARK INTER:                  -6.248
REMARK INTRA:                  -0.309
REMARK UNBOUND:                -0.263
REMARK  Name = ZINC000594890313
REMARK                            x       y       z     vdW  Elec       q    Type
REMARK                         _______ _______ _______ _____ _____    ______ ____
ROOT
ATOM      1  C   LIG    1       31.300 -17.492   2.420  0.00  0.00    -0.190 A 
ATOM      2  C   LIG    1       30.470 -18.509   2.092  0.00  0.00    +0.360 A 
ATOM      3  N   LIG    1       29.590 -18.045   1.180  0.00  0.00    -0.350 N 
ATOM      4  N   LIG    1       29.889 -16.697   0.940  0.00  0.00    -0.270 NA
ATOM      5  C   LIG    1       30.910 -16.365   1.688  0.00  0.00    +0.320 A 
ENDROOT
BRANCH   1   7
ATOM      6  O   LIG    1       32.281 -18.164   4.436  0.00  0.00    -0.160 OA
ATOM      7  N   LIG    1       32.419 -17.558   3.388  0.00  0.00    +0.070 N 
ATOM      8  O   LIG    1       33.477 -17.013   3.134  0.00  0.00    -0.170 OA
ENDBRANCH   1   7
BRANCH   3   9
ATOM      9  C   LIG    1       28.513 -18.813   0.554  0.00  0.00    +0.340 C 
BRANCH   9  10
ATOM     10  C   LIG    1       28.917 -20.287   0.473  0.00  0.00    +0.030 C 
BRANCH  10  11
ATOM     11  C   LIG    1       27.829 -21.151   1.114  0.00  0.00    -0.010 C 
ATOM     12  C   LIG    1       27.412 -20.674   2.516  0.00  0.00    +0.010 C 
ATOM     13  C   LIG    1       25.965 -21.006   2.112  0.00  0.00    +0.010 C 
ATOM     14  C   LIG    1       26.407 -20.791   0.655  0.00  0.00    +0.010 C 
ENDBRANCH  10  11
ENDBRANCH   9  10
ENDBRANCH   3   9
TORSDOF 4
ENDMDL
MODEL 4
REMARK VINA RESULT:    -4.872      1.645      2.304
REMARK INTER + INTRA:          -6.274
REMARK INTER:                  -6.024
REMARK INTRA:                  -0.250
REMARK UNBOUND:                -0.263
REMARK  Name = ZINC000594890313
REMARK                            x       y       z     vdW  Elec       q    Type
REMARK                         _______ _______ _______ _____ _____    ______ ____
ROOT
ATOM      1  C   LIG    1       27.686 -20.904   1.733  0.00  0.00    -0.190 A 
ATOM      2  C   LIG    1       27.992 -19.676   2.214  0.00  0.00    +0.360 A 
ATOM      3  N   LIG    1       28.848 -19.839   3.244  0.00  0.00    -0.350 N 
ATOM      4  N   LIG    1       29.075 -21.212   3.403  0.00  0.00    -0.270 NA
ATOM      5  C   LIG    1       28.374 -21.850   2.501  0.00  0.00    +0.320 A 
ENDROOT
BRANCH   1   7
ATOM      6  O   LIG    1       27.238 -21.411  -0.507  0.00  0.00    -0.160 OA
ATOM      7  N   LIG    1       26.778 -21.195   0.601  0.00  0.00    +0.070 N 
ATOM      8  O   LIG    1       25.574 -21.222   0.776  0.00  0.00    -0.170 OA
ENDBRANCH   1   7
BRANCH   3   9
ATOM      9  C   LIG    1       29.434 -18.769   4.054  0.00  0.00    +0.340 C 
BRANCH   9  10
ATOM     10  C   LIG    1       30.149 -17.771   3.141  0.00  0.00    +0.030 C 
BRANCH  10  11
ATOM     11  C   LIG    1       31.662 -17.969   3.253  0.00  0.00    -0.010 C 
ATOM     12  C   LIG    1       32.189 -19.160   2.435  0.00  0.00    +0.010 C 
ATOM     13  C   LIG    1       33.391 -18.274   2.067  0.00  0.00    +0.010 C 
ATOM     14  C   LIG    1       32.474 -17.065   2.312  0.00  0.00    +0.010 C 
ENDBRANCH  10  11
ENDBRANCH   9  10
ENDBRANCH   3   9
TORSDOF 4
ENDMDL
MODEL 5
REMARK VINA RESULT:    -4.747     15.031     15.905
REMARK INTER + INTRA:          -6.120
REMARK INTER:                  -5.806
REMARK INTRA:                  -0.314
REMARK UNBOUND:                -0.263
REMARK  Name = ZINC000594890313
REMARK                            x       y       z     vdW  Elec       q    Type
REMARK                         _______ _______ _______ _____ _____    ______ ____
ROOT
ATOM      1  C   LIG    1       22.751 -22.984  13.889  0.00  0.00    -0.190 A 
ATOM      2  C   LIG    1       23.052 -23.519  15.096  0.00  0.00    +0.360 A 
ATOM      3  N   LIG    1       21.905 -23.972  15.643  0.00  0.00    -0.350 N 
ATOM      4  N   LIG    1       20.864 -23.706  14.744  0.00  0.00    -0.270 NA
ATOM      5  C   LIG    1       21.371 -23.108  13.696  0.00  0.00    +0.320 A 
ENDROOT
BRANCH   1   7
ATOM      6  O   LIG    1       24.450 -23.075  12.283  0.00  0.00    -0.160 OA
ATOM      7  N   LIG    1       23.711 -22.369  12.946  0.00  0.00    +0.070 N 
ATOM      8  O   LIG    1       23.759 -21.158  12.828  0.00  0.00    -0.170 OA
ENDBRANCH   1   7
BRANCH   3   9
ATOM      9  C   LIG    1       21.772 -24.625  16.947  0.00  0.00    +0.340 C 
BRANCH   9  10
ATOM     10  C   LIG    1       20.462 -24.186  17.606  0.00  0.00    +0.030 C 
BRANCH  10  11
ATOM     11  C   LIG    1       20.743 -23.052  18.594  0.00  0.00    -0.010 C 
ATOM     12  C   LIG    1       22.239 -22.846  18.884  0.00  0.00    +0.010 C 
ATOM     13  C   LIG    1       21.956 -21.334  18.850  0.00  0.00    +0.010 C 
ATOM     14  C   LIG    1       20.757 -21.659  17.945  0.00  0.00    +0.010 C 
ENDBRANCH  10  11
ENDBRANCH   9  10
ENDBRANCH   3   9
TORSDOF 4
ENDMDL
MODEL 6
REMARK VINA RESULT:    -4.687      3.813      5.744
REMARK INTER + INTRA:          -6.046
REMARK INTER:                  -5.706
REMARK INTRA:                  -0.341
REMARK UNBOUND:                -0.263
REMARK  Name = ZINC000594890313
REMARK                            x       y       z     vdW  Elec       q    Type
REMARK                         _______ _______ _______ _____ _____    ______ ____
ROOT
ATOM      1  C   LIG    1       31.854 -20.648   3.933  0.00  0.00    -0.190 A 
ATOM      2  C   LIG    1       31.289 -19.831   3.013  0.00  0.00    +0.360 A 
ATOM      3  N   LIG    1       31.131 -20.540   1.875  0.00  0.00    -0.350 N 
ATOM      4  N   LIG    1       31.616 -21.834   2.103  0.00  0.00    -0.270 NA
ATOM      5  C   LIG    1       32.054 -21.897   3.334  0.00  0.00    +0.320 A 
ENDROOT
BRANCH   1   7
ATOM      6  O   LIG    1       32.611 -21.134   6.093  0.00  0.00    -0.160 OA
ATOM      7  N   LIG    1       32.204 -20.282   5.324  0.00  0.00    +0.070 N 
ATOM      8  O   LIG    1       32.090 -19.129   5.698  0.00  0.00    -0.170 OA
ENDBRANCH   1   7
BRANCH   3   9
ATOM      9  C   LIG    1       30.557 -20.042   0.624  0.00  0.00    +0.340 C 
BRANCH   9  10
ATOM     10  C   LIG    1       29.642 -18.852   0.920  0.00  0.00    +0.030 C 
BRANCH  10  11
ATOM     11  C   LIG    1       28.181 -19.281   0.771  0.00  0.00    -0.010 C 
ATOM     12  C   LIG    1       28.004 -20.608   0.013  0.00  0.00    +0.010 C 
ATOM     13  C   LIG    1       26.906 -20.953   1.034  0.00  0.00    +0.010 C 
ATOM     14  C   LIG    1       27.622 -20.004   2.008  0.00  0.00    +0.010 C 
ENDBRANCH  10  11
ENDBRANCH   9  10
ENDBRANCH   3   9
TORSDOF 4
ENDMDL
MODEL 7
REMARK VINA RESULT:    -4.616     23.542     24.476
REMARK INTER + INTRA:          -5.958
REMARK INTER:                  -5.697
REMARK INTRA:                  -0.261
REMARK UNBOUND:                -0.263
REMARK  Name = ZINC000594890313
REMARK                            x       y       z     vdW  Elec       q    Type
REMARK                         _______ _______ _______ _____ _____    ______ ____
ROOT
ATOM      1  C   LIG    1       15.497 -15.441  21.968  0.00  0.00    -0.190 A 
ATOM      2  C   LIG    1       15.204 -14.173  21.595  0.00  0.00    +0.360 A 
ATOM      3  N   LIG    1       16.366 -13.497  21.486  0.00  0.00    -0.350 N 
ATOM      4  N   LIG    1       17.409 -14.377  21.805  0.00  0.00    -0.270 NA
ATOM      5  C   LIG    1       16.886 -15.540  22.099  0.00  0.00    +0.320 A 
ENDROOT
BRANCH   1   7
ATOM      6  O   LIG    1       14.877 -17.690  22.150  0.00  0.00    -0.160 OA
ATOM      7  N   LIG    1       14.519 -16.527  22.204  0.00  0.00    +0.070 N 
ATOM      8  O   LIG    1       13.359 -16.258  22.456  0.00  0.00    -0.170 OA
ENDBRANCH   1   7
BRANCH   3   9
ATOM      9  C   LIG    1       16.513 -12.091  21.105  0.00  0.00    +0.340 C 
BRANCH   9  10
ATOM     10  C   LIG    1       15.162 -11.383  21.237  0.00  0.00    +0.030 C 
BRANCH  10  11
ATOM     11  C   LIG    1       14.757 -10.799  19.882  0.00  0.00    -0.010 C 
ATOM     12  C   LIG    1       14.494  -9.284  19.919  0.00  0.00    +0.010 C 
ATOM     13  C   LIG    1       15.206  -9.208  18.557  0.00  0.00    +0.010 C 
ATOM     14  C   LIG    1       15.950 -10.490  18.963  0.00  0.00    +0.010 C 
ENDBRANCH  10  11
ENDBRANCH   9  10
ENDBRANCH   3   9
TORSDOF 4
ENDMDL
MODEL 8
REMARK VINA RESULT:    -4.548     23.575     24.429
REMARK INTER + INTRA:          -5.874
REMARK INTER:                  -5.666
REMARK INTRA:                  -0.208
REMARK UNBOUND:                -0.263
REMARK  Name = ZINC000594890313
REMARK                            x       y       z     vdW  Elec       q    Type
REMARK                         _______ _______ _______ _____ _____    ______ ____
ROOT
ATOM      1  C   LIG    1       15.581 -10.634  19.859  0.00  0.00    -0.190 A 
ATOM      2  C   LIG    1       14.795 -11.656  20.271  0.00  0.00    +0.360 A 
ATOM      3  N   LIG    1       15.575 -12.532  20.939  0.00  0.00    -0.350 N 
ATOM      4  N   LIG    1       16.884 -12.032  20.937  0.00  0.00    -0.270 NA
ATOM      5  C   LIG    1       16.888 -10.898  20.285  0.00  0.00    +0.320 A 
ENDROOT
BRANCH   1   7
ATOM      6  O   LIG    1       14.824  -9.570  17.917  0.00  0.00    -0.160 OA
ATOM      7  N   LIG    1       15.138  -9.451  19.088  0.00  0.00    +0.070 N 
ATOM      8  O   LIG    1       15.081  -8.360  19.626  0.00  0.00    -0.170 OA
ENDBRANCH   1   7
BRANCH   3   9
ATOM      9  C   LIG    1       15.131 -13.784  21.556  0.00  0.00    +0.340 C 
BRANCH   9  10
ATOM     10  C   LIG    1       16.154 -14.885  21.268  0.00  0.00    +0.030 C 
BRANCH  10  11
ATOM     11  C   LIG    1       15.687 -16.195  21.907  0.00  0.00    -0.010 C 
ATOM     12  C   LIG    1       16.049 -16.316  23.397  0.00  0.00    +0.010 C 
ATOM     13  C   LIG    1       14.660 -16.943  23.602  0.00  0.00    +0.010 C 
ATOM     14  C   LIG    1       14.215 -16.175  22.348  0.00  0.00    +0.010 C 
ENDBRANCH  10  11
ENDBRANCH   9  10
ENDBRANCH   3   9
TORSDOF 4
ENDMDL
MODEL 9
REMARK VINA RESULT:    -4.508     21.448     22.369
REMARK INTER + INTRA:          -5.825
REMARK INTER:                  -5.477
REMARK INTRA:                  -0.348
REMARK UNBOUND:                -0.263
REMARK  Name = ZINC000594890313
REMARK                            x       y       z     vdW  Elec       q    Type
REMARK                         _______ _______ _______ _____ _____    ______ ____
ROOT
ATOM      1  C   LIG    1       25.179   0.720   9.061  0.00  0.00    -0.190 A 
ATOM      2  C   LIG    1       25.083   1.478  10.178  0.00  0.00    +0.360 A 
ATOM      3  N   LIG    1       24.551   0.710  11.152  0.00  0.00    -0.350 N 
ATOM      4  N   LIG    1       24.311  -0.562  10.616  0.00  0.00    -0.270 NA
ATOM      5  C   LIG    1       24.683  -0.553   9.361  0.00  0.00    +0.320 A 
ENDROOT
BRANCH   1   7
ATOM      6  O   LIG    1       25.273   0.677   6.723  0.00  0.00    -0.160 OA
ATOM      7  N   LIG    1       25.709   1.163   7.752  0.00  0.00    +0.070 N 
ATOM      8  O   LIG    1       26.575   2.017   7.703  0.00  0.00    -0.170 OA
ENDBRANCH   1   7
BRANCH   3   9
ATOM      9  C   LIG    1       24.272   1.131  12.526  0.00  0.00    +0.340 C 
BRANCH   9  10
ATOM     10  C   LIG    1       25.049   0.242  13.501  0.00  0.00    +0.030 C 
BRANCH  10  11
ATOM     11  C   LIG    1       24.064  -0.550  14.363  0.00  0.00    -0.010 C 
ATOM     12  C   LIG    1       22.590  -0.291  14.011  0.00  0.00    +0.010 C 
ATOM     13  C   LIG    1       22.357  -1.797  14.217  0.00  0.00    +0.010 C 
ATOM     14  C   LIG    1       23.844  -1.993  13.879  0.00  0.00    +0.010 C 
ENDBRANCH  10  11
ENDBRANCH   9  10
ENDBRANCH   3   9
TORSDOF 4
ENDMDL
