MODEL 1
REMARK VINA RESULT:    -5.407      0.000      0.000
REMARK INTER + INTRA:          -7.519
REMARK INTER:                  -7.145
REMARK INTRA:                  -0.374
REMARK UNBOUND:                -0.374
REMARK  Name = ZINC000393562083
REMARK                            x       y       z     vdW  Elec       q    Type
REMARK                         _______ _______ _______ _____ _____    ______ ____
ROOT
ATOM      1  C   LIG    1       28.264 -19.805   0.912  0.00  0.00    -0.100 C 
ATOM      2  C   LIG    1       28.363 -18.520   0.073  0.00  0.00    +0.070 C 
ATOM      3  C   LIG    1       29.889 -18.701   0.120  0.00  0.00    +0.030 C 
ATOM      4  C   LIG    1       29.627 -20.202   0.320  0.00  0.00    +0.050 C 
ENDROOT
BRANCH   1   5
ATOM      5  C   LIG    1       27.137 -20.714   0.496  0.00  0.00    +0.540 C 
ATOM      6  N   LIG    1       25.991 -20.734   1.206  0.00  0.00    -0.590 N 
ATOM      7  H   LIG    1       25.920 -20.224   2.027  0.00  0.00    +0.410 HD
ATOM      8  O   LIG    1       27.260 -21.429  -0.477  0.00  0.00    -0.520 OA
BRANCH   6   9
ATOM      9  O   LIG    1       24.890 -21.500   0.751  0.00  0.00    -0.320 OA
ATOM     10  H   LIG    1       24.699 -21.392  -0.191  0.00  0.00    +0.390 HD
ENDBRANCH   6   9
ENDBRANCH   1   5
BRANCH   1  11
ATOM     11  C   LIG    1       28.300 -19.556   2.422  0.00  0.00    +0.080 C 
BRANCH  11  12
ATOM     12  C   LIG    1       28.979 -20.737   3.118  0.00  0.00    +0.170 C 
BRANCH  12  13
ATOM     13  O   LIG    1       29.872 -20.248   4.121  0.00  0.00    -0.390 OA
BRANCH  13  15
ATOM     14  C   LIG    1       29.647 -18.363   5.616  0.00  0.00    +0.040 C 
ATOM     15  C   LIG    1       29.948 -18.823   4.187  0.00  0.00    +0.160 C 
ENDBRANCH  13  15
ENDBRANCH  12  13
ENDBRANCH  11  12
ENDBRANCH   1  11
TORSDOF 6
ENDMDL
MODEL 2
REMARK VINA RESULT:    -4.939      2.121      3.252
REMARK INTER + INTRA:          -6.901
REMARK INTER:                  -6.607
REMARK INTRA:                  -0.294
REMARK UNBOUND:                -0.374
REMARK  Name = ZINC000393562083
REMARK                            x       y       z     vdW  Elec       q    Type
REMARK                         _______ _______ _______ _____ _____    ______ ____
ROOT
ATOM      1  C   LIG    1       28.437 -20.232   0.999  0.00  0.00    -0.100 C 
ATOM      2  C   LIG    1       28.296 -19.494   2.341  0.00  0.00    +0.070 C 
ATOM      3  C   LIG    1       29.203 -18.404   1.746  0.00  0.00    +0.030 C 
ATOM      4  C   LIG    1       28.711 -18.858   0.363  0.00  0.00    +0.050 C 
ENDROOT
BRANCH   1   5
ATOM      5  C   LIG    1       27.158 -20.873   0.524  0.00  0.00    +0.540 C 
ATOM      6  N   LIG    1       26.063 -20.852   1.310  0.00  0.00    -0.590 N 
ATOM      7  H   LIG    1       26.117 -20.496   2.209  0.00  0.00    +0.410 HD
ATOM      8  O   LIG    1       27.115 -21.409  -0.563  0.00  0.00    -0.520 OA
BRANCH   6   9
ATOM      9  O   LIG    1       24.832 -21.352   0.820  0.00  0.00    -0.320 OA
ATOM     10  H   LIG    1       24.180 -20.665   0.621  0.00  0.00    +0.390 HD
ENDBRANCH   6   9
ENDBRANCH   1   5
BRANCH   1  11
ATOM     11  C   LIG    1       29.634 -21.183   0.944  0.00  0.00    +0.080 C 
BRANCH  11  12
ATOM     12  C   LIG    1       29.433 -22.315   1.954  0.00  0.00    +0.170 C 
BRANCH  12  13
ATOM     13  O   LIG    1       29.077 -23.513   1.260  0.00  0.00    -0.390 OA
BRANCH  13  15
ATOM     14  C   LIG    1       29.693 -25.207   2.870  0.00  0.00    +0.040 C 
ATOM     15  C   LIG    1       29.971 -24.604   1.491  0.00  0.00    +0.160 C 
ENDBRANCH  13  15
ENDBRANCH  12  13
ENDBRANCH  11  12
ENDBRANCH   1  11
TORSDOF 6
ENDMDL
MODEL 3
REMARK VINA RESULT:    -4.886      2.998      3.821
REMARK INTER + INTRA:          -6.831
REMARK INTER:                  -6.320
REMARK INTRA:                  -0.511
REMARK UNBOUND:                -0.374
REMARK  Name = ZINC000393562083
REMARK                            x       y       z     vdW  Elec       q    Type
REMARK                         _______ _______ _______ _____ _____    ______ ____
ROOT
ATOM      1  C   LIG    1       29.563 -18.717   1.779  0.00  0.00    -0.100 C 
ATOM      2  C   LIG    1       28.267 -19.524   1.965  0.00  0.00    +0.070 C 
ATOM      3  C   LIG    1       28.625 -19.603   3.459  0.00  0.00    +0.030 C 
ATOM      4  C   LIG    1       29.428 -18.308   3.255  0.00  0.00    +0.050 C 
ENDROOT
BRANCH   1   5
ATOM      5  C   LIG    1       29.425 -17.566   0.817  0.00  0.00    +0.540 C 
ATOM      6  N   LIG    1       28.693 -17.710  -0.306  0.00  0.00    -0.590 N 
ATOM      7  H   LIG    1       28.321 -18.575  -0.534  0.00  0.00    +0.410 HD
ATOM      8  O   LIG    1       29.974 -16.509   1.052  0.00  0.00    -0.520 OA
BRANCH   6   9
ATOM      9  O   LIG    1       28.468 -16.597  -1.151  0.00  0.00    -0.320 OA
ATOM     10  H   LIG    1       28.119 -15.819  -0.693  0.00  0.00    +0.390 HD
ENDBRANCH   6   9
ENDBRANCH   1   5
BRANCH   1  11
ATOM     11  C   LIG    1       30.790 -19.586   1.493  0.00  0.00    +0.080 C 
BRANCH  11  12
ATOM     12  C   LIG    1       31.977 -19.079   2.315  0.00  0.00    +0.170 C 
BRANCH  12  13
ATOM     13  O   LIG    1       32.724 -20.193   2.810  0.00  0.00    -0.390 OA
BRANCH  13  15
ATOM     14  C   LIG    1       32.135 -20.038   5.148  0.00  0.00    +0.040 C 
ATOM     15  C   LIG    1       32.085 -20.892   3.879  0.00  0.00    +0.160 C 
ENDBRANCH  13  15
ENDBRANCH  12  13
ENDBRANCH  11  12
ENDBRANCH   1  11
TORSDOF 6
ENDMDL
MODEL 4
REMARK VINA RESULT:    -4.761     15.698     17.336
REMARK INTER + INTRA:          -6.666
REMARK INTER:                  -6.137
REMARK INTRA:                  -0.529
REMARK UNBOUND:                -0.374
REMARK  Name = ZINC000393562083
REMARK                            x       y       z     vdW  Elec       q    Type
REMARK                         _______ _______ _______ _____ _____    ______ ____
ROOT
ATOM      1  C   LIG    1       21.612 -23.541  15.965  0.00  0.00    -0.100 C 
ATOM      2  C   LIG    1       20.263 -23.494  15.228  0.00  0.00    +0.070 C 
ATOM      3  C   LIG    1       21.033 -22.942  14.017  0.00  0.00    +0.030 C 
ATOM      4  C   LIG    1       22.274 -23.652  14.581  0.00  0.00    +0.050 C 
ENDROOT
BRANCH   1   5
ATOM      5  C   LIG    1       21.792 -24.768  16.821  0.00  0.00    +0.540 C 
ATOM      6  N   LIG    1       20.726 -25.528  17.140  0.00  0.00    -0.590 N 
ATOM      7  H   LIG    1       19.835 -25.245  16.886  0.00  0.00    +0.410 HD
ATOM      8  O   LIG    1       22.896 -25.071  17.224  0.00  0.00    -0.520 OA
BRANCH   6   9
ATOM      9  O   LIG    1       20.909 -26.742  17.846  0.00  0.00    -0.320 OA
ATOM     10  H   LIG    1       20.108 -27.069  18.280  0.00  0.00    +0.390 HD
ENDBRANCH   6   9
ENDBRANCH   1   5
BRANCH   1  11
ATOM     11  C   LIG    1       21.952 -22.245  16.705  0.00  0.00    +0.080 C 
BRANCH  11  12
ATOM     12  C   LIG    1       20.725 -21.766  17.484  0.00  0.00    +0.170 C 
BRANCH  12  13
ATOM     13  O   LIG    1       21.136 -21.258  18.755  0.00  0.00    -0.390 OA
BRANCH  13  15
ATOM     14  C   LIG    1       20.771 -23.234  20.097  0.00  0.00    +0.040 C 
ATOM     15  C   LIG    1       21.795 -22.221  19.579  0.00  0.00    +0.160 C 
ENDBRANCH  13  15
ENDBRANCH  12  13
ENDBRANCH  11  12
ENDBRANCH   1  11
TORSDOF 6
ENDMDL
MODEL 5
REMARK VINA RESULT:    -4.734      3.502      5.154
REMARK INTER + INTRA:          -6.630
REMARK INTER:                  -6.062
REMARK INTRA:                  -0.567
REMARK UNBOUND:                -0.374
REMARK  Name = ZINC000393562083
REMARK                            x       y       z     vdW  Elec       q    Type
REMARK                         _______ _______ _______ _____ _____    ______ ____
ROOT
ATOM      1  C   LIG    1       29.821 -19.178   3.248  0.00  0.00    -0.100 C 
ATOM      2  C   LIG    1       28.378 -19.620   3.544  0.00  0.00    +0.070 C 
ATOM      3  C   LIG    1       28.236 -19.892   2.037  0.00  0.00    +0.030 C 
ATOM      4  C   LIG    1       29.761 -20.086   2.007  0.00  0.00    +0.050 C 
ENDROOT
BRANCH   1   5
ATOM      5  C   LIG    1       30.818 -19.634   4.282  0.00  0.00    +0.540 C 
ATOM      6  N   LIG    1       31.189 -18.800   5.273  0.00  0.00    -0.590 N 
ATOM      7  H   LIG    1       30.877 -17.882   5.277  0.00  0.00    +0.410 HD
ATOM      8  O   LIG    1       31.287 -20.752   4.222  0.00  0.00    -0.520 OA
BRANCH   6   9
ATOM      9  O   LIG    1       32.035 -19.264   6.309  0.00  0.00    -0.320 OA
ATOM     10  H   LIG    1       32.659 -18.601   6.634  0.00  0.00    +0.390 HD
ENDBRANCH   6   9
ENDBRANCH   1   5
BRANCH   1  11
ATOM     11  C   LIG    1       29.950 -17.690   2.914  0.00  0.00    +0.080 C 
BRANCH  11  12
ATOM     12  C   LIG    1       31.061 -17.494   1.879  0.00  0.00    +0.170 C 
BRANCH  12  13
ATOM     13  O   LIG    1       30.589 -16.646   0.830  0.00  0.00    -0.390 OA
BRANCH  13  15
ATOM     14  C   LIG    1       28.764 -17.287  -0.618  0.00  0.00    +0.040 C 
ATOM     15  C   LIG    1       30.275 -17.338  -0.380  0.00  0.00    +0.160 C 
ENDBRANCH  13  15
ENDBRANCH  12  13
ENDBRANCH  11  12
ENDBRANCH   1  11
TORSDOF 6
ENDMDL
MODEL 6
REMARK VINA RESULT:    -4.640      1.802      2.749
REMARK INTER + INTRA:          -6.506
REMARK INTER:                  -6.151
REMARK INTRA:                  -0.354
REMARK UNBOUND:                -0.374
REMARK  Name = ZINC000393562083
REMARK                            x       y       z     vdW  Elec       q    Type
REMARK                         _______ _______ _______ _____ _____    ______ ____
ROOT
ATOM      1  C   LIG    1       28.551 -20.272   1.366  0.00  0.00    -0.100 C 
ATOM      2  C   LIG    1       28.365 -19.875   2.841  0.00  0.00    +0.070 C 
ATOM      3  C   LIG    1       29.162 -18.600   2.515  0.00  0.00    +0.030 C 
ATOM      4  C   LIG    1       28.692 -18.771   1.062  0.00  0.00    +0.050 C 
ENDROOT
BRANCH   1   5
ATOM      5  C   LIG    1       27.329 -20.902   0.751  0.00  0.00    +0.540 C 
ATOM      6  N   LIG    1       26.144 -20.836   1.389  0.00  0.00    -0.590 N 
ATOM      7  H   LIG    1       26.092 -20.454   2.278  0.00  0.00    +0.410 HD
ATOM      8  O   LIG    1       27.411 -21.469  -0.319  0.00  0.00    -0.520 OA
BRANCH   6   9
ATOM      9  O   LIG    1       24.973 -21.325   0.760  0.00  0.00    -0.320 OA
ATOM     10  H   LIG    1       24.213 -20.731   0.827  0.00  0.00    +0.390 HD
ENDBRANCH   6   9
ENDBRANCH   1   5
BRANCH   1  11
ATOM     11  C   LIG    1       29.829 -21.073   1.104  0.00  0.00    +0.080 C 
BRANCH  11  12
ATOM     12  C   LIG    1       30.701 -20.326   0.092  0.00  0.00    +0.170 C 
BRANCH  12  13
ATOM     13  O   LIG    1       31.994 -20.097   0.657  0.00  0.00    -0.390 OA
BRANCH  13  15
ATOM     14  C   LIG    1       32.872 -18.261   1.959  0.00  0.00    +0.040 C 
ATOM     15  C   LIG    1       32.431 -18.740   0.573  0.00  0.00    +0.160 C 
ENDBRANCH  13  15
ENDBRANCH  12  13
ENDBRANCH  11  12
ENDBRANCH   1  11
TORSDOF 6
ENDMDL
MODEL 7
REMARK VINA RESULT:    -4.595     15.037     16.992
REMARK INTER + INTRA:          -6.446
REMARK INTER:                  -5.891
REMARK INTRA:                  -0.555
REMARK UNBOUND:                -0.374
REMARK  Name = ZINC000393562083
REMARK                            x       y       z     vdW  Elec       q    Type
REMARK                         _______ _______ _______ _____ _____    ______ ____
ROOT
ATOM      1  C   LIG    1       21.009 -23.631  16.645  0.00  0.00    -0.100 C 
ATOM      2  C   LIG    1       20.534 -22.437  15.799  0.00  0.00    +0.070 C 
ATOM      3  C   LIG    1       20.222 -23.452  14.686  0.00  0.00    +0.030 C 
ATOM      4  C   LIG    1       20.071 -24.505  15.796  0.00  0.00    +0.050 C 
ENDROOT
BRANCH   1   5
ATOM      5  C   LIG    1       20.607 -23.543  18.094  0.00  0.00    +0.540 C 
ATOM      6  N   LIG    1       20.242 -24.657  18.761  0.00  0.00    -0.590 N 
ATOM      7  H   LIG    1       20.162 -25.500  18.290  0.00  0.00    +0.410 HD
ATOM      8  O   LIG    1       20.610 -22.471  18.662  0.00  0.00    -0.520 OA
BRANCH   6   9
ATOM      9  O   LIG    1       19.975 -24.594  20.150  0.00  0.00    -0.320 OA
ATOM     10  H   LIG    1       19.106 -24.229  20.368  0.00  0.00    +0.390 HD
ENDBRANCH   6   9
ENDBRANCH   1   5
BRANCH   1  11
ATOM     11  C   LIG    1       22.492 -23.963  16.459  0.00  0.00    +0.080 C 
BRANCH  11  12
ATOM     12  C   LIG    1       23.307 -22.668  16.453  0.00  0.00    +0.170 C 
BRANCH  12  13
ATOM     13  O   LIG    1       24.334 -22.756  15.462  0.00  0.00    -0.390 OA
BRANCH  13  15
ATOM     14  C   LIG    1       23.485 -22.234  13.261  0.00  0.00    +0.040 C 
ATOM     15  C   LIG    1       23.904 -23.341  14.232  0.00  0.00    +0.160 C 
ENDBRANCH  13  15
ENDBRANCH  12  13
ENDBRANCH  11  12
ENDBRANCH   1  11
TORSDOF 6
ENDMDL
MODEL 8
REMARK VINA RESULT:    -4.328     14.647     16.511
REMARK INTER + INTRA:          -6.094
REMARK INTER:                  -5.640
REMARK INTRA:                  -0.453
REMARK UNBOUND:                -0.374
REMARK  Name = ZINC000393562083
REMARK                            x       y       z     vdW  Elec       q    Type
REMARK                         _______ _______ _______ _____ _____    ______ ____
ROOT
ATOM      1  C   LIG    1       21.228 -23.465  15.938  0.00  0.00    -0.100 C 
ATOM      2  C   LIG    1       21.835 -24.537  16.859  0.00  0.00    +0.070 C 
ATOM      3  C   LIG    1       20.422 -25.135  16.961  0.00  0.00    +0.030 C 
ATOM      4  C   LIG    1       20.135 -24.490  15.596  0.00  0.00    +0.050 C 
ENDROOT
BRANCH   1   5
ATOM      5  C   LIG    1       22.107 -23.105  14.768  0.00  0.00    +0.540 C 
ATOM      6  N   LIG    1       23.287 -22.487  14.977  0.00  0.00    -0.590 N 
ATOM      7  H   LIG    1       23.534 -22.203  15.869  0.00  0.00    +0.410 HD
ATOM      8  O   LIG    1       21.753 -23.371  13.638  0.00  0.00    -0.520 OA
BRANCH   6   9
ATOM      9  O   LIG    1       24.164 -22.252  13.891  0.00  0.00    -0.320 OA
ATOM     10  H   LIG    1       24.673 -23.030  13.622  0.00  0.00    +0.390 HD
ENDBRANCH   6   9
ENDBRANCH   1   5
BRANCH   1  11
ATOM     11  C   LIG    1       20.705 -22.237  16.687  0.00  0.00    +0.080 C 
BRANCH  11  12
ATOM     12  C   LIG    1       21.531 -22.026  17.958  0.00  0.00    +0.170 C 
BRANCH  12  13
ATOM     13  O   LIG    1       22.591 -21.104  17.689  0.00  0.00    -0.390 OA
BRANCH  13  15
ATOM     14  C   LIG    1       23.101 -21.290  20.044  0.00  0.00    +0.040 C 
ATOM     15  C   LIG    1       23.666 -21.167  18.627  0.00  0.00    +0.160 C 
ENDBRANCH  13  15
ENDBRANCH  12  13
ENDBRANCH  11  12
ENDBRANCH   1  11
TORSDOF 6
ENDMDL
MODEL 9
REMARK VINA RESULT:    -4.313      2.161      3.224
REMARK INTER + INTRA:          -6.074
REMARK INTER:                  -5.628
REMARK INTRA:                  -0.446
REMARK UNBOUND:                -0.374
REMARK  Name = ZINC000393562083
REMARK                            x       y       z     vdW  Elec       q    Type
REMARK                         _______ _______ _______ _____ _____    ______ ____
ROOT
ATOM      1  C   LIG    1       28.900 -19.844   2.241  0.00  0.00    -0.100 C 
ATOM      2  C   LIG    1       30.189 -20.271   2.964  0.00  0.00    +0.070 C 
ATOM      3  C   LIG    1       29.664 -19.501   4.187  0.00  0.00    +0.030 C 
ATOM      4  C   LIG    1       28.250 -19.736   3.631  0.00  0.00    +0.050 C 
ENDROOT
BRANCH   1   5
ATOM      5  C   LIG    1       28.304 -20.925   1.378  0.00  0.00    +0.540 C 
ATOM      6  N   LIG    1       27.767 -20.611   0.182  0.00  0.00    -0.590 N 
ATOM      7  H   LIG    1       27.692 -19.684  -0.089  0.00  0.00    +0.410 HD
ATOM      8  O   LIG    1       28.306 -22.077   1.758  0.00  0.00    -0.520 OA
BRANCH   6   9
ATOM      9  O   LIG    1       27.311 -21.639  -0.680  0.00  0.00    -0.320 OA
ATOM     10  H   LIG    1       27.238 -22.505  -0.255  0.00  0.00    +0.390 HD
ENDBRANCH   6   9
ENDBRANCH   1   5
BRANCH   1  11
ATOM     11  C   LIG    1       29.021 -18.502   1.515  0.00  0.00    +0.080 C 
BRANCH  11  12
ATOM     12  C   LIG    1       30.429 -18.363   0.932  0.00  0.00    +0.170 C 
BRANCH  12  13
ATOM     13  O   LIG    1       30.956 -17.077   1.263  0.00  0.00    -0.390 OA
BRANCH  13  15
ATOM     14  C   LIG    1       32.616 -17.408   2.988  0.00  0.00    +0.040 C 
ATOM     15  C   LIG    1       32.362 -17.074   1.516  0.00  0.00    +0.160 C 
ENDBRANCH  13  15
ENDBRANCH  12  13
ENDBRANCH  11  12
ENDBRANCH   1  11
TORSDOF 6
ENDMDL
