MODEL 1
REMARK VINA RESULT:    -5.614      0.000      0.000
REMARK INTER + INTRA:          -6.854
REMARK INTER:                  -6.598
REMARK INTRA:                  -0.256
REMARK UNBOUND:                -0.256
REMARK  Name = ZINC000774663160
REMARK                            x       y       z     vdW  Elec       q    Type
REMARK                         _______ _______ _______ _____ _____    ______ ____
ROOT
ATOM      1  C   LIG    1       29.731 -18.210   2.209  0.00  0.00    +0.120 A 
ATOM      2  C   LIG    1       29.314 -18.136   0.886  0.00  0.00    +0.030 A 
ATOM      3  C   LIG    1       28.311 -18.970   0.432  0.00  0.00    +0.080 A 
ATOM      4  C   LIG    1       27.720 -19.876   1.294  0.00  0.00    -0.080 A 
ATOM      5  C   LIG    1       28.133 -19.952   2.612  0.00  0.00    +0.100 A 
ATOM      6  C   LIG    1       26.625 -20.783   0.795  0.00  0.00    +0.120 C 
ATOM      7  C   LIG    1       29.140 -19.126   3.070  0.00  0.00    -0.010 A 
ENDROOT
BRANCH   7   8
ATOM      8  N   LIG    1       29.581 -19.207   4.481  0.00  0.00    +0.020 N 
ATOM      9  O   LIG    1       29.092 -18.467   5.315  0.00  0.00    -0.110 OA
ATOM     10  O   LIG    1       30.433 -20.014   4.806  0.00  0.00    -0.180 OA
ENDBRANCH   7   8
BRANCH   1  11
ATOM     11  N   LIG    1       30.747 -17.369   2.670  0.00  0.00    -0.330 N 
ATOM     12  C   LIG    1       30.770 -16.109   1.916  0.00  0.00    +0.250 C 
BRANCH  11  14
ATOM     13  C   LIG    1       33.063 -17.399   3.390  0.00  0.00    +0.230 C 
ATOM     14  O   LIG    1       32.047 -18.038   2.614  0.00  0.00    -0.250 OA
ENDBRANCH  11  14
ENDBRANCH   1  11
TORSDOF 3
ENDMDL
MODEL 2
REMARK VINA RESULT:    -4.880     24.177     25.368
REMARK INTER + INTRA:          -5.992
REMARK INTER:                  -5.826
REMARK INTRA:                  -0.166
REMARK UNBOUND:                -0.256
REMARK  Name = ZINC000774663160
REMARK                            x       y       z     vdW  Elec       q    Type
REMARK                         _______ _______ _______ _____ _____    ______ ____
ROOT
ATOM      1  C   LIG    1       13.956 -10.563  21.047  0.00  0.00    +0.120 A 
ATOM      2  C   LIG    1       13.889 -11.539  22.033  0.00  0.00    +0.030 A 
ATOM      3  C   LIG    1       14.951 -12.401  22.222  0.00  0.00    +0.080 A 
ATOM      4  C   LIG    1       16.080 -12.294  21.431  0.00  0.00    -0.080 A 
ATOM      5  C   LIG    1       16.150 -11.323  20.448  0.00  0.00    +0.100 A 
ATOM      6  C   LIG    1       17.237 -13.237  21.641  0.00  0.00    +0.120 C 
ATOM      7  C   LIG    1       15.089 -10.462  20.250  0.00  0.00    -0.010 A 
ENDROOT
BRANCH   7   8
ATOM      8  N   LIG    1       15.165  -9.423  19.198  0.00  0.00    +0.020 N 
ATOM      9  O   LIG    1       15.321  -8.255  19.505  0.00  0.00    -0.110 OA
ATOM     10  O   LIG    1       15.070  -9.737  18.025  0.00  0.00    -0.180 OA
ENDBRANCH   7   8
BRANCH   1  11
ATOM     11  N   LIG    1       12.882  -9.690  20.852  0.00  0.00    -0.330 N 
ATOM     12  C   LIG    1       12.180  -9.429  22.116  0.00  0.00    +0.250 C 
BRANCH  11  14
ATOM     13  C   LIG    1       10.589  -9.914  20.098  0.00  0.00    +0.230 C 
ATOM     14  O   LIG    1       11.963 -10.207  19.839  0.00  0.00    -0.250 OA
ENDBRANCH  11  14
ENDBRANCH   1  11
TORSDOF 3
ENDMDL
MODEL 3
REMARK VINA RESULT:    -4.879     15.186     16.791
REMARK INTER + INTRA:          -5.990
REMARK INTER:                  -5.749
REMARK INTRA:                  -0.241
REMARK UNBOUND:                -0.256
REMARK  Name = ZINC000774663160
REMARK                            x       y       z     vdW  Elec       q    Type
REMARK                         _______ _______ _______ _____ _____    ______ ____
ROOT
ATOM      1  C   LIG    1       21.873 -22.952  16.601  0.00  0.00    +0.120 A 
ATOM      2  C   LIG    1       23.161 -22.872  17.115  0.00  0.00    +0.030 A 
ATOM      3  C   LIG    1       24.241 -23.202  16.320  0.00  0.00    +0.080 A 
ATOM      4  C   LIG    1       24.042 -23.610  15.014  0.00  0.00    -0.080 A 
ATOM      5  C   LIG    1       22.761 -23.691  14.499  0.00  0.00    +0.100 A 
ATOM      6  C   LIG    1       25.224 -23.968  14.150  0.00  0.00    +0.120 C 
ATOM      7  C   LIG    1       21.676 -23.369  15.291  0.00  0.00    -0.010 A 
ENDROOT
BRANCH   7   8
ATOM      8  N   LIG    1       20.305 -23.456  14.739  0.00  0.00    +0.020 N 
ATOM      9  O   LIG    1       19.620 -24.439  14.961  0.00  0.00    -0.110 OA
ATOM     10  O   LIG    1       19.863 -22.545  14.062  0.00  0.00    -0.180 OA
ENDBRANCH   7   8
BRANCH   1  11
ATOM     11  N   LIG    1       20.777 -22.622  17.403  0.00  0.00    -0.330 N 
ATOM     12  C   LIG    1       21.025 -21.379  18.146  0.00  0.00    +0.250 C 
BRANCH  11  14
ATOM     13  C   LIG    1       20.617 -23.400  19.694  0.00  0.00    +0.230 C 
ATOM     14  O   LIG    1       20.443 -23.718  18.312  0.00  0.00    -0.250 OA
ENDBRANCH  11  14
ENDBRANCH   1  11
TORSDOF 3
ENDMDL
MODEL 4
REMARK VINA RESULT:    -4.873     20.652     22.019
REMARK INTER + INTRA:          -5.984
REMARK INTER:                  -5.718
REMARK INTRA:                  -0.266
REMARK UNBOUND:                -0.256
REMARK  Name = ZINC000774663160
REMARK                            x       y       z     vdW  Elec       q    Type
REMARK                         _______ _______ _______ _____ _____    ______ ____
ROOT
ATOM      1  C   LIG    1       24.612   0.163  13.359  0.00  0.00    +0.120 A 
ATOM      2  C   LIG    1       25.370   0.597  12.279  0.00  0.00    +0.030 A 
ATOM      3  C   LIG    1       25.052   0.178  11.002  0.00  0.00    +0.080 A 
ATOM      4  C   LIG    1       23.981  -0.672  10.798  0.00  0.00    -0.080 A 
ATOM      5  C   LIG    1       23.224  -1.107  11.871  0.00  0.00    +0.100 A 
ATOM      6  C   LIG    1       23.637  -1.127   9.402  0.00  0.00    +0.120 C 
ATOM      7  C   LIG    1       23.541  -0.697  13.152  0.00  0.00    -0.010 A 
ENDROOT
BRANCH   7   8
ATOM      8  N   LIG    1       22.730  -1.162  14.300  0.00  0.00    +0.020 N 
ATOM      9  O   LIG    1       21.934  -0.407  14.828  0.00  0.00    -0.110 OA
ATOM     10  O   LIG    1       22.862  -2.299  14.716  0.00  0.00    -0.180 OA
ENDBRANCH   7   8
BRANCH   1  11
ATOM     11  N   LIG    1       24.932   0.583  14.653  0.00  0.00    -0.330 N 
ATOM     12  C   LIG    1       24.872   2.047  14.759  0.00  0.00    +0.250 C 
BRANCH  11  14
ATOM     13  C   LIG    1       26.198  -0.879  16.116  0.00  0.00    +0.230 C 
ATOM     14  O   LIG    1       26.245   0.081  15.057  0.00  0.00    -0.250 OA
ENDBRANCH  11  14
ENDBRANCH   1  11
TORSDOF 3
ENDMDL
MODEL 5
REMARK VINA RESULT:    -4.862     11.530     13.058
REMARK INTER + INTRA:          -5.971
REMARK INTER:                  -5.641
REMARK INTRA:                  -0.330
REMARK UNBOUND:                -0.256
REMARK  Name = ZINC000774663160
REMARK                            x       y       z     vdW  Elec       q    Type
REMARK                         _______ _______ _______ _____ _____    ______ ____
ROOT
ATOM      1  C   LIG    1       26.244  -6.474  -0.883  0.00  0.00    +0.120 A 
ATOM      2  C   LIG    1       25.370  -5.430  -1.154  0.00  0.00    +0.030 A 
ATOM      3  C   LIG    1       24.445  -5.041  -0.204  0.00  0.00    +0.080 A 
ATOM      4  C   LIG    1       24.391  -5.690   1.016  0.00  0.00    -0.080 A 
ATOM      5  C   LIG    1       25.260  -6.730   1.289  0.00  0.00    +0.100 A 
ATOM      6  C   LIG    1       23.381  -5.262   2.050  0.00  0.00    +0.120 C 
ATOM      7  C   LIG    1       26.182  -7.128   0.342  0.00  0.00    -0.010 A 
ENDROOT
BRANCH   7   8
ATOM      8  N   LIG    1       27.113  -8.242   0.635  0.00  0.00    +0.020 N 
ATOM      9  O   LIG    1       28.139  -8.030   1.256  0.00  0.00    -0.110 OA
ATOM     10  O   LIG    1       26.852  -9.368   0.254  0.00  0.00    -0.180 OA
ENDBRANCH   7   8
BRANCH   1  11
ATOM     11  N   LIG    1       27.179  -6.871  -1.842  0.00  0.00    -0.330 N 
ATOM     12  C   LIG    1       28.131  -5.789  -2.128  0.00  0.00    +0.250 C 
BRANCH  11  14
ATOM     13  C   LIG    1       26.539  -8.741  -3.247  0.00  0.00    +0.230 C 
ATOM     14  O   LIG    1       26.516  -7.324  -3.065  0.00  0.00    -0.250 OA
ENDBRANCH  11  14
ENDBRANCH   1  11
TORSDOF 3
ENDMDL
MODEL 6
REMARK VINA RESULT:    -4.748     14.255     15.753
REMARK INTER + INTRA:          -5.837
REMARK INTER:                  -5.645
REMARK INTRA:                  -0.192
REMARK UNBOUND:                -0.256
REMARK  Name = ZINC000774663160
REMARK                            x       y       z     vdW  Elec       q    Type
REMARK                         _______ _______ _______ _____ _____    ______ ____
ROOT
ATOM      1  C   LIG    1       22.898 -22.729  15.345  0.00  0.00    +0.120 A 
ATOM      2  C   LIG    1       23.881 -22.205  16.175  0.00  0.00    +0.030 A 
ATOM      3  C   LIG    1       23.550 -21.763  17.441  0.00  0.00    +0.080 A 
ATOM      4  C   LIG    1       22.242 -21.843  17.883  0.00  0.00    -0.080 A 
ATOM      5  C   LIG    1       21.261 -22.365  17.059  0.00  0.00    +0.100 A 
ATOM      6  C   LIG    1       21.885 -21.361  19.266  0.00  0.00    +0.120 C 
ATOM      7  C   LIG    1       21.584 -22.802  15.790  0.00  0.00    -0.010 A 
ENDROOT
BRANCH   7   8
ATOM      8  N   LIG    1       20.533 -23.361  14.909  0.00  0.00    +0.020 N 
ATOM      9  O   LIG    1       20.097 -24.479  15.115  0.00  0.00    -0.110 OA
ATOM     10  O   LIG    1       20.106 -22.702  13.978  0.00  0.00    -0.180 OA
ENDBRANCH   7   8
BRANCH   1  11
ATOM     11  N   LIG    1       23.229 -23.175  14.063  0.00  0.00    -0.330 N 
ATOM     12  C   LIG    1       24.492 -23.925  14.077  0.00  0.00    +0.250 C 
BRANCH  11  14
ATOM     13  C   LIG    1       24.170 -22.282  12.014  0.00  0.00    +0.230 C 
ATOM     14  O   LIG    1       23.293 -22.059  13.120  0.00  0.00    -0.250 OA
ENDBRANCH  11  14
ENDBRANCH   1  11
TORSDOF 3
ENDMDL
MODEL 7
REMARK VINA RESULT:    -4.734     20.324     21.494
REMARK INTER + INTRA:          -5.820
REMARK INTER:                  -5.561
REMARK INTRA:                  -0.258
REMARK UNBOUND:                -0.256
REMARK  Name = ZINC000774663160
REMARK                            x       y       z     vdW  Elec       q    Type
REMARK                         _______ _______ _______ _____ _____    ______ ____
ROOT
ATOM      1  C   LIG    1       24.602   0.032  10.763  0.00  0.00    +0.120 A 
ATOM      2  C   LIG    1       23.750  -1.018  10.447  0.00  0.00    +0.030 A 
ATOM      3  C   LIG    1       23.012  -1.629  11.441  0.00  0.00    +0.080 A 
ATOM      4  C   LIG    1       23.118  -1.195  12.750  0.00  0.00    -0.080 A 
ATOM      5  C   LIG    1       23.966  -0.150  13.068  0.00  0.00    +0.100 A 
ATOM      6  C   LIG    1       22.310  -1.865  13.832  0.00  0.00    +0.120 C 
ATOM      7  C   LIG    1       24.712   0.461  12.080  0.00  0.00    -0.010 A 
ENDROOT
BRANCH   7   8
ATOM      8  N   LIG    1       25.618   1.581  12.421  0.00  0.00    +0.020 N 
ATOM      9  O   LIG    1       26.776   1.356  12.726  0.00  0.00    -0.110 OA
ATOM     10  O   LIG    1       25.205   2.726  12.398  0.00  0.00    -0.180 OA
ENDBRANCH   7   8
BRANCH   1  11
ATOM     11  N   LIG    1       25.352   0.651   9.760  0.00  0.00    -0.330 N 
ATOM     12  C   LIG    1       24.520   0.941   8.584  0.00  0.00    +0.250 C 
BRANCH  11  14
ATOM     13  C   LIG    1       27.430   0.496   8.519  0.00  0.00    +0.230 C 
ATOM     14  O   LIG    1       26.511  -0.162   9.395  0.00  0.00    -0.250 OA
ENDBRANCH  11  14
ENDBRANCH   1  11
TORSDOF 3
ENDMDL
MODEL 8
REMARK VINA RESULT:    -4.630     14.519     16.128
REMARK INTER + INTRA:          -5.698
REMARK INTER:                  -5.412
REMARK INTRA:                  -0.286
REMARK UNBOUND:                -0.256
REMARK  Name = ZINC000774663160
REMARK                            x       y       z     vdW  Elec       q    Type
REMARK                         _______ _______ _______ _____ _____    ______ ____
ROOT
ATOM      1  C   LIG    1       22.136 -23.307  16.136  0.00  0.00    +0.120 A 
ATOM      2  C   LIG    1       21.371 -23.394  14.980  0.00  0.00    +0.030 A 
ATOM      3  C   LIG    1       21.916 -23.033  13.763  0.00  0.00    +0.080 A 
ATOM      4  C   LIG    1       23.223 -22.586  13.695  0.00  0.00    -0.080 A 
ATOM      5  C   LIG    1       23.988 -22.499  14.844  0.00  0.00    +0.100 A 
ATOM      6  C   LIG    1       23.815 -22.194  12.365  0.00  0.00    +0.120 C 
ATOM      7  C   LIG    1       23.447 -22.852  16.064  0.00  0.00    -0.010 A 
ENDROOT
BRANCH   7   8
ATOM      8  N   LIG    1       24.267 -22.758  17.293  0.00  0.00    +0.020 N 
ATOM      9  O   LIG    1       24.382 -21.691  17.868  0.00  0.00    -0.110 OA
ATOM     10  O   LIG    1       24.827 -23.749  17.728  0.00  0.00    -0.180 OA
ENDBRANCH   7   8
BRANCH   1  11
ATOM     11  N   LIG    1       21.587 -23.670  17.368  0.00  0.00    -0.330 N 
ATOM     12  C   LIG    1       21.154 -25.074  17.358  0.00  0.00    +0.250 C 
BRANCH  11  14
ATOM     13  C   LIG    1       20.898 -21.485  18.162  0.00  0.00    +0.230 C 
ATOM     14  O   LIG    1       20.483 -22.783  17.731  0.00  0.00    -0.250 OA
ENDBRANCH  11  14
ENDBRANCH   1  11
TORSDOF 3
ENDMDL
MODEL 9
REMARK VINA RESULT:    -4.590      2.606      3.557
REMARK INTER + INTRA:          -5.651
REMARK INTER:                  -5.421
REMARK INTRA:                  -0.230
REMARK UNBOUND:                -0.256
REMARK  Name = ZINC000774663160
REMARK                            x       y       z     vdW  Elec       q    Type
REMARK                         _______ _______ _______ _____ _____    ______ ____
ROOT
ATOM      1  C   LIG    1       30.831 -18.325   0.535  0.00  0.00    +0.120 A 
ATOM      2  C   LIG    1       29.957 -19.384   0.324  0.00  0.00    +0.030 A 
ATOM      3  C   LIG    1       29.137 -19.815   1.348  0.00  0.00    +0.080 A 
ATOM      4  C   LIG    1       29.184 -19.193   2.582  0.00  0.00    -0.080 A 
ATOM      5  C   LIG    1       30.053 -18.138   2.796  0.00  0.00    +0.100 A 
ATOM      6  C   LIG    1       28.287 -19.666   3.697  0.00  0.00    +0.120 C 
ATOM      7  C   LIG    1       30.881 -17.707   1.778  0.00  0.00    -0.010 A 
ENDROOT
BRANCH   7   8
ATOM      8  N   LIG    1       31.810 -16.578   2.008  0.00  0.00    +0.020 N 
ATOM      9  O   LIG    1       31.503 -15.454   1.653  0.00  0.00    -0.110 OA
ATOM     10  O   LIG    1       32.883 -16.774   2.551  0.00  0.00    -0.180 OA
ENDBRANCH   7   8
BRANCH   1  11
ATOM     11  N   LIG    1       31.664 -17.888  -0.498  0.00  0.00    -0.330 N 
ATOM     12  C   LIG    1       30.903 -17.131  -1.501  0.00  0.00    +0.250 C 
BRANCH  11  14
ATOM     13  C   LIG    1       33.356 -18.622  -2.072  0.00  0.00    +0.230 C 
ATOM     14  O   LIG    1       32.371 -19.011  -1.112  0.00  0.00    -0.250 OA
ENDBRANCH  11  14
ENDBRANCH   1  11
TORSDOF 3
ENDMDL
