MODEL 1
REMARK VINA RESULT:    -4.311      0.000      0.000
REMARK INTER + INTRA:          -5.986
REMARK INTER:                  -5.319
REMARK INTRA:                  -0.668
REMARK UNBOUND:                -0.668
REMARK  Name = ZINC000899886153
REMARK                            x       y       z     vdW  Elec       q    Type
REMARK                         _______ _______ _______ _____ _____    ______ ____
ROOT
ATOM      1  C   LIG    1       13.259 -13.892  22.058  0.00  0.00    +0.060 C 
ATOM      2  C   LIG    1       14.598 -13.238  22.406  0.00  0.00    -0.080 C 
ATOM      3  C   LIG    1       15.618 -13.264  21.255  0.00  0.00    +0.160 C 
ATOM      4  N   LIG    1       15.054 -11.955  20.857  0.00  0.00    -0.460 NA
ATOM      5  C   LIG    1       15.164 -13.716  23.745  0.00  0.00    +0.030 C 
ATOM      6  C   LIG    1       14.600 -11.707  22.243  0.00  0.00    +0.150 C 
ENDROOT
BRANCH   6   7
ATOM      7  C   LIG    1       13.211 -11.073  22.332  0.00  0.00    -0.020 C 
ATOM      8  C   LIG    1       12.853 -10.335  23.624  0.00  0.00    +0.010 C 
ATOM      9  C   LIG    1       13.132  -9.545  22.345  0.00  0.00    +0.020 C 
ENDBRANCH   6   7
BRANCH   4  10
ATOM     10  C   LIG    1       16.118 -11.017  20.475  0.00  0.00    +0.180 C 
BRANCH  10  11
ATOM     11  C   LIG    1       15.869 -10.515  19.052  0.00  0.00    +0.270 C 
BRANCH  11  12
ATOM     12  N   LIG    1       14.803  -9.510  19.068  0.00  0.00    -0.020 N 
ATOM     13  O   LIG    1       13.724  -9.761  18.562  0.00  0.00    -0.160 OA
ATOM     14  O   LIG    1       14.995  -8.425  19.587  0.00  0.00    -0.160 OA
ENDBRANCH  11  12
ENDBRANCH  10  11
ENDBRANCH   4  10
TORSDOF 4
ENDMDL
MODEL 2
REMARK VINA RESULT:    -4.208     24.030     25.378
REMARK INTER + INTRA:          -5.860
REMARK INTER:                  -5.339
REMARK INTRA:                  -0.521
REMARK UNBOUND:                -0.668
REMARK  Name = ZINC000899886153
REMARK                            x       y       z     vdW  Elec       q    Type
REMARK                         _______ _______ _______ _____ _____    ______ ____
ROOT
ATOM      1  C   LIG    1       29.034  -8.052  -2.419  0.00  0.00    +0.060 C 
ATOM      2  C   LIG    1       28.926  -7.564  -0.973  0.00  0.00    -0.080 C 
ATOM      3  C   LIG    1       28.712  -6.046  -0.845  0.00  0.00    +0.160 C 
ATOM      4  N   LIG    1       27.264  -6.347  -0.879  0.00  0.00    -0.460 NA
ATOM      5  C   LIG    1       30.038  -8.110  -0.076  0.00  0.00    +0.030 C 
ATOM      6  C   LIG    1       27.515  -7.714  -0.373  0.00  0.00    +0.150 C 
ENDROOT
BRANCH   6   7
ATOM      7  C   LIG    1       26.665  -8.789  -1.051  0.00  0.00    -0.020 C 
ATOM      8  C   LIG    1       26.531 -10.138  -0.342  0.00  0.00    +0.010 C 
ATOM      9  C   LIG    1       25.345  -9.173  -0.380  0.00  0.00    +0.020 C 
ENDBRANCH   6   7
BRANCH   4  10
ATOM     10  C   LIG    1       26.536  -5.544   0.114  0.00  0.00    +0.180 C 
BRANCH  10  11
ATOM     11  C   LIG    1       25.071  -5.415  -0.309  0.00  0.00    +0.270 C 
BRANCH  11  12
ATOM     12  N   LIG    1       24.211  -5.534   0.871  0.00  0.00    -0.020 N 
ATOM     13  O   LIG    1       24.453  -6.374   1.719  0.00  0.00    -0.160 OA
ATOM     14  O   LIG    1       23.254  -4.792   1.005  0.00  0.00    -0.160 OA
ENDBRANCH  11  12
ENDBRANCH  10  11
ENDBRANCH   4  10
TORSDOF 4
ENDMDL
MODEL 3
REMARK VINA RESULT:    -4.172     14.497     16.004
REMARK INTER + INTRA:          -5.815
REMARK INTER:                  -5.316
REMARK INTRA:                  -0.499
REMARK UNBOUND:                -0.668
REMARK  Name = ZINC000899886153
REMARK                            x       y       z     vdW  Elec       q    Type
REMARK                         _______ _______ _______ _____ _____    ______ ____
ROOT
ATOM      1  C   LIG    1       20.673 -23.988  18.104  0.00  0.00    +0.060 C 
ATOM      2  C   LIG    1       21.550 -22.778  17.772  0.00  0.00    -0.080 C 
ATOM      3  C   LIG    1       23.011 -22.927  18.231  0.00  0.00    +0.160 C 
ATOM      4  N   LIG    1       23.267 -23.512  16.896  0.00  0.00    -0.460 NA
ATOM      5  C   LIG    1       20.908 -21.449  18.172  0.00  0.00    +0.030 C 
ATOM      6  C   LIG    1       22.103 -22.792  16.335  0.00  0.00    +0.150 C 
ENDROOT
BRANCH   6   7
ATOM      7  C   LIG    1       21.273 -23.628  15.359  0.00  0.00    -0.020 C 
ATOM      8  C   LIG    1       20.084 -22.946  14.679  0.00  0.00    +0.010 C 
ATOM      9  C   LIG    1       21.347 -23.262  13.875  0.00  0.00    +0.020 C 
ENDBRANCH   6   7
BRANCH   4  10
ATOM     10  C   LIG    1       24.524 -23.003  16.331  0.00  0.00    +0.180 C 
BRANCH  10  11
ATOM     11  C   LIG    1       25.451 -24.176  16.008  0.00  0.00    +0.270 C 
BRANCH  11  12
ATOM     12  N   LIG    1       25.622 -24.278  14.556  0.00  0.00    -0.020 N 
ATOM     13  O   LIG    1       24.728 -23.918  13.812  0.00  0.00    -0.160 OA
ATOM     14  O   LIG    1       26.658 -24.723  14.094  0.00  0.00    -0.160 OA
ENDBRANCH  11  12
ENDBRANCH  10  11
ENDBRANCH   4  10
TORSDOF 4
ENDMDL
MODEL 4
REMARK VINA RESULT:    -4.050     26.029     26.804
REMARK INTER + INTRA:          -5.665
REMARK INTER:                  -5.211
REMARK INTRA:                  -0.454
REMARK UNBOUND:                -0.668
REMARK  Name = ZINC000899886153
REMARK                            x       y       z     vdW  Elec       q    Type
REMARK                         _______ _______ _______ _____ _____    ______ ____
ROOT
ATOM      1  C   LIG    1       31.326 -21.865   0.262  0.00  0.00    +0.060 C 
ATOM      2  C   LIG    1       30.947 -21.423   1.677  0.00  0.00    -0.080 C 
ATOM      3  C   LIG    1       31.860 -20.325   2.249  0.00  0.00    +0.160 C 
ATOM      4  N   LIG    1       30.902 -19.361   1.664  0.00  0.00    -0.460 NA
ATOM      5  C   LIG    1       30.725 -22.600   2.629  0.00  0.00    +0.030 C 
ATOM      6  C   LIG    1       29.823 -20.372   1.717  0.00  0.00    +0.150 C 
ENDROOT
BRANCH   6   7
ATOM      7  C   LIG    1       28.924 -20.379   0.479  0.00  0.00    -0.020 C 
ATOM      8  C   LIG    1       27.431 -20.640   0.691  0.00  0.00    +0.010 C 
ATOM      9  C   LIG    1       27.918 -19.236   0.330  0.00  0.00    +0.020 C 
ENDBRANCH   6   7
BRANCH   4  10
ATOM     10  C   LIG    1       30.634 -18.255   2.593  0.00  0.00    +0.180 C 
BRANCH  10  11
ATOM     11  C   LIG    1       30.495 -16.950   1.807  0.00  0.00    +0.270 C 
BRANCH  11  12
ATOM     12  N   LIG    1       31.809 -16.314   1.680  0.00  0.00    -0.020 N 
ATOM     13  O   LIG    1       32.713 -16.631   2.432  0.00  0.00    -0.160 OA
ATOM     14  O   LIG    1       31.997 -15.470   0.823  0.00  0.00    -0.160 OA
ENDBRANCH  11  12
ENDBRANCH  10  11
ENDBRANCH   4  10
TORSDOF 4
ENDMDL
MODEL 5
REMARK VINA RESULT:    -3.974     13.755     14.742
REMARK INTER + INTRA:          -5.571
REMARK INTER:                  -5.159
REMARK INTRA:                  -0.413
REMARK UNBOUND:                -0.668
REMARK  Name = ZINC000899886153
REMARK                            x       y       z     vdW  Elec       q    Type
REMARK                         _______ _______ _______ _____ _____    ______ ____
ROOT
ATOM      1  C   LIG    1       22.770 -21.746  20.701  0.00  0.00    +0.060 C 
ATOM      2  C   LIG    1       22.564 -23.095  20.008  0.00  0.00    -0.080 C 
ATOM      3  C   LIG    1       21.095 -23.397  19.664  0.00  0.00    +0.160 C 
ATOM      4  N   LIG    1       21.367 -22.743  18.365  0.00  0.00    -0.460 NA
ATOM      5  C   LIG    1       23.283 -24.245  20.716  0.00  0.00    +0.030 C 
ATOM      6  C   LIG    1       22.808 -23.053  18.488  0.00  0.00    +0.150 C 
ENDROOT
BRANCH   6   7
ATOM      7  C   LIG    1       23.725 -21.914  18.038  0.00  0.00    -0.020 C 
ATOM      8  C   LIG    1       25.183 -22.260  17.729  0.00  0.00    +0.010 C 
ATOM      9  C   LIG    1       24.217 -21.933  16.590  0.00  0.00    +0.020 C 
ENDBRANCH   6   7
BRANCH   4  10
ATOM     10  C   LIG    1       20.759 -23.495  17.259  0.00  0.00    +0.180 C 
BRANCH  10  11
ATOM     11  C   LIG    1       20.545 -22.562  16.065  0.00  0.00    +0.270 C 
BRANCH  11  12
ATOM     12  N   LIG    1       20.209 -23.356  14.880  0.00  0.00    -0.020 N 
ATOM     13  O   LIG    1       20.575 -22.988  13.778  0.00  0.00    -0.160 OA
ATOM     14  O   LIG    1       19.564 -24.382  14.996  0.00  0.00    -0.160 OA
ENDBRANCH  11  12
ENDBRANCH  10  11
ENDBRANCH   4  10
TORSDOF 4
ENDMDL
MODEL 6
REMARK VINA RESULT:    -3.952     24.391     25.926
REMARK INTER + INTRA:          -5.544
REMARK INTER:                  -4.983
REMARK INTRA:                  -0.561
REMARK UNBOUND:                -0.668
REMARK  Name = ZINC000899886153
REMARK                            x       y       z     vdW  Elec       q    Type
REMARK                         _______ _______ _______ _____ _____    ______ ____
ROOT
ATOM      1  C   LIG    1       25.509  -5.953   1.278  0.00  0.00    +0.060 C 
ATOM      2  C   LIG    1       25.995  -5.823  -0.167  0.00  0.00    -0.080 C 
ATOM      3  C   LIG    1       27.358  -5.123  -0.302  0.00  0.00    +0.160 C 
ATOM      4  N   LIG    1       27.951  -6.474  -0.198  0.00  0.00    -0.460 NA
ATOM      5  C   LIG    1       24.922  -5.275  -1.109  0.00  0.00    +0.030 C 
ATOM      6  C   LIG    1       26.701  -7.085  -0.698  0.00  0.00    +0.150 C 
ENDROOT
BRANCH   6   7
ATOM      7  C   LIG    1       26.306  -8.369   0.031  0.00  0.00    -0.020 C 
ATOM      8  C   LIG    1       25.296  -9.291  -0.655  0.00  0.00    +0.010 C 
ATOM      9  C   LIG    1       26.769  -9.696  -0.573  0.00  0.00    +0.020 C 
ENDBRANCH   6   7
BRANCH   4  10
ATOM     10  C   LIG    1       29.045  -6.645  -1.164  0.00  0.00    +0.180 C 
BRANCH  10  11
ATOM     11  C   LIG    1       30.357  -6.884  -0.414  0.00  0.00    +0.270 C 
BRANCH  11  12
ATOM     12  N   LIG    1       30.565  -8.324  -0.240  0.00  0.00    -0.020 N 
ATOM     13  O   LIG    1       30.167  -9.103  -1.088  0.00  0.00    -0.160 OA
ATOM     14  O   LIG    1       31.135  -8.742   0.751  0.00  0.00    -0.160 OA
ENDBRANCH  11  12
ENDBRANCH  10  11
ENDBRANCH   4  10
TORSDOF 4
ENDMDL
MODEL 7
REMARK VINA RESULT:    -3.842     13.439     14.985
REMARK INTER + INTRA:          -5.408
REMARK INTER:                  -4.960
REMARK INTRA:                  -0.448
REMARK UNBOUND:                -0.668
REMARK  Name = ZINC000899886153
REMARK                            x       y       z     vdW  Elec       q    Type
REMARK                         _______ _______ _______ _____ _____    ______ ____
ROOT
ATOM      1  C   LIG    1       20.929 -24.824  16.606  0.00  0.00    +0.060 C 
ATOM      2  C   LIG    1       21.005 -23.333  16.270  0.00  0.00    -0.080 C 
ATOM      3  C   LIG    1       20.731 -22.412  17.473  0.00  0.00    +0.160 C 
ATOM      4  N   LIG    1       22.190 -22.458  17.714  0.00  0.00    -0.460 NA
ATOM      5  C   LIG    1       20.212 -22.963  15.015  0.00  0.00    +0.030 C 
ATOM      6  C   LIG    1       22.437 -22.767  16.289  0.00  0.00    +0.150 C 
ENDROOT
BRANCH   6   7
ATOM      7  C   LIG    1       23.522 -23.821  16.065  0.00  0.00    -0.020 C 
ATOM      8  C   LIG    1       24.336 -23.734  14.772  0.00  0.00    +0.010 C 
ATOM      9  C   LIG    1       24.979 -23.355  16.107  0.00  0.00    +0.020 C 
ENDBRANCH   6   7
BRANCH   4  10
ATOM     10  C   LIG    1       22.708 -21.129  18.063  0.00  0.00    +0.180 C 
BRANCH  10  11
ATOM     11  C   LIG    1       23.898 -21.277  19.013  0.00  0.00    +0.270 C 
BRANCH  11  12
ATOM     12  N   LIG    1       23.491 -20.893  20.368  0.00  0.00    -0.020 N 
ATOM     13  O   LIG    1       24.277 -20.316  21.098  0.00  0.00    -0.160 OA
ATOM     14  O   LIG    1       22.368 -21.150  20.763  0.00  0.00    -0.160 OA
ENDBRANCH  11  12
ENDBRANCH  10  11
ENDBRANCH   4  10
TORSDOF 4
ENDMDL
MODEL 8
REMARK VINA RESULT:    -3.828     24.539     25.997
REMARK INTER + INTRA:          -5.390
REMARK INTER:                  -4.900
REMARK INTRA:                  -0.490
REMARK UNBOUND:                -0.668
REMARK  Name = ZINC000899886153
REMARK                            x       y       z     vdW  Elec       q    Type
REMARK                         _______ _______ _______ _____ _____    ______ ____
ROOT
ATOM      1  C   LIG    1       26.075  -8.974  -2.245  0.00  0.00    +0.060 C 
ATOM      2  C   LIG    1       26.934  -9.252  -1.009  0.00  0.00    -0.080 C 
ATOM      3  C   LIG    1       28.447  -9.140  -1.269  0.00  0.00    +0.160 C 
ATOM      4  N   LIG    1       28.308  -7.719  -0.884  0.00  0.00    -0.460 NA
ATOM      5  C   LIG    1       26.525 -10.529  -0.274  0.00  0.00    +0.030 C 
ATOM      6  C   LIG    1       27.103  -8.031  -0.086  0.00  0.00    +0.150 C 
ENDROOT
BRANCH   6   7
ATOM      7  C   LIG    1       25.988  -6.993  -0.221  0.00  0.00    -0.020 C 
ATOM      8  C   LIG    1       24.970  -6.896   0.917  0.00  0.00    +0.010 C 
ATOM      9  C   LIG    1       26.017  -5.796   0.732  0.00  0.00    +0.020 C 
ENDBRANCH   6   7
BRANCH   4  10
ATOM     10  C   LIG    1       29.418  -7.297  -0.018  0.00  0.00    +0.180 C 
BRANCH  10  11
ATOM     11  C   LIG    1       29.884  -5.899  -0.430  0.00  0.00    +0.270 C 
BRANCH  11  12
ATOM     12  N   LIG    1       31.275  -5.705  -0.014  0.00  0.00    -0.020 N 
ATOM     13  O   LIG    1       31.674  -4.591   0.274  0.00  0.00    -0.160 OA
ATOM     14  O   LIG    1       32.032  -6.658   0.045  0.00  0.00    -0.160 OA
ENDBRANCH  11  12
ENDBRANCH  10  11
ENDBRANCH   4  10
TORSDOF 4
ENDMDL
MODEL 9
REMARK VINA RESULT:    -3.706     15.463     18.206
REMARK INTER + INTRA:          -5.240
REMARK INTER:                  -4.685
REMARK INTRA:                  -0.555
REMARK UNBOUND:                -0.668
REMARK  Name = ZINC000899886153
REMARK                            x       y       z     vdW  Elec       q    Type
REMARK                         _______ _______ _______ _____ _____    ______ ____
ROOT
ATOM      1  C   LIG    1       26.539   1.116  10.189  0.00  0.00    +0.060 C 
ATOM      2  C   LIG    1       25.020   0.935  10.133  0.00  0.00    -0.080 C 
ATOM      3  C   LIG    1       24.568  -0.533  10.215  0.00  0.00    +0.160 C 
ATOM      4  N   LIG    1       24.515  -0.333  11.680  0.00  0.00    -0.460 NA
ATOM      5  C   LIG    1       24.369   1.721   8.994  0.00  0.00    +0.030 C 
ATOM      6  C   LIG    1       24.325   1.122  11.494  0.00  0.00    +0.150 C 
ENDROOT
BRANCH   6   7
ATOM      7  C   LIG    1       25.117   1.979  12.482  0.00  0.00    -0.020 C 
ATOM      8  C   LIG    1       24.812   3.478  12.523  0.00  0.00    +0.010 C 
ATOM      9  C   LIG    1       24.358   2.573  13.670  0.00  0.00    +0.020 C 
ENDBRANCH   6   7
BRANCH   4  10
ATOM     10  C   LIG    1       23.313  -0.953  12.253  0.00  0.00    +0.180 C 
BRANCH  10  11
ATOM     11  C   LIG    1       23.666  -1.611  13.588  0.00  0.00    +0.270 C 
BRANCH  11  12
ATOM     12  N   LIG    1       22.715  -1.175  14.614  0.00  0.00    -0.020 N 
ATOM     13  O   LIG    1       22.309  -1.969  15.444  0.00  0.00    -0.160 OA
ATOM     14  O   LIG    1       22.330  -0.020  14.637  0.00  0.00    -0.160 OA
ENDBRANCH  11  12
ENDBRANCH  10  11
ENDBRANCH   4  10
TORSDOF 4
ENDMDL
