MODEL 1
REMARK VINA RESULT:    -5.438      0.000      0.000
REMARK INTER + INTRA:          -6.472
REMARK INTER:                  -6.392
REMARK INTRA:                  -0.080
REMARK UNBOUND:                -0.080
REMARK  Name = ZINC000774663902
REMARK                            x       y       z     vdW  Elec       q    Type
REMARK                         _______ _______ _______ _____ _____    ______ ____
ROOT
ATOM      1  C   LIG    1       29.263 -18.224   1.499  0.00  0.00    +0.450 A 
ATOM      2  C   LIG    1       29.385 -18.515   2.854  0.00  0.00    -0.070 A 
ATOM      3  C   LIG    1       28.718 -19.611   3.369  0.00  0.00    +0.190 A 
ATOM      4  C   LIG    1       27.947 -20.381   2.510  0.00  0.00    -0.160 A 
ATOM      5  C   LIG    1       27.870 -20.035   1.176  0.00  0.00    +0.260 A 
ATOM      6  C   LIG    1       27.035 -20.868   0.238  0.00  0.00    +0.170 C 
ATOM      7  N   LIG    1       28.514 -18.980   0.712  0.00  0.00    -0.520 NA
ENDROOT
BRANCH   4   8
ATOM      8  N   LIG    1       27.215 -21.562   3.019  0.00  0.00    +0.040 N 
ATOM      9  O   LIG    1       26.013 -21.498   3.211  0.00  0.00    -0.160 OA
ATOM     10  O   LIG    1       27.813 -22.599   3.246  0.00  0.00    -0.150 OA
ENDBRANCH   4   8
BRANCH   1  11
ATOM     11  N   LIG    1       29.929 -17.125   0.968  0.00  0.00    -0.470 N 
ATOM     12  C   LIG    1       30.724 -16.258   1.841  0.00  0.00    +0.340 C 
BRANCH  11  14
ATOM     13  C   LIG    1       30.978 -17.267  -1.171  0.00  0.00    +0.230 C 
ATOM     14  O   LIG    1       29.840 -16.844  -0.417  0.00  0.00    -0.120 OA
ENDBRANCH  11  14
ENDBRANCH   1  11
TORSDOF 3
ENDMDL
MODEL 2
REMARK VINA RESULT:    -5.331      1.736      5.272
REMARK INTER + INTRA:          -6.346
REMARK INTER:                  -6.203
REMARK INTRA:                  -0.143
REMARK UNBOUND:                -0.080
REMARK  Name = ZINC000774663902
REMARK                            x       y       z     vdW  Elec       q    Type
REMARK                         _______ _______ _______ _____ _____    ______ ____
ROOT
ATOM      1  C   LIG    1       28.476 -19.308   1.720  0.00  0.00    +0.450 A 
ATOM      2  C   LIG    1       29.027 -18.891   2.928  0.00  0.00    -0.070 A 
ATOM      3  C   LIG    1       30.051 -17.961   2.914  0.00  0.00    +0.190 A 
ATOM      4  C   LIG    1       30.492 -17.479   1.690  0.00  0.00    -0.160 A 
ATOM      5  C   LIG    1       29.901 -17.936   0.530  0.00  0.00    +0.260 A 
ATOM      6  C   LIG    1       30.375 -17.416  -0.803  0.00  0.00    +0.170 C 
ATOM      7  N   LIG    1       28.928 -18.827   0.572  0.00  0.00    -0.520 NA
ENDROOT
BRANCH   4   8
ATOM      8  N   LIG    1       31.586 -16.484   1.629  0.00  0.00    +0.040 N 
ATOM      9  O   LIG    1       32.744 -16.855   1.557  0.00  0.00    -0.160 OA
ATOM     10  O   LIG    1       31.329 -15.293   1.652  0.00  0.00    -0.150 OA
ENDBRANCH   4   8
BRANCH   1  11
ATOM     11  N   LIG    1       27.446 -20.242   1.719  0.00  0.00    -0.470 N 
ATOM     12  C   LIG    1       26.860 -20.684   0.451  0.00  0.00    +0.340 C 
BRANCH  11  14
ATOM     13  C   LIG    1       25.601 -21.192   2.895  0.00  0.00    +0.230 C 
ATOM     14  O   LIG    1       26.963 -20.765   2.943  0.00  0.00    -0.120 OA
ENDBRANCH  11  14
ENDBRANCH   1  11
TORSDOF 3
ENDMDL
MODEL 3
REMARK VINA RESULT:    -5.276     13.263     15.142
REMARK INTER + INTRA:          -6.282
REMARK INTER:                  -6.183
REMARK INTRA:                  -0.099
REMARK UNBOUND:                -0.080
REMARK  Name = ZINC000774663902
REMARK                            x       y       z     vdW  Elec       q    Type
REMARK                         _______ _______ _______ _____ _____    ______ ____
ROOT
ATOM      1  C   LIG    1       23.406 -23.039  14.038  0.00  0.00    +0.450 A 
ATOM      2  C   LIG    1       23.951 -22.563  15.227  0.00  0.00    -0.070 A 
ATOM      3  C   LIG    1       23.129 -22.403  16.327  0.00  0.00    +0.190 A 
ATOM      4  C   LIG    1       21.785 -22.725  16.202  0.00  0.00    -0.160 A 
ATOM      5  C   LIG    1       21.310 -23.192  14.993  0.00  0.00    +0.260 A 
ATOM      6  C   LIG    1       19.852 -23.543  14.851  0.00  0.00    +0.170 C 
ATOM      7  N   LIG    1       22.117 -23.330  13.958  0.00  0.00    -0.520 NA
ENDROOT
BRANCH   4   8
ATOM      8  N   LIG    1       20.869 -22.568  17.354  0.00  0.00    +0.040 N 
ATOM      9  O   LIG    1       20.359 -21.486  17.585  0.00  0.00    -0.160 OA
ATOM     10  O   LIG    1       20.625 -23.522  18.073  0.00  0.00    -0.150 OA
ENDBRANCH   4   8
BRANCH   1  11
ATOM     11  N   LIG    1       24.221 -23.204  12.924  0.00  0.00    -0.470 N 
ATOM     12  C   LIG    1       25.180 -24.311  12.877  0.00  0.00    +0.340 C 
BRANCH  11  14
ATOM     13  C   LIG    1       24.968 -22.634  10.731  0.00  0.00    +0.230 C 
ATOM     14  O   LIG    1       24.125 -22.303  11.836  0.00  0.00    -0.120 OA
ENDBRANCH  11  14
ENDBRANCH   1  11
TORSDOF 3
ENDMDL
MODEL 4
REMARK VINA RESULT:    -5.253      2.188      2.797
REMARK INTER + INTRA:          -6.254
REMARK INTER:                  -6.254
REMARK INTRA:                  -0.001
REMARK UNBOUND:                -0.080
REMARK  Name = ZINC000774663902
REMARK                            x       y       z     vdW  Elec       q    Type
REMARK                         _______ _______ _______ _____ _____    ______ ____
ROOT
ATOM      1  C   LIG    1       29.775 -18.174   1.919  0.00  0.00    +0.450 A 
ATOM      2  C   LIG    1       29.275 -17.951   0.640  0.00  0.00    -0.070 A 
ATOM      3  C   LIG    1       28.297 -18.795   0.144  0.00  0.00    +0.190 A 
ATOM      4  C   LIG    1       27.853 -19.837   0.946  0.00  0.00    -0.160 A 
ATOM      5  C   LIG    1       28.393 -20.000   2.205  0.00  0.00    +0.260 A 
ATOM      6  C   LIG    1       27.914 -21.130   3.080  0.00  0.00    +0.170 C 
ATOM      7  N   LIG    1       29.328 -19.182   2.651  0.00  0.00    -0.520 NA
ENDROOT
BRANCH   4   8
ATOM      8  N   LIG    1       26.809 -20.765   0.454  0.00  0.00    +0.040 N 
ATOM      9  O   LIG    1       25.693 -20.738   0.941  0.00  0.00    -0.160 OA
ATOM     10  O   LIG    1       27.067 -21.555  -0.437  0.00  0.00    -0.150 OA
ENDBRANCH   4   8
BRANCH   1  11
ATOM     11  N   LIG    1       30.758 -17.333   2.430  0.00  0.00    -0.470 N 
ATOM     12  C   LIG    1       30.937 -15.991   1.870  0.00  0.00    +0.340 C 
BRANCH  11  14
ATOM     13  C   LIG    1       32.947 -17.358   3.378  0.00  0.00    +0.230 C 
ATOM     14  O   LIG    1       31.584 -17.774   3.492  0.00  0.00    -0.120 OA
ENDBRANCH  11  14
ENDBRANCH   1  11
TORSDOF 3
ENDMDL
MODEL 5
REMARK VINA RESULT:    -4.981     13.320     15.302
REMARK INTER + INTRA:          -5.934
REMARK INTER:                  -5.834
REMARK INTRA:                  -0.100
REMARK UNBOUND:                -0.080
REMARK  Name = ZINC000774663902
REMARK                            x       y       z     vdW  Elec       q    Type
REMARK                         _______ _______ _______ _____ _____    ______ ____
ROOT
ATOM      1  C   LIG    1       23.340 -22.982  14.035  0.00  0.00    +0.450 A 
ATOM      2  C   LIG    1       21.993 -23.302  13.903  0.00  0.00    -0.070 A 
ATOM      3  C   LIG    1       21.156 -23.151  14.994  0.00  0.00    +0.190 A 
ATOM      4  C   LIG    1       21.697 -22.685  16.184  0.00  0.00    -0.160 A 
ATOM      5  C   LIG    1       23.043 -22.387  16.245  0.00  0.00    +0.260 A 
ATOM      6  C   LIG    1       23.636 -21.880  17.534  0.00  0.00    +0.170 C 
ATOM      7  N   LIG    1       23.819 -22.545  15.189  0.00  0.00    -0.520 NA
ENDROOT
BRANCH   4   8
ATOM      8  N   LIG    1       20.839 -22.510  17.377  0.00  0.00    +0.040 N 
ATOM      9  O   LIG    1       20.609 -23.457  18.107  0.00  0.00    -0.160 OA
ATOM     10  O   LIG    1       20.360 -21.417  17.629  0.00  0.00    -0.150 OA
ENDBRANCH   4   8
BRANCH   1  11
ATOM     11  N   LIG    1       24.193 -23.129  12.946  0.00  0.00    -0.470 N 
ATOM     12  C   LIG    1       25.142 -24.245  12.904  0.00  0.00    +0.340 C 
BRANCH  11  14
ATOM     13  C   LIG    1       24.935 -22.573  10.748  0.00  0.00    +0.230 C 
ATOM     14  O   LIG    1       24.144 -22.201  11.878  0.00  0.00    -0.120 OA
ENDBRANCH  11  14
ENDBRANCH   1  11
TORSDOF 3
ENDMDL
MODEL 6
REMARK VINA RESULT:    -4.963     21.029     22.152
REMARK INTER + INTRA:          -5.914
REMARK INTER:                  -5.785
REMARK INTRA:                  -0.129
REMARK UNBOUND:                -0.080
REMARK  Name = ZINC000774663902
REMARK                            x       y       z     vdW  Elec       q    Type
REMARK                         _______ _______ _______ _____ _____    ______ ____
ROOT
ATOM      1  C   LIG    1       24.314  -0.433  10.934  0.00  0.00    +0.450 A 
ATOM      2  C   LIG    1       23.234  -1.309  10.972  0.00  0.00    -0.070 A 
ATOM      3  C   LIG    1       22.613  -1.559  12.182  0.00  0.00    +0.190 A 
ATOM      4  C   LIG    1       23.097  -0.924  13.318  0.00  0.00    -0.160 A 
ATOM      5  C   LIG    1       24.173  -0.067  13.208  0.00  0.00    +0.260 A 
ATOM      6  C   LIG    1       24.702   0.626  14.438  0.00  0.00    +0.170 C 
ATOM      7  N   LIG    1       24.749   0.150  12.040  0.00  0.00    -0.520 NA
ENDROOT
BRANCH   4   8
ATOM      8  N   LIG    1       22.464  -1.163  14.635  0.00  0.00    +0.040 N 
ATOM      9  O   LIG    1       22.830  -2.098  15.325  0.00  0.00    -0.160 OA
ATOM     10  O   LIG    1       21.577  -0.427  15.028  0.00  0.00    -0.150 OA
ENDBRANCH   4   8
BRANCH   1  11
ATOM     11  N   LIG    1       24.947  -0.172   9.723  0.00  0.00    -0.470 N 
ATOM     12  C   LIG    1       24.191   0.415   8.614  0.00  0.00    +0.340 C 
BRANCH  11  14
ATOM     13  C   LIG    1       27.067   0.549   8.900  0.00  0.00    +0.230 C 
ATOM     14  O   LIG    1       26.321  -0.474   9.563  0.00  0.00    -0.120 OA
ENDBRANCH  11  14
ENDBRANCH   1  11
TORSDOF 3
ENDMDL
MODEL 7
REMARK VINA RESULT:    -4.794     15.470     17.251
REMARK INTER + INTRA:          -5.715
REMARK INTER:                  -5.617
REMARK INTRA:                  -0.098
REMARK UNBOUND:                -0.080
REMARK  Name = ZINC000774663902
REMARK                            x       y       z     vdW  Elec       q    Type
REMARK                         _______ _______ _______ _____ _____    ______ ____
ROOT
ATOM      1  C   LIG    1       22.652 -21.762  17.981  0.00  0.00    +0.450 A 
ATOM      2  C   LIG    1       21.270 -21.670  18.114  0.00  0.00    -0.070 A 
ATOM      3  C   LIG    1       20.463 -22.174  17.111  0.00  0.00    +0.190 A 
ATOM      4  C   LIG    1       21.066 -22.755  16.004  0.00  0.00    -0.160 A 
ATOM      5  C   LIG    1       22.443 -22.813  15.936  0.00  0.00    +0.260 A 
ATOM      6  C   LIG    1       23.104 -23.443  14.737  0.00  0.00    +0.170 C 
ATOM      7  N   LIG    1       23.190 -22.319  16.907  0.00  0.00    -0.520 NA
ENDROOT
BRANCH   4   8
ATOM      8  N   LIG    1       20.240 -23.307  14.907  0.00  0.00    +0.040 N 
ATOM      9  O   LIG    1       19.749 -24.417  15.013  0.00  0.00    -0.160 OA
ATOM     10  O   LIG    1       20.051 -22.652  13.897  0.00  0.00    -0.150 OA
ENDBRANCH   4   8
BRANCH   1  11
ATOM     11  N   LIG    1       23.476 -21.259  18.981  0.00  0.00    -0.470 N 
ATOM     12  C   LIG    1       22.982 -21.165  20.358  0.00  0.00    +0.340 C 
BRANCH  11  14
ATOM     13  C   LIG    1       25.374 -19.979  19.654  0.00  0.00    +0.230 C 
ATOM     14  O   LIG    1       24.791 -20.838  18.671  0.00  0.00    -0.120 OA
ENDBRANCH  11  14
ENDBRANCH   1  11
TORSDOF 3
ENDMDL
MODEL 8
REMARK VINA RESULT:    -4.753      2.233      2.541
REMARK INTER + INTRA:          -5.666
REMARK INTER:                  -5.510
REMARK INTRA:                  -0.156
REMARK UNBOUND:                -0.080
REMARK  Name = ZINC000774663902
REMARK                            x       y       z     vdW  Elec       q    Type
REMARK                         _______ _______ _______ _____ _____    ______ ____
ROOT
ATOM      1  C   LIG    1       30.628 -18.266   0.970  0.00  0.00    +0.450 A 
ATOM      2  C   LIG    1       29.386 -17.802   0.547  0.00  0.00    -0.070 A 
ATOM      3  C   LIG    1       28.358 -18.708   0.362  0.00  0.00    +0.190 A 
ATOM      4  C   LIG    1       28.607 -20.052   0.605  0.00  0.00    -0.160 A 
ATOM      5  C   LIG    1       29.862 -20.443   1.022  0.00  0.00    +0.260 A 
ATOM      6  C   LIG    1       30.139 -21.900   1.289  0.00  0.00    +0.170 C 
ATOM      7  N   LIG    1       30.827 -19.556   1.187  0.00  0.00    -0.520 NA
ENDROOT
BRANCH   4   8
ATOM      8  N   LIG    1       27.535 -21.055   0.419  0.00  0.00    +0.040 N 
ATOM      9  O   LIG    1       26.810 -21.353   1.351  0.00  0.00    -0.160 OA
ATOM     10  O   LIG    1       27.378 -21.585  -0.668  0.00  0.00    -0.150 OA
ENDBRANCH   4   8
BRANCH   1  11
ATOM     11  N   LIG    1       31.671 -17.366   1.161  0.00  0.00    -0.470 N 
ATOM     12  C   LIG    1       32.699 -17.640   2.168  0.00  0.00    +0.340 C 
BRANCH  11  14
ATOM     13  C   LIG    1       32.811 -16.174  -0.563  0.00  0.00    +0.230 C 
ATOM     14  O   LIG    1       31.739 -16.186   0.382  0.00  0.00    -0.120 OA
ENDBRANCH  11  14
ENDBRANCH   1  11
TORSDOF 3
ENDMDL
MODEL 9
REMARK VINA RESULT:    -4.452     21.364     22.434
REMARK INTER + INTRA:          -5.313
REMARK INTER:                  -5.190
REMARK INTRA:                  -0.123
REMARK UNBOUND:                -0.080
REMARK  Name = ZINC000774663902
REMARK                            x       y       z     vdW  Elec       q    Type
REMARK                         _______ _______ _______ _____ _____    ______ ____
ROOT
ATOM      1  C   LIG    1       25.124   0.349  11.742  0.00  0.00    +0.450 A 
ATOM      2  C   LIG    1       25.264   0.905  13.009  0.00  0.00    -0.070 A 
ATOM      3  C   LIG    1       24.414   0.496  14.020  0.00  0.00    +0.190 A 
ATOM      4  C   LIG    1       23.448  -0.457  13.729  0.00  0.00    -0.160 A 
ATOM      5  C   LIG    1       23.365  -0.967  12.449  0.00  0.00    +0.260 A 
ATOM      6  C   LIG    1       22.319  -2.003  12.126  0.00  0.00    +0.170 C 
ATOM      7  N   LIG    1       24.187  -0.555  11.502  0.00  0.00    -0.520 NA
ENDROOT
BRANCH   4   8
ATOM      8  N   LIG    1       22.516  -0.923  14.780  0.00  0.00    +0.040 N 
ATOM      9  O   LIG    1       21.541  -0.252  15.071  0.00  0.00    -0.160 OA
ATOM     10  O   LIG    1       22.724  -1.976  15.356  0.00  0.00    -0.150 OA
ENDBRANCH   4   8
BRANCH   1  11
ATOM     11  N   LIG    1       25.973   0.751  10.716  0.00  0.00    -0.470 N 
ATOM     12  C   LIG    1       26.829   1.926  10.893  0.00  0.00    +0.340 C 
BRANCH  11  14
ATOM     13  C   LIG    1       25.510   0.750   8.375  0.00  0.00    +0.230 C 
ATOM     14  O   LIG    1       26.009   0.024   9.501  0.00  0.00    -0.120 OA
ENDBRANCH  11  14
ENDBRANCH   1  11
TORSDOF 3
ENDMDL
