MODEL 1
REMARK VINA RESULT:    -6.600      0.000      0.000
REMARK INTER + INTRA:          -7.050
REMARK INTER:                  -7.372
REMARK INTRA:                   0.322
REMARK UNBOUND:                 0.322
REMARK  Name = ZINC000043570174
REMARK                            x       y       z     vdW  Elec       q    Type
REMARK                         _______ _______ _______ _____ _____    ______ ____
ROOT
ATOM      1  C   LIG    1       28.362 -18.645   0.003  0.00  0.00    +0.130 C 
ATOM      2  C   LIG    1       28.333 -19.198   1.405  0.00  0.00    +0.000 A 
ATOM      3  C   LIG    1       29.134 -18.642   2.382  0.00  0.00    +0.040 A 
ATOM      4  C   LIG    1       29.107 -19.152   3.673  0.00  0.00    +0.220 A 
ATOM      5  C   LIG    1       28.273 -20.218   3.978  0.00  0.00    +0.000 A 
ATOM      6  C   LIG    1       27.473 -20.771   2.995  0.00  0.00    +0.120 A 
ATOM      7  C   LIG    1       27.499 -20.257   1.713  0.00  0.00    -0.060 A 
ENDROOT
BRANCH   4   8
ATOM      8  N   LIG    1       29.919 -18.591   4.667  0.00  0.00    -0.690 N 
ATOM      9  H   LIG    1       29.722 -17.705   5.009  0.00  0.00    +0.410 HD
ATOM     10  C   LIG    1       30.971 -19.281   5.147  0.00  0.00    +0.710 C 
ATOM     11  O   LIG    1       31.278 -20.347   4.648  0.00  0.00    -0.570 OA
ATOM     12  N   LIG    1       31.684 -18.791   6.181  0.00  0.00    -0.860 N 
ATOM     13  H   LIG    1       32.441 -19.288   6.527  0.00  0.00    +0.420 HD
ATOM     14  H   LIG    1       31.440 -17.941   6.579  0.00  0.00    +0.400 HD
ENDBRANCH   4   8
BRANCH   7  15
ATOM     15  N   LIG    1       26.640 -20.850   0.662  0.00  0.00    +0.030 N 
ATOM     16  O   LIG    1       25.429 -20.841   0.787  0.00  0.00    -0.160 OA
ATOM     17  O   LIG    1       27.146 -21.347  -0.329  0.00  0.00    -0.150 OA
ENDBRANCH   7  15
TORSDOF 2
ENDMDL
MODEL 2
REMARK VINA RESULT:    -6.187      1.729      2.610
REMARK INTER + INTRA:          -6.589
REMARK INTER:                  -6.745
REMARK INTRA:                   0.156
REMARK UNBOUND:                 0.322
REMARK  Name = ZINC000043570174
REMARK                            x       y       z     vdW  Elec       q    Type
REMARK                         _______ _______ _______ _____ _____    ______ ____
ROOT
ATOM      1  C   LIG    1       27.718 -21.485   3.060  0.00  0.00    +0.130 C 
ATOM      2  C   LIG    1       28.259 -20.293   2.313  0.00  0.00    +0.000 A 
ATOM      3  C   LIG    1       29.180 -19.461   2.918  0.00  0.00    +0.040 A 
ATOM      4  C   LIG    1       29.678 -18.363   2.229  0.00  0.00    +0.220 A 
ATOM      5  C   LIG    1       29.250 -18.107   0.934  0.00  0.00    +0.000 A 
ATOM      6  C   LIG    1       28.328 -18.943   0.335  0.00  0.00    +0.120 A 
ATOM      7  C   LIG    1       27.838 -20.039   1.021  0.00  0.00    -0.060 A 
ENDROOT
BRANCH   4   8
ATOM      8  N   LIG    1       30.612 -17.517   2.839  0.00  0.00    -0.690 N 
ATOM      9  H   LIG    1       30.311 -16.729   3.319  0.00  0.00    +0.410 HD
ATOM     10  C   LIG    1       31.927 -17.797   2.759  0.00  0.00    +0.710 C 
ATOM     11  O   LIG    1       32.312 -18.725   2.074  0.00  0.00    -0.570 OA
ATOM     12  N   LIG    1       32.818 -17.048   3.440  0.00  0.00    -0.860 N 
ATOM     13  H   LIG    1       33.765 -17.250   3.383  0.00  0.00    +0.420 HD
ATOM     14  H   LIG    1       32.513 -16.308   3.987  0.00  0.00    +0.400 HD
ENDBRANCH   4   8
BRANCH   7  15
ATOM     15  N   LIG    1       26.851 -20.934   0.376  0.00  0.00    +0.030 N 
ATOM     16  O   LIG    1       27.171 -21.595  -0.595  0.00  0.00    -0.160 OA
ATOM     17  O   LIG    1       25.718 -21.009   0.817  0.00  0.00    -0.150 OA
ENDBRANCH   7  15
TORSDOF 2
ENDMDL
MODEL 3
REMARK VINA RESULT:    -6.054      2.745      3.328
REMARK INTER + INTRA:          -6.441
REMARK INTER:                  -6.488
REMARK INTRA:                   0.048
REMARK UNBOUND:                 0.322
REMARK  Name = ZINC000043570174
REMARK                            x       y       z     vdW  Elec       q    Type
REMARK                         _______ _______ _______ _____ _____    ______ ____
ROOT
ATOM      1  C   LIG    1       27.124 -20.770   0.238  0.00  0.00    +0.130 C 
ATOM      2  C   LIG    1       27.947 -19.983   1.226  0.00  0.00    +0.000 A 
ATOM      3  C   LIG    1       28.674 -18.889   0.800  0.00  0.00    +0.040 A 
ATOM      4  C   LIG    1       29.432 -18.164   1.710  0.00  0.00    +0.220 A 
ATOM      5  C   LIG    1       29.456 -18.542   3.045  0.00  0.00    +0.000 A 
ATOM      6  C   LIG    1       28.727 -19.638   3.465  0.00  0.00    +0.120 A 
ATOM      7  C   LIG    1       27.969 -20.354   2.558  0.00  0.00    -0.060 A 
ENDROOT
BRANCH   4   8
ATOM      8  N   LIG    1       30.170 -17.054   1.282  0.00  0.00    -0.690 N 
ATOM      9  H   LIG    1       29.781 -16.166   1.330  0.00  0.00    +0.410 HD
ATOM     10  C   LIG    1       31.418 -17.218   0.803  0.00  0.00    +0.710 C 
ATOM     11  O   LIG    1       31.868 -18.337   0.647  0.00  0.00    -0.570 OA
ATOM     12  N   LIG    1       32.170 -16.142   0.497  0.00  0.00    -0.860 N 
ATOM     13  H   LIG    1       33.069 -16.260   0.153  0.00  0.00    +0.420 HD
ATOM     14  H   LIG    1       31.813 -15.249   0.622  0.00  0.00    +0.400 HD
ENDBRANCH   4   8
BRANCH   7  15
ATOM     15  N   LIG    1       27.189 -21.528   3.011  0.00  0.00    +0.030 N 
ATOM     16  O   LIG    1       27.756 -22.575   3.264  0.00  0.00    -0.160 OA
ATOM     17  O   LIG    1       25.979 -21.445   3.131  0.00  0.00    -0.150 OA
ENDBRANCH   7  15
TORSDOF 2
ENDMDL
MODEL 4
REMARK VINA RESULT:    -5.725     21.648     22.606
REMARK INTER + INTRA:          -6.072
REMARK INTER:                  -6.050
REMARK INTRA:                  -0.023
REMARK UNBOUND:                 0.322
REMARK  Name = ZINC000043570174
REMARK                            x       y       z     vdW  Elec       q    Type
REMARK                         _______ _______ _______ _____ _____    ______ ____
ROOT
ATOM      1  C   LIG    1       24.691   0.669  14.539  0.00  0.00    +0.130 C 
ATOM      2  C   LIG    1       24.209  -0.024  13.290  0.00  0.00    +0.000 A 
ATOM      3  C   LIG    1       24.880   0.159  12.097  0.00  0.00    +0.040 A 
ATOM      4  C   LIG    1       24.435  -0.480  10.947  0.00  0.00    +0.220 A 
ATOM      5  C   LIG    1       23.318  -1.302  11.001  0.00  0.00    +0.000 A 
ATOM      6  C   LIG    1       22.651  -1.481  12.198  0.00  0.00    +0.120 A 
ATOM      7  C   LIG    1       23.100  -0.848  13.342  0.00  0.00    -0.060 A 
ENDROOT
BRANCH   4   8
ATOM      8  N   LIG    1       25.113  -0.296   9.736  0.00  0.00    -0.690 N 
ATOM      9  H   LIG    1       25.858  -0.873   9.506  0.00  0.00    +0.410 HD
ATOM     10  C   LIG    1       24.730   0.681   8.891  0.00  0.00    +0.710 C 
ATOM     11  O   LIG    1       23.865   1.468   9.223  0.00  0.00    -0.570 OA
ATOM     12  N   LIG    1       25.307   0.786   7.677  0.00  0.00    -0.860 N 
ATOM     13  H   LIG    1       25.031   1.489   7.069  0.00  0.00    +0.420 HD
ATOM     14  H   LIG    1       25.997   0.159   7.412  0.00  0.00    +0.400 HD
ENDBRANCH   4   8
BRANCH   7  15
ATOM     15  N   LIG    1       22.383  -1.043  14.623  0.00  0.00    +0.030 N 
ATOM     16  O   LIG    1       21.560  -0.224  14.991  0.00  0.00    -0.160 OA
ATOM     17  O   LIG    1       22.616  -2.023  15.308  0.00  0.00    -0.150 OA
ENDBRANCH   7  15
TORSDOF 2
ENDMDL
MODEL 5
REMARK VINA RESULT:    -5.528     14.389     15.590
REMARK INTER + INTRA:          -5.852
REMARK INTER:                  -5.962
REMARK INTRA:                   0.110
REMARK UNBOUND:                 0.322
REMARK  Name = ZINC000043570174
REMARK                            x       y       z     vdW  Elec       q    Type
REMARK                         _______ _______ _______ _____ _____    ______ ____
ROOT
ATOM      1  C   LIG    1       24.979 -23.851  15.558  0.00  0.00    +0.130 C 
ATOM      2  C   LIG    1       23.475 -23.776  15.512  0.00  0.00    +0.000 A 
ATOM      3  C   LIG    1       22.728 -24.263  16.567  0.00  0.00    +0.040 A 
ATOM      4  C   LIG    1       21.342 -24.194  16.525  0.00  0.00    +0.220 A 
ATOM      5  C   LIG    1       20.711 -23.634  15.423  0.00  0.00    +0.000 A 
ATOM      6  C   LIG    1       21.464 -23.149  14.370  0.00  0.00    +0.120 A 
ATOM      7  C   LIG    1       22.843 -23.214  14.418  0.00  0.00    -0.060 A 
ENDROOT
BRANCH   4   8
ATOM      8  N   LIG    1       20.582 -24.686  17.593  0.00  0.00    -0.690 N 
ATOM      9  H   LIG    1       20.180 -25.566  17.536  0.00  0.00    +0.410 HD
ATOM     10  C   LIG    1       20.411 -23.936  18.700  0.00  0.00    +0.710 C 
ATOM     11  O   LIG    1       20.828 -22.794  18.732  0.00  0.00    -0.570 OA
ATOM     12  N   LIG    1       19.776 -24.452  19.772  0.00  0.00    -0.860 N 
ATOM     13  H   LIG    1       19.653 -23.912  20.568  0.00  0.00    +0.420 HD
ATOM     14  H   LIG    1       19.443 -25.362  19.747  0.00  0.00    +0.400 HD
ENDBRANCH   4   8
BRANCH   7  15
ATOM     15  N   LIG    1       23.647 -22.694  13.289  0.00  0.00    +0.030 N 
ATOM     16  O   LIG    1       24.244 -23.464  12.560  0.00  0.00    -0.160 OA
ATOM     17  O   LIG    1       23.709 -21.494  13.088  0.00  0.00    -0.150 OA
ENDBRANCH   7  15
TORSDOF 2
ENDMDL
MODEL 6
REMARK VINA RESULT:    -5.463     14.833     15.821
REMARK INTER + INTRA:          -5.780
REMARK INTER:                  -5.799
REMARK INTRA:                   0.019
REMARK UNBOUND:                 0.322
REMARK  Name = ZINC000043570174
REMARK                            x       y       z     vdW  Elec       q    Type
REMARK                         _______ _______ _______ _____ _____    ______ ____
ROOT
ATOM      1  C   LIG    1       23.210 -23.389  14.413  0.00  0.00    +0.130 C 
ATOM      2  C   LIG    1       22.633 -22.711  15.629  0.00  0.00    +0.000 A 
ATOM      3  C   LIG    1       23.465 -22.047  16.509  0.00  0.00    +0.040 A 
ATOM      4  C   LIG    1       22.933 -21.423  17.629  0.00  0.00    +0.220 A 
ATOM      5  C   LIG    1       21.565 -21.467  17.860  0.00  0.00    +0.000 A 
ATOM      6  C   LIG    1       20.737 -22.134  16.977  0.00  0.00    +0.120 A 
ATOM      7  C   LIG    1       21.270 -22.749  15.860  0.00  0.00    -0.060 A 
ENDROOT
BRANCH   4   8
ATOM      8  N   LIG    1       23.774 -20.749  18.522  0.00  0.00    -0.690 N 
ATOM      9  H   LIG    1       24.035 -19.832  18.344  0.00  0.00    +0.410 HD
ATOM     10  C   LIG    1       24.220 -21.374  19.630  0.00  0.00    +0.710 C 
ATOM     11  O   LIG    1       23.977 -22.553  19.803  0.00  0.00    -0.570 OA
ATOM     12  N   LIG    1       24.935 -20.692  20.546  0.00  0.00    -0.860 N 
ATOM     13  H   LIG    1       25.256 -21.142  21.344  0.00  0.00    +0.420 HD
ATOM     14  H   LIG    1       25.129 -19.752  20.409  0.00  0.00    +0.400 HD
ENDBRANCH   4   8
BRANCH   7  15
ATOM     15  N   LIG    1       20.380 -23.462  14.915  0.00  0.00    +0.030 N 
ATOM     16  O   LIG    1       19.951 -24.566  15.197  0.00  0.00    -0.160 OA
ATOM     17  O   LIG    1       20.076 -22.943  13.855  0.00  0.00    -0.150 OA
ENDBRANCH   7  15
TORSDOF 2
ENDMDL
MODEL 7
REMARK VINA RESULT:    -5.391     16.241     17.314
REMARK INTER + INTRA:          -5.699
REMARK INTER:                  -5.690
REMARK INTRA:                  -0.009
REMARK UNBOUND:                 0.322
REMARK  Name = ZINC000043570174
REMARK                            x       y       z     vdW  Elec       q    Type
REMARK                         _______ _______ _______ _____ _____    ______ ____
ROOT
ATOM      1  C   LIG    1       21.549 -25.604  17.333  0.00  0.00    +0.130 C 
ATOM      2  C   LIG    1       21.305 -24.141  17.603  0.00  0.00    +0.000 A 
ATOM      3  C   LIG    1       21.512 -23.631  18.869  0.00  0.00    +0.040 A 
ATOM      4  C   LIG    1       21.286 -22.283  19.119  0.00  0.00    +0.220 A 
ATOM      5  C   LIG    1       20.855 -21.454  18.093  0.00  0.00    +0.000 A 
ATOM      6  C   LIG    1       20.649 -21.971  16.828  0.00  0.00    +0.120 A 
ATOM      7  C   LIG    1       20.880 -23.311  16.582  0.00  0.00    -0.060 A 
ENDROOT
BRANCH   4   8
ATOM      8  N   LIG    1       21.495 -21.763  20.401  0.00  0.00    -0.690 N 
ATOM      9  H   LIG    1       20.782 -21.791  21.058  0.00  0.00    +0.410 HD
ATOM     10  C   LIG    1       22.687 -21.222  20.723  0.00  0.00    +0.710 C 
ATOM     11  O   LIG    1       23.546 -21.093  19.872  0.00  0.00    -0.570 OA
ATOM     12  N   LIG    1       22.927 -20.824  21.988  0.00  0.00    -0.860 N 
ATOM     13  H   LIG    1       23.784 -20.435  22.220  0.00  0.00    +0.420 HD
ATOM     14  H   LIG    1       22.242 -20.926  22.667  0.00  0.00    +0.400 HD
ENDBRANCH   4   8
BRANCH   7  15
ATOM     15  N   LIG    1       20.659 -23.862  15.226  0.00  0.00    +0.030 N 
ATOM     16  O   LIG    1       21.527 -23.759  14.378  0.00  0.00    -0.160 OA
ATOM     17  O   LIG    1       19.610 -24.419  14.959  0.00  0.00    -0.150 OA
ENDBRANCH   7  15
TORSDOF 2
ENDMDL
MODEL 8
REMARK VINA RESULT:    -5.358      3.175      4.779
REMARK INTER + INTRA:          -5.663
REMARK INTER:                  -5.727
REMARK INTRA:                   0.064
REMARK UNBOUND:                 0.322
REMARK  Name = ZINC000043570174
REMARK                            x       y       z     vdW  Elec       q    Type
REMARK                         _______ _______ _______ _____ _____    ______ ____
ROOT
ATOM      1  C   LIG    1       30.265 -17.397  -0.949  0.00  0.00    +0.130 C 
ATOM      2  C   LIG    1       30.079 -17.731   0.509  0.00  0.00    +0.000 A 
ATOM      3  C   LIG    1       29.049 -18.564   0.899  0.00  0.00    +0.040 A 
ATOM      4  C   LIG    1       28.877 -18.871   2.242  0.00  0.00    +0.220 A 
ATOM      5  C   LIG    1       29.743 -18.342   3.188  0.00  0.00    +0.000 A 
ATOM      6  C   LIG    1       30.772 -17.508   2.792  0.00  0.00    +0.120 A 
ATOM      7  C   LIG    1       30.943 -17.209   1.453  0.00  0.00    -0.060 A 
ENDROOT
BRANCH   4   8
ATOM      8  N   LIG    1       27.834 -19.715   2.641  0.00  0.00    -0.690 N 
ATOM      9  H   LIG    1       26.923 -19.383   2.663  0.00  0.00    +0.410 HD
ATOM     10  C   LIG    1       28.095 -20.989   2.994  0.00  0.00    +0.710 C 
ATOM     11  O   LIG    1       29.246 -21.377   3.066  0.00  0.00    -0.570 OA
ATOM     12  N   LIG    1       27.082 -21.834   3.269  0.00  0.00    -0.860 N 
ATOM     13  H   LIG    1       27.270 -22.751   3.523  0.00  0.00    +0.420 HD
ATOM     14  H   LIG    1       26.164 -21.526   3.212  0.00  0.00    +0.400 HD
ENDBRANCH   4   8
BRANCH   7  15
ATOM     15  N   LIG    1       32.047 -16.317   1.031  0.00  0.00    +0.030 N 
ATOM     16  O   LIG    1       31.875 -15.112   0.993  0.00  0.00    -0.160 OA
ATOM     17  O   LIG    1       33.127 -16.788   0.724  0.00  0.00    -0.150 OA
ENDBRANCH   7  15
TORSDOF 2
ENDMDL
MODEL 9
REMARK VINA RESULT:    -5.243     21.111     21.964
REMARK INTER + INTRA:          -5.535
REMARK INTER:                  -5.519
REMARK INTRA:                  -0.016
REMARK UNBOUND:                 0.322
REMARK  Name = ZINC000043570174
REMARK                            x       y       z     vdW  Elec       q    Type
REMARK                         _______ _______ _______ _____ _____    ______ ____
ROOT
ATOM      1  C   LIG    1       26.825   1.787  11.222  0.00  0.00    +0.130 C 
ATOM      2  C   LIG    1       25.703   0.800  11.025  0.00  0.00    +0.000 A 
ATOM      3  C   LIG    1       24.756   0.626  12.014  0.00  0.00    +0.040 A 
ATOM      4  C   LIG    1       23.723  -0.284  11.832  0.00  0.00    +0.220 A 
ATOM      5  C   LIG    1       23.645  -1.015  10.655  0.00  0.00    +0.000 A 
ATOM      6  C   LIG    1       24.597  -0.836   9.669  0.00  0.00    +0.120 A 
ATOM      7  C   LIG    1       25.620   0.074   9.851  0.00  0.00    -0.060 A 
ENDROOT
BRANCH   4   8
ATOM      8  N   LIG    1       22.761  -0.463  12.833  0.00  0.00    -0.690 N 
ATOM      9  H   LIG    1       21.964   0.090  12.843  0.00  0.00    +0.410 HD
ATOM     10  C   LIG    1       22.942  -1.402  13.782  0.00  0.00    +0.710 C 
ATOM     11  O   LIG    1       23.986  -2.024  13.831  0.00  0.00    -0.570 OA
ATOM     12  N   LIG    1       21.967  -1.652  14.678  0.00  0.00    -0.860 N 
ATOM     13  H   LIG    1       22.097  -2.329  15.361  0.00  0.00    +0.420 HD
ATOM     14  H   LIG    1       21.134  -1.157  14.640  0.00  0.00    +0.400 HD
ENDBRANCH   4   8
BRANCH   7  15
ATOM     15  N   LIG    1       26.638   0.264   8.792  0.00  0.00    +0.030 N 
ATOM     16  O   LIG    1       26.402   0.990   7.844  0.00  0.00    -0.160 OA
ATOM     17  O   LIG    1       27.711  -0.306   8.871  0.00  0.00    -0.150 OA
ENDBRANCH   7  15
TORSDOF 2
ENDMDL
