MODEL 1
REMARK VINA RESULT:    -5.072      0.000      0.000
REMARK INTER + INTRA:          -6.640
REMARK INTER:                  -6.259
REMARK INTRA:                  -0.382
REMARK UNBOUND:                -0.382
REMARK  Name = ZINC000095930424
REMARK                            x       y       z     vdW  Elec       q    Type
REMARK                         _______ _______ _______ _____ _____    ______ ____
ROOT
ATOM      1  C   LIG    1       27.588 -20.409   2.536  0.00  0.00    +0.000 A 
ATOM      2  C   LIG    1       26.487 -20.889   3.252  0.00  0.00    +0.040 A 
ATOM      3  C   LIG    1       25.374 -21.322   2.557  0.00  0.00    +0.350 A 
ATOM      4  N   LIG    1       25.342 -21.289   1.240  0.00  0.00    -0.450 NA
ATOM      5  C   LIG    1       26.358 -20.844   0.526  0.00  0.00    +0.380 A 
ATOM      6  C   LIG    1       27.508 -20.385   1.139  0.00  0.00    -0.070 A 
ENDROOT
BRANCH   6   7
ATOM      7  N   LIG    1       28.643 -19.888   0.330  0.00  0.00    +0.020 N 
ATOM      8  O   LIG    1       29.588 -20.619   0.094  0.00  0.00    -0.130 OA
ATOM      9  O   LIG    1       28.631 -18.749  -0.100  0.00  0.00    -0.140 OA
ENDBRANCH   6   7
BRANCH   1  10
ATOM     10  C   LIG    1       28.802 -19.934   3.236  0.00  0.00    +0.500 C 
ATOM     11  O   LIG    1       29.584 -20.735   3.708  0.00  0.00    -0.450 OA
BRANCH  10  12
ATOM     12  O   LIG    1       29.040 -18.614   3.353  0.00  0.00    -0.350 OA
BRANCH  12  14
ATOM     13  C   LIG    1       30.348 -16.911   2.203  0.00  0.00    +0.080 C 
ATOM     14  C   LIG    1       30.393 -18.161   3.085  0.00  0.00    +0.220 C 
ENDBRANCH  12  14
ENDBRANCH  10  12
ENDBRANCH   1  10
TORSDOF 4
ENDMDL
MODEL 2
REMARK VINA RESULT:    -4.848      2.207      3.310
REMARK INTER + INTRA:          -6.364
REMARK INTER:                  -6.054
REMARK INTRA:                  -0.310
REMARK UNBOUND:                -0.382
REMARK  Name = ZINC000095930424
REMARK                            x       y       z     vdW  Elec       q    Type
REMARK                         _______ _______ _______ _____ _____    ______ ____
ROOT
ATOM      1  C   LIG    1       29.063 -19.167   2.701  0.00  0.00    +0.000 A 
ATOM      2  C   LIG    1       29.650 -18.068   2.066  0.00  0.00    +0.040 A 
ATOM      3  C   LIG    1       29.324 -17.802   0.750  0.00  0.00    +0.350 A 
ATOM      4  N   LIG    1       28.473 -18.566   0.095  0.00  0.00    -0.450 NA
ATOM      5  C   LIG    1       27.896 -19.611   0.656  0.00  0.00    +0.380 A 
ATOM      6  C   LIG    1       28.170 -19.954   1.966  0.00  0.00    -0.070 A 
ENDROOT
BRANCH   6   7
ATOM      7  N   LIG    1       27.519 -21.129   2.587  0.00  0.00    +0.020 N 
ATOM      8  O   LIG    1       28.051 -22.223   2.526  0.00  0.00    -0.130 OA
ATOM      9  O   LIG    1       26.451 -21.002   3.159  0.00  0.00    -0.140 OA
ENDBRANCH   6   7
BRANCH   1  10
ATOM     10  C   LIG    1       29.383 -19.491   4.109  0.00  0.00    +0.500 C 
ATOM     11  O   LIG    1       28.774 -18.950   5.010  0.00  0.00    -0.450 OA
BRANCH  10  12
ATOM     12  O   LIG    1       30.349 -20.385   4.392  0.00  0.00    -0.350 OA
BRANCH  12  14
ATOM     13  C   LIG    1       32.070 -18.950   5.349  0.00  0.00    +0.080 C 
ATOM     14  C   LIG    1       31.723 -19.943   4.237  0.00  0.00    +0.220 C 
ENDBRANCH  12  14
ENDBRANCH  10  12
ENDBRANCH   1  10
TORSDOF 4
ENDMDL
MODEL 3
REMARK VINA RESULT:    -4.834     15.086     16.700
REMARK INTER + INTRA:          -6.346
REMARK INTER:                  -5.949
REMARK INTRA:                  -0.397
REMARK UNBOUND:                -0.382
REMARK  Name = ZINC000095930424
REMARK                            x       y       z     vdW  Elec       q    Type
REMARK                         _______ _______ _______ _____ _____    ______ ____
ROOT
ATOM      1  C   LIG    1       21.995 -22.713  16.592  0.00  0.00    +0.000 A 
ATOM      2  C   LIG    1       23.315 -22.476  16.987  0.00  0.00    +0.040 A 
ATOM      3  C   LIG    1       24.337 -22.725  16.091  0.00  0.00    +0.350 A 
ATOM      4  N   LIG    1       24.081 -23.176  14.879  0.00  0.00    -0.450 NA
ATOM      5  C   LIG    1       22.851 -23.412  14.466  0.00  0.00    +0.380 A 
ATOM      6  C   LIG    1       21.769 -23.198  15.299  0.00  0.00    -0.070 A 
ENDROOT
BRANCH   6   7
ATOM      7  N   LIG    1       20.393 -23.466  14.827  0.00  0.00    +0.020 N 
ATOM      8  O   LIG    1       19.843 -24.515  15.115  0.00  0.00    -0.130 OA
ATOM      9  O   LIG    1       19.809 -22.638  14.151  0.00  0.00    -0.140 OA
ENDBRANCH   6   7
BRANCH   1  10
ATOM     10  C   LIG    1       20.868 -22.462  17.518  0.00  0.00    +0.500 C 
ATOM     11  O   LIG    1       20.384 -21.351  17.599  0.00  0.00    -0.450 OA
BRANCH  10  12
ATOM     12  O   LIG    1       20.379 -23.465  18.272  0.00  0.00    -0.350 OA
BRANCH  12  14
ATOM     13  C   LIG    1       21.682 -24.835  19.808  0.00  0.00    +0.080 C 
ATOM     14  C   LIG    1       20.858 -23.557  19.639  0.00  0.00    +0.220 C 
ENDBRANCH  12  14
ENDBRANCH  10  12
ENDBRANCH   1  10
TORSDOF 4
ENDMDL
MODEL 4
REMARK VINA RESULT:    -4.782      3.589      5.155
REMARK INTER + INTRA:          -6.282
REMARK INTER:                  -6.021
REMARK INTRA:                  -0.260
REMARK UNBOUND:                -0.382
REMARK  Name = ZINC000095930424
REMARK                            x       y       z     vdW  Elec       q    Type
REMARK                         _______ _______ _______ _____ _____    ______ ____
ROOT
ATOM      1  C   LIG    1       30.581 -17.904   3.056  0.00  0.00    +0.000 A 
ATOM      2  C   LIG    1       29.458 -18.525   3.613  0.00  0.00    +0.040 A 
ATOM      3  C   LIG    1       29.616 -19.302   4.744  0.00  0.00    +0.350 A 
ATOM      4  N   LIG    1       30.801 -19.460   5.298  0.00  0.00    -0.450 NA
ATOM      5  C   LIG    1       31.884 -18.892   4.806  0.00  0.00    +0.380 A 
ATOM      6  C   LIG    1       31.820 -18.105   3.673  0.00  0.00    -0.070 A 
ENDROOT
BRANCH   6   7
ATOM      7  N   LIG    1       33.041 -17.472   3.128  0.00  0.00    +0.020 N 
ATOM      8  O   LIG    1       33.560 -16.540   3.718  0.00  0.00    -0.130 OA
ATOM      9  O   LIG    1       33.529 -17.882   2.090  0.00  0.00    -0.140 OA
ENDBRANCH   6   7
BRANCH   1  10
ATOM     10  C   LIG    1       30.461 -17.063   1.844  0.00  0.00    +0.500 C 
ATOM     11  O   LIG    1       30.459 -15.853   1.942  0.00  0.00    -0.450 OA
BRANCH  10  12
ATOM     12  O   LIG    1       30.354 -17.639   0.632  0.00  0.00    -0.350 OA
BRANCH  12  14
ATOM     13  C   LIG    1       28.288 -18.865   0.226  0.00  0.00    +0.080 C 
ATOM     14  C   LIG    1       29.059 -17.567  -0.021  0.00  0.00    +0.220 C 
ENDBRANCH  12  14
ENDBRANCH  10  12
ENDBRANCH   1  10
TORSDOF 4
ENDMDL
MODEL 5
REMARK VINA RESULT:    -4.724      1.533      2.167
REMARK INTER + INTRA:          -6.210
REMARK INTER:                  -5.917
REMARK INTRA:                  -0.293
REMARK UNBOUND:                -0.382
REMARK  Name = ZINC000095930424
REMARK                            x       y       z     vdW  Elec       q    Type
REMARK                         _______ _______ _______ _____ _____    ______ ____
ROOT
ATOM      1  C   LIG    1       28.894 -19.310   2.390  0.00  0.00    +0.000 A 
ATOM      2  C   LIG    1       28.217 -20.109   3.317  0.00  0.00    +0.040 A 
ATOM      3  C   LIG    1       27.173 -20.902   2.880  0.00  0.00    +0.350 A 
ATOM      4  N   LIG    1       26.815 -20.912   1.612  0.00  0.00    -0.450 NA
ATOM      5  C   LIG    1       27.427 -20.175   0.706  0.00  0.00    +0.380 A 
ATOM      6  C   LIG    1       28.476 -19.347   1.056  0.00  0.00    -0.070 A 
ENDROOT
BRANCH   6   7
ATOM      7  N   LIG    1       29.157 -18.524   0.032  0.00  0.00    +0.020 N 
ATOM      8  O   LIG    1       30.254 -18.852  -0.383  0.00  0.00    -0.130 OA
ATOM      9  O   LIG    1       28.619 -17.518  -0.396  0.00  0.00    -0.140 OA
ENDBRANCH   6   7
BRANCH   1  10
ATOM     10  C   LIG    1       30.019 -18.445   2.812  0.00  0.00    +0.500 C 
ATOM     11  O   LIG    1       29.851 -17.248   2.935  0.00  0.00    -0.450 OA
BRANCH  10  12
ATOM     12  O   LIG    1       31.228 -18.983   3.057  0.00  0.00    -0.350 OA
BRANCH  12  14
ATOM     13  C   LIG    1       31.665 -18.963   5.454  0.00  0.00    +0.080 C 
ATOM     14  C   LIG    1       32.029 -18.359   4.095  0.00  0.00    +0.220 C 
ENDBRANCH  12  14
ENDBRANCH  10  12
ENDBRANCH   1  10
TORSDOF 4
ENDMDL
MODEL 6
REMARK VINA RESULT:    -4.710      2.429      4.430
REMARK INTER + INTRA:          -6.194
REMARK INTER:                  -5.784
REMARK INTRA:                  -0.410
REMARK UNBOUND:                -0.382
REMARK  Name = ZINC000095930424
REMARK                            x       y       z     vdW  Elec       q    Type
REMARK                         _______ _______ _______ _____ _____    ______ ____
ROOT
ATOM      1  C   LIG    1       28.909 -19.055   1.715  0.00  0.00    +0.000 A 
ATOM      2  C   LIG    1       28.425 -18.835   0.422  0.00  0.00    +0.040 A 
ATOM      3  C   LIG    1       28.801 -17.685  -0.246  0.00  0.00    +0.350 A 
ATOM      4  N   LIG    1       29.603 -16.805   0.318  0.00  0.00    -0.450 NA
ATOM      5  C   LIG    1       30.082 -16.974   1.535  0.00  0.00    +0.380 A 
ATOM      6  C   LIG    1       29.752 -18.091   2.278  0.00  0.00    -0.070 A 
ENDROOT
BRANCH   6   7
ATOM      7  N   LIG    1       30.294 -18.272   3.642  0.00  0.00    +0.020 N 
ATOM      8  O   LIG    1       29.611 -17.990   4.612  0.00  0.00    -0.130 OA
ATOM      9  O   LIG    1       31.424 -18.702   3.798  0.00  0.00    -0.140 OA
ENDBRANCH   6   7
BRANCH   1  10
ATOM     10  C   LIG    1       28.533 -20.271   2.470  0.00  0.00    +0.500 C 
ATOM     11  O   LIG    1       29.236 -21.261   2.416  0.00  0.00    -0.450 OA
BRANCH  10  12
ATOM     12  O   LIG    1       27.413 -20.283   3.216  0.00  0.00    -0.350 OA
BRANCH  12  14
ATOM     13  C   LIG    1       25.466 -20.984   1.931  0.00  0.00    +0.080 C 
ATOM     14  C   LIG    1       26.487 -21.380   3.000  0.00  0.00    +0.220 C 
ENDBRANCH  12  14
ENDBRANCH  10  12
ENDBRANCH   1  10
TORSDOF 4
ENDMDL
MODEL 7
REMARK VINA RESULT:    -4.702     14.906     16.380
REMARK INTER + INTRA:          -6.183
REMARK INTER:                  -5.791
REMARK INTRA:                  -0.392
REMARK UNBOUND:                -0.382
REMARK  Name = ZINC000095930424
REMARK                            x       y       z     vdW  Elec       q    Type
REMARK                         _______ _______ _______ _____ _____    ______ ____
ROOT
ATOM      1  C   LIG    1       22.619 -22.853  16.107  0.00  0.00    +0.000 A 
ATOM      2  C   LIG    1       23.134 -23.140  14.839  0.00  0.00    +0.040 A 
ATOM      3  C   LIG    1       22.257 -23.323  13.787  0.00  0.00    +0.350 A 
ATOM      4  N   LIG    1       20.955 -23.230  13.966  0.00  0.00    -0.450 NA
ATOM      5  C   LIG    1       20.428 -22.961  15.144  0.00  0.00    +0.380 A 
ATOM      6  C   LIG    1       21.230 -22.771  16.253  0.00  0.00    -0.070 A 
ENDROOT
BRANCH   6   7
ATOM      7  N   LIG    1       20.630 -22.470  17.571  0.00  0.00    +0.020 N 
ATOM      8  O   LIG    1       20.380 -23.375  18.348  0.00  0.00    -0.130 OA
ATOM      9  O   LIG    1       20.385 -21.317  17.881  0.00  0.00    -0.140 OA
ENDBRANCH   6   7
BRANCH   1  10
ATOM     10  C   LIG    1       23.519 -22.650  17.265  0.00  0.00    +0.500 C 
ATOM     11  O   LIG    1       23.843 -23.595  17.956  0.00  0.00    -0.450 OA
BRANCH  10  12
ATOM     12  O   LIG    1       23.978 -21.418  17.553  0.00  0.00    -0.350 OA
BRANCH  12  14
ATOM     13  C   LIG    1       25.139 -20.328  19.396  0.00  0.00    +0.080 C 
ATOM     14  C   LIG    1       23.829 -20.961  18.923  0.00  0.00    +0.220 C 
ENDBRANCH  12  14
ENDBRANCH  10  12
ENDBRANCH   1  10
TORSDOF 4
ENDMDL
MODEL 8
REMARK VINA RESULT:    -4.689      2.166      3.501
REMARK INTER + INTRA:          -6.168
REMARK INTER:                  -5.772
REMARK INTRA:                  -0.396
REMARK UNBOUND:                -0.382
REMARK  Name = ZINC000095930424
REMARK                            x       y       z     vdW  Elec       q    Type
REMARK                         _______ _______ _______ _____ _____    ______ ____
ROOT
ATOM      1  C   LIG    1       29.019 -18.931   1.583  0.00  0.00    +0.000 A 
ATOM      2  C   LIG    1       29.594 -18.271   2.674  0.00  0.00    +0.040 A 
ATOM      3  C   LIG    1       29.412 -18.789   3.942  0.00  0.00    +0.350 A 
ATOM      4  N   LIG    1       28.711 -19.889   4.130  0.00  0.00    -0.450 NA
ATOM      5  C   LIG    1       28.152 -20.542   3.130  0.00  0.00    +0.380 A 
ATOM      6  C   LIG    1       28.277 -20.091   1.830  0.00  0.00    -0.070 A 
ENDROOT
BRANCH   6   7
ATOM      7  N   LIG    1       27.647 -20.831   0.715  0.00  0.00    +0.020 N 
ATOM      8  O   LIG    1       28.287 -21.666   0.100  0.00  0.00    -0.130 OA
ATOM      9  O   LIG    1       26.489 -20.606   0.411  0.00  0.00    -0.140 OA
ENDBRANCH   6   7
BRANCH   1  10
ATOM     10  C   LIG    1       29.186 -18.413   0.207  0.00  0.00    +0.500 C 
ATOM     11  O   LIG    1       28.283 -17.799  -0.325  0.00  0.00    -0.450 OA
BRANCH  10  12
ATOM     12  O   LIG    1       30.339 -18.622  -0.456  0.00  0.00    -0.350 OA
BRANCH  12  14
ATOM     13  C   LIG    1       31.900 -16.827   0.069  0.00  0.00    +0.080 C 
ATOM     14  C   LIG    1       31.007 -17.455  -1.003  0.00  0.00    +0.220 C 
ENDBRANCH  12  14
ENDBRANCH  10  12
ENDBRANCH   1  10
TORSDOF 4
ENDMDL
MODEL 9
REMARK VINA RESULT:    -4.615      1.750      2.993
REMARK INTER + INTRA:          -6.076
REMARK INTER:                  -5.655
REMARK INTRA:                  -0.421
REMARK UNBOUND:                -0.382
REMARK  Name = ZINC000095930424
REMARK                            x       y       z     vdW  Elec       q    Type
REMARK                         _______ _______ _______ _____ _____    ______ ____
ROOT
ATOM      1  C   LIG    1       28.485 -19.575   1.424  0.00  0.00    +0.000 A 
ATOM      2  C   LIG    1       27.587 -19.892   0.399  0.00  0.00    +0.040 A 
ATOM      3  C   LIG    1       26.534 -20.743   0.672  0.00  0.00    +0.350 A 
ATOM      4  N   LIG    1       26.368 -21.252   1.877  0.00  0.00    -0.450 NA
ATOM      5  C   LIG    1       27.190 -20.979   2.871  0.00  0.00    +0.380 A 
ATOM      6  C   LIG    1       28.275 -20.143   2.685  0.00  0.00    -0.070 A 
ENDROOT
BRANCH   6   7
ATOM      7  N   LIG    1       29.192 -19.842   3.806  0.00  0.00    +0.020 N 
ATOM      8  O   LIG    1       30.107 -20.603   4.065  0.00  0.00    -0.130 OA
ATOM      9  O   LIG    1       29.032 -18.833   4.470  0.00  0.00    -0.140 OA
ENDBRANCH   6   7
BRANCH   1  10
ATOM     10  C   LIG    1       29.629 -18.668   1.178  0.00  0.00    +0.500 C 
ATOM     11  O   LIG    1       29.463 -17.465   1.188  0.00  0.00    -0.450 OA
BRANCH  10  12
ATOM     12  O   LIG    1       30.853 -19.176   0.943  0.00  0.00    -0.350 OA
BRANCH  12  14
ATOM     13  C   LIG    1       32.548 -18.579   2.587  0.00  0.00    +0.080 C 
ATOM     14  C   LIG    1       31.988 -18.305   1.190  0.00  0.00    +0.220 C 
ENDBRANCH  12  14
ENDBRANCH  10  12
ENDBRANCH   1  10
TORSDOF 4
ENDMDL
