MODEL 1
REMARK VINA RESULT:    -5.853      0.000      0.000
REMARK INTER + INTRA:          -7.635
REMARK INTER:                  -7.393
REMARK INTRA:                  -0.243
REMARK UNBOUND:                -0.243
REMARK  Name = ZINC000020348852
REMARK                            x       y       z     vdW  Elec       q    Type
REMARK                         _______ _______ _______ _____ _____    ______ ____
ROOT
ATOM      1  C   LIG    1       26.723 -20.757   0.442  0.00  0.00    +0.110 C 
ATOM      2  C   LIG    1       27.650 -20.040   1.389  0.00  0.00    -0.120 A 
ATOM      3  C   LIG    1       27.666 -20.380   2.730  0.00  0.00    +0.120 A 
ATOM      4  C   LIG    1       28.514 -19.724   3.600  0.00  0.00    -0.060 A 
ATOM      5  C   LIG    1       29.352 -18.724   3.129  0.00  0.00    +0.190 A 
ATOM      6  C   LIG    1       29.336 -18.385   1.783  0.00  0.00    -0.080 A 
ATOM      7  C   LIG    1       28.489 -19.047   0.916  0.00  0.00    +0.140 A 
ENDROOT
BRANCH   6   8
ATOM      8  N   LIG    1       30.228 -17.319   1.278  0.00  0.00    +0.030 N 
ATOM      9  O   LIG    1       31.267 -17.611   0.712  0.00  0.00    -0.130 OA
ATOM     10  O   LIG    1       29.924 -16.149   1.427  0.00  0.00    -0.180 OA
ENDBRANCH   6   8
BRANCH   5  11
ATOM     11  O   LIG    1       30.188 -18.078   3.983  0.00  0.00    -0.270 OA
BRANCH  11  12
ATOM     12  C   LIG    1       30.334 -18.633   5.292  0.00  0.00    +0.210 C 
BRANCH  12  13
ATOM     13  C   LIG    1       31.798 -19.007   5.527  0.00  0.00    +0.210 C 
BRANCH  13  14
ATOM     14  O   LIG    1       31.878 -20.358   5.986  0.00  0.00    -0.570 OA
ATOM     15  H   LIG    1       32.580 -20.513   6.632  0.00  0.00    +0.390 HD
ENDBRANCH  13  14
ENDBRANCH  12  13
ENDBRANCH  11  12
ENDBRANCH   5  11
TORSDOF 5
ENDMDL
MODEL 2
REMARK VINA RESULT:    -5.632      1.872      2.897
REMARK INTER + INTRA:          -7.357
REMARK INTER:                  -6.770
REMARK INTRA:                  -0.587
REMARK UNBOUND:                -0.243
REMARK  Name = ZINC000020348852
REMARK                            x       y       z     vdW  Elec       q    Type
REMARK                         _______ _______ _______ _____ _____    ______ ____
ROOT
ATOM      1  C   LIG    1       26.487 -20.899   0.744  0.00  0.00    +0.110 C 
ATOM      2  C   LIG    1       27.578 -19.997   1.260  0.00  0.00    -0.120 A 
ATOM      3  C   LIG    1       28.143 -19.049   0.426  0.00  0.00    +0.120 A 
ATOM      4  C   LIG    1       29.144 -18.222   0.896  0.00  0.00    -0.060 A 
ATOM      5  C   LIG    1       29.582 -18.341   2.207  0.00  0.00    +0.190 A 
ATOM      6  C   LIG    1       29.013 -19.291   3.043  0.00  0.00    -0.080 A 
ATOM      7  C   LIG    1       28.009 -20.112   2.569  0.00  0.00    +0.140 A 
ENDROOT
BRANCH   6   8
ATOM      8  N   LIG    1       29.478 -19.420   4.442  0.00  0.00    +0.030 N 
ATOM      9  O   LIG    1       30.464 -20.088   4.697  0.00  0.00    -0.130 OA
ATOM     10  O   LIG    1       28.874 -18.858   5.338  0.00  0.00    -0.180 OA
ENDBRANCH   6   8
BRANCH   5  11
ATOM     11  O   LIG    1       30.565 -17.526   2.672  0.00  0.00    -0.270 OA
BRANCH  11  12
ATOM     12  C   LIG    1       31.905 -17.839   2.284  0.00  0.00    +0.210 C 
BRANCH  12  13
ATOM     13  C   LIG    1       32.874 -17.350   3.361  0.00  0.00    +0.210 C 
BRANCH  13  14
ATOM     14  O   LIG    1       32.539 -17.953   4.613  0.00  0.00    -0.570 OA
ATOM     15  H   LIG    1       32.488 -18.918   4.583  0.00  0.00    +0.390 HD
ENDBRANCH  13  14
ENDBRANCH  12  13
ENDBRANCH  11  12
ENDBRANCH   5  11
TORSDOF 5
ENDMDL
MODEL 3
REMARK VINA RESULT:    -5.117      2.749      4.772
REMARK INTER + INTRA:          -6.705
REMARK INTER:                  -6.215
REMARK INTRA:                  -0.490
REMARK UNBOUND:                -0.243
REMARK  Name = ZINC000020348852
REMARK                            x       y       z     vdW  Elec       q    Type
REMARK                         _______ _______ _______ _____ _____    ______ ____
ROOT
ATOM      1  C   LIG    1       31.289 -15.979   1.591  0.00  0.00    +0.110 C 
ATOM      2  C   LIG    1       30.286 -17.100   1.503  0.00  0.00    -0.120 A 
ATOM      3  C   LIG    1       29.510 -17.245   0.367  0.00  0.00    +0.120 A 
ATOM      4  C   LIG    1       28.590 -18.272   0.285  0.00  0.00    -0.060 A 
ATOM      5  C   LIG    1       28.444 -19.158   1.342  0.00  0.00    +0.190 A 
ATOM      6  C   LIG    1       29.224 -19.012   2.480  0.00  0.00    -0.080 A 
ATOM      7  C   LIG    1       30.147 -17.987   2.555  0.00  0.00    +0.140 A 
ENDROOT
BRANCH   6   8
ATOM      8  N   LIG    1       29.072 -19.956   3.609  0.00  0.00    +0.030 N 
ATOM      9  O   LIG    1       28.604 -19.571   4.665  0.00  0.00    -0.130 OA
ATOM     10  O   LIG    1       29.414 -21.118   3.481  0.00  0.00    -0.180 OA
ENDBRANCH   6   8
BRANCH   5  11
ATOM     11  O   LIG    1       27.540 -20.170   1.261  0.00  0.00    -0.270 OA
BRANCH  11  12
ATOM     12  C   LIG    1       27.565 -20.971   0.078  0.00  0.00    +0.210 C 
BRANCH  12  13
ATOM     13  C   LIG    1       28.812 -21.855   0.088  0.00  0.00    +0.210 C 
BRANCH  13  14
ATOM     14  O   LIG    1       28.710 -22.811   1.146  0.00  0.00    -0.570 OA
ATOM     15  H   LIG    1       29.563 -23.139   1.463  0.00  0.00    +0.390 HD
ENDBRANCH  13  14
ENDBRANCH  12  13
ENDBRANCH  11  12
ENDBRANCH   5  11
TORSDOF 5
ENDMDL
MODEL 4
REMARK VINA RESULT:    -5.094     14.979     16.372
REMARK INTER + INTRA:          -6.676
REMARK INTER:                  -6.179
REMARK INTRA:                  -0.498
REMARK UNBOUND:                -0.243
REMARK  Name = ZINC000020348852
REMARK                            x       y       z     vdW  Elec       q    Type
REMARK                         _______ _______ _______ _____ _____    ______ ____
ROOT
ATOM      1  C   LIG    1       25.276 -24.094  13.918  0.00  0.00    +0.110 C 
ATOM      2  C   LIG    1       24.159 -23.612  14.808  0.00  0.00    -0.120 A 
ATOM      3  C   LIG    1       24.450 -23.036  16.031  0.00  0.00    +0.120 A 
ATOM      4  C   LIG    1       23.428 -22.595  16.848  0.00  0.00    -0.060 A 
ATOM      5  C   LIG    1       22.109 -22.728  16.441  0.00  0.00    +0.190 A 
ATOM      6  C   LIG    1       21.818 -23.305  15.213  0.00  0.00    -0.080 A 
ATOM      7  C   LIG    1       22.844 -23.741  14.398  0.00  0.00    +0.140 A 
ENDROOT
BRANCH   6   8
ATOM      8  N   LIG    1       20.412 -23.449  14.777  0.00  0.00    +0.030 N 
ATOM      9  O   LIG    1       19.919 -22.623  14.030  0.00  0.00    -0.130 OA
ATOM     10  O   LIG    1       19.748 -24.394  15.164  0.00  0.00    -0.180 OA
ENDBRANCH   6   8
BRANCH   5  11
ATOM     11  O   LIG    1       21.102 -22.293  17.244  0.00  0.00    -0.270 OA
BRANCH  11  12
ATOM     12  C   LIG    1       21.299 -22.411  18.655  0.00  0.00    +0.210 C 
BRANCH  12  13
ATOM     13  C   LIG    1       20.681 -23.720  19.147  0.00  0.00    +0.210 C 
BRANCH  13  14
ATOM     14  O   LIG    1       19.581 -24.074  18.307  0.00  0.00    -0.570 OA
ATOM     15  H   LIG    1       19.816 -24.665  17.579  0.00  0.00    +0.390 HD
ENDBRANCH  13  14
ENDBRANCH  12  13
ENDBRANCH  11  12
ENDBRANCH   5  11
TORSDOF 5
ENDMDL
MODEL 5
REMARK VINA RESULT:    -4.829     21.312     22.415
REMARK INTER + INTRA:          -6.342
REMARK INTER:                  -5.952
REMARK INTRA:                  -0.390
REMARK UNBOUND:                -0.243
REMARK  Name = ZINC000020348852
REMARK                            x       y       z     vdW  Elec       q    Type
REMARK                         _______ _______ _______ _____ _____    ______ ____
ROOT
ATOM      1  C   LIG    1       23.624  -1.188   9.944  0.00  0.00    +0.110 C 
ATOM      2  C   LIG    1       23.895  -0.681  11.337  0.00  0.00    -0.120 A 
ATOM      3  C   LIG    1       24.960   0.170  11.566  0.00  0.00    +0.120 A 
ATOM      4  C   LIG    1       25.211   0.636  12.842  0.00  0.00    -0.060 A 
ATOM      5  C   LIG    1       24.393   0.250  13.894  0.00  0.00    +0.190 A 
ATOM      6  C   LIG    1       23.324  -0.604  13.661  0.00  0.00    -0.080 A 
ATOM      7  C   LIG    1       23.075  -1.063  12.383  0.00  0.00    +0.140 A 
ENDROOT
BRANCH   6   8
ATOM      8  N   LIG    1       22.449  -1.017  14.781  0.00  0.00    +0.030 N 
ATOM      9  O   LIG    1       21.504  -0.321  15.104  0.00  0.00    -0.130 OA
ATOM     10  O   LIG    1       22.676  -2.054  15.379  0.00  0.00    -0.180 OA
ENDBRANCH   6   8
BRANCH   5  11
ATOM     11  O   LIG    1       24.637   0.708  15.150  0.00  0.00    -0.270 OA
BRANCH  11  12
ATOM     12  C   LIG    1       25.960   0.530  15.660  0.00  0.00    +0.210 C 
BRANCH  12  13
ATOM     13  C   LIG    1       26.152  -0.929  16.076  0.00  0.00    +0.210 C 
BRANCH  13  14
ATOM     14  O   LIG    1       25.596  -1.131  17.378  0.00  0.00    -0.570 OA
ATOM     15  H   LIG    1       26.238  -1.051  18.096  0.00  0.00    +0.390 HD
ENDBRANCH  13  14
ENDBRANCH  12  13
ENDBRANCH  11  12
ENDBRANCH   5  11
TORSDOF 5
ENDMDL
MODEL 6
REMARK VINA RESULT:    -4.755     23.307     24.431
REMARK INTER + INTRA:          -6.249
REMARK INTER:                  -5.981
REMARK INTRA:                  -0.268
REMARK UNBOUND:                -0.243
REMARK  Name = ZINC000020348852
REMARK                            x       y       z     vdW  Elec       q    Type
REMARK                         _______ _______ _______ _____ _____    ______ ____
ROOT
ATOM      1  C   LIG    1       15.135  -9.043  18.542  0.00  0.00    +0.110 C 
ATOM      2  C   LIG    1       15.497 -10.091  19.562  0.00  0.00    -0.120 A 
ATOM      3  C   LIG    1       16.761 -10.651  19.558  0.00  0.00    +0.120 A 
ATOM      4  C   LIG    1       17.095 -11.613  20.491  0.00  0.00    -0.060 A 
ATOM      5  C   LIG    1       16.161 -12.016  21.435  0.00  0.00    +0.190 A 
ATOM      6  C   LIG    1       14.893 -11.452  21.438  0.00  0.00    -0.080 A 
ATOM      7  C   LIG    1       14.567 -10.488  20.505  0.00  0.00    +0.140 A 
ENDROOT
BRANCH   6   8
ATOM      8  N   LIG    1       13.895 -11.881  22.442  0.00  0.00    +0.030 N 
ATOM      9  O   LIG    1       13.166 -12.829  22.211  0.00  0.00    -0.130 OA
ATOM     10  O   LIG    1       13.803 -11.285  23.501  0.00  0.00    -0.180 OA
ENDBRANCH   6   8
BRANCH   5  11
ATOM     11  O   LIG    1       16.489 -12.961  22.355  0.00  0.00    -0.270 OA
BRANCH  11  12
ATOM     12  C   LIG    1       16.938 -14.224  21.858  0.00  0.00    +0.210 C 
BRANCH  12  13
ATOM     13  C   LIG    1       17.925 -14.840  22.851  0.00  0.00    +0.210 C 
BRANCH  13  14
ATOM     14  O   LIG    1       17.912 -16.262  22.715  0.00  0.00    -0.570 OA
ATOM     15  H   LIG    1       18.481 -16.723  23.346  0.00  0.00    +0.390 HD
ENDBRANCH  13  14
ENDBRANCH  12  13
ENDBRANCH  11  12
ENDBRANCH   5  11
TORSDOF 5
ENDMDL
MODEL 7
REMARK VINA RESULT:    -4.714      2.586      4.541
REMARK INTER + INTRA:          -6.197
REMARK INTER:                  -5.676
REMARK INTRA:                  -0.521
REMARK UNBOUND:                -0.243
REMARK  Name = ZINC000020348852
REMARK                            x       y       z     vdW  Elec       q    Type
REMARK                         _______ _______ _______ _____ _____    ______ ____
ROOT
ATOM      1  C   LIG    1       32.035 -19.444   5.665  0.00  0.00    +0.110 C 
ATOM      2  C   LIG    1       31.344 -18.855   4.462  0.00  0.00    -0.120 A 
ATOM      3  C   LIG    1       30.050 -19.235   4.153  0.00  0.00    +0.120 A 
ATOM      4  C   LIG    1       29.415 -18.697   3.051  0.00  0.00    -0.060 A 
ATOM      5  C   LIG    1       30.075 -17.774   2.254  0.00  0.00    +0.190 A 
ATOM      6  C   LIG    1       31.373 -17.393   2.565  0.00  0.00    -0.080 A 
ATOM      7  C   LIG    1       32.001 -17.930   3.671  0.00  0.00    +0.140 A 
ENDROOT
BRANCH   6   8
ATOM      8  N   LIG    1       32.079 -16.408   1.717  0.00  0.00    +0.030 N 
ATOM      9  O   LIG    1       31.689 -15.255   1.667  0.00  0.00    -0.130 OA
ATOM     10  O   LIG    1       33.051 -16.751   1.068  0.00  0.00    -0.180 OA
ENDBRANCH   6   8
BRANCH   5  11
ATOM     11  O   LIG    1       29.451 -17.242   1.170  0.00  0.00    -0.270 OA
BRANCH  11  12
ATOM     12  C   LIG    1       29.394 -18.050  -0.008  0.00  0.00    +0.210 C 
BRANCH  12  13
ATOM     13  C   LIG    1       30.200 -17.382  -1.123  0.00  0.00    +0.210 C 
BRANCH  13  14
ATOM     14  O   LIG    1       31.491 -17.988  -1.207  0.00  0.00    -0.570 OA
ATOM     15  H   LIG    1       32.174 -17.530  -0.699  0.00  0.00    +0.390 HD
ENDBRANCH  13  14
ENDBRANCH  12  13
ENDBRANCH  11  12
ENDBRANCH   5  11
TORSDOF 5
ENDMDL
MODEL 8
REMARK VINA RESULT:    -4.481     23.668     24.862
REMARK INTER + INTRA:          -5.902
REMARK INTER:                  -5.484
REMARK INTRA:                  -0.419
REMARK UNBOUND:                -0.243
REMARK  Name = ZINC000020348852
REMARK                            x       y       z     vdW  Elec       q    Type
REMARK                         _______ _______ _______ _____ _____    ______ ____
ROOT
ATOM      1  C   LIG    1       14.126 -15.553  22.568  0.00  0.00    +0.110 C 
ATOM      2  C   LIG    1       14.648 -14.234  22.057  0.00  0.00    -0.120 A 
ATOM      3  C   LIG    1       15.964 -14.126  21.645  0.00  0.00    +0.120 A 
ATOM      4  C   LIG    1       16.445 -12.919  21.177  0.00  0.00    -0.060 A 
ATOM      5  C   LIG    1       15.607 -11.815  21.120  0.00  0.00    +0.190 A 
ATOM      6  C   LIG    1       14.287 -11.925  21.534  0.00  0.00    -0.080 A 
ATOM      7  C   LIG    1       13.810 -13.136  21.996  0.00  0.00    +0.140 A 
ENDROOT
BRANCH   6   8
ATOM      8  N   LIG    1       13.391 -10.749  21.475  0.00  0.00    +0.030 N 
ATOM      9  O   LIG    1       13.376  -9.948  22.392  0.00  0.00    -0.130 OA
ATOM     10  O   LIG    1       12.669 -10.583  20.508  0.00  0.00    -0.180 OA
ENDBRANCH   6   8
BRANCH   5  11
ATOM     11  O   LIG    1       16.078 -10.626  20.659  0.00  0.00    -0.270 OA
BRANCH  11  12
ATOM     12  C   LIG    1       16.306 -10.520  19.252  0.00  0.00    +0.210 C 
BRANCH  12  13
ATOM     13  C   LIG    1       15.354  -9.479  18.660  0.00  0.00    +0.210 C 
BRANCH  13  14
ATOM     14  O   LIG    1       15.357  -8.309  19.480  0.00  0.00    -0.570 OA
ATOM     15  H   LIG    1       14.654  -7.679  19.270  0.00  0.00    +0.390 HD
ENDBRANCH  13  14
ENDBRANCH  12  13
ENDBRANCH  11  12
ENDBRANCH   5  11
TORSDOF 5
ENDMDL
MODEL 9
REMARK VINA RESULT:    -4.336     24.335     25.616
REMARK INTER + INTRA:          -5.720
REMARK INTER:                  -5.110
REMARK INTRA:                  -0.610
REMARK UNBOUND:                -0.243
REMARK  Name = ZINC000020348852
REMARK                            x       y       z     vdW  Elec       q    Type
REMARK                         _______ _______ _______ _____ _____    ______ ____
ROOT
ATOM      1  C   LIG    1       17.494 -13.838  21.837  0.00  0.00    +0.110 C 
ATOM      2  C   LIG    1       16.557 -12.690  21.565  0.00  0.00    -0.120 A 
ATOM      3  C   LIG    1       16.888 -11.738  20.618  0.00  0.00    +0.120 A 
ATOM      4  C   LIG    1       16.031 -10.685  20.367  0.00  0.00    -0.060 A 
ATOM      5  C   LIG    1       14.836 -10.583  21.064  0.00  0.00    +0.190 A 
ATOM      6  C   LIG    1       14.504 -11.540  22.013  0.00  0.00    -0.080 A 
ATOM      7  C   LIG    1       15.363 -12.593  22.257  0.00  0.00    +0.140 A 
ENDROOT
BRANCH   6   8
ATOM      8  N   LIG    1       13.231 -11.433  22.758  0.00  0.00    +0.030 N 
ATOM      9  O   LIG    1       12.280 -12.125  22.440  0.00  0.00    -0.130 OA
ATOM     10  O   LIG    1       13.134 -10.655  23.689  0.00  0.00    -0.180 OA
ENDBRANCH   6   8
BRANCH   5  11
ATOM     11  O   LIG    1       13.990  -9.548  20.817  0.00  0.00    -0.270 OA
BRANCH  11  12
ATOM     12  C   LIG    1       13.243  -9.596  19.600  0.00  0.00    +0.210 C 
BRANCH  12  13
ATOM     13  C   LIG    1       11.761  -9.800  19.919  0.00  0.00    +0.210 C 
BRANCH  13  14
ATOM     14  O   LIG    1       11.422 -11.178  19.748  0.00  0.00    -0.570 OA
ATOM     15  H   LIG    1       11.809 -11.763  20.413  0.00  0.00    +0.390 HD
ENDBRANCH  13  14
ENDBRANCH  12  13
ENDBRANCH  11  12
ENDBRANCH   5  11
TORSDOF 5
ENDMDL
