MODEL 1
REMARK VINA RESULT:    -5.017      0.000      0.000
REMARK INTER + INTRA:          -6.216
REMARK INTER:                  -5.897
REMARK INTRA:                  -0.319
REMARK UNBOUND:                -0.319
REMARK  Name = ZINC000774664494
REMARK                            x       y       z     vdW  Elec       q    Type
REMARK                         _______ _______ _______ _____ _____    ______ ____
ROOT
ATOM      1  C   LIG    1       24.125  -0.174  13.294  0.00  0.00    +0.370 A 
ATOM      2  N   LIG    1       24.696  -0.021  12.110  0.00  0.00    -0.490 NA
ATOM      3  C   LIG    1       24.232  -0.628  11.034  0.00  0.00    +0.200 A 
ATOM      4  C   LIG    1       23.126  -1.450  11.107  0.00  0.00    -0.010 A 
ATOM      5  C   LIG    1       22.497  -1.638  12.331  0.00  0.00    +0.190 A 
ATOM      6  C   LIG    1       24.920  -0.420   9.709  0.00  0.00    +0.160 C 
ATOM      7  C   LIG    1       23.010  -0.992  13.441  0.00  0.00    -0.110 A 
ENDROOT
BRANCH   7   8
ATOM      8  N   LIG    1       22.426  -1.148  14.655  0.00  0.00    +0.070 N 
ATOM      9  O   LIG    1       21.584  -0.352  15.032  0.00  0.00    -0.130 OA
ATOM     10  O   LIG    1       22.746  -2.081  15.370  0.00  0.00    -0.210 OA
ENDBRANCH   7   8
BRANCH   1  11
ATOM     11  N   LIG    1       24.647   0.484  14.401  0.00  0.00    -0.310 N 
ATOM     12  C   LIG    1       24.630   1.939  14.205  0.00  0.00    +0.270 C 
BRANCH  11  14
ATOM     13  C   LIG    1       26.075  -0.833  15.854  0.00  0.00    +0.240 C 
ATOM     14  O   LIG    1       25.998   0.011  14.703  0.00  0.00    -0.230 OA
ENDBRANCH  11  14
ENDBRANCH   1  11
TORSDOF 3
ENDMDL
MODEL 2
REMARK VINA RESULT:    -4.926     22.268     23.148
REMARK INTER + INTRA:          -6.108
REMARK INTER:                  -5.911
REMARK INTRA:                  -0.198
REMARK UNBOUND:                -0.319
REMARK  Name = ZINC000774664494
REMARK                            x       y       z     vdW  Elec       q    Type
REMARK                         _______ _______ _______ _____ _____    ______ ____
ROOT
ATOM      1  C   LIG    1       21.814 -22.991  16.575  0.00  0.00    +0.370 A 
ATOM      2  N   LIG    1       23.030 -22.875  17.086  0.00  0.00    -0.490 NA
ATOM      3  C   LIG    1       24.110 -23.086  16.357  0.00  0.00    +0.200 A 
ATOM      4  C   LIG    1       24.008 -23.436  15.026  0.00  0.00    -0.010 A 
ATOM      5  C   LIG    1       22.750 -23.569  14.451  0.00  0.00    +0.190 A 
ATOM      6  C   LIG    1       25.471 -22.941  16.986  0.00  0.00    +0.160 C 
ATOM      7  C   LIG    1       21.638 -23.346  15.242  0.00  0.00    -0.110 A 
ENDROOT
BRANCH   7   8
ATOM      8  N   LIG    1       20.392 -23.464  14.721  0.00  0.00    +0.070 N 
ATOM      9  O   LIG    1       19.731 -24.464  14.942  0.00  0.00    -0.130 OA
ATOM     10  O   LIG    1       19.933 -22.571  14.031  0.00  0.00    -0.210 OA
ENDBRANCH   7   8
BRANCH   1  11
ATOM     11  N   LIG    1       20.705 -22.760  17.379  0.00  0.00    -0.310 N 
ATOM     12  C   LIG    1       20.832 -21.487  18.100  0.00  0.00    +0.270 C 
BRANCH  11  14
ATOM     13  C   LIG    1       20.594 -23.502  19.686  0.00  0.00    +0.240 C 
ATOM     14  O   LIG    1       20.491 -23.870  18.309  0.00  0.00    -0.230 OA
ENDBRANCH  11  14
ENDBRANCH   1  11
TORSDOF 3
ENDMDL
MODEL 3
REMARK VINA RESULT:    -4.783     14.451     16.257
REMARK INTER + INTRA:          -5.940
REMARK INTER:                  -5.728
REMARK INTRA:                  -0.213
REMARK UNBOUND:                -0.319
REMARK  Name = ZINC000774664494
REMARK                            x       y       z     vdW  Elec       q    Type
REMARK                         _______ _______ _______ _____ _____    ______ ____
ROOT
ATOM      1  C   LIG    1       14.508 -11.227  20.529  0.00  0.00    +0.370 A 
ATOM      2  N   LIG    1       14.830 -12.244  21.313  0.00  0.00    -0.490 NA
ATOM      3  C   LIG    1       16.087 -12.590  21.516  0.00  0.00    +0.200 A 
ATOM      4  C   LIG    1       17.118 -11.898  20.914  0.00  0.00    -0.010 A 
ATOM      5  C   LIG    1       16.823 -10.824  20.083  0.00  0.00    +0.190 A 
ATOM      6  C   LIG    1       16.400 -13.756  22.418  0.00  0.00    +0.160 C 
ATOM      7  C   LIG    1       15.496 -10.489  19.886  0.00  0.00    -0.110 A 
ENDROOT
BRANCH   7   8
ATOM      8  N   LIG    1       15.164  -9.448  19.083  0.00  0.00    +0.070 N 
ATOM      9  O   LIG    1       14.883  -9.645  17.914  0.00  0.00    -0.130 OA
ATOM     10  O   LIG    1       15.147  -8.314  19.531  0.00  0.00    -0.210 OA
ENDBRANCH   7   8
BRANCH   1  11
ATOM     11  N   LIG    1       13.171 -10.897  20.342  0.00  0.00    -0.310 N 
ATOM     12  C   LIG    1       12.627 -10.214  21.524  0.00  0.00    +0.270 C 
BRANCH  11  14
ATOM     13  C   LIG    1       10.967 -11.869  20.054  0.00  0.00    +0.240 C 
ATOM     14  O   LIG    1       12.380 -12.082  20.012  0.00  0.00    -0.230 OA
ENDBRANCH  11  14
ENDBRANCH   1  11
TORSDOF 3
ENDMDL
MODEL 4
REMARK VINA RESULT:    -4.604     14.796     16.539
REMARK INTER + INTRA:          -5.730
REMARK INTER:                  -5.465
REMARK INTRA:                  -0.265
REMARK UNBOUND:                -0.319
REMARK  Name = ZINC000774664494
REMARK                            x       y       z     vdW  Elec       q    Type
REMARK                         _______ _______ _______ _____ _____    ______ ____
ROOT
ATOM      1  C   LIG    1       14.368 -10.967  21.529  0.00  0.00    +0.370 A 
ATOM      2  N   LIG    1       14.155 -11.365  22.774  0.00  0.00    -0.490 NA
ATOM      3  C   LIG    1       13.394 -10.673  23.601  0.00  0.00    +0.200 A 
ATOM      4  C   LIG    1       12.790  -9.501  23.193  0.00  0.00    -0.010 A 
ATOM      5  C   LIG    1       12.989  -9.048  21.895  0.00  0.00    +0.190 A 
ATOM      6  C   LIG    1       13.184 -11.169  25.008  0.00  0.00    +0.160 C 
ATOM      7  C   LIG    1       13.795  -9.793  21.054  0.00  0.00    -0.110 A 
ENDROOT
BRANCH   7   8
ATOM      8  N   LIG    1       14.014  -9.388  19.779  0.00  0.00    +0.070 N 
ATOM      9  O   LIG    1       14.878  -8.562  19.543  0.00  0.00    -0.130 OA
ATOM     10  O   LIG    1       13.347  -9.848  18.869  0.00  0.00    -0.210 OA
ENDBRANCH   7   8
BRANCH   1  11
ATOM     11  N   LIG    1       15.176 -11.727  20.692  0.00  0.00    -0.310 N 
ATOM     12  C   LIG    1       14.861 -13.157  20.810  0.00  0.00    +0.270 C 
BRANCH  11  14
ATOM     13  C   LIG    1       17.306 -10.917  19.861  0.00  0.00    +0.240 C 
ATOM     14  O   LIG    1       16.592 -11.479  20.964  0.00  0.00    -0.230 OA
ENDBRANCH  11  14
ENDBRANCH   1  11
TORSDOF 3
ENDMDL
MODEL 5
REMARK VINA RESULT:    -4.521     21.915     22.681
REMARK INTER + INTRA:          -5.632
REMARK INTER:                  -5.339
REMARK INTRA:                  -0.293
REMARK UNBOUND:                -0.319
REMARK  Name = ZINC000774664494
REMARK                            x       y       z     vdW  Elec       q    Type
REMARK                         _______ _______ _______ _____ _____    ______ ____
ROOT
ATOM      1  C   LIG    1       22.811 -22.729  16.632  0.00  0.00    +0.370 A 
ATOM      2  N   LIG    1       23.548 -22.960  15.557  0.00  0.00    -0.490 NA
ATOM      3  C   LIG    1       22.999 -23.196  14.380  0.00  0.00    +0.200 A 
ATOM      4  C   LIG    1       21.627 -23.210  14.229  0.00  0.00    -0.010 A 
ATOM      5  C   LIG    1       20.818 -22.972  15.333  0.00  0.00    +0.190 A 
ATOM      6  C   LIG    1       23.882 -23.453  13.187  0.00  0.00    +0.160 C 
ATOM      7  C   LIG    1       21.422 -22.733  16.553  0.00  0.00    -0.110 A 
ENDROOT
BRANCH   7   8
ATOM      8  N   LIG    1       20.670 -22.496  17.656  0.00  0.00    +0.070 N 
ATOM      9  O   LIG    1       20.306 -23.424  18.356  0.00  0.00    -0.130 OA
ATOM     10  O   LIG    1       20.357 -21.354  17.946  0.00  0.00    -0.210 OA
ENDBRANCH   7   8
BRANCH   1  11
ATOM     11  N   LIG    1       23.431 -22.485  17.852  0.00  0.00    -0.310 N 
ATOM     12  C   LIG    1       24.666 -21.711  17.671  0.00  0.00    +0.270 C 
BRANCH  11  14
ATOM     13  C   LIG    1       23.475 -23.658  19.975  0.00  0.00    +0.240 C 
ATOM     14  O   LIG    1       23.695 -23.735  18.565  0.00  0.00    -0.230 OA
ENDBRANCH  11  14
ENDBRANCH   1  11
TORSDOF 3
ENDMDL
MODEL 6
REMARK VINA RESULT:    -4.347      2.769      4.171
REMARK INTER + INTRA:          -5.428
REMARK INTER:                  -5.106
REMARK INTRA:                  -0.322
REMARK UNBOUND:                -0.319
REMARK  Name = ZINC000774664494
REMARK                            x       y       z     vdW  Elec       q    Type
REMARK                         _______ _______ _______ _____ _____    ______ ____
ROOT
ATOM      1  C   LIG    1       24.117   0.369  12.172  0.00  0.00    +0.370 A 
ATOM      2  N   LIG    1       23.496  -0.003  13.280  0.00  0.00    -0.490 NA
ATOM      3  C   LIG    1       22.750  -1.091  13.322  0.00  0.00    +0.200 A 
ATOM      4  C   LIG    1       22.591  -1.885  12.204  0.00  0.00    -0.010 A 
ATOM      5  C   LIG    1       23.226  -1.529  11.021  0.00  0.00    +0.190 A 
ATOM      6  C   LIG    1       22.063  -1.471  14.609  0.00  0.00    +0.160 C 
ATOM      7  C   LIG    1       23.997  -0.381  11.006  0.00  0.00    -0.110 A 
ENDROOT
BRANCH   7   8
ATOM      8  N   LIG    1       24.635   0.002   9.873  0.00  0.00    +0.070 N 
ATOM      9  O   LIG    1       24.062   0.706   9.061  0.00  0.00    -0.130 OA
ATOM     10  O   LIG    1       25.780  -0.359   9.666  0.00  0.00    -0.210 OA
ENDBRANCH   7   8
BRANCH   1  11
ATOM     11  N   LIG    1       24.893   1.522  12.171  0.00  0.00    -0.310 N 
ATOM     12  C   LIG    1       25.994   1.417  13.137  0.00  0.00    +0.270 C 
BRANCH  11  14
ATOM     13  C   LIG    1       23.700   3.429  11.264  0.00  0.00    +0.240 C 
ATOM     14  O   LIG    1       24.073   2.705  12.437  0.00  0.00    -0.230 OA
ENDBRANCH  11  14
ENDBRANCH   1  11
TORSDOF 3
ENDMDL
MODEL 7
REMARK VINA RESULT:    -4.143     22.180     23.438
REMARK INTER + INTRA:          -5.188
REMARK INTER:                  -4.935
REMARK INTRA:                  -0.253
REMARK UNBOUND:                -0.319
REMARK  Name = ZINC000774664494
REMARK                            x       y       z     vdW  Elec       q    Type
REMARK                         _______ _______ _______ _____ _____    ______ ____
ROOT
ATOM      1  C   LIG    1       22.363 -23.741  17.309  0.00  0.00    +0.370 A 
ATOM      2  N   LIG    1       23.366 -24.351  16.698  0.00  0.00    -0.490 NA
ATOM      3  C   LIG    1       24.396 -23.678  16.220  0.00  0.00    +0.200 A 
ATOM      4  C   LIG    1       24.464 -22.305  16.343  0.00  0.00    -0.010 A 
ATOM      5  C   LIG    1       23.431 -21.627  16.979  0.00  0.00    +0.190 A 
ATOM      6  C   LIG    1       25.513 -24.419  15.531  0.00  0.00    +0.160 C 
ATOM      7  C   LIG    1       22.363 -22.359  17.464  0.00  0.00    -0.110 A 
ENDROOT
BRANCH   7   8
ATOM      8  N   LIG    1       21.334 -21.737  18.092  0.00  0.00    +0.070 N 
ATOM      9  O   LIG    1       20.337 -21.428  17.465  0.00  0.00    -0.130 OA
ATOM     10  O   LIG    1       21.408 -21.486  19.282  0.00  0.00    -0.210 OA
ENDBRANCH   7   8
BRANCH   1  11
ATOM     11  N   LIG    1       21.297 -24.489  17.797  0.00  0.00    -0.310 N 
ATOM     12  C   LIG    1       21.719 -25.335  18.921  0.00  0.00    +0.270 C 
BRANCH  11  14
ATOM     13  C   LIG    1       20.027 -24.519  15.731  0.00  0.00    +0.240 C 
ATOM     14  O   LIG    1       20.690 -25.291  16.735  0.00  0.00    -0.230 OA
ENDBRANCH  11  14
ENDBRANCH   1  11
TORSDOF 3
ENDMDL
MODEL 8
REMARK VINA RESULT:    -4.121     15.041     16.706
REMARK INTER + INTRA:          -5.163
REMARK INTER:                  -4.855
REMARK INTRA:                  -0.307
REMARK UNBOUND:                -0.319
REMARK  Name = ZINC000774664494
REMARK                            x       y       z     vdW  Elec       q    Type
REMARK                         _______ _______ _______ _____ _____    ______ ____
ROOT
ATOM      1  C   LIG    1       14.397 -11.706  20.749  0.00  0.00    +0.370 A 
ATOM      2  N   LIG    1       14.305 -10.641  19.969  0.00  0.00    -0.490 NA
ATOM      3  C   LIG    1       15.370 -10.099  19.410  0.00  0.00    +0.200 A 
ATOM      4  C   LIG    1       16.627 -10.628  19.621  0.00  0.00    -0.010 A 
ATOM      5  C   LIG    1       16.767 -11.746  20.434  0.00  0.00    +0.190 A 
ATOM      6  C   LIG    1       15.212  -8.886  18.530  0.00  0.00    +0.160 C 
ATOM      7  C   LIG    1       15.633 -12.289  21.010  0.00  0.00    -0.110 A 
ENDROOT
BRANCH   7   8
ATOM      8  N   LIG    1       15.724 -13.380  21.809  0.00  0.00    +0.070 N 
ATOM      9  O   LIG    1       15.578 -14.494  21.338  0.00  0.00    -0.130 OA
ATOM     10  O   LIG    1       15.951 -13.247  22.999  0.00  0.00    -0.210 OA
ENDBRANCH   7   8
BRANCH   1  11
ATOM     11  N   LIG    1       13.249 -12.245  21.318  0.00  0.00    -0.310 N 
ATOM     12  C   LIG    1       12.208 -12.456  20.303  0.00  0.00    +0.270 C 
BRANCH  11  14
ATOM     13  C   LIG    1       12.693 -12.061  23.671  0.00  0.00    +0.240 C 
ATOM     14  O   LIG    1       12.757 -11.400  22.406  0.00  0.00    -0.230 OA
ENDBRANCH  11  14
ENDBRANCH   1  11
TORSDOF 3
ENDMDL
MODEL 9
REMARK VINA RESULT:    -4.084      1.795      2.087
REMARK INTER + INTRA:          -5.119
REMARK INTER:                  -4.882
REMARK INTRA:                  -0.237
REMARK UNBOUND:                -0.319
REMARK  Name = ZINC000774664494
REMARK                            x       y       z     vdW  Elec       q    Type
REMARK                         _______ _______ _______ _____ _____    ______ ____
ROOT
ATOM      1  C   LIG    1       24.617   0.317  11.944  0.00  0.00    +0.370 A 
ATOM      2  N   LIG    1       24.980   0.736  10.741  0.00  0.00    -0.490 NA
ATOM      3  C   LIG    1       24.562   0.134   9.644  0.00  0.00    +0.200 A 
ATOM      4  C   LIG    1       23.725  -0.961   9.712  0.00  0.00    -0.010 A 
ATOM      5  C   LIG    1       23.321  -1.433  10.955  0.00  0.00    +0.190 A 
ATOM      6  C   LIG    1       25.004   0.650   8.299  0.00  0.00    +0.160 C 
ATOM      7  C   LIG    1       23.780  -0.785  12.087  0.00  0.00    -0.110 A 
ENDROOT
BRANCH   7   8
ATOM      8  N   LIG    1       23.410  -1.212  13.319  0.00  0.00    +0.070 N 
ATOM      9  O   LIG    1       24.068  -2.062  13.892  0.00  0.00    -0.130 OA
ATOM     10  O   LIG    1       22.419  -0.746  13.853  0.00  0.00    -0.210 OA
ENDBRANCH   7   8
BRANCH   1  11
ATOM     11  N   LIG    1       25.081   0.980  13.073  0.00  0.00    -0.310 N 
ATOM     12  C   LIG    1       24.410   2.277  13.236  0.00  0.00    +0.270 C 
BRANCH  11  14
ATOM     13  C   LIG    1       26.983   2.453  13.382  0.00  0.00    +0.240 C 
ATOM     14  O   LIG    1       26.534   1.144  13.025  0.00  0.00    -0.230 OA
ENDBRANCH  11  14
ENDBRANCH   1  11
TORSDOF 3
ENDMDL
