MODEL 1
REMARK VINA RESULT:    -5.846      0.000      0.000
REMARK INTER + INTRA:          -7.063
REMARK INTER:                  -6.872
REMARK INTRA:                  -0.192
REMARK UNBOUND:                -0.192
REMARK  Name = ZINC000774663862
REMARK                            x       y       z     vdW  Elec       q    Type
REMARK                         _______ _______ _______ _____ _____    ______ ____
ROOT
ATOM      1  C   LIG    1       29.516 -18.340   2.248  0.00  0.00    +0.320 A 
ATOM      2  N   LIG    1       29.233 -18.367   0.955  0.00  0.00    -0.470 NA
ATOM      3  C   LIG    1       28.320 -19.183   0.463  0.00  0.00    +0.370 A 
ATOM      4  C   LIG    1       27.622 -20.043   1.288  0.00  0.00    -0.090 A 
ATOM      5  C   LIG    1       27.888 -20.045   2.650  0.00  0.00    +0.160 A 
ATOM      6  C   LIG    1       28.855 -19.182   3.135  0.00  0.00    -0.090 A 
ATOM      7  C   LIG    1       29.179 -19.148   4.607  0.00  0.00    +0.140 C 
ENDROOT
BRANCH   4   8
ATOM      8  N   LIG    1       26.600 -20.953   0.725  0.00  0.00    +0.030 N 
ATOM      9  O   LIG    1       25.530 -21.092   1.290  0.00  0.00    -0.150 OA
ATOM     10  O   LIG    1       26.829 -21.565  -0.303  0.00  0.00    -0.150 OA
ENDBRANCH   4   8
BRANCH   1  11
ATOM     11  N   LIG    1       30.486 -17.465   2.722  0.00  0.00    -0.320 N 
ATOM     12  C   LIG    1       30.501 -16.220   1.940  0.00  0.00    +0.250 C 
BRANCH  11  14
ATOM     13  C   LIG    1       32.811 -17.337   3.401  0.00  0.00    +0.230 C 
ATOM     14  O   LIG    1       31.806 -18.096   2.726  0.00  0.00    -0.230 OA
ENDBRANCH  11  14
ENDBRANCH   1  11
TORSDOF 3
ENDMDL
MODEL 2
REMARK VINA RESULT:    -5.479      1.761      2.660
REMARK INTER + INTRA:          -6.632
REMARK INTER:                  -6.332
REMARK INTRA:                  -0.300
REMARK UNBOUND:                -0.192
REMARK  Name = ZINC000774663862
REMARK                            x       y       z     vdW  Elec       q    Type
REMARK                         _______ _______ _______ _____ _____    ______ ____
ROOT
ATOM      1  C   LIG    1       29.930 -19.723   3.034  0.00  0.00    +0.320 A 
ATOM      2  N   LIG    1       29.496 -20.971   3.112  0.00  0.00    -0.470 NA
ATOM      3  C   LIG    1       28.554 -21.427   2.308  0.00  0.00    +0.370 A 
ATOM      4  C   LIG    1       27.985 -20.612   1.349  0.00  0.00    -0.090 A 
ATOM      5  C   LIG    1       28.414 -19.297   1.234  0.00  0.00    +0.160 A 
ATOM      6  C   LIG    1       29.399 -18.846   2.094  0.00  0.00    -0.090 A 
ATOM      7  C   LIG    1       29.896 -17.425   2.007  0.00  0.00    +0.140 C 
ENDROOT
BRANCH   4   8
ATOM      8  N   LIG    1       26.930 -21.136   0.454  0.00  0.00    +0.030 N 
ATOM      9  O   LIG    1       27.223 -21.558  -0.650  0.00  0.00    -0.150 OA
ATOM     10  O   LIG    1       25.769 -21.144   0.820  0.00  0.00    -0.150 OA
ENDBRANCH   4   8
BRANCH   1  11
ATOM     11  N   LIG    1       30.924 -19.284   3.901  0.00  0.00    -0.320 N 
ATOM     12  C   LIG    1       32.194 -19.977   3.641  0.00  0.00    +0.250 C 
BRANCH  11  14
ATOM     13  C   LIG    1       29.636 -18.424   5.767  0.00  0.00    +0.230 C 
ATOM     14  O   LIG    1       30.513 -19.448   5.296  0.00  0.00    -0.230 OA
ENDBRANCH  11  14
ENDBRANCH   1  11
TORSDOF 3
ENDMDL
MODEL 3
REMARK VINA RESULT:    -5.222      2.870      3.598
REMARK INTER + INTRA:          -6.329
REMARK INTER:                  -6.140
REMARK INTRA:                  -0.189
REMARK UNBOUND:                -0.192
REMARK  Name = ZINC000774663862
REMARK                            x       y       z     vdW  Elec       q    Type
REMARK                         _______ _______ _______ _____ _____    ______ ____
ROOT
ATOM      1  C   LIG    1       29.646 -18.882   3.244  0.00  0.00    +0.320 A 
ATOM      2  N   LIG    1       30.517 -17.955   2.878  0.00  0.00    -0.470 NA
ATOM      3  C   LIG    1       30.523 -17.455   1.657  0.00  0.00    +0.370 A 
ATOM      4  C   LIG    1       29.613 -17.885   0.712  0.00  0.00    -0.090 A 
ATOM      5  C   LIG    1       28.682 -18.855   1.056  0.00  0.00    +0.160 A 
ATOM      6  C   LIG    1       28.704 -19.364   2.342  0.00  0.00    -0.090 A 
ATOM      7  C   LIG    1       27.713 -20.420   2.762  0.00  0.00    +0.140 C 
ENDROOT
BRANCH   4   8
ATOM      8  N   LIG    1       29.629 -17.316  -0.654  0.00  0.00    +0.030 N 
ATOM      9  O   LIG    1       30.645 -17.370  -1.324  0.00  0.00    -0.150 OA
ATOM     10  O   LIG    1       28.628 -16.792  -1.108  0.00  0.00    -0.150 OA
ENDBRANCH   4   8
BRANCH   1  11
ATOM     11  N   LIG    1       29.677 -19.381   4.541  0.00  0.00    -0.320 N 
ATOM     12  C   LIG    1       29.637 -18.291   5.526  0.00  0.00    +0.250 C 
BRANCH  11  14
ATOM     13  C   LIG    1       31.863 -19.638   5.559  0.00  0.00    +0.230 C 
ATOM     14  O   LIG    1       30.848 -20.233   4.748  0.00  0.00    -0.230 OA
ENDBRANCH  11  14
ENDBRANCH   1  11
TORSDOF 3
ENDMDL
MODEL 4
REMARK VINA RESULT:    -5.104     14.363     15.952
REMARK INTER + INTRA:          -6.190
REMARK INTER:                  -5.895
REMARK INTRA:                  -0.295
REMARK UNBOUND:                -0.192
REMARK  Name = ZINC000774663862
REMARK                            x       y       z     vdW  Elec       q    Type
REMARK                         _______ _______ _______ _____ _____    ______ ____
ROOT
ATOM      1  C   LIG    1       21.776 -22.858  16.274  0.00  0.00    +0.320 A 
ATOM      2  N   LIG    1       23.027 -22.426  16.279  0.00  0.00    -0.470 NA
ATOM      3  C   LIG    1       23.753 -22.395  15.178  0.00  0.00    +0.370 A 
ATOM      4  C   LIG    1       23.228 -22.815  13.972  0.00  0.00    -0.090 A 
ATOM      5  C   LIG    1       21.918 -23.274  13.924  0.00  0.00    +0.160 A 
ATOM      6  C   LIG    1       21.184 -23.300  15.096  0.00  0.00    -0.090 A 
ATOM      7  C   LIG    1       19.758 -23.790  15.093  0.00  0.00    +0.140 C 
ENDROOT
BRANCH   4   8
ATOM      8  N   LIG    1       24.052 -22.776  12.744  0.00  0.00    +0.030 N 
ATOM      9  O   LIG    1       24.009 -21.803  12.013  0.00  0.00    -0.150 OA
ATOM     10  O   LIG    1       24.772 -23.717  12.463  0.00  0.00    -0.150 OA
ENDBRANCH   4   8
BRANCH   1  11
ATOM     11  N   LIG    1       21.048 -22.873  17.459  0.00  0.00    -0.320 N 
ATOM     12  C   LIG    1       20.815 -21.508  17.952  0.00  0.00    +0.250 C 
BRANCH  11  14
ATOM     13  C   LIG    1       21.536 -25.097  18.294  0.00  0.00    +0.230 C 
ATOM     14  O   LIG    1       21.713 -23.691  18.473  0.00  0.00    -0.230 OA
ENDBRANCH  11  14
ENDBRANCH   1  11
TORSDOF 3
ENDMDL
MODEL 5
REMARK VINA RESULT:    -4.708     23.483     24.487
REMARK INTER + INTRA:          -5.725
REMARK INTER:                  -5.468
REMARK INTRA:                  -0.257
REMARK UNBOUND:                -0.192
REMARK  Name = ZINC000774663862
REMARK                            x       y       z     vdW  Elec       q    Type
REMARK                         _______ _______ _______ _____ _____    ______ ____
ROOT
ATOM      1  C   LIG    1       15.018 -11.293  20.783  0.00  0.00    +0.320 A 
ATOM      2  N   LIG    1       14.085 -12.167  21.129  0.00  0.00    -0.470 NA
ATOM      3  C   LIG    1       14.388 -13.409  21.457  0.00  0.00    +0.370 A 
ATOM      4  C   LIG    1       15.699 -13.843  21.452  0.00  0.00    -0.090 A 
ATOM      5  C   LIG    1       16.707 -12.957  21.097  0.00  0.00    +0.160 A 
ATOM      6  C   LIG    1       16.358 -11.663  20.753  0.00  0.00    -0.090 A 
ATOM      7  C   LIG    1       17.418 -10.665  20.359  0.00  0.00    +0.140 C 
ENDROOT
BRANCH   4   8
ATOM      8  N   LIG    1       16.025 -15.238  21.822  0.00  0.00    +0.030 N 
ATOM      9  O   LIG    1       16.168 -16.080  20.954  0.00  0.00    -0.150 OA
ATOM     10  O   LIG    1       16.150 -15.544  22.994  0.00  0.00    -0.150 OA
ENDBRANCH   4   8
BRANCH   1  11
ATOM     11  N   LIG    1       14.653  -9.995  20.445  0.00  0.00    -0.320 N 
ATOM     12  C   LIG    1       13.631  -9.478  21.365  0.00  0.00    +0.250 C 
BRANCH  11  14
ATOM     13  C   LIG    1       14.923  -8.995  18.252  0.00  0.00    +0.230 C 
ATOM     14  O   LIG    1       14.195  -9.924  19.058  0.00  0.00    -0.230 OA
ENDBRANCH  11  14
ENDBRANCH   1  11
TORSDOF 3
ENDMDL
MODEL 6
REMARK VINA RESULT:    -4.692     21.010     21.978
REMARK INTER + INTRA:          -5.707
REMARK INTER:                  -5.408
REMARK INTRA:                  -0.299
REMARK UNBOUND:                -0.192
REMARK  Name = ZINC000774663862
REMARK                            x       y       z     vdW  Elec       q    Type
REMARK                         _______ _______ _______ _____ _____    ______ ____
ROOT
ATOM      1  C   LIG    1       25.036   0.304  10.543  0.00  0.00    +0.320 A 
ATOM      2  N   LIG    1       25.425   0.634  11.765  0.00  0.00    -0.470 NA
ATOM      3  C   LIG    1       24.844   0.128  12.836  0.00  0.00    +0.370 A 
ATOM      4  C   LIG    1       23.803  -0.772  12.718  0.00  0.00    -0.090 A 
ATOM      5  C   LIG    1       23.366  -1.145  11.455  0.00  0.00    +0.160 A 
ATOM      6  C   LIG    1       23.991  -0.593  10.351  0.00  0.00    -0.090 A 
ATOM      7  C   LIG    1       23.551  -0.967   8.958  0.00  0.00    +0.140 C 
ENDROOT
BRANCH   4   8
ATOM      8  N   LIG    1       23.160  -1.333  13.927  0.00  0.00    +0.030 N 
ATOM      9  O   LIG    1       22.146  -2.000  13.824  0.00  0.00    -0.150 OA
ATOM     10  O   LIG    1       23.644  -1.128  15.026  0.00  0.00    -0.150 OA
ENDBRANCH   4   8
BRANCH   1  11
ATOM     11  N   LIG    1       25.676   0.863   9.443  0.00  0.00    -0.320 N 
ATOM     12  C   LIG    1       27.028   0.310   9.283  0.00  0.00    +0.250 C 
BRANCH  11  14
ATOM     13  C   LIG    1       24.604   2.977   8.928  0.00  0.00    +0.230 C 
ATOM     14  O   LIG    1       25.715   2.322   9.543  0.00  0.00    -0.230 OA
ENDBRANCH  11  14
ENDBRANCH   1  11
TORSDOF 3
ENDMDL
MODEL 7
REMARK VINA RESULT:    -4.675     20.899     21.951
REMARK INTER + INTRA:          -5.686
REMARK INTER:                  -5.478
REMARK INTRA:                  -0.208
REMARK UNBOUND:                -0.192
REMARK  Name = ZINC000774663862
REMARK                            x       y       z     vdW  Elec       q    Type
REMARK                         _______ _______ _______ _____ _____    ______ ____
ROOT
ATOM      1  C   LIG    1       24.860   0.205  12.052  0.00  0.00    +0.320 A 
ATOM      2  N   LIG    1       25.821   1.027  11.664  0.00  0.00    -0.470 NA
ATOM      3  C   LIG    1       26.136   1.173  10.391  0.00  0.00    +0.370 A 
ATOM      4  C   LIG    1       25.467   0.468   9.411  0.00  0.00    -0.090 A 
ATOM      5  C   LIG    1       24.451  -0.405   9.776  0.00  0.00    +0.160 A 
ATOM      6  C   LIG    1       24.147  -0.541  11.118  0.00  0.00    -0.090 A 
ATOM      7  C   LIG    1       23.052  -1.477  11.563  0.00  0.00    +0.140 C 
ENDROOT
BRANCH   4   8
ATOM      8  N   LIG    1       25.829   0.640   7.987  0.00  0.00    +0.030 N 
ATOM      9  O   LIG    1       24.960   0.636   7.133  0.00  0.00    -0.150 OA
ATOM     10  O   LIG    1       26.995   0.785   7.668  0.00  0.00    -0.150 OA
ENDBRANCH   4   8
BRANCH   1  11
ATOM     11  N   LIG    1       24.562   0.082  13.404  0.00  0.00    -0.320 N 
ATOM     12  C   LIG    1       23.839   1.263  13.894  0.00  0.00    +0.250 C 
BRANCH  11  14
ATOM     13  C   LIG    1       25.567  -0.958  15.351  0.00  0.00    +0.230 C 
ATOM     14  O   LIG    1       25.774  -0.154  14.188  0.00  0.00    -0.230 OA
ENDBRANCH  11  14
ENDBRANCH   1  11
TORSDOF 3
ENDMDL
MODEL 8
REMARK VINA RESULT:    -4.569     13.910     15.604
REMARK INTER + INTRA:          -5.562
REMARK INTER:                  -5.257
REMARK INTRA:                  -0.305
REMARK UNBOUND:                -0.192
REMARK  Name = ZINC000774663862
REMARK                            x       y       z     vdW  Elec       q    Type
REMARK                         _______ _______ _______ _____ _____    ______ ____
ROOT
ATOM      1  C   LIG    1       22.082 -23.477  15.860  0.00  0.00    +0.320 A 
ATOM      2  N   LIG    1       21.535 -23.199  14.687  0.00  0.00    -0.470 NA
ATOM      3  C   LIG    1       22.265 -23.074  13.595  0.00  0.00    +0.370 A 
ATOM      4  C   LIG    1       23.636 -23.231  13.639  0.00  0.00    -0.090 A 
ATOM      5  C   LIG    1       24.249 -23.525  14.850  0.00  0.00    +0.160 A 
ATOM      6  C   LIG    1       23.457 -23.645  15.978  0.00  0.00    -0.090 A 
ATOM      7  C   LIG    1       24.077 -23.962  17.315  0.00  0.00    +0.140 C 
ENDROOT
BRANCH   4   8
ATOM      8  N   LIG    1       24.444 -23.088  12.408  0.00  0.00    +0.030 N 
ATOM      9  O   LIG    1       24.279 -22.127  11.679  0.00  0.00    -0.150 OA
ATOM     10  O   LIG    1       25.274 -23.933  12.122  0.00  0.00    -0.150 OA
ENDBRANCH   4   8
BRANCH   1  11
ATOM     11  N   LIG    1       21.274 -23.600  16.984  0.00  0.00    -0.320 N 
ATOM     12  C   LIG    1       20.406 -24.782  16.884  0.00  0.00    +0.250 C 
BRANCH  11  14
ATOM     13  C   LIG    1       21.096 -21.444  18.081  0.00  0.00    +0.230 C 
ATOM     14  O   LIG    1       20.485 -22.387  17.198  0.00  0.00    -0.230 OA
ENDBRANCH  11  14
ENDBRANCH   1  11
TORSDOF 3
ENDMDL
MODEL 9
REMARK VINA RESULT:    -4.556     16.554     17.477
REMARK INTER + INTRA:          -5.547
REMARK INTER:                  -5.238
REMARK INTRA:                  -0.309
REMARK UNBOUND:                -0.192
REMARK  Name = ZINC000774663862
REMARK                            x       y       z     vdW  Elec       q    Type
REMARK                         _______ _______ _______ _____ _____    ______ ____
ROOT
ATOM      1  C   LIG    1       22.394 -22.395  18.430  0.00  0.00    +0.320 A 
ATOM      2  N   LIG    1       21.426 -21.612  17.981  0.00  0.00    -0.470 NA
ATOM      3  C   LIG    1       20.713 -21.933  16.918  0.00  0.00    +0.370 A 
ATOM      4  C   LIG    1       20.953 -23.107  16.232  0.00  0.00    -0.090 A 
ATOM      5  C   LIG    1       21.959 -23.957  16.671  0.00  0.00    +0.160 A 
ATOM      6  C   LIG    1       22.694 -23.591  17.785  0.00  0.00    -0.090 A 
ATOM      7  C   LIG    1       23.797 -24.482  18.299  0.00  0.00    +0.140 C 
ENDROOT
BRANCH   4   8
ATOM      8  N   LIG    1       20.146 -23.456  15.042  0.00  0.00    +0.030 N 
ATOM      9  O   LIG    1       19.595 -24.540  14.976  0.00  0.00    -0.150 OA
ATOM     10  O   LIG    1       20.034 -22.659  14.127  0.00  0.00    -0.150 OA
ENDBRANCH   4   8
BRANCH   1  11
ATOM     11  N   LIG    1       23.121 -22.018  19.553  0.00  0.00    -0.320 N 
ATOM     12  C   LIG    1       22.251 -21.910  20.732  0.00  0.00    +0.250 C 
BRANCH  11  14
ATOM     13  C   LIG    1       25.151 -20.942  18.777  0.00  0.00    +0.230 C 
ATOM     14  O   LIG    1       23.840 -20.766  19.316  0.00  0.00    -0.230 OA
ENDBRANCH  11  14
ENDBRANCH   1  11
TORSDOF 3
ENDMDL
