MODEL 1
REMARK VINA RESULT:    -5.015      0.000      0.000
REMARK INTER + INTRA:          -6.501
REMARK INTER:                  -6.187
REMARK INTRA:                  -0.313
REMARK UNBOUND:                -0.313
REMARK  Name = ZINC000899894411
REMARK                            x       y       z     vdW  Elec       q    Type
REMARK                         _______ _______ _______ _____ _____    ______ ____
ROOT
ATOM      1  C   LIG    1       28.415 -19.380   1.221  0.00  0.00    +0.030 A 
ATOM      2  C   LIG    1       29.151 -18.650   2.080  0.00  0.00    +0.120 A 
ATOM      3  N   LIG    1       29.596 -17.555   1.389  0.00  0.00    -0.460 N 
ATOM      4  C   LIG    1       29.115 -17.654   0.131  0.00  0.00    +0.400 A 
ATOM      5  N   LIG    1       28.414 -18.751   0.036  0.00  0.00    -0.480 NA
ENDROOT
BRANCH   1   7
ATOM      6  C   LIG    1       26.441 -20.789   0.700  0.00  0.00    +0.030 C 
ATOM      7  C   LIG    1       27.719 -20.680   1.534  0.00  0.00    +0.010 C 
ATOM      8  C   LIG    1       28.648 -21.848   1.199  0.00  0.00    +0.030 C 
ATOM      9  C   LIG    1       27.363 -20.723   3.022  0.00  0.00    +0.030 C 
ENDBRANCH   1   7
BRANCH   3  10
ATOM     10  C   LIG    1       30.435 -16.476   1.916  0.00  0.00    +0.330 C 
BRANCH  10  11
ATOM     11  C   LIG    1       31.871 -16.981   2.077  0.00  0.00    +0.250 C 
BRANCH  11  12
ATOM     12  N   LIG    1       32.651 -16.619   0.892  0.00  0.00    -0.020 N 
ATOM     13  O   LIG    1       33.498 -17.382   0.464  0.00  0.00    -0.150 OA
ATOM     14  O   LIG    1       32.453 -15.555   0.334  0.00  0.00    -0.150 OA
ENDBRANCH  11  12
ENDBRANCH  10  11
ENDBRANCH   3  10
TORSDOF 4
ENDMDL
MODEL 2
REMARK VINA RESULT:    -4.827      1.449      2.083
REMARK INTER + INTRA:          -6.269
REMARK INTER:                  -5.934
REMARK INTRA:                  -0.335
REMARK UNBOUND:                -0.313
REMARK  Name = ZINC000899894411
REMARK                            x       y       z     vdW  Elec       q    Type
REMARK                         _______ _______ _______ _____ _____    ______ ____
ROOT
ATOM      1  C   LIG    1       28.836 -19.561   0.611  0.00  0.00    +0.030 A 
ATOM      2  C   LIG    1       30.160 -19.631   0.375  0.00  0.00    +0.120 A 
ATOM      3  N   LIG    1       30.503 -18.493  -0.304  0.00  0.00    -0.460 N 
ATOM      4  C   LIG    1       29.376 -17.766  -0.458  0.00  0.00    +0.400 A 
ATOM      5  N   LIG    1       28.382 -18.413   0.087  0.00  0.00    -0.480 NA
ENDROOT
BRANCH   1   7
ATOM      6  C   LIG    1       27.839 -20.181   2.795  0.00  0.00    +0.030 C 
ATOM      7  C   LIG    1       28.010 -20.594   1.332  0.00  0.00    +0.010 C 
ATOM      8  C   LIG    1       26.635 -20.701   0.668  0.00  0.00    +0.030 C 
ATOM      9  C   LIG    1       28.715 -21.951   1.263  0.00  0.00    +0.030 C 
ENDBRANCH   1   7
BRANCH   3  10
ATOM     10  C   LIG    1       31.843 -18.130  -0.773  0.00  0.00    +0.330 C 
BRANCH  10  11
ATOM     11  C   LIG    1       32.052 -16.624  -0.603  0.00  0.00    +0.250 C 
BRANCH  11  12
ATOM     12  N   LIG    1       32.269 -16.318   0.813  0.00  0.00    -0.020 N 
ATOM     13  O   LIG    1       31.626 -15.435   1.351  0.00  0.00    -0.150 OA
ATOM     14  O   LIG    1       33.093 -16.947   1.452  0.00  0.00    -0.150 OA
ENDBRANCH  11  12
ENDBRANCH  10  11
ENDBRANCH   3  10
TORSDOF 4
ENDMDL
MODEL 3
REMARK VINA RESULT:    -4.820      1.566      2.225
REMARK INTER + INTRA:          -6.261
REMARK INTER:                  -5.914
REMARK INTRA:                  -0.347
REMARK UNBOUND:                -0.313
REMARK  Name = ZINC000899894411
REMARK                            x       y       z     vdW  Elec       q    Type
REMARK                         _______ _______ _______ _____ _____    ______ ____
ROOT
ATOM      1  C   LIG    1       28.685 -19.492   2.402  0.00  0.00    +0.030 A 
ATOM      2  C   LIG    1       29.188 -18.523   1.613  0.00  0.00    +0.120 A 
ATOM      3  N   LIG    1       29.892 -17.675   2.425  0.00  0.00    -0.460 N 
ATOM      4  C   LIG    1       29.795 -18.157   3.683  0.00  0.00    +0.400 A 
ATOM      5  N   LIG    1       29.068 -19.240   3.663  0.00  0.00    -0.480 NA
ENDROOT
BRANCH   1   7
ATOM      6  C   LIG    1       28.705 -21.907   1.838  0.00  0.00    +0.030 C 
ATOM      7  C   LIG    1       27.837 -20.652   1.949  0.00  0.00    +0.010 C 
ATOM      8  C   LIG    1       26.719 -20.893   2.965  0.00  0.00    +0.030 C 
ATOM      9  C   LIG    1       27.223 -20.333   0.583  0.00  0.00    +0.030 C 
ENDBRANCH   1   7
BRANCH   3  10
ATOM     10  C   LIG    1       30.615 -16.472   2.007  0.00  0.00    +0.330 C 
BRANCH  10  11
ATOM     11  C   LIG    1       31.896 -16.877   1.274  0.00  0.00    +0.250 C 
BRANCH  11  12
ATOM     12  N   LIG    1       32.845 -17.451   2.230  0.00  0.00    -0.020 N 
ATOM     13  O   LIG    1       33.273 -18.579   2.061  0.00  0.00    -0.150 OA
ATOM     14  O   LIG    1       33.207 -16.801   3.194  0.00  0.00    -0.150 OA
ENDBRANCH  11  12
ENDBRANCH  10  11
ENDBRANCH   3  10
TORSDOF 4
ENDMDL
MODEL 4
REMARK VINA RESULT:    -4.760     20.632     21.721
REMARK INTER + INTRA:          -6.186
REMARK INTER:                  -5.974
REMARK INTRA:                  -0.211
REMARK UNBOUND:                -0.313
REMARK  Name = ZINC000899894411
REMARK                            x       y       z     vdW  Elec       q    Type
REMARK                         _______ _______ _______ _____ _____    ______ ____
ROOT
ATOM      1  C   LIG    1       23.708  -0.741  12.358  0.00  0.00    +0.030 A 
ATOM      2  C   LIG    1       24.804  -0.181  11.812  0.00  0.00    +0.120 A 
ATOM      3  N   LIG    1       24.775  -0.471  10.475  0.00  0.00    -0.460 N 
ATOM      4  C   LIG    1       23.659  -1.198  10.249  0.00  0.00    +0.400 A 
ATOM      5  N   LIG    1       23.029  -1.360  11.380  0.00  0.00    -0.480 NA
ENDROOT
BRANCH   1   7
ATOM      6  C   LIG    1       22.574   0.622  14.092  0.00  0.00    +0.030 C 
ATOM      7  C   LIG    1       23.316  -0.687  13.812  0.00  0.00    +0.010 C 
ATOM      8  C   LIG    1       22.403  -1.870  14.138  0.00  0.00    +0.030 C 
ATOM      9  C   LIG    1       24.573  -0.758  14.682  0.00  0.00    +0.030 C 
ENDBRANCH   1   7
BRANCH   3  10
ATOM     10  C   LIG    1       25.766  -0.067   9.475  0.00  0.00    +0.330 C 
BRANCH  10  11
ATOM     11  C   LIG    1       25.434   1.338   8.967  0.00  0.00    +0.250 C 
BRANCH  11  12
ATOM     12  N   LIG    1       25.784   1.439   7.548  0.00  0.00    -0.020 N 
ATOM     13  O   LIG    1       26.591   2.273   7.178  0.00  0.00    -0.150 OA
ATOM     14  O   LIG    1       25.269   0.689   6.739  0.00  0.00    -0.150 OA
ENDBRANCH  11  12
ENDBRANCH  10  11
ENDBRANCH   3  10
TORSDOF 4
ENDMDL
MODEL 5
REMARK VINA RESULT:    -4.558     20.925     22.073
REMARK INTER + INTRA:          -5.937
REMARK INTER:                  -5.639
REMARK INTRA:                  -0.298
REMARK UNBOUND:                -0.313
REMARK  Name = ZINC000899894411
REMARK                            x       y       z     vdW  Elec       q    Type
REMARK                         _______ _______ _______ _____ _____    ______ ____
ROOT
ATOM      1  C   LIG    1       24.429  -0.045  12.637  0.00  0.00    +0.030 A 
ATOM      2  C   LIG    1       24.787   0.009  11.340  0.00  0.00    +0.120 A 
ATOM      3  N   LIG    1       25.787   0.939  11.243  0.00  0.00    -0.460 N 
ATOM      4  C   LIG    1       26.005   1.420  12.486  0.00  0.00    +0.400 A 
ATOM      5  N   LIG    1       25.186   0.832  13.314  0.00  0.00    -0.480 NA
ENDROOT
BRANCH   1   7
ATOM      6  C   LIG    1       24.003  -1.956  14.159  0.00  0.00    +0.030 C 
ATOM      7  C   LIG    1       23.359  -0.930  13.224  0.00  0.00    +0.010 C 
ATOM      8  C   LIG    1       22.365  -0.075  14.012  0.00  0.00    +0.030 C 
ATOM      9  C   LIG    1       22.624  -1.658  12.097  0.00  0.00    +0.030 C 
ENDBRANCH   1   7
BRANCH   3  10
ATOM     10  C   LIG    1       26.490   1.336  10.021  0.00  0.00    +0.330 C 
BRANCH  10  11
ATOM     11  C   LIG    1       26.107   0.388   8.882  0.00  0.00    +0.250 C 
BRANCH  11  12
ATOM     12  N   LIG    1       25.450   1.147   7.816  0.00  0.00    -0.020 N 
ATOM     13  O   LIG    1       25.079   2.289   8.021  0.00  0.00    -0.150 OA
ATOM     14  O   LIG    1       25.274   0.637   6.725  0.00  0.00    -0.150 OA
ENDBRANCH  11  12
ENDBRANCH  10  11
ENDBRANCH   3  10
TORSDOF 4
ENDMDL
MODEL 6
REMARK VINA RESULT:    -4.457      1.749      2.415
REMARK INTER + INTRA:          -5.813
REMARK INTER:                  -5.439
REMARK INTRA:                  -0.374
REMARK UNBOUND:                -0.313
REMARK  Name = ZINC000899894411
REMARK                            x       y       z     vdW  Elec       q    Type
REMARK                         _______ _______ _______ _____ _____    ______ ____
ROOT
ATOM      1  C   LIG    1       29.088 -19.860   2.463  0.00  0.00    +0.030 A 
ATOM      2  C   LIG    1       30.376 -19.723   2.094  0.00  0.00    +0.120 A 
ATOM      3  N   LIG    1       30.961 -18.881   3.000  0.00  0.00    -0.460 N 
ATOM      4  C   LIG    1       30.010 -18.533   3.893  0.00  0.00    +0.400 A 
ATOM      5  N   LIG    1       28.891 -19.117   3.563  0.00  0.00    -0.480 NA
ENDROOT
BRANCH   1   7
ATOM      6  C   LIG    1       28.680 -22.010   1.297  0.00  0.00    +0.030 C 
ATOM      7  C   LIG    1       28.049 -20.695   1.760  0.00  0.00    +0.010 C 
ATOM      8  C   LIG    1       26.898 -20.993   2.722  0.00  0.00    +0.030 C 
ATOM      9  C   LIG    1       27.514 -19.930   0.547  0.00  0.00    +0.030 C 
ENDBRANCH   1   7
BRANCH   3  10
ATOM     10  C   LIG    1       32.358 -18.442   3.002  0.00  0.00    +0.330 C 
BRANCH  10  11
ATOM     11  C   LIG    1       32.412 -16.913   3.039  0.00  0.00    +0.250 C 
BRANCH  11  12
ATOM     12  N   LIG    1       32.060 -16.381   1.720  0.00  0.00    -0.020 N 
ATOM     13  O   LIG    1       30.983 -15.840   1.549  0.00  0.00    -0.150 OA
ATOM     14  O   LIG    1       32.845 -16.480   0.794  0.00  0.00    -0.150 OA
ENDBRANCH  11  12
ENDBRANCH  10  11
ENDBRANCH   3  10
TORSDOF 4
ENDMDL
MODEL 7
REMARK VINA RESULT:    -4.286     13.202     14.777
REMARK INTER + INTRA:          -5.602
REMARK INTER:                  -5.410
REMARK INTRA:                  -0.192
REMARK UNBOUND:                -0.313
REMARK  Name = ZINC000899894411
REMARK                            x       y       z     vdW  Elec       q    Type
REMARK                         _______ _______ _______ _____ _____    ______ ____
ROOT
ATOM      1  C   LIG    1       25.469 -23.468  11.765  0.00  0.00    +0.030 A 
ATOM      2  C   LIG    1       24.861 -24.080  12.799  0.00  0.00    +0.120 A 
ATOM      3  N   LIG    1       23.796 -23.297  13.154  0.00  0.00    -0.460 N 
ATOM      4  C   LIG    1       23.789 -22.233  12.322  0.00  0.00    +0.400 A 
ATOM      5  N   LIG    1       24.796 -22.339  11.498  0.00  0.00    -0.480 NA
ENDROOT
BRANCH   1   7
ATOM      6  C   LIG    1       26.268 -24.753   9.801  0.00  0.00    +0.030 C 
ATOM      7  C   LIG    1       26.694 -23.962  11.039  0.00  0.00    +0.010 C 
ATOM      8  C   LIG    1       27.549 -22.767  10.613  0.00  0.00    +0.030 C 
ATOM      9  C   LIG    1       27.507 -24.866  11.968  0.00  0.00    +0.030 C 
ENDBRANCH   1   7
BRANCH   3  10
ATOM     10  C   LIG    1       22.841 -23.564  14.232  0.00  0.00    +0.330 C 
BRANCH  10  11
ATOM     11  C   LIG    1       21.471 -22.999  13.850  0.00  0.00    +0.250 C 
BRANCH  11  12
ATOM     12  N   LIG    1       20.503 -23.314  14.903  0.00  0.00    -0.020 N 
ATOM     13  O   LIG    1       19.772 -24.281  14.788  0.00  0.00    -0.150 OA
ATOM     14  O   LIG    1       20.429 -22.609  15.893  0.00  0.00    -0.150 OA
ENDBRANCH  11  12
ENDBRANCH  10  11
ENDBRANCH   3  10
TORSDOF 4
ENDMDL
MODEL 8
REMARK VINA RESULT:    -4.209      4.178      5.791
REMARK INTER + INTRA:          -5.506
REMARK INTER:                  -5.222
REMARK INTRA:                  -0.284
REMARK UNBOUND:                -0.313
REMARK  Name = ZINC000899894411
REMARK                            x       y       z     vdW  Elec       q    Type
REMARK                         _______ _______ _______ _____ _____    ______ ____
ROOT
ATOM      1  C   LIG    1       31.180 -20.169   3.661  0.00  0.00    +0.030 A 
ATOM      2  C   LIG    1       30.513 -20.425   2.519  0.00  0.00    +0.120 A 
ATOM      3  N   LIG    1       30.765 -21.731   2.197  0.00  0.00    -0.460 N 
ATOM      4  C   LIG    1       31.577 -22.228   3.154  0.00  0.00    +0.400 A 
ATOM      5  N   LIG    1       31.826 -21.288   4.023  0.00  0.00    -0.480 NA
ENDROOT
BRANCH   1   7
ATOM      6  C   LIG    1       31.902 -19.038   5.746  0.00  0.00    +0.030 C 
ATOM      7  C   LIG    1       31.203 -18.855   4.398  0.00  0.00    +0.010 C 
ATOM      8  C   LIG    1       31.961 -17.818   3.567  0.00  0.00    +0.030 C 
ATOM      9  C   LIG    1       29.769 -18.373   4.628  0.00  0.00    +0.030 C 
ENDBRANCH   1   7
BRANCH   3  10
ATOM     10  C   LIG    1       30.248 -22.454   1.032  0.00  0.00    +0.330 C 
BRANCH  10  11
ATOM     11  C   LIG    1       29.581 -21.465   0.073  0.00  0.00    +0.250 C 
BRANCH  11  12
ATOM     12  N   LIG    1       28.130 -21.665   0.099  0.00  0.00    -0.020 N 
ATOM     13  O   LIG    1       27.550 -21.781   1.164  0.00  0.00    -0.150 OA
ATOM     14  O   LIG    1       27.503 -21.714  -0.944  0.00  0.00    -0.150 OA
ENDBRANCH  11  12
ENDBRANCH  10  11
ENDBRANCH   3  10
TORSDOF 4
ENDMDL
MODEL 9
REMARK VINA RESULT:    -4.109      4.555      5.706
REMARK INTER + INTRA:          -5.383
REMARK INTER:                  -4.997
REMARK INTRA:                  -0.386
REMARK UNBOUND:                -0.313
REMARK  Name = ZINC000899894411
REMARK                            x       y       z     vdW  Elec       q    Type
REMARK                         _______ _______ _______ _____ _____    ______ ____
ROOT
ATOM      1  C   LIG    1       29.017 -21.490   1.746  0.00  0.00    +0.030 A 
ATOM      2  C   LIG    1       30.306 -21.506   2.136  0.00  0.00    +0.120 A 
ATOM      3  N   LIG    1       30.808 -22.733   1.795  0.00  0.00    -0.460 N 
ATOM      4  C   LIG    1       29.808 -23.424   1.207  0.00  0.00    +0.400 A 
ATOM      5  N   LIG    1       28.739 -22.677   1.186  0.00  0.00    -0.480 NA
ENDROOT
BRANCH   1   7
ATOM      6  C   LIG    1       27.858 -19.640   0.570  0.00  0.00    +0.030 C 
ATOM      7  C   LIG    1       28.055 -20.342   1.915  0.00  0.00    +0.010 C 
ATOM      8  C   LIG    1       26.711 -20.874   2.415  0.00  0.00    +0.030 C 
ATOM      9  C   LIG    1       28.620 -19.348   2.932  0.00  0.00    +0.030 C 
ENDBRANCH   1   7
BRANCH   3  10
ATOM     10  C   LIG    1       32.176 -23.207   2.024  0.00  0.00    +0.330 C 
BRANCH  10  11
ATOM     11  C   LIG    1       32.133 -24.567   2.722  0.00  0.00    +0.250 C 
BRANCH  11  12
ATOM     12  N   LIG    1       31.685 -24.391   4.106  0.00  0.00    -0.020 N 
ATOM     13  O   LIG    1       32.262 -23.606   4.837  0.00  0.00    -0.150 OA
ATOM     14  O   LIG    1       30.736 -25.029   4.525  0.00  0.00    -0.150 OA
ENDBRANCH  11  12
ENDBRANCH  10  11
ENDBRANCH   3  10
TORSDOF 4
ENDMDL
