MODEL 1
REMARK VINA RESULT:    -4.932      0.000      0.000
REMARK INTER + INTRA:          -5.555
REMARK INTER:                  -5.508
REMARK INTRA:                  -0.047
REMARK UNBOUND:                -0.047
REMARK  Name = ZINC000084238995
REMARK                            x       y       z     vdW  Elec       q    Type
REMARK                         _______ _______ _______ _____ _____    ______ ____
ROOT
ATOM      1  C   LIG    1       29.166 -18.838   2.852  0.00  0.00    +0.080 A 
ATOM      2  C   LIG    1       29.151 -18.327   1.614  0.00  0.00    -0.040 A 
ATOM      3  C   LIG    1       28.361 -19.021   0.710  0.00  0.00    +0.190 A 
ATOM      4  C   LIG    1       27.740 -20.088   1.210  0.00  0.00    -0.200 A 
ATOM      5  S   LIG    1       28.149 -20.270   2.910  0.00  0.00    +0.210 S 
ENDROOT
BRANCH   4   6
ATOM      6  N   LIG    1       26.844 -20.988   0.447  0.00  0.00    +0.070 N 
ATOM      7  O   LIG    1       25.712 -21.199   0.843  0.00  0.00    -0.160 OA
ATOM      8  O   LIG    1       27.240 -21.516  -0.577  0.00  0.00    -0.150 OA
ENDBRANCH   4   6
BRANCH   1  10
ATOM      9  C   LIG    1       29.400 -18.658   5.211  0.00  0.00    +0.270 C 
ATOM     10  O   LIG    1       29.866 -18.330   3.901  0.00  0.00    -0.260 OA
ENDBRANCH   1  10
TORSDOF 2
ENDMDL
MODEL 2
REMARK VINA RESULT:    -4.914      1.290      2.111
REMARK INTER + INTRA:          -5.535
REMARK INTER:                  -5.488
REMARK INTRA:                  -0.047
REMARK UNBOUND:                -0.047
REMARK  Name = ZINC000084238995
REMARK                            x       y       z     vdW  Elec       q    Type
REMARK                         _______ _______ _______ _____ _____    ______ ____
ROOT
ATOM      1  C   LIG    1       29.239 -18.565   2.447  0.00  0.00    +0.080 A 
ATOM      2  C   LIG    1       28.644 -19.414   3.293  0.00  0.00    -0.040 A 
ATOM      3  C   LIG    1       27.766 -20.307   2.697  0.00  0.00    +0.190 A 
ATOM      4  C   LIG    1       27.648 -20.182   1.376  0.00  0.00    -0.200 A 
ATOM      5  S   LIG    1       28.680 -18.876   0.809  0.00  0.00    +0.210 S 
ENDROOT
BRANCH   4   6
ATOM      6  N   LIG    1       26.776 -21.015   0.516  0.00  0.00    +0.070 N 
ATOM      7  O   LIG    1       27.213 -21.486  -0.518  0.00  0.00    -0.160 OA
ATOM      8  O   LIG    1       25.623 -21.228   0.843  0.00  0.00    -0.150 OA
ENDBRANCH   4   6
BRANCH   1  10
ATOM      9  C   LIG    1       30.399 -16.580   1.841  0.00  0.00    +0.270 C 
ATOM     10  O   LIG    1       30.135 -17.605   2.800  0.00  0.00    -0.260 OA
ENDBRANCH   1  10
TORSDOF 2
ENDMDL
MODEL 3
REMARK VINA RESULT:    -4.342      3.172      5.085
REMARK INTER + INTRA:          -4.897
REMARK INTER:                  -4.851
REMARK INTRA:                  -0.046
REMARK UNBOUND:                -0.047
REMARK  Name = ZINC000084238995
REMARK                            x       y       z     vdW  Elec       q    Type
REMARK                         _______ _______ _______ _____ _____    ______ ____
ROOT
ATOM      1  C   LIG    1       28.681 -19.083   2.107  0.00  0.00    +0.080 A 
ATOM      2  C   LIG    1       29.148 -18.841   3.338  0.00  0.00    -0.040 A 
ATOM      3  C   LIG    1       30.205 -17.946   3.392  0.00  0.00    +0.190 A 
ATOM      4  C   LIG    1       30.594 -17.464   2.213  0.00  0.00    -0.200 A 
ATOM      5  S   LIG    1       29.605 -18.154   0.934  0.00  0.00    +0.210 S 
ENDROOT
BRANCH   4   6
ATOM      6  N   LIG    1       31.698 -16.497   2.010  0.00  0.00    +0.070 N 
ATOM      7  O   LIG    1       31.462 -15.392   1.556  0.00  0.00    -0.160 OA
ATOM      8  O   LIG    1       32.840 -16.807   2.297  0.00  0.00    -0.150 OA
ENDBRANCH   4   6
BRANCH   1  10
ATOM      9  C   LIG    1       27.422 -20.198   0.426  0.00  0.00    +0.270 C 
ATOM     10  O   LIG    1       27.654 -19.922   1.809  0.00  0.00    -0.260 OA
ENDBRANCH   1  10
TORSDOF 2
ENDMDL
MODEL 4
REMARK VINA RESULT:    -4.175      3.276      5.063
REMARK INTER + INTRA:          -4.710
REMARK INTER:                  -4.647
REMARK INTRA:                  -0.062
REMARK UNBOUND:                -0.047
REMARK  Name = ZINC000084238995
REMARK                            x       y       z     vdW  Elec       q    Type
REMARK                         _______ _______ _______ _____ _____    ______ ____
ROOT
ATOM      1  C   LIG    1       28.717 -18.860   1.301  0.00  0.00    +0.080 A 
ATOM      2  C   LIG    1       28.875 -18.226   0.132  0.00  0.00    -0.040 A 
ATOM      3  C   LIG    1       29.945 -17.346   0.090  0.00  0.00    +0.190 A 
ATOM      4  C   LIG    1       30.651 -17.265   1.216  0.00  0.00    -0.200 A 
ATOM      5  S   LIG    1       29.961 -18.336   2.427  0.00  0.00    +0.210 S 
ENDROOT
BRANCH   4   6
ATOM      6  N   LIG    1       31.836 -16.399   1.420  0.00  0.00    +0.070 N 
ATOM      7  O   LIG    1       32.687 -16.713   2.231  0.00  0.00    -0.160 OA
ATOM      8  O   LIG    1       31.958 -15.373   0.775  0.00  0.00    -0.150 OA
ENDBRANCH   4   6
BRANCH   1  10
ATOM      9  C   LIG    1       27.246 -20.537   0.479  0.00  0.00    +0.270 C 
ATOM     10  O   LIG    1       27.741 -19.765   1.575  0.00  0.00    -0.260 OA
ENDBRANCH   1  10
TORSDOF 2
ENDMDL
MODEL 5
REMARK VINA RESULT:    -4.038     21.667     22.218
REMARK INTER + INTRA:          -4.557
REMARK INTER:                  -4.507
REMARK INTRA:                  -0.050
REMARK UNBOUND:                -0.047
REMARK  Name = ZINC000084238995
REMARK                            x       y       z     vdW  Elec       q    Type
REMARK                         _______ _______ _______ _____ _____    ______ ____
ROOT
ATOM      1  C   LIG    1       24.342  -0.267  10.523  0.00  0.00    +0.080 A 
ATOM      2  C   LIG    1       23.412  -1.230  10.490  0.00  0.00    -0.040 A 
ATOM      3  C   LIG    1       22.968  -1.651  11.734  0.00  0.00    +0.190 A 
ATOM      4  C   LIG    1       23.534  -1.035  12.770  0.00  0.00    -0.200 A 
ATOM      5  S   LIG    1       24.702   0.147  12.193  0.00  0.00    +0.210 S 
ENDROOT
BRANCH   4   6
ATOM      6  N   LIG    1       23.229  -1.307  14.195  0.00  0.00    +0.070 N 
ATOM      7  O   LIG    1       22.375  -2.124  14.488  0.00  0.00    -0.160 OA
ATOM      8  O   LIG    1       23.832  -0.714  15.070  0.00  0.00    -0.150 OA
ENDBRANCH   4   6
BRANCH   1  10
ATOM      9  C   LIG    1       26.344   0.199   9.328  0.00  0.00    +0.270 C 
ATOM     10  O   LIG    1       24.922   0.300   9.432  0.00  0.00    -0.260 OA
ENDBRANCH   1  10
TORSDOF 2
ENDMDL
MODEL 6
REMARK VINA RESULT:    -4.003     23.941     24.210
REMARK INTER + INTRA:          -4.517
REMARK INTER:                  -4.469
REMARK INTRA:                  -0.049
REMARK UNBOUND:                -0.047
REMARK  Name = ZINC000084238995
REMARK                            x       y       z     vdW  Elec       q    Type
REMARK                         _______ _______ _______ _____ _____    ______ ____
ROOT
ATOM      1  C   LIG    1       15.641 -12.724  21.097  0.00  0.00    +0.080 A 
ATOM      2  C   LIG    1       16.682 -11.889  20.986  0.00  0.00    -0.040 A 
ATOM      3  C   LIG    1       16.419 -10.728  20.275  0.00  0.00    +0.190 A 
ATOM      4  C   LIG    1       15.175 -10.621  19.812  0.00  0.00    -0.200 A 
ATOM      5  S   LIG    1       14.248 -12.044  20.268  0.00  0.00    +0.210 S 
ENDROOT
BRANCH   4   6
ATOM      6  N   LIG    1       14.653  -9.479  19.026  0.00  0.00    +0.070 N 
ATOM      7  O   LIG    1       13.633  -9.605  18.374  0.00  0.00    -0.160 OA
ATOM      8  O   LIG    1       15.244  -8.415  19.033  0.00  0.00    -0.150 OA
ENDBRANCH   4   6
BRANCH   1  10
ATOM      9  C   LIG    1       14.410 -14.419  22.222  0.00  0.00    +0.270 C 
ATOM     10  O   LIG    1       15.661 -13.918  21.747  0.00  0.00    -0.260 OA
ENDBRANCH   1  10
TORSDOF 2
ENDMDL
MODEL 7
REMARK VINA RESULT:    -3.956     15.298     16.198
REMARK INTER + INTRA:          -4.465
REMARK INTER:                  -4.416
REMARK INTRA:                  -0.049
REMARK UNBOUND:                -0.047
REMARK  Name = ZINC000084238995
REMARK                            x       y       z     vdW  Elec       q    Type
REMARK                         _______ _______ _______ _____ _____    ______ ____
ROOT
ATOM      1  C   LIG    1       22.542 -21.455  17.974  0.00  0.00    +0.080 A 
ATOM      2  C   LIG    1       21.211 -21.588  17.943  0.00  0.00    -0.040 A 
ATOM      3  C   LIG    1       20.720 -22.249  16.828  0.00  0.00    +0.190 A 
ATOM      4  C   LIG    1       21.647 -22.649  15.959  0.00  0.00    -0.200 A 
ATOM      5  S   LIG    1       23.241 -22.183  16.535  0.00  0.00    +0.210 S 
ENDROOT
BRANCH   4   6
ATOM      6  N   LIG    1       21.375 -23.373  14.695  0.00  0.00    +0.070 N 
ATOM      7  O   LIG    1       22.299 -23.745  13.995  0.00  0.00    -0.160 OA
ATOM      8  O   LIG    1       20.226 -23.596  14.356  0.00  0.00    -0.150 OA
ENDBRANCH   4   6
BRANCH   1  10
ATOM      9  C   LIG    1       24.661 -21.042  18.972  0.00  0.00    +0.270 C 
ATOM     10  O   LIG    1       23.246 -20.844  18.964  0.00  0.00    -0.260 OA
ENDBRANCH   1  10
TORSDOF 2
ENDMDL
MODEL 8
REMARK VINA RESULT:    -3.917     16.119     17.311
REMARK INTER + INTRA:          -4.422
REMARK INTER:                  -4.359
REMARK INTRA:                  -0.063
REMARK UNBOUND:                -0.047
REMARK  Name = ZINC000084238995
REMARK                            x       y       z     vdW  Elec       q    Type
REMARK                         _______ _______ _______ _____ _____    ______ ____
ROOT
ATOM      1  C   LIG    1       20.846 -23.825  18.525  0.00  0.00    +0.080 A 
ATOM      2  C   LIG    1       20.732 -22.520  18.251  0.00  0.00    -0.040 A 
ATOM      3  C   LIG    1       20.758 -22.206  16.901  0.00  0.00    +0.190 A 
ATOM      4  C   LIG    1       20.893 -23.250  16.084  0.00  0.00    -0.200 A 
ATOM      5  S   LIG    1       21.003 -24.730  17.026  0.00  0.00    +0.210 S 
ENDROOT
BRANCH   4   6
ATOM      6  N   LIG    1       20.947 -23.174  14.605  0.00  0.00    +0.070 N 
ATOM      7  O   LIG    1       21.874 -23.683  14.003  0.00  0.00    -0.160 OA
ATOM      8  O   LIG    1       20.063 -22.602  13.993  0.00  0.00    -0.150 OA
ENDBRANCH   4   6
BRANCH   1  10
ATOM      9  C   LIG    1       20.669 -23.469  20.869  0.00  0.00    +0.270 C 
ATOM     10  O   LIG    1       20.847 -24.367  19.772  0.00  0.00    -0.260 OA
ENDBRANCH   1  10
TORSDOF 2
ENDMDL
MODEL 9
REMARK VINA RESULT:    -3.913     21.300     21.727
REMARK INTER + INTRA:          -4.417
REMARK INTER:                  -4.357
REMARK INTRA:                  -0.060
REMARK UNBOUND:                -0.047
REMARK  Name = ZINC000084238995
REMARK                            x       y       z     vdW  Elec       q    Type
REMARK                         _______ _______ _______ _____ _____    ______ ____
ROOT
ATOM      1  C   LIG    1       24.153  -0.392  11.737  0.00  0.00    +0.080 A 
ATOM      2  C   LIG    1       23.563  -1.114  10.776  0.00  0.00    -0.040 A 
ATOM      3  C   LIG    1       24.012  -0.848   9.492  0.00  0.00    +0.190 A 
ATOM      4  C   LIG    1       24.960   0.085   9.410  0.00  0.00    -0.200 A 
ATOM      5  S   LIG    1       25.334   0.693  11.017  0.00  0.00    +0.210 S 
ENDROOT
BRANCH   4   6
ATOM      6  N   LIG    1       25.598   0.543   8.154  0.00  0.00    +0.070 N 
ATOM      7  O   LIG    1       24.936   0.648   7.138  0.00  0.00    -0.160 OA
ATOM      8  O   LIG    1       26.785   0.815   8.139  0.00  0.00    -0.150 OA
ENDBRANCH   4   6
BRANCH   1  10
ATOM      9  C   LIG    1       23.658  -1.788  13.596  0.00  0.00    +0.270 C 
ATOM     10  O   LIG    1       23.876  -0.480  13.065  0.00  0.00    -0.260 OA
ENDBRANCH   1  10
TORSDOF 2
ENDMDL
