MODEL 1
REMARK VINA RESULT:    -5.133      0.000      0.000
REMARK INTER + INTRA:          -6.286
REMARK INTER:                  -6.033
REMARK INTRA:                  -0.253
REMARK UNBOUND:                -0.253
REMARK  Name = ZINC000774664538
REMARK                            x       y       z     vdW  Elec       q    Type
REMARK                         _______ _______ _______ _____ _____    ______ ____
ROOT
ATOM      1  C   LIG    1       29.618 -18.320   2.138  0.00  0.00    +0.350 A 
ATOM      2  N   LIG    1       29.176 -18.240   0.893  0.00  0.00    -0.480 NA
ATOM      3  C   LIG    1       28.207 -19.021   0.451  0.00  0.00    +0.350 A 
ATOM      4  C   LIG    1       27.617 -19.954   1.280  0.00  0.00    -0.140 A 
ATOM      5  C   LIG    1       28.052 -20.070   2.594  0.00  0.00    +0.170 A 
ATOM      6  C   LIG    1       26.512 -20.839   0.762  0.00  0.00    +0.140 C 
ATOM      7  C   LIG    1       29.072 -19.242   3.026  0.00  0.00    -0.090 A 
ENDROOT
BRANCH   7   8
ATOM      8  N   LIG    1       29.526 -19.321   4.300  0.00  0.00    +0.070 N 
ATOM      9  O   LIG    1       30.391 -20.129   4.590  0.00  0.00    -0.120 OA
ATOM     10  O   LIG    1       29.068 -18.586   5.158  0.00  0.00    -0.200 OA
ENDBRANCH   7   8
BRANCH   1  11
ATOM     11  N   LIG    1       30.640 -17.479   2.561  0.00  0.00    -0.310 N 
ATOM     12  C   LIG    1       30.487 -16.135   1.990  0.00  0.00    +0.270 C 
BRANCH  11  14
ATOM     13  C   LIG    1       33.016 -17.542   3.046  0.00  0.00    +0.240 C 
ATOM     14  O   LIG    1       31.951 -18.041   2.235  0.00  0.00    -0.230 OA
ENDBRANCH  11  14
ENDBRANCH   1  11
TORSDOF 3
ENDMDL
MODEL 2
REMARK VINA RESULT:    -4.898      1.659      3.100
REMARK INTER + INTRA:          -6.010
REMARK INTER:                  -5.700
REMARK INTRA:                  -0.310
REMARK UNBOUND:                -0.253
REMARK  Name = ZINC000774664538
REMARK                            x       y       z     vdW  Elec       q    Type
REMARK                         _______ _______ _______ _____ _____    ______ ____
ROOT
ATOM      1  C   LIG    1       29.717 -20.019   3.113  0.00  0.00    +0.350 A 
ATOM      2  N   LIG    1       28.944 -21.067   3.351  0.00  0.00    -0.480 NA
ATOM      3  C   LIG    1       27.881 -21.324   2.611  0.00  0.00    +0.350 A 
ATOM      4  C   LIG    1       27.537 -20.503   1.556  0.00  0.00    -0.140 A 
ATOM      5  C   LIG    1       28.323 -19.393   1.274  0.00  0.00    +0.170 A 
ATOM      6  C   LIG    1       26.321 -20.809   0.720  0.00  0.00    +0.140 C 
ATOM      7  C   LIG    1       29.427 -19.147   2.069  0.00  0.00    -0.090 A 
ENDROOT
BRANCH   7   8
ATOM      8  N   LIG    1       30.220 -18.075   1.828  0.00  0.00    +0.070 N 
ATOM      9  O   LIG    1       31.128 -18.159   1.019  0.00  0.00    -0.120 OA
ATOM     10  O   LIG    1       30.028 -17.028   2.421  0.00  0.00    -0.200 OA
ENDBRANCH   7   8
BRANCH   1  11
ATOM     11  N   LIG    1       30.826 -19.786   3.917  0.00  0.00    -0.310 N 
ATOM     12  C   LIG    1       31.850 -20.820   3.715  0.00  0.00    +0.270 C 
BRANCH  11  14
ATOM     13  C   LIG    1       29.806 -18.465   5.677  0.00  0.00    +0.240 C 
ATOM     14  O   LIG    1       30.443 -19.695   5.326  0.00  0.00    -0.230 OA
ENDBRANCH  11  14
ENDBRANCH   1  11
TORSDOF 3
ENDMDL
MODEL 3
REMARK VINA RESULT:    -4.852      2.687      3.894
REMARK INTER + INTRA:          -5.956
REMARK INTER:                  -5.706
REMARK INTRA:                  -0.250
REMARK UNBOUND:                -0.253
REMARK  Name = ZINC000774664538
REMARK                            x       y       z     vdW  Elec       q    Type
REMARK                         _______ _______ _______ _____ _____    ______ ____
ROOT
ATOM      1  C   LIG    1       29.771 -19.250   1.344  0.00  0.00    +0.350 A 
ATOM      2  N   LIG    1       30.564 -18.502   2.096  0.00  0.00    -0.480 NA
ATOM      3  C   LIG    1       30.366 -18.372   3.394  0.00  0.00    +0.350 A 
ATOM      4  C   LIG    1       29.317 -19.017   4.018  0.00  0.00    -0.140 A 
ATOM      5  C   LIG    1       28.461 -19.810   3.265  0.00  0.00    +0.170 A 
ATOM      6  C   LIG    1       29.103 -18.859   5.502  0.00  0.00    +0.140 C 
ATOM      7  C   LIG    1       28.691 -19.923   1.907  0.00  0.00    -0.090 A 
ENDROOT
BRANCH   7   8
ATOM      8  N   LIG    1       27.881 -20.688   1.135  0.00  0.00    +0.070 N 
ATOM      9  O   LIG    1       26.955 -20.176   0.530  0.00  0.00    -0.120 OA
ATOM     10  O   LIG    1       28.077 -21.887   1.047  0.00  0.00    -0.200 OA
ENDBRANCH   7   8
BRANCH   1  11
ATOM     11  N   LIG    1       30.016 -19.358  -0.019  0.00  0.00    -0.310 N 
ATOM     12  C   LIG    1       31.223 -20.154  -0.276  0.00  0.00    +0.270 C 
BRANCH  11  14
ATOM     13  C   LIG    1       28.884 -17.315  -0.672  0.00  0.00    +0.240 C 
ATOM     14  O   LIG    1       30.116 -18.038  -0.641  0.00  0.00    -0.230 OA
ENDBRANCH  11  14
ENDBRANCH   1  11
TORSDOF 3
ENDMDL
MODEL 4
REMARK VINA RESULT:    -4.850     15.079     16.752
REMARK INTER + INTRA:          -5.954
REMARK INTER:                  -5.738
REMARK INTRA:                  -0.215
REMARK UNBOUND:                -0.253
REMARK  Name = ZINC000774664538
REMARK                            x       y       z     vdW  Elec       q    Type
REMARK                         _______ _______ _______ _____ _____    ______ ____
ROOT
ATOM      1  C   LIG    1       21.839 -22.941  16.526  0.00  0.00    +0.350 A 
ATOM      2  N   LIG    1       23.067 -22.867  17.014  0.00  0.00    -0.480 NA
ATOM      3  C   LIG    1       24.122 -23.178  16.284  0.00  0.00    +0.350 A 
ATOM      4  C   LIG    1       23.980 -23.592  14.975  0.00  0.00    -0.140 A 
ATOM      5  C   LIG    1       22.708 -23.683  14.425  0.00  0.00    +0.170 A 
ATOM      6  C   LIG    1       25.193 -23.943  14.153  0.00  0.00    +0.140 C 
ATOM      7  C   LIG    1       21.622 -23.356  15.216  0.00  0.00    -0.090 A 
ENDROOT
BRANCH   7   8
ATOM      8  N   LIG    1       20.364 -23.430  14.718  0.00  0.00    +0.070 N 
ATOM      9  O   LIG    1       19.674 -24.408  14.949  0.00  0.00    -0.120 OA
ATOM     10  O   LIG    1       19.922 -22.521  14.038  0.00  0.00    -0.200 OA
ENDBRANCH   7   8
BRANCH   1  11
ATOM     11  N   LIG    1       20.757 -22.605  17.330  0.00  0.00    -0.310 N 
ATOM     12  C   LIG    1       21.035 -21.390  18.107  0.00  0.00    +0.270 C 
BRANCH  11  14
ATOM     13  C   LIG    1       20.646 -23.472  19.592  0.00  0.00    +0.240 C 
ATOM     14  O   LIG    1       20.391 -23.717  18.208  0.00  0.00    -0.230 OA
ENDBRANCH  11  14
ENDBRANCH   1  11
TORSDOF 3
ENDMDL
MODEL 5
REMARK VINA RESULT:    -4.696     20.753     22.007
REMARK INTER + INTRA:          -5.773
REMARK INTER:                  -5.548
REMARK INTRA:                  -0.225
REMARK UNBOUND:                -0.253
REMARK  Name = ZINC000774664538
REMARK                            x       y       z     vdW  Elec       q    Type
REMARK                         _______ _______ _______ _____ _____    ______ ____
ROOT
ATOM      1  C   LIG    1       24.637   0.004  13.301  0.00  0.00    +0.350 A 
ATOM      2  N   LIG    1       25.358   0.426  12.274  0.00  0.00    -0.480 NA
ATOM      3  C   LIG    1       25.041   0.112  11.031  0.00  0.00    +0.350 A 
ATOM      4  C   LIG    1       23.940  -0.674  10.759  0.00  0.00    -0.140 A 
ATOM      5  C   LIG    1       23.158  -1.138  11.809  0.00  0.00    +0.170 A 
ATOM      6  C   LIG    1       23.591  -1.026   9.335  0.00  0.00    +0.140 C 
ATOM      7  C   LIG    1       23.517  -0.796  13.099  0.00  0.00    -0.090 A 
ENDROOT
BRANCH   7   8
ATOM      8  N   LIG    1       22.782  -1.227  14.153  0.00  0.00    +0.070 N 
ATOM      9  O   LIG    1       22.885  -2.378  14.538  0.00  0.00    -0.120 OA
ATOM     10  O   LIG    1       22.016  -0.463  14.715  0.00  0.00    -0.200 OA
ENDBRANCH   7   8
BRANCH   1  11
ATOM     11  N   LIG    1       25.006   0.359  14.593  0.00  0.00    -0.310 N 
ATOM     12  C   LIG    1       25.221   1.808  14.701  0.00  0.00    +0.270 C 
BRANCH  11  14
ATOM     13  C   LIG    1       26.098  -0.923  16.338  0.00  0.00    +0.240 C 
ATOM     14  O   LIG    1       26.195  -0.380  15.020  0.00  0.00    -0.230 OA
ENDBRANCH  11  14
ENDBRANCH   1  11
TORSDOF 3
ENDMDL
MODEL 6
REMARK VINA RESULT:    -4.655     11.542     13.021
REMARK INTER + INTRA:          -5.725
REMARK INTER:                  -5.409
REMARK INTRA:                  -0.316
REMARK UNBOUND:                -0.253
REMARK  Name = ZINC000774664538
REMARK                            x       y       z     vdW  Elec       q    Type
REMARK                         _______ _______ _______ _____ _____    ______ ____
ROOT
ATOM      1  C   LIG    1       26.312  -6.543  -0.877  0.00  0.00    +0.350 A 
ATOM      2  N   LIG    1       25.467  -5.554  -1.122  0.00  0.00    -0.480 NA
ATOM      3  C   LIG    1       24.578  -5.166  -0.227  0.00  0.00    +0.350 A 
ATOM      4  C   LIG    1       24.497  -5.783   1.004  0.00  0.00    -0.140 A 
ATOM      5  C   LIG    1       25.366  -6.827   1.301  0.00  0.00    +0.170 A 
ATOM      6  C   LIG    1       23.477  -5.331   2.017  0.00  0.00    +0.140 C 
ATOM      7  C   LIG    1       26.283  -7.213   0.341  0.00  0.00    -0.090 A 
ENDROOT
BRANCH   7   8
ATOM      8  N   LIG    1       27.149  -8.226   0.589  0.00  0.00    +0.070 N 
ATOM      9  O   LIG    1       28.194  -8.004   1.175  0.00  0.00    -0.120 OA
ATOM     10  O   LIG    1       26.884  -9.358   0.226  0.00  0.00    -0.200 OA
ENDBRANCH   7   8
BRANCH   1  11
ATOM     11  N   LIG    1       27.232  -6.919  -1.848  0.00  0.00    -0.310 N 
ATOM     12  C   LIG    1       28.213  -5.852  -2.086  0.00  0.00    +0.270 C 
BRANCH  11  14
ATOM     13  C   LIG    1       26.419  -8.709  -3.269  0.00  0.00    +0.240 C 
ATOM     14  O   LIG    1       26.559  -7.298  -3.091  0.00  0.00    -0.230 OA
ENDBRANCH  11  14
ENDBRANCH   1  11
TORSDOF 3
ENDMDL
MODEL 7
REMARK VINA RESULT:    -4.556     14.216     15.784
REMARK INTER + INTRA:          -5.609
REMARK INTER:                  -5.457
REMARK INTRA:                  -0.152
REMARK UNBOUND:                -0.253
REMARK  Name = ZINC000774664538
REMARK                            x       y       z     vdW  Elec       q    Type
REMARK                         _______ _______ _______ _____ _____    ______ ____
ROOT
ATOM      1  C   LIG    1       22.740 -22.780  15.315  0.00  0.00    +0.350 A 
ATOM      2  N   LIG    1       23.657 -22.292  16.136  0.00  0.00    -0.480 NA
ATOM      3  C   LIG    1       23.348 -21.878  17.351  0.00  0.00    +0.350 A 
ATOM      4  C   LIG    1       22.048 -21.940  17.810  0.00  0.00    -0.140 A 
ATOM      5  C   LIG    1       21.056 -22.445  16.980  0.00  0.00    +0.170 A 
ATOM      6  C   LIG    1       21.709 -21.464  19.200  0.00  0.00    +0.140 C 
ATOM      7  C   LIG    1       21.409 -22.867  15.711  0.00  0.00    -0.090 A 
ENDROOT
BRANCH   7   8
ATOM      8  N   LIG    1       20.472 -23.366  14.869  0.00  0.00    +0.070 N 
ATOM      9  O   LIG    1       20.061 -22.688  13.944  0.00  0.00    -0.120 OA
ATOM     10  O   LIG    1       20.041 -24.493  15.036  0.00  0.00    -0.200 OA
ENDBRANCH   7   8
BRANCH   1  11
ATOM     11  N   LIG    1       23.109 -23.204  14.044  0.00  0.00    -0.310 N 
ATOM     12  C   LIG    1       24.383 -23.935  14.082  0.00  0.00    +0.270 C 
BRANCH  11  14
ATOM     13  C   LIG    1       24.139 -22.244  12.069  0.00  0.00    +0.240 C 
ATOM     14  O   LIG    1       23.179 -22.077  13.115  0.00  0.00    -0.230 OA
ENDBRANCH  11  14
ENDBRANCH   1  11
TORSDOF 3
ENDMDL
MODEL 8
REMARK VINA RESULT:    -4.531      1.925      2.367
REMARK INTER + INTRA:          -5.579
REMARK INTER:                  -5.253
REMARK INTRA:                  -0.327
REMARK UNBOUND:                -0.253
REMARK  Name = ZINC000774664538
REMARK                            x       y       z     vdW  Elec       q    Type
REMARK                         _______ _______ _______ _____ _____    ______ ____
ROOT
ATOM      1  C   LIG    1       29.080 -19.421   1.094  0.00  0.00    +0.350 A 
ATOM      2  N   LIG    1       28.118 -19.941   0.349  0.00  0.00    -0.480 NA
ATOM      3  C   LIG    1       27.062 -20.521   0.890  0.00  0.00    +0.350 A 
ATOM      4  C   LIG    1       26.924 -20.604   2.260  0.00  0.00    -0.140 A 
ATOM      5  C   LIG    1       27.913 -20.070   3.077  0.00  0.00    +0.170 A 
ATOM      6  C   LIG    1       25.714 -21.268   2.864  0.00  0.00    +0.140 C 
ATOM      7  C   LIG    1       29.009 -19.473   2.482  0.00  0.00    -0.090 A 
ENDROOT
BRANCH   7   8
ATOM      8  N   LIG    1       29.996 -18.939   3.242  0.00  0.00    +0.070 N 
ATOM      9  O   LIG    1       29.908 -17.788   3.633  0.00  0.00    -0.120 OA
ATOM     10  O   LIG    1       30.972 -19.608   3.533  0.00  0.00    -0.200 OA
ENDBRANCH   7   8
BRANCH   1  11
ATOM     11  N   LIG    1       30.175 -18.820   0.483  0.00  0.00    -0.310 N 
ATOM     12  C   LIG    1       29.780 -17.586  -0.208  0.00  0.00    +0.270 C 
BRANCH  11  14
ATOM     13  C   LIG    1       31.712 -20.675   0.207  0.00  0.00    +0.240 C 
ATOM     14  O   LIG    1       30.836 -19.747  -0.435  0.00  0.00    -0.230 OA
ENDBRANCH  11  14
ENDBRANCH   1  11
TORSDOF 3
ENDMDL
MODEL 9
REMARK VINA RESULT:    -4.333     14.476     16.132
REMARK INTER + INTRA:          -5.346
REMARK INTER:                  -5.076
REMARK INTRA:                  -0.270
REMARK UNBOUND:                -0.253
REMARK  Name = ZINC000774664538
REMARK                            x       y       z     vdW  Elec       q    Type
REMARK                         _______ _______ _______ _____ _____    ______ ____
ROOT
ATOM      1  C   LIG    1       22.172 -23.312  16.110  0.00  0.00    +0.350 A 
ATOM      2  N   LIG    1       21.463 -23.385  14.994  0.00  0.00    -0.480 NA
ATOM      3  C   LIG    1       21.979 -23.058  13.824  0.00  0.00    +0.350 A 
ATOM      4  C   LIG    1       23.286 -22.626  13.723  0.00  0.00    -0.140 A 
ATOM      5  C   LIG    1       24.064 -22.534  14.870  0.00  0.00    +0.170 A 
ATOM      6  C   LIG    1       23.863 -22.256  12.380  0.00  0.00    +0.140 C 
ATOM      7  C   LIG    1       23.494 -22.879  16.082  0.00  0.00    -0.090 A 
ENDROOT
BRANCH   7   8
ATOM      8  N   LIG    1       24.217 -22.805  17.226  0.00  0.00    +0.070 N 
ATOM      9  O   LIG    1       24.738 -23.807  17.683  0.00  0.00    -0.120 OA
ATOM     10  O   LIG    1       24.346 -21.737  17.798  0.00  0.00    -0.200 OA
ENDBRANCH   7   8
BRANCH   1  11
ATOM     11  N   LIG    1       21.589 -23.666  17.321  0.00  0.00    -0.310 N 
ATOM     12  C   LIG    1       21.165 -25.072  17.310  0.00  0.00    +0.270 C 
BRANCH  11  14
ATOM     13  C   LIG    1       20.860 -21.480  18.080  0.00  0.00    +0.240 C 
ATOM     14  O   LIG    1       20.468 -22.782  17.640  0.00  0.00    -0.230 OA
ENDBRANCH  11  14
ENDBRANCH   1  11
TORSDOF 3
ENDMDL
