MODEL 1
REMARK VINA RESULT:    -5.573      0.000      0.000
REMARK INTER + INTRA:          -7.333
REMARK INTER:                  -6.877
REMARK INTRA:                  -0.457
REMARK UNBOUND:                -0.457
REMARK  Name = ZINC000142812886
REMARK                            x       y       z     vdW  Elec       q    Type
REMARK                         _______ _______ _______ _____ _____    ______ ____
ROOT
ATOM      1  C   LIG    1       29.318 -18.339   1.478  0.00  0.00    +0.081 A 
ATOM      2  C   LIG    1       28.951 -18.914   2.676  0.00  0.00    +0.029 A 
ATOM      3  N   LIG    1       28.056 -19.887   2.419  0.00  0.00    -0.339 N 
ATOM      4  H   LIG    1       27.639 -20.448   3.091  0.00  0.00    +0.167 HD
ATOM      5  C   LIG    1       27.819 -19.972   1.077  0.00  0.00    +0.195 A 
ATOM      6  C   LIG    1       29.461 -18.522   4.038  0.00  0.00    +0.064 C 
ATOM      7  C   LIG    1       28.558 -19.047   0.442  0.00  0.00    +0.068 A 
ENDROOT
BRANCH   5   8
ATOM      8  N   LIG    1       26.893 -20.927   0.429  0.00  0.00    +0.073 N 
ATOM      9  O   LIG    1       27.235 -21.515  -0.582  0.00  0.00    -0.125 OA
ATOM     10  O   LIG    1       25.790 -21.124   0.904  0.00  0.00    -0.125 OA
ENDBRANCH   5   8
BRANCH   1  11
ATOM     11  C   LIG    1       30.272 -17.237   1.281  0.00  0.00    +0.341 C 
ATOM     12  O   LIG    1       29.901 -16.084   1.390  0.00  0.00    -0.245 OA
BRANCH  11  13
ATOM     13  O   LIG    1       31.558 -17.505   0.978  0.00  0.00    -0.461 OA
BRANCH  13  15
ATOM     14  C   LIG    1       32.858 -19.033   2.359  0.00  0.00    +0.048 C 
ATOM     15  C   LIG    1       32.495 -17.572   2.086  0.00  0.00    +0.229 C 
ENDBRANCH  13  15
ENDBRANCH  11  13
ENDBRANCH   1  11
TORSDOF 4
ENDMDL
MODEL 2
REMARK VINA RESULT:    -4.963      2.315      4.296
REMARK INTER + INTRA:          -6.581
REMARK INTER:                  -6.150
REMARK INTRA:                  -0.431
REMARK UNBOUND:                -0.457
REMARK  Name = ZINC000142812886
REMARK                            x       y       z     vdW  Elec       q    Type
REMARK                         _______ _______ _______ _____ _____    ______ ____
ROOT
ATOM      1  C   LIG    1       28.185 -19.884   2.035  0.00  0.00    +0.081 A 
ATOM      2  C   LIG    1       28.890 -19.099   2.921  0.00  0.00    +0.029 A 
ATOM      3  N   LIG    1       29.425 -18.070   2.238  0.00  0.00    -0.339 N 
ATOM      4  H   LIG    1       29.970 -17.369   2.628  0.00  0.00    +0.167 HD
ATOM      5  C   LIG    1       29.092 -18.153   0.916  0.00  0.00    +0.195 A 
ATOM      6  C   LIG    1       29.038 -19.349   4.400  0.00  0.00    +0.064 C 
ATOM      7  C   LIG    1       28.335 -19.247   0.722  0.00  0.00    +0.068 A 
ENDROOT
BRANCH   5   8
ATOM      8  N   LIG    1       29.503 -17.195  -0.134  0.00  0.00    +0.073 N 
ATOM      9  O   LIG    1       30.645 -16.774  -0.160  0.00  0.00    -0.125 OA
ATOM     10  O   LIG    1       28.699 -16.827  -0.972  0.00  0.00    -0.125 OA
ENDBRANCH   5   8
BRANCH   1  11
ATOM     11  C   LIG    1       27.438 -21.115   2.342  0.00  0.00    +0.341 C 
ATOM     12  O   LIG    1       26.223 -21.119   2.285  0.00  0.00    -0.245 OA
BRANCH  11  13
ATOM     13  O   LIG    1       28.100 -22.237   2.687  0.00  0.00    -0.461 OA
BRANCH  13  15
ATOM     14  C   LIG    1       30.494 -22.666   2.556  0.00  0.00    +0.048 C 
ATOM     15  C   LIG    1       29.164 -22.673   1.799  0.00  0.00    +0.229 C 
ENDBRANCH  13  15
ENDBRANCH  11  13
ENDBRANCH   1  11
TORSDOF 4
ENDMDL
MODEL 3
REMARK VINA RESULT:    -4.834     24.327     25.180
REMARK INTER + INTRA:          -6.421
REMARK INTER:                  -6.018
REMARK INTRA:                  -0.403
REMARK UNBOUND:                -0.457
REMARK  Name = ZINC000142812886
REMARK                            x       y       z     vdW  Elec       q    Type
REMARK                         _______ _______ _______ _____ _____    ______ ____
ROOT
ATOM      1  C   LIG    1       16.054 -12.290  21.400  0.00  0.00    +0.081 A 
ATOM      2  C   LIG    1       14.854 -12.053  22.035  0.00  0.00    +0.029 A 
ATOM      3  N   LIG    1       14.245 -11.026  21.413  0.00  0.00    -0.339 N 
ATOM      4  H   LIG    1       13.383 -10.658  21.663  0.00  0.00    +0.167 HD
ATOM      5  C   LIG    1       15.013 -10.574  20.378  0.00  0.00    +0.195 A 
ATOM      6  C   LIG    1       14.315 -12.811  23.220  0.00  0.00    +0.064 C 
ATOM      7  C   LIG    1       16.140 -11.303  20.318  0.00  0.00    +0.068 A 
ENDROOT
BRANCH   5   8
ATOM      8  N   LIG    1       14.663  -9.457  19.473  0.00  0.00    +0.073 N 
ATOM      9  O   LIG    1       13.900  -9.645  18.542  0.00  0.00    -0.125 OA
ATOM     10  O   LIG    1       15.136  -8.351  19.659  0.00  0.00    -0.125 OA
ENDBRANCH   5   8
BRANCH   1  11
ATOM     11  C   LIG    1       17.048 -13.320  21.742  0.00  0.00    +0.341 C 
ATOM     12  O   LIG    1       17.997 -13.037  22.449  0.00  0.00    -0.245 OA
BRANCH  11  13
ATOM     13  O   LIG    1       16.907 -14.575  21.272  0.00  0.00    -0.461 OA
BRANCH  13  15
ATOM     14  C   LIG    1       15.334 -16.331  21.882  0.00  0.00    +0.048 C 
ATOM     15  C   LIG    1       16.637 -15.617  22.248  0.00  0.00    +0.229 C 
ENDBRANCH  13  15
ENDBRANCH  11  13
ENDBRANCH   1  11
TORSDOF 4
ENDMDL
MODEL 4
REMARK VINA RESULT:    -4.809     23.907     24.844
REMARK INTER + INTRA:          -6.390
REMARK INTER:                  -6.008
REMARK INTRA:                  -0.382
REMARK UNBOUND:                -0.457
REMARK  Name = ZINC000142812886
REMARK                            x       y       z     vdW  Elec       q    Type
REMARK                         _______ _______ _______ _____ _____    ______ ____
ROOT
ATOM      1  C   LIG    1       15.209 -12.294  21.000  0.00  0.00    +0.081 A 
ATOM      2  C   LIG    1       16.575 -12.144  20.898  0.00  0.00    +0.029 A 
ATOM      3  N   LIG    1       17.150 -13.333  21.164  0.00  0.00    -0.339 N 
ATOM      4  H   LIG    1       18.105 -13.500  21.159  0.00  0.00    +0.167 HD
ATOM      5  C   LIG    1       16.197 -14.270  21.441  0.00  0.00    +0.195 A 
ATOM      6  C   LIG    1       17.302 -10.871  20.550  0.00  0.00    +0.064 C 
ATOM      7  C   LIG    1       14.983 -13.698  21.363  0.00  0.00    +0.068 A 
ENDROOT
BRANCH   5   8
ATOM      8  N   LIG    1       16.459 -15.687  21.778  0.00  0.00    +0.073 N 
ATOM      9  O   LIG    1       16.187 -16.563  20.977  0.00  0.00    -0.125 OA
ATOM     10  O   LIG    1       16.946 -15.976  22.856  0.00  0.00    -0.125 OA
ENDBRANCH   5   8
BRANCH   1  11
ATOM     11  C   LIG    1       14.187 -11.257  20.794  0.00  0.00    +0.341 C 
ATOM     12  O   LIG    1       13.747 -10.638  21.745  0.00  0.00    -0.245 OA
BRANCH  11  13
ATOM     13  O   LIG    1       13.737 -10.991  19.551  0.00  0.00    -0.461 OA
BRANCH  13  15
ATOM     14  C   LIG    1       14.874  -9.139  18.451  0.00  0.00    +0.048 C 
ATOM     15  C   LIG    1       13.608  -9.592  19.182  0.00  0.00    +0.229 C 
ENDBRANCH  13  15
ENDBRANCH  11  13
ENDBRANCH   1  11
TORSDOF 4
ENDMDL
MODEL 5
REMARK VINA RESULT:    -4.809     14.213     16.084
REMARK INTER + INTRA:          -6.390
REMARK INTER:                  -5.945
REMARK INTRA:                  -0.445
REMARK UNBOUND:                -0.457
REMARK  Name = ZINC000142812886
REMARK                            x       y       z     vdW  Elec       q    Type
REMARK                         _______ _______ _______ _____ _____    ______ ____
ROOT
ATOM      1  C   LIG    1       22.564 -23.590  15.410  0.00  0.00    +0.081 A 
ATOM      2  C   LIG    1       21.599 -23.280  14.477  0.00  0.00    +0.029 A 
ATOM      3  N   LIG    1       22.207 -23.085  13.292  0.00  0.00    -0.339 N 
ATOM      4  H   LIG    1       21.752 -22.854  12.467  0.00  0.00    +0.167 HD
ATOM      5  C   LIG    1       23.555 -23.259  13.416  0.00  0.00    +0.195 A 
ATOM      6  C   LIG    1       20.119 -23.175  14.737  0.00  0.00    +0.064 C 
ATOM      7  C   LIG    1       23.843 -23.566  14.692  0.00  0.00    +0.068 A 
ENDROOT
BRANCH   5   8
ATOM      8  N   LIG    1       24.542 -23.125  12.321  0.00  0.00    +0.073 N 
ATOM      9  O   LIG    1       24.406 -22.252  11.482  0.00  0.00    -0.125 OA
ATOM     10  O   LIG    1       25.489 -23.887  12.257  0.00  0.00    -0.125 OA
ENDBRANCH   5   8
BRANCH   1  11
ATOM     11  C   LIG    1       22.355 -23.881  16.838  0.00  0.00    +0.341 C 
ATOM     12  O   LIG    1       21.813 -24.917  17.174  0.00  0.00    -0.245 OA
BRANCH  11  13
ATOM     13  O   LIG    1       22.765 -23.000  17.772  0.00  0.00    -0.461 OA
BRANCH  13  15
ATOM     14  C   LIG    1       20.883 -21.477  18.036  0.00  0.00    +0.048 C 
ATOM     15  C   LIG    1       22.344 -21.620  17.606  0.00  0.00    +0.229 C 
ENDBRANCH  13  15
ENDBRANCH  11  13
ENDBRANCH   1  11
TORSDOF 4
ENDMDL
MODEL 6
REMARK VINA RESULT:    -4.732     11.820     13.357
REMARK INTER + INTRA:          -6.295
REMARK INTER:                  -5.847
REMARK INTRA:                  -0.448
REMARK UNBOUND:                -0.457
REMARK  Name = ZINC000142812886
REMARK                            x       y       z     vdW  Elec       q    Type
REMARK                         _______ _______ _______ _____ _____    ______ ____
ROOT
ATOM      1  C   LIG    1       26.150  -7.161   0.287  0.00  0.00    +0.081 A 
ATOM      2  C   LIG    1       25.880  -6.422  -0.844  0.00  0.00    +0.029 A 
ATOM      3  N   LIG    1       24.892  -5.554  -0.554  0.00  0.00    -0.339 N 
ATOM      4  H   LIG    1       24.514  -4.915  -1.178  0.00  0.00    +0.167 HD
ATOM      5  C   LIG    1       24.499  -5.699   0.745  0.00  0.00    +0.195 A 
ATOM      6  C   LIG    1       26.569  -6.560  -2.177  0.00  0.00    +0.064 C 
ATOM      7  C   LIG    1       25.226  -6.673   1.318  0.00  0.00    +0.068 A 
ENDROOT
BRANCH   5   8
ATOM      8  N   LIG    1       23.437  -4.914   1.413  0.00  0.00    +0.073 N 
ATOM      9  O   LIG    1       23.242  -5.048   2.608  0.00  0.00    -0.125 OA
ATOM     10  O   LIG    1       22.758  -4.135   0.769  0.00  0.00    -0.125 OA
ENDBRANCH   5   8
BRANCH   1  11
ATOM     11  C   LIG    1       27.154  -8.227   0.429  0.00  0.00    +0.341 C 
ATOM     12  O   LIG    1       26.905  -9.353   0.042  0.00  0.00    -0.245 OA
BRANCH  11  13
ATOM     13  O   LIG    1       28.350  -7.955   0.989  0.00  0.00    -0.461 OA
BRANCH  13  15
ATOM     14  C   LIG    1       29.857  -6.589  -0.349  0.00  0.00    +0.048 C 
ATOM     15  C   LIG    1       29.511  -8.004   0.119  0.00  0.00    +0.229 C 
ENDBRANCH  13  15
ENDBRANCH  11  13
ENDBRANCH   1  11
TORSDOF 4
ENDMDL
MODEL 7
REMARK VINA RESULT:    -4.548      2.590      3.759
REMARK INTER + INTRA:          -6.069
REMARK INTER:                  -5.844
REMARK INTRA:                  -0.224
REMARK UNBOUND:                -0.457
REMARK  Name = ZINC000142812886
REMARK                            x       y       z     vdW  Elec       q    Type
REMARK                         _______ _______ _______ _____ _____    ______ ____
ROOT
ATOM      1  C   LIG    1       29.340 -18.134   1.318  0.00  0.00    +0.081 A 
ATOM      2  C   LIG    1       28.479 -19.195   1.500  0.00  0.00    +0.029 A 
ATOM      3  N   LIG    1       28.537 -19.566   2.793  0.00  0.00    -0.339 N 
ATOM      4  H   LIG    1       28.026 -20.291   3.185  0.00  0.00    +0.167 HD
ATOM      5  C   LIG    1       29.417 -18.775   3.475  0.00  0.00    +0.195 A 
ATOM      6  C   LIG    1       27.622 -19.831   0.437  0.00  0.00    +0.064 C 
ATOM      7  C   LIG    1       29.949 -17.878   2.628  0.00  0.00    +0.068 A 
ENDROOT
BRANCH   5   8
ATOM      8  N   LIG    1       29.736 -18.892   4.915  0.00  0.00    +0.073 N 
ATOM      9  O   LIG    1       30.329 -19.872   5.330  0.00  0.00    -0.125 OA
ATOM     10  O   LIG    1       29.407 -18.008   5.686  0.00  0.00    -0.125 OA
ENDBRANCH   5   8
BRANCH   1  11
ATOM     11  C   LIG    1       29.599 -17.409   0.064  0.00  0.00    +0.341 C 
ATOM     12  O   LIG    1       28.691 -16.832  -0.504  0.00  0.00    -0.245 OA
BRANCH  11  13
ATOM     13  O   LIG    1       30.842 -17.385  -0.457  0.00  0.00    -0.461 OA
BRANCH  13  15
ATOM     14  C   LIG    1       32.752 -18.491  -1.486  0.00  0.00    +0.048 C 
ATOM     15  C   LIG    1       31.527 -18.660  -0.585  0.00  0.00    +0.229 C 
ENDBRANCH  13  15
ENDBRANCH  11  13
ENDBRANCH   1  11
TORSDOF 4
ENDMDL
MODEL 8
REMARK VINA RESULT:    -4.473     21.179     22.699
REMARK INTER + INTRA:          -5.975
REMARK INTER:                  -5.583
REMARK INTRA:                  -0.392
REMARK UNBOUND:                -0.457
REMARK  Name = ZINC000142812886
REMARK                            x       y       z     vdW  Elec       q    Type
REMARK                         _______ _______ _______ _____ _____    ______ ____
ROOT
ATOM      1  C   LIG    1       23.901  -0.441  12.792  0.00  0.00    +0.081 A 
ATOM      2  C   LIG    1       23.101  -1.312  12.085  0.00  0.00    +0.029 A 
ATOM      3  N   LIG    1       23.457  -1.251  10.787  0.00  0.00    -0.339 N 
ATOM      4  H   LIG    1       23.049  -1.768  10.076  0.00  0.00    +0.167 HD
ATOM      5  C   LIG    1       24.476  -0.359  10.616  0.00  0.00    +0.195 A 
ATOM      6  C   LIG    1       22.016  -2.183  12.662  0.00  0.00    +0.064 C 
ATOM      7  C   LIG    1       24.793   0.179  11.806  0.00  0.00    +0.068 A 
ENDROOT
BRANCH   5   8
ATOM      8  N   LIG    1       25.122  -0.032   9.325  0.00  0.00    +0.073 N 
ATOM      9  O   LIG    1       24.439   0.269   8.362  0.00  0.00    -0.125 OA
ATOM     10  O   LIG    1       26.335  -0.063   9.226  0.00  0.00    -0.125 OA
ENDBRANCH   5   8
BRANCH   1  11
ATOM     11  C   LIG    1       23.864  -0.181  14.240  0.00  0.00    +0.341 C 
ATOM     12  O   LIG    1       24.270  -1.022  15.019  0.00  0.00    -0.245 OA
BRANCH  11  13
ATOM     13  O   LIG    1       23.380   0.989  14.702  0.00  0.00    -0.461 OA
BRANCH  13  15
ATOM     14  C   LIG    1       21.915   2.604  13.618  0.00  0.00    +0.048 C 
ATOM     15  C   LIG    1       21.991   1.292  14.402  0.00  0.00    +0.229 C 
ENDBRANCH  13  15
ENDBRANCH  11  13
ENDBRANCH   1  11
TORSDOF 4
ENDMDL
MODEL 9
REMARK VINA RESULT:    -4.443     24.484     26.062
REMARK INTER + INTRA:          -5.938
REMARK INTER:                  -5.672
REMARK INTRA:                  -0.267
REMARK UNBOUND:                -0.457
REMARK  Name = ZINC000142812886
REMARK                            x       y       z     vdW  Elec       q    Type
REMARK                         _______ _______ _______ _____ _____    ______ ____
ROOT
ATOM      1  C   LIG    1       14.621 -10.818  20.923  0.00  0.00    +0.081 A 
ATOM      2  C   LIG    1       15.571 -10.681  19.933  0.00  0.00    +0.029 A 
ATOM      3  N   LIG    1       16.518 -11.618  20.127  0.00  0.00    -0.339 N 
ATOM      4  H   LIG    1       17.301 -11.739  19.567  0.00  0.00    +0.167 HD
ATOM      5  C   LIG    1       16.220 -12.375  21.224  0.00  0.00    +0.195 A 
ATOM      6  C   LIG    1       15.553  -9.660  18.826  0.00  0.00    +0.064 C 
ATOM      7  C   LIG    1       15.071 -11.933  21.763  0.00  0.00    +0.068 A 
ENDROOT
BRANCH   5   8
ATOM      8  N   LIG    1       17.035 -13.498  21.739  0.00  0.00    +0.073 N 
ATOM      9  O   LIG    1       17.905 -13.289  22.565  0.00  0.00    -0.125 OA
ATOM     10  O   LIG    1       16.836 -14.630  21.336  0.00  0.00    -0.125 OA
ENDBRANCH   5   8
BRANCH   1  11
ATOM     11  C   LIG    1       13.408 -10.006  21.104  0.00  0.00    +0.341 C 
ATOM     12  O   LIG    1       12.502 -10.077  20.295  0.00  0.00    -0.245 OA
BRANCH  11  13
ATOM     13  O   LIG    1       13.299  -9.183  22.166  0.00  0.00    -0.461 OA
BRANCH  13  15
ATOM     14  C   LIG    1       12.828  -9.108  24.554  0.00  0.00    +0.048 C 
ATOM     15  C   LIG    1       12.318  -9.537  23.177  0.00  0.00    +0.229 C 
ENDBRANCH  13  15
ENDBRANCH  11  13
ENDBRANCH   1  11
TORSDOF 4
ENDMDL
