MODEL 1
REMARK VINA RESULT:    -5.934      0.000      0.000
REMARK INTER + INTRA:          -6.344
REMARK INTER:                  -6.281
REMARK INTRA:                  -0.063
REMARK UNBOUND:                -0.063
REMARK  Name = ZINC000014980248
REMARK                            x       y       z     vdW  Elec       q    Type
REMARK                         _______ _______ _______ _____ _____    ______ ____
ROOT
ATOM      1  O   LIG    1       26.331 -21.589   2.752  0.00  0.00    -0.480 OA
ATOM      2  C   LIG    1       26.886 -20.853   1.955  0.00  0.00    +0.560 A 
ATOM      3  N   LIG    1       26.652 -20.781   0.625  0.00  0.00    -0.560 N 
ATOM      4  H   LIG    1       26.005 -21.312   0.136  0.00  0.00    +0.470 HD
ATOM      5  O   LIG    1       27.506 -19.803   0.066  0.00  0.00    -0.030 OA
ATOM      6  C   LIG    1       28.274 -19.260   1.031  0.00  0.00    +0.120 A 
ATOM      7  C   LIG    1       29.258 -18.276   1.009  0.00  0.00    +0.100 A 
ATOM      8  C   LIG    1       29.894 -17.912   2.176  0.00  0.00    +0.020 A 
ATOM      9  C   LIG    1       29.564 -18.517   3.380  0.00  0.00    +0.080 A 
ATOM     10  C   LIG    1       28.593 -19.492   3.424  0.00  0.00    +0.170 A 
ATOM     11  C   LIG    1       27.936 -19.868   2.252  0.00  0.00    -0.190 A 
ENDROOT
BRANCH   8  12
ATOM     12  N   LIG    1       30.940 -16.864   2.144  0.00  0.00    +0.020 N 
ATOM     13  O   LIG    1       30.740 -15.823   1.544  0.00  0.00    -0.130 OA
ATOM     14  O   LIG    1       31.999 -17.043   2.717  0.00  0.00    -0.140 OA
ENDBRANCH   8  12
TORSDOF 1
ENDMDL
MODEL 2
REMARK VINA RESULT:    -5.897      1.555      5.029
REMARK INTER + INTRA:          -6.305
REMARK INTER:                  -6.242
REMARK INTRA:                  -0.063
REMARK UNBOUND:                -0.063
REMARK  Name = ZINC000014980248
REMARK                            x       y       z     vdW  Elec       q    Type
REMARK                         _______ _______ _______ _____ _____    ______ ____
ROOT
ATOM      1  O   LIG    1       31.369 -16.876   2.629  0.00  0.00    -0.480 OA
ATOM      2  C   LIG    1       30.576 -17.707   3.035  0.00  0.00    +0.560 A 
ATOM      3  N   LIG    1       30.462 -18.162   4.303  0.00  0.00    -0.560 N 
ATOM      4  H   LIG    1       31.004 -17.879   5.056  0.00  0.00    +0.470 HD
ATOM      5  O   LIG    1       29.423 -19.120   4.351  0.00  0.00    -0.030 OA
ATOM      6  C   LIG    1       28.883 -19.271   3.126  0.00  0.00    +0.120 A 
ATOM      7  C   LIG    1       27.854 -20.073   2.643  0.00  0.00    +0.100 A 
ATOM      8  C   LIG    1       27.507 -20.021   1.311  0.00  0.00    +0.020 A 
ATOM      9  C   LIG    1       28.174 -19.173   0.439  0.00  0.00    +0.080 A 
ATOM     10  C   LIG    1       29.195 -18.371   0.896  0.00  0.00    +0.170 A 
ATOM     11  C   LIG    1       29.555 -18.409   2.244  0.00  0.00    -0.190 A 
ENDROOT
BRANCH   8  12
ATOM     12  N   LIG    1       26.410 -20.877   0.805  0.00  0.00    +0.020 N 
ATOM     13  O   LIG    1       25.350 -20.926   1.404  0.00  0.00    -0.130 OA
ATOM     14  O   LIG    1       26.566 -21.534  -0.208  0.00  0.00    -0.140 OA
ENDBRANCH   8  12
TORSDOF 1
ENDMDL
MODEL 3
REMARK VINA RESULT:    -5.894      1.149      2.096
REMARK INTER + INTRA:          -6.302
REMARK INTER:                  -6.241
REMARK INTRA:                  -0.060
REMARK UNBOUND:                -0.063
REMARK  Name = ZINC000014980248
REMARK                            x       y       z     vdW  Elec       q    Type
REMARK                         _______ _______ _______ _____ _____    ______ ____
ROOT
ATOM      1  O   LIG    1       26.227 -21.191   0.724  0.00  0.00    -0.480 OA
ATOM      2  C   LIG    1       26.951 -20.735   1.591  0.00  0.00    +0.560 A 
ATOM      3  N   LIG    1       26.992 -21.110   2.889  0.00  0.00    -0.560 N 
ATOM      4  H   LIG    1       26.442 -21.798   3.296  0.00  0.00    +0.470 HD
ATOM      5  O   LIG    1       27.968 -20.335   3.556  0.00  0.00    -0.030 OA
ATOM      6  C   LIG    1       28.541 -19.476   2.691  0.00  0.00    +0.120 A 
ATOM      7  C   LIG    1       29.536 -18.514   2.838  0.00  0.00    +0.100 A 
ATOM      8  C   LIG    1       29.933 -17.763   1.754  0.00  0.00    +0.020 A 
ATOM      9  C   LIG    1       29.351 -17.954   0.509  0.00  0.00    +0.080 A 
ATOM     10  C   LIG    1       28.365 -18.900   0.342  0.00  0.00    +0.170 A 
ATOM     11  C   LIG    1       27.956 -19.673   1.429  0.00  0.00    -0.190 A 
ENDROOT
BRANCH   8  12
ATOM     12  N   LIG    1       30.993 -16.742   1.919  0.00  0.00    +0.020 N 
ATOM     13  O   LIG    1       32.098 -17.070   2.314  0.00  0.00    -0.130 OA
ATOM     14  O   LIG    1       30.760 -15.575   1.661  0.00  0.00    -0.140 OA
ENDBRANCH   8  12
TORSDOF 1
ENDMDL
MODEL 4
REMARK VINA RESULT:    -5.561      1.372      4.712
REMARK INTER + INTRA:          -5.949
REMARK INTER:                  -5.880
REMARK INTRA:                  -0.070
REMARK UNBOUND:                -0.063
REMARK  Name = ZINC000014980248
REMARK                            x       y       z     vdW  Elec       q    Type
REMARK                         _______ _______ _______ _____ _____    ______ ____
ROOT
ATOM      1  O   LIG    1       31.523 -16.686   2.046  0.00  0.00    -0.480 OA
ATOM      2  C   LIG    1       30.744 -17.238   1.290  0.00  0.00    +0.560 A 
ATOM      3  N   LIG    1       30.674 -17.082  -0.052  0.00  0.00    -0.560 N 
ATOM      4  H   LIG    1       31.244 -16.505  -0.584  0.00  0.00    +0.470 HD
ATOM      5  O   LIG    1       29.634 -17.900  -0.551  0.00  0.00    -0.030 OA
ATOM      6  C   LIG    1       29.049 -18.567   0.464  0.00  0.00    +0.120 A 
ATOM      7  C   LIG    1       28.000 -19.480   0.510  0.00  0.00    +0.100 A 
ATOM      8  C   LIG    1       27.604 -20.014   1.716  0.00  0.00    +0.020 A 
ATOM      9  C   LIG    1       28.242 -19.652   2.893  0.00  0.00    +0.080 A 
ATOM     10  C   LIG    1       29.283 -18.751   2.870  0.00  0.00    +0.170 A 
ATOM     11  C   LIG    1       29.699 -18.206   1.656  0.00  0.00    -0.190 A 
ENDROOT
BRANCH   8  12
ATOM     12  N   LIG    1       26.487 -20.985   1.756  0.00  0.00    +0.020 N 
ATOM     13  O   LIG    1       25.848 -21.219   0.746  0.00  0.00    -0.130 OA
ATOM     14  O   LIG    1       26.206 -21.549   2.798  0.00  0.00    -0.140 OA
ENDBRANCH   8  12
TORSDOF 1
ENDMDL
MODEL 5
REMARK VINA RESULT:    -5.254     20.514     21.344
REMARK INTER + INTRA:          -5.624
REMARK INTER:                  -5.563
REMARK INTRA:                  -0.061
REMARK UNBOUND:                -0.063
REMARK  Name = ZINC000014980248
REMARK                            x       y       z     vdW  Elec       q    Type
REMARK                         _______ _______ _______ _____ _____    ______ ____
ROOT
ATOM      1  O   LIG    1       23.324  -0.827  14.800  0.00  0.00    -0.480 OA
ATOM      2  C   LIG    1       23.210  -1.142  13.629  0.00  0.00    +0.560 A 
ATOM      3  N   LIG    1       22.385  -2.086  13.122  0.00  0.00    -0.560 N 
ATOM      4  H   LIG    1       21.774  -2.636  13.636  0.00  0.00    +0.470 HD
ATOM      5  O   LIG    1       22.560  -2.138  11.720  0.00  0.00    -0.030 OA
ATOM      6  C   LIG    1       23.488  -1.237  11.341  0.00  0.00    +0.120 A 
ATOM      7  C   LIG    1       24.016  -0.896  10.099  0.00  0.00    +0.100 A 
ATOM      8  C   LIG    1       24.977   0.087  10.007  0.00  0.00    +0.020 A 
ATOM      9  C   LIG    1       25.426   0.746  11.142  0.00  0.00    +0.080 A 
ATOM     10  C   LIG    1       24.916   0.424  12.379  0.00  0.00    +0.170 A 
ATOM     11  C   LIG    1       23.939  -0.566  12.489  0.00  0.00    -0.190 A 
ENDROOT
BRANCH   8  12
ATOM     12  N   LIG    1       25.533   0.445   8.682  0.00  0.00    +0.020 N 
ATOM     13  O   LIG    1       26.736   0.399   8.495  0.00  0.00    -0.130 OA
ATOM     14  O   LIG    1       24.790   0.785   7.780  0.00  0.00    -0.140 OA
ENDBRANCH   8  12
TORSDOF 1
ENDMDL
MODEL 6
REMARK VINA RESULT:    -5.171      2.186      2.493
REMARK INTER + INTRA:          -5.536
REMARK INTER:                  -5.467
REMARK INTRA:                  -0.070
REMARK UNBOUND:                -0.063
REMARK  Name = ZINC000014980248
REMARK                            x       y       z     vdW  Elec       q    Type
REMARK                         _______ _______ _______ _____ _____    ______ ____
ROOT
ATOM      1  O   LIG    1       27.875 -21.817   0.750  0.00  0.00    -0.480 OA
ATOM      2  C   LIG    1       28.956 -21.365   0.418  0.00  0.00    +0.560 A 
ATOM      3  N   LIG    1       29.902 -21.991  -0.319  0.00  0.00    -0.560 N 
ATOM      4  H   LIG    1       29.835 -22.889  -0.678  0.00  0.00    +0.470 HD
ATOM      5  O   LIG    1       31.004 -21.120  -0.478  0.00  0.00    -0.030 OA
ATOM      6  C   LIG    1       30.761 -19.953   0.151  0.00  0.00    +0.120 A 
ATOM      7  C   LIG    1       31.507 -18.787   0.294  0.00  0.00    +0.100 A 
ATOM      8  C   LIG    1       30.996 -17.726   1.009  0.00  0.00    +0.020 A 
ATOM      9  C   LIG    1       29.739 -17.805   1.590  0.00  0.00    +0.080 A 
ATOM     10  C   LIG    1       28.984 -18.948   1.460  0.00  0.00    +0.170 A 
ATOM     11  C   LIG    1       29.486 -20.030   0.734  0.00  0.00    -0.190 A 
ENDROOT
BRANCH   8  12
ATOM     12  N   LIG    1       31.797 -16.489   1.156  0.00  0.00    +0.020 N 
ATOM     13  O   LIG    1       32.938 -16.449   0.731  0.00  0.00    -0.130 OA
ATOM     14  O   LIG    1       31.316 -15.513   1.703  0.00  0.00    -0.140 OA
ENDBRANCH   8  12
TORSDOF 1
ENDMDL
MODEL 7
REMARK VINA RESULT:    -5.167     15.638     17.235
REMARK INTER + INTRA:          -5.532
REMARK INTER:                  -5.468
REMARK INTRA:                  -0.063
REMARK UNBOUND:                -0.063
REMARK  Name = ZINC000014980248
REMARK                            x       y       z     vdW  Elec       q    Type
REMARK                         _______ _______ _______ _____ _____    ______ ____
ROOT
ATOM      1  O   LIG    1       23.664 -20.692  19.952  0.00  0.00    -0.480 OA
ATOM      2  C   LIG    1       23.816 -21.143  18.831  0.00  0.00    +0.560 A 
ATOM      3  N   LIG    1       24.975 -21.213  18.139  0.00  0.00    -0.560 N 
ATOM      4  H   LIG    1       25.841 -20.910  18.455  0.00  0.00    +0.470 HD
ATOM      5  O   LIG    1       24.719 -21.802  16.880  0.00  0.00    -0.030 OA
ATOM      6  C   LIG    1       23.409 -22.102  16.773  0.00  0.00    +0.120 A 
ATOM      7  C   LIG    1       22.656 -22.682  15.757  0.00  0.00    +0.100 A 
ATOM      8  C   LIG    1       21.302 -22.872  15.925  0.00  0.00    +0.020 A 
ATOM      9  C   LIG    1       20.676 -22.490  17.103  0.00  0.00    +0.080 A 
ATOM     10  C   LIG    1       21.402 -21.915  18.121  0.00  0.00    +0.170 A 
ATOM     11  C   LIG    1       22.775 -21.721  17.967  0.00  0.00    -0.190 A 
ENDROOT
BRANCH   8  12
ATOM     12  N   LIG    1       20.508 -23.491  14.840  0.00  0.00    +0.020 N 
ATOM     13  O   LIG    1       19.688 -24.352  15.101  0.00  0.00    -0.130 OA
ATOM     14  O   LIG    1       20.675 -23.139  13.686  0.00  0.00    -0.140 OA
ENDBRANCH   8  12
TORSDOF 1
ENDMDL
MODEL 8
REMARK VINA RESULT:    -5.155      2.447      3.191
REMARK INTER + INTRA:          -5.519
REMARK INTER:                  -5.455
REMARK INTRA:                  -0.065
REMARK UNBOUND:                -0.063
REMARK  Name = ZINC000014980248
REMARK                            x       y       z     vdW  Elec       q    Type
REMARK                         _______ _______ _______ _____ _____    ______ ____
ROOT
ATOM      1  O   LIG    1       27.679 -20.615   3.800  0.00  0.00    -0.480 OA
ATOM      2  C   LIG    1       28.460 -19.721   3.527  0.00  0.00    +0.560 A 
ATOM      3  N   LIG    1       29.275 -19.069   4.386  0.00  0.00    -0.560 N 
ATOM      4  H   LIG    1       29.340 -19.235   5.340  0.00  0.00    +0.470 HD
ATOM      5  O   LIG    1       30.018 -18.106   3.667  0.00  0.00    -0.030 OA
ATOM      6  C   LIG    1       29.678 -18.145   2.363  0.00  0.00    +0.120 A 
ATOM      7  C   LIG    1       30.107 -17.419   1.256  0.00  0.00    +0.100 A 
ATOM      8  C   LIG    1       29.572 -17.679   0.013  0.00  0.00    +0.020 A 
ATOM      9  C   LIG    1       28.606 -18.661  -0.150  0.00  0.00    +0.080 A 
ATOM     10  C   LIG    1       28.169 -19.391   0.932  0.00  0.00    +0.170 A 
ATOM     11  C   LIG    1       28.705 -19.144   2.196  0.00  0.00    -0.190 A 
ENDROOT
BRANCH   8  12
ATOM     12  N   LIG    1       30.033 -16.902  -1.160  0.00  0.00    +0.020 N 
ATOM     13  O   LIG    1       29.233 -16.544  -2.005  0.00  0.00    -0.130 OA
ATOM     14  O   LIG    1       31.212 -16.622  -1.280  0.00  0.00    -0.140 OA
ENDBRANCH   8  12
TORSDOF 1
ENDMDL
MODEL 9
REMARK VINA RESULT:    -5.144     15.770     17.555
REMARK INTER + INTRA:          -5.507
REMARK INTER:                  -5.440
REMARK INTRA:                  -0.068
REMARK UNBOUND:                -0.063
REMARK  Name = ZINC000014980248
REMARK                            x       y       z     vdW  Elec       q    Type
REMARK                         _______ _______ _______ _____ _____    ______ ____
ROOT
ATOM      1  O   LIG    1       24.225 -20.785  19.713  0.00  0.00    -0.480 OA
ATOM      2  C   LIG    1       23.136 -21.170  19.328  0.00  0.00    +0.560 A 
ATOM      3  N   LIG    1       21.978 -21.146  20.026  0.00  0.00    -0.560 N 
ATOM      4  H   LIG    1       21.870 -20.814  20.931  0.00  0.00    +0.470 HD
ATOM      5  O   LIG    1       20.949 -21.684  19.219  0.00  0.00    -0.030 OA
ATOM      6  C   LIG    1       21.449 -22.046  18.021  0.00  0.00    +0.120 A 
ATOM      7  C   LIG    1       20.868 -22.614  16.891  0.00  0.00    +0.100 A 
ATOM      8  C   LIG    1       21.639 -22.884  15.782  0.00  0.00    +0.020 A 
ATOM      9  C   LIG    1       22.996 -22.594  15.777  0.00  0.00    +0.080 A 
ATOM     10  C   LIG    1       23.590 -22.031  16.884  0.00  0.00    +0.170 A 
ATOM     11  C   LIG    1       22.821 -21.747  18.012  0.00  0.00    -0.190 A 
ENDROOT
BRANCH   8  12
ATOM     12  N   LIG    1       21.014 -23.489  14.584  0.00  0.00    +0.020 N 
ATOM     13  O   LIG    1       21.538 -23.359  13.493  0.00  0.00    -0.130 OA
ATOM     14  O   LIG    1       19.975 -24.115  14.690  0.00  0.00    -0.140 OA
ENDBRANCH   8  12
TORSDOF 1
ENDMDL
