MODEL 1
REMARK VINA RESULT:    -5.403      0.000      0.000
REMARK INTER + INTRA:          -6.833
REMARK INTER:                  -6.666
REMARK INTRA:                  -0.167
REMARK UNBOUND:                -0.167
REMARK  Name = ZINC000035199124
REMARK                            x       y       z     vdW  Elec       q    Type
REMARK                         _______ _______ _______ _____ _____    ______ ____
ROOT
ATOM      1  C   LIG    1       29.077 -19.101   2.654  0.00  0.00    +0.030 A 
ATOM      2  C   LIG    1       28.543 -19.872   3.665  0.00  0.00    +0.080 A 
ATOM      3  C   LIG    1       27.506 -20.622   3.100  0.00  0.00    +0.080 A 
ATOM      4  C   LIG    1       27.429 -20.299   1.786  0.00  0.00    +0.080 A 
ATOM      5  N   LIG    1       28.371 -19.375   1.505  0.00  0.00    -0.390 N 
ATOM      6  C   LIG    1       28.609 -18.773   0.191  0.00  0.00    +0.350 C 
ENDROOT
BRANCH   4   7
ATOM      7  N   LIG    1       26.464 -20.866   0.818  0.00  0.00    +0.050 N 
ATOM      8  O   LIG    1       25.273 -20.866   1.074  0.00  0.00    -0.170 OA
ATOM      9  O   LIG    1       26.859 -21.335  -0.234  0.00  0.00    -0.120 OA
ENDBRANCH   4   7
BRANCH   1  10
ATOM     10  C   LIG    1       30.189 -18.155   2.782  0.00  0.00    +0.540 C 
ATOM     11  O   LIG    1       29.978 -16.957   2.733  0.00  0.00    -0.480 OA
BRANCH  10  12
ATOM     12  O   LIG    1       31.446 -18.610   2.956  0.00  0.00    -0.360 OA
BRANCH  12  14
ATOM     13  C   LIG    1       31.824 -19.126   5.306  0.00  0.00    +0.070 C 
ATOM     14  C   LIG    1       32.147 -18.176   4.151  0.00  0.00    +0.220 C 
ENDBRANCH  12  14
ENDBRANCH  10  12
ENDBRANCH   1  10
TORSDOF 4
ENDMDL
MODEL 2
REMARK VINA RESULT:    -5.237      1.684      2.258
REMARK INTER + INTRA:          -6.628
REMARK INTER:                  -6.229
REMARK INTRA:                  -0.399
REMARK UNBOUND:                -0.167
REMARK  Name = ZINC000035199124
REMARK                            x       y       z     vdW  Elec       q    Type
REMARK                         _______ _______ _______ _____ _____    ______ ____
ROOT
ATOM      1  C   LIG    1       29.926 -19.885   2.312  0.00  0.00    +0.030 A 
ATOM      2  C   LIG    1       29.464 -18.702   1.774  0.00  0.00    +0.080 A 
ATOM      3  C   LIG    1       28.370 -19.022   0.965  0.00  0.00    +0.080 A 
ATOM      4  C   LIG    1       28.188 -20.363   1.023  0.00  0.00    +0.080 A 
ATOM      5  N   LIG    1       29.128 -20.898   1.830  0.00  0.00    -0.390 N 
ATOM      6  C   LIG    1       29.267 -22.321   2.150  0.00  0.00    +0.350 C 
ENDROOT
BRANCH   4   7
ATOM      7  N   LIG    1       27.134 -21.119   0.311  0.00  0.00    +0.050 N 
ATOM      8  O   LIG    1       26.012 -21.188   0.781  0.00  0.00    -0.170 OA
ATOM      9  O   LIG    1       27.386 -21.673  -0.744  0.00  0.00    -0.120 OA
ENDBRANCH   4   7
BRANCH   1  10
ATOM     10  C   LIG    1       31.062 -20.038   3.224  0.00  0.00    +0.540 C 
ATOM     11  O   LIG    1       32.198 -20.034   2.786  0.00  0.00    -0.480 OA
BRANCH  10  12
ATOM     12  O   LIG    1       30.851 -20.180   4.548  0.00  0.00    -0.360 OA
BRANCH  12  14
ATOM     13  C   LIG    1       29.661 -18.327   5.588  0.00  0.00    +0.070 C 
ATOM     14  C   LIG    1       31.020 -18.998   5.374  0.00  0.00    +0.220 C 
ENDBRANCH  12  14
ENDBRANCH  10  12
ENDBRANCH   1  10
TORSDOF 4
ENDMDL
MODEL 3
REMARK VINA RESULT:    -5.226      1.197      2.049
REMARK INTER + INTRA:          -6.614
REMARK INTER:                  -6.290
REMARK INTRA:                  -0.324
REMARK UNBOUND:                -0.167
REMARK  Name = ZINC000035199124
REMARK                            x       y       z     vdW  Elec       q    Type
REMARK                         _______ _______ _______ _____ _____    ______ ____
ROOT
ATOM      1  C   LIG    1       29.262 -18.971   2.382  0.00  0.00    +0.030 A 
ATOM      2  C   LIG    1       29.190 -18.169   1.262  0.00  0.00    +0.080 A 
ATOM      3  C   LIG    1       28.349 -18.816   0.351  0.00  0.00    +0.080 A 
ATOM      4  C   LIG    1       27.934 -19.974   0.919  0.00  0.00    +0.080 A 
ATOM      5  N   LIG    1       28.484 -20.083   2.146  0.00  0.00    -0.390 N 
ATOM      6  C   LIG    1       28.278 -21.194   3.078  0.00  0.00    +0.350 C 
ENDROOT
BRANCH   4   7
ATOM      7  N   LIG    1       27.027 -20.962   0.292  0.00  0.00    +0.050 N 
ATOM      8  O   LIG    1       25.905 -21.125   0.735  0.00  0.00    -0.170 OA
ATOM      9  O   LIG    1       27.404 -21.613  -0.666  0.00  0.00    -0.120 OA
ENDBRANCH   4   7
BRANCH   1  10
ATOM     10  C   LIG    1       30.031 -18.695   3.598  0.00  0.00    +0.540 C 
ATOM     11  O   LIG    1       29.480 -18.213   4.570  0.00  0.00    -0.480 OA
BRANCH  10  12
ATOM     12  O   LIG    1       31.349 -18.976   3.641  0.00  0.00    -0.360 OA
BRANCH  12  14
ATOM     13  C   LIG    1       33.127 -18.228   2.154  0.00  0.00    +0.070 C 
ATOM     14  C   LIG    1       32.267 -17.883   3.372  0.00  0.00    +0.220 C 
ENDBRANCH  12  14
ENDBRANCH  10  12
ENDBRANCH   1  10
TORSDOF 4
ENDMDL
MODEL 4
REMARK VINA RESULT:    -5.073      2.137      5.174
REMARK INTER + INTRA:          -6.426
REMARK INTER:                  -6.009
REMARK INTRA:                  -0.417
REMARK UNBOUND:                -0.167
REMARK  Name = ZINC000035199124
REMARK                            x       y       z     vdW  Elec       q    Type
REMARK                         _______ _______ _______ _____ _____    ______ ____
ROOT
ATOM      1  C   LIG    1       28.966 -20.537   2.739  0.00  0.00    +0.030 A 
ATOM      2  C   LIG    1       28.513 -19.614   3.659  0.00  0.00    +0.080 A 
ATOM      3  C   LIG    1       29.479 -18.606   3.733  0.00  0.00    +0.080 A 
ATOM      4  C   LIG    1       30.480 -18.926   2.878  0.00  0.00    +0.080 A 
ATOM      5  N   LIG    1       30.184 -20.096   2.275  0.00  0.00    -0.390 N 
ATOM      6  C   LIG    1       31.018 -20.777   1.281  0.00  0.00    +0.350 C 
ENDROOT
BRANCH   4   7
ATOM      7  N   LIG    1       31.702 -18.123   2.648  0.00  0.00    +0.050 N 
ATOM      8  O   LIG    1       31.763 -17.366   1.696  0.00  0.00    -0.170 OA
ATOM      9  O   LIG    1       32.648 -18.220   3.409  0.00  0.00    -0.120 OA
ENDBRANCH   4   7
BRANCH   1  10
ATOM     10  C   LIG    1       28.279 -21.767   2.336  0.00  0.00    +0.540 C 
ATOM     11  O   LIG    1       28.121 -22.667   3.140  0.00  0.00    -0.480 OA
BRANCH  10  12
ATOM     12  O   LIG    1       27.821 -21.903   1.075  0.00  0.00    -0.360 OA
BRANCH  12  14
ATOM     13  C   LIG    1       25.582 -20.946   1.119  0.00  0.00    +0.070 C 
ATOM     14  C   LIG    1       26.998 -20.826   0.553  0.00  0.00    +0.220 C 
ENDBRANCH  12  14
ENDBRANCH  10  12
ENDBRANCH   1  10
TORSDOF 4
ENDMDL
MODEL 5
REMARK VINA RESULT:    -5.037      2.429      3.075
REMARK INTER + INTRA:          -6.381
REMARK INTER:                  -5.961
REMARK INTRA:                  -0.421
REMARK UNBOUND:                -0.167
REMARK  Name = ZINC000035199124
REMARK                            x       y       z     vdW  Elec       q    Type
REMARK                         _______ _______ _______ _____ _____    ______ ____
ROOT
ATOM      1  C   LIG    1       28.937 -18.858   1.170  0.00  0.00    +0.030 A 
ATOM      2  C   LIG    1       29.243 -18.491   2.463  0.00  0.00    +0.080 A 
ATOM      3  C   LIG    1       28.716 -19.479   3.302  0.00  0.00    +0.080 A 
ATOM      4  C   LIG    1       28.112 -20.407   2.522  0.00  0.00    +0.080 A 
ATOM      5  N   LIG    1       28.233 -20.040   1.229  0.00  0.00    -0.390 N 
ATOM      6  C   LIG    1       27.711 -20.782   0.079  0.00  0.00    +0.350 C 
ENDROOT
BRANCH   4   7
ATOM      7  N   LIG    1       27.426 -21.624   3.010  0.00  0.00    +0.050 N 
ATOM      8  O   LIG    1       26.212 -21.638   3.114  0.00  0.00    -0.170 OA
ATOM      9  O   LIG    1       28.073 -22.611   3.309  0.00  0.00    -0.120 OA
ENDBRANCH   4   7
BRANCH   1  10
ATOM     10  C   LIG    1       29.288 -18.120  -0.047  0.00  0.00    +0.540 C 
ATOM     11  O   LIG    1       28.491 -17.345  -0.540  0.00  0.00    -0.480 OA
BRANCH  10  12
ATOM     12  O   LIG    1       30.496 -18.298  -0.619  0.00  0.00    -0.360 OA
BRANCH  12  14
ATOM     13  C   LIG    1       32.097 -16.877   0.543  0.00  0.00    +0.070 C 
ATOM     14  C   LIG    1       31.338 -17.124  -0.763  0.00  0.00    +0.220 C 
ENDBRANCH  12  14
ENDBRANCH  10  12
ENDBRANCH   1  10
TORSDOF 4
ENDMDL
MODEL 6
REMARK VINA RESULT:    -4.938      1.583      1.879
REMARK INTER + INTRA:          -6.260
REMARK INTER:                  -5.856
REMARK INTRA:                  -0.404
REMARK UNBOUND:                -0.167
REMARK  Name = ZINC000035199124
REMARK                            x       y       z     vdW  Elec       q    Type
REMARK                         _______ _______ _______ _____ _____    ______ ____
ROOT
ATOM      1  C   LIG    1       29.607 -18.184   2.355  0.00  0.00    +0.030 A 
ATOM      2  C   LIG    1       29.319 -18.751   3.580  0.00  0.00    +0.080 A 
ATOM      3  C   LIG    1       28.438 -19.810   3.341  0.00  0.00    +0.080 A 
ATOM      4  C   LIG    1       28.209 -19.867   2.007  0.00  0.00    +0.080 A 
ATOM      5  N   LIG    1       28.906 -18.885   1.400  0.00  0.00    -0.390 N 
ATOM      6  C   LIG    1       28.922 -18.616  -0.040  0.00  0.00    +0.350 C 
ENDROOT
BRANCH   4   7
ATOM      7  N   LIG    1       27.332 -20.847   1.328  0.00  0.00    +0.050 N 
ATOM      8  O   LIG    1       26.137 -20.629   1.230  0.00  0.00    -0.170 OA
ATOM      9  O   LIG    1       27.803 -21.872   0.869  0.00  0.00    -0.120 OA
ENDBRANCH   4   7
BRANCH   1  10
ATOM     10  C   LIG    1       30.490 -17.040   2.116  0.00  0.00    +0.540 C 
ATOM     11  O   LIG    1       30.017 -15.957   1.826  0.00  0.00    -0.480 OA
BRANCH  10  12
ATOM     12  O   LIG    1       31.827 -17.186   2.218  0.00  0.00    -0.360 OA
BRANCH  12  14
ATOM     13  C   LIG    1       32.883 -18.839   0.775  0.00  0.00    +0.070 C 
ATOM     14  C   LIG    1       32.568 -17.356   0.981  0.00  0.00    +0.220 C 
ENDBRANCH  12  14
ENDBRANCH  10  12
ENDBRANCH   1  10
TORSDOF 4
ENDMDL
MODEL 7
REMARK VINA RESULT:    -4.847     24.124     24.950
REMARK INTER + INTRA:          -6.147
REMARK INTER:                  -5.729
REMARK INTRA:                  -0.418
REMARK UNBOUND:                -0.167
REMARK  Name = ZINC000035199124
REMARK                            x       y       z     vdW  Elec       q    Type
REMARK                         _______ _______ _______ _____ _____    ______ ____
ROOT
ATOM      1  C   LIG    1       15.217 -10.728  20.340  0.00  0.00    +0.030 A 
ATOM      2  C   LIG    1       16.569 -10.503  20.185  0.00  0.00    +0.080 A 
ATOM      3  C   LIG    1       17.230 -11.613  20.718  0.00  0.00    +0.080 A 
ATOM      4  C   LIG    1       16.291 -12.474  21.179  0.00  0.00    +0.080 A 
ATOM      5  N   LIG    1       15.068 -11.947  20.961  0.00  0.00    -0.390 N 
ATOM      6  C   LIG    1       13.794 -12.576  21.316  0.00  0.00    +0.350 C 
ENDROOT
BRANCH   4   7
ATOM      7  N   LIG    1       16.564 -13.780  21.821  0.00  0.00    +0.050 N 
ATOM      8  O   LIG    1       16.469 -14.808  21.175  0.00  0.00    -0.170 OA
ATOM      9  O   LIG    1       16.882 -13.827  22.996  0.00  0.00    -0.120 OA
ENDBRANCH   4   7
BRANCH   1  10
ATOM     10  C   LIG    1       14.136  -9.829  19.926  0.00  0.00    +0.540 C 
ATOM     11  O   LIG    1       13.633  -9.950  18.824  0.00  0.00    -0.480 OA
BRANCH  10  12
ATOM     12  O   LIG    1       13.696  -8.871  20.766  0.00  0.00    -0.360 OA
BRANCH  12  14
ATOM     13  C   LIG    1       12.901  -9.368  23.013  0.00  0.00    +0.070 C 
ATOM     14  C   LIG    1       12.510  -9.171  21.547  0.00  0.00    +0.220 C 
ENDBRANCH  12  14
ENDBRANCH  10  12
ENDBRANCH   1  10
TORSDOF 4
ENDMDL
MODEL 8
REMARK VINA RESULT:    -4.841     16.089     17.338
REMARK INTER + INTRA:          -6.139
REMARK INTER:                  -5.773
REMARK INTRA:                  -0.366
REMARK UNBOUND:                -0.167
REMARK  Name = ZINC000035199124
REMARK                            x       y       z     vdW  Elec       q    Type
REMARK                         _______ _______ _______ _____ _____    ______ ____
ROOT
ATOM      1  C   LIG    1       20.886 -23.098  16.423  0.00  0.00    +0.030 A 
ATOM      2  C   LIG    1       20.587 -21.836  16.892  0.00  0.00    +0.080 A 
ATOM      3  C   LIG    1       21.102 -21.751  18.189  0.00  0.00    +0.080 A 
ATOM      4  C   LIG    1       21.690 -22.936  18.481  0.00  0.00    +0.080 A 
ATOM      5  N   LIG    1       21.561 -23.763  17.422  0.00  0.00    -0.390 N 
ATOM      6  C   LIG    1       22.066 -25.135  17.345  0.00  0.00    +0.350 C 
ENDROOT
BRANCH   4   7
ATOM      7  N   LIG    1       22.361 -23.271  19.757  0.00  0.00    +0.050 N 
ATOM      8  O   LIG    1       23.558 -23.084  19.882  0.00  0.00    -0.170 OA
ATOM      9  O   LIG    1       21.718 -23.735  20.681  0.00  0.00    -0.120 OA
ENDBRANCH   4   7
BRANCH   1  10
ATOM     10  C   LIG    1       20.541 -23.637  15.105  0.00  0.00    +0.540 C 
ATOM     11  O   LIG    1       19.614 -24.418  14.991  0.00  0.00    -0.480 OA
BRANCH  10  12
ATOM     12  O   LIG    1       21.247 -23.267  14.018  0.00  0.00    -0.360 OA
BRANCH  12  14
ATOM     13  C   LIG    1       23.358 -22.434  13.134  0.00  0.00    +0.070 C 
ATOM     14  C   LIG    1       22.688 -23.434  14.079  0.00  0.00    +0.220 C 
ENDBRANCH  12  14
ENDBRANCH  10  12
ENDBRANCH   1  10
TORSDOF 4
ENDMDL
MODEL 9
REMARK VINA RESULT:    -4.817      2.474      5.317
REMARK INTER + INTRA:          -6.110
REMARK INTER:                  -5.920
REMARK INTRA:                  -0.190
REMARK UNBOUND:                -0.167
REMARK  Name = ZINC000035199124
REMARK                            x       y       z     vdW  Elec       q    Type
REMARK                         _______ _______ _______ _____ _____    ______ ____
ROOT
ATOM      1  C   LIG    1       29.422 -18.930   2.165  0.00  0.00    +0.030 A 
ATOM      2  C   LIG    1       28.917 -18.510   0.952  0.00  0.00    +0.080 A 
ATOM      3  C   LIG    1       29.740 -17.470   0.507  0.00  0.00    +0.080 A 
ATOM      4  C   LIG    1       30.708 -17.279   1.436  0.00  0.00    +0.080 A 
ATOM      5  N   LIG    1       30.523 -18.153   2.448  0.00  0.00    -0.390 N 
ATOM      6  C   LIG    1       31.363 -18.263   3.643  0.00  0.00    +0.350 C 
ENDROOT
BRANCH   4   7
ATOM      7  N   LIG    1       31.789 -16.272   1.355  0.00  0.00    +0.050 N 
ATOM      8  O   LIG    1       32.897 -16.598   0.969  0.00  0.00    -0.170 OA
ATOM      9  O   LIG    1       31.572 -15.117   1.676  0.00  0.00    -0.120 OA
ENDBRANCH   4   7
BRANCH   1  10
ATOM     10  C   LIG    1       28.881 -20.002   3.005  0.00  0.00    +0.540 C 
ATOM     11  O   LIG    1       29.619 -20.871   3.431  0.00  0.00    -0.480 OA
BRANCH  10  12
ATOM     12  O   LIG    1       27.567 -20.025   3.306  0.00  0.00    -0.360 OA
BRANCH  12  14
ATOM     13  C   LIG    1       26.163 -20.850   1.495  0.00  0.00    +0.070 C 
ATOM     14  C   LIG    1       26.805 -21.172   2.847  0.00  0.00    +0.220 C 
ENDBRANCH  12  14
ENDBRANCH  10  12
ENDBRANCH   1  10
TORSDOF 4
ENDMDL
