MODEL 1
REMARK VINA RESULT:    -5.786      0.000      0.000
REMARK INTER + INTRA:          -6.548
REMARK INTER:                  -6.462
REMARK INTRA:                  -0.086
REMARK UNBOUND:                -0.086
REMARK  Name = ZINC000020474732
REMARK                            x       y       z     vdW  Elec       q    Type
REMARK                         _______ _______ _______ _____ _____    ______ ____
ROOT
ATOM      1  C   LIG    1       29.206 -18.824   3.109  0.00  0.00    +0.240 A 
ATOM      2  C   LIG    1       28.447 -19.871   3.613  0.00  0.00    -0.020 A 
ATOM      3  C   LIG    1       27.624 -20.594   2.771  0.00  0.00    +0.150 A 
ATOM      4  C   LIG    1       27.556 -20.278   1.428  0.00  0.00    -0.080 A 
ATOM      5  C   LIG    1       28.311 -19.236   0.919  0.00  0.00    +0.130 A 
ATOM      6  C   LIG    1       29.132 -18.505   1.757  0.00  0.00    +0.020 A 
ATOM      7  F   LIG    1       29.869 -17.486   1.261  0.00  0.00    -0.130 F 
ENDROOT
BRANCH   1   9
ATOM      8  C   LIG    1       30.164 -18.468   5.369  0.00  0.00    +0.300 C 
ATOM      9  N   LIG    1       30.039 -18.089   3.959  0.00  0.00    -0.730 N 
ATOM     10  H   LIG    1       30.533 -17.329   3.614  0.00  0.00    +0.410 HD
ENDBRANCH   1   9
BRANCH   4  11
ATOM     11  N   LIG    1       26.674 -21.056   0.529  0.00  0.00    +0.040 N 
ATOM     12  O   LIG    1       25.506 -21.232   0.825  0.00  0.00    -0.170 OA
ATOM     13  O   LIG    1       27.117 -21.521  -0.506  0.00  0.00    -0.160 OA
ENDBRANCH   4  11
TORSDOF 2
ENDMDL
MODEL 2
REMARK VINA RESULT:    -5.704      1.474      2.049
REMARK INTER + INTRA:          -6.457
REMARK INTER:                  -6.350
REMARK INTRA:                  -0.107
REMARK UNBOUND:                -0.086
REMARK  Name = ZINC000020474732
REMARK                            x       y       z     vdW  Elec       q    Type
REMARK                         _______ _______ _______ _____ _____    ______ ____
ROOT
ATOM      1  C   LIG    1       29.435 -18.230   2.331  0.00  0.00    +0.240 A 
ATOM      2  C   LIG    1       29.226 -18.155   0.961  0.00  0.00    -0.020 A 
ATOM      3  C   LIG    1       28.373 -19.049   0.343  0.00  0.00    +0.150 A 
ATOM      4  C   LIG    1       27.726 -20.018   1.087  0.00  0.00    -0.080 A 
ATOM      5  C   LIG    1       27.930 -20.097   2.454  0.00  0.00    +0.130 A 
ATOM      6  C   LIG    1       28.786 -19.209   3.077  0.00  0.00    +0.020 A 
ATOM      7  F   LIG    1       28.986 -19.286   4.411  0.00  0.00    -0.130 F 
ENDROOT
BRANCH   1   9
ATOM      8  C   LIG    1       31.727 -17.635   3.068  0.00  0.00    +0.300 C 
ATOM      9  N   LIG    1       30.298 -17.327   2.959  0.00  0.00    -0.730 N 
ATOM     10  H   LIG    1       29.951 -16.497   3.322  0.00  0.00    +0.410 HD
ENDBRANCH   1   9
BRANCH   4  11
ATOM     11  N   LIG    1       26.813 -20.973   0.422  0.00  0.00    +0.040 N 
ATOM     12  O   LIG    1       25.700 -21.171   0.877  0.00  0.00    -0.170 OA
ATOM     13  O   LIG    1       27.173 -21.562  -0.582  0.00  0.00    -0.160 OA
ENDBRANCH   4  11
TORSDOF 2
ENDMDL
MODEL 3
REMARK VINA RESULT:    -5.350      1.490      1.909
REMARK INTER + INTRA:          -6.061
REMARK INTER:                  -5.963
REMARK INTRA:                  -0.098
REMARK UNBOUND:                -0.086
REMARK  Name = ZINC000020474732
REMARK                            x       y       z     vdW  Elec       q    Type
REMARK                         _______ _______ _______ _____ _____    ______ ____
ROOT
ATOM      1  C   LIG    1       29.665 -17.752   1.729  0.00  0.00    +0.240 A 
ATOM      2  C   LIG    1       29.243 -18.657   2.692  0.00  0.00    -0.020 A 
ATOM      3  C   LIG    1       28.357 -19.662   2.354  0.00  0.00    +0.150 A 
ATOM      4  C   LIG    1       27.890 -19.768   1.057  0.00  0.00    -0.080 A 
ATOM      5  C   LIG    1       28.308 -18.868   0.092  0.00  0.00    +0.130 A 
ATOM      6  C   LIG    1       29.190 -17.857   0.425  0.00  0.00    +0.020 A 
ATOM      7  F   LIG    1       29.598 -16.978  -0.517  0.00  0.00    -0.130 F 
ENDROOT
BRANCH   1   9
ATOM      8  C   LIG    1       31.952 -17.060   2.392  0.00  0.00    +0.300 C 
ATOM      9  N   LIG    1       30.561 -16.734   2.068  0.00  0.00    -0.730 N 
ATOM     10  H   LIG    1       30.261 -15.811   2.090  0.00  0.00    +0.410 HD
ENDBRANCH   1   9
BRANCH   4  11
ATOM     11  N   LIG    1       26.942 -20.846   0.699  0.00  0.00    +0.040 N 
ATOM     12  O   LIG    1       27.062 -21.437  -0.359  0.00  0.00    -0.170 OA
ATOM     13  O   LIG    1       26.040 -21.142   1.462  0.00  0.00    -0.160 OA
ENDBRANCH   4  11
TORSDOF 2
ENDMDL
MODEL 4
REMARK VINA RESULT:    -5.292      3.787      5.107
REMARK INTER + INTRA:          -5.997
REMARK INTER:                  -5.909
REMARK INTRA:                  -0.088
REMARK UNBOUND:                -0.086
REMARK  Name = ZINC000020474732
REMARK                            x       y       z     vdW  Elec       q    Type
REMARK                         _______ _______ _______ _____ _____    ______ ____
ROOT
ATOM      1  C   LIG    1       28.450 -19.224   1.780  0.00  0.00    +0.240 A 
ATOM      2  C   LIG    1       28.928 -18.631   0.619  0.00  0.00    -0.020 A 
ATOM      3  C   LIG    1       29.957 -17.711   0.687  0.00  0.00    +0.150 A 
ATOM      4  C   LIG    1       30.513 -17.381   1.909  0.00  0.00    -0.080 A 
ATOM      5  C   LIG    1       30.042 -17.969   3.069  0.00  0.00    +0.130 A 
ATOM      6  C   LIG    1       29.008 -18.886   3.009  0.00  0.00    +0.020 A 
ATOM      7  F   LIG    1       28.547 -19.460   4.142  0.00  0.00    -0.130 F 
ENDROOT
BRANCH   1   9
ATOM      8  C   LIG    1       26.987 -20.692   0.419  0.00  0.00    +0.300 C 
ATOM      9  N   LIG    1       27.408 -20.154   1.715  0.00  0.00    -0.730 N 
ATOM     10  H   LIG    1       26.964 -20.442   2.528  0.00  0.00    +0.410 HD
ENDBRANCH   1   9
BRANCH   4  11
ATOM     11  N   LIG    1       31.616 -16.397   1.976  0.00  0.00    +0.040 N 
ATOM     12  O   LIG    1       31.561 -15.374   1.317  0.00  0.00    -0.170 OA
ATOM     13  O   LIG    1       32.578 -16.609   2.692  0.00  0.00    -0.160 OA
ENDBRANCH   4  11
TORSDOF 2
ENDMDL
MODEL 5
REMARK VINA RESULT:    -5.094      3.715      4.739
REMARK INTER + INTRA:          -5.776
REMARK INTER:                  -5.683
REMARK INTRA:                  -0.093
REMARK UNBOUND:                -0.086
REMARK  Name = ZINC000020474732
REMARK                            x       y       z     vdW  Elec       q    Type
REMARK                         _______ _______ _______ _____ _____    ______ ____
ROOT
ATOM      1  C   LIG    1       28.572 -19.194   2.351  0.00  0.00    +0.240 A 
ATOM      2  C   LIG    1       29.370 -18.910   3.450  0.00  0.00    -0.020 A 
ATOM      3  C   LIG    1       30.397 -17.991   3.338  0.00  0.00    +0.150 A 
ATOM      4  C   LIG    1       30.630 -17.355   2.134  0.00  0.00    -0.080 A 
ATOM      5  C   LIG    1       29.837 -17.634   1.035  0.00  0.00    +0.130 A 
ATOM      6  C   LIG    1       28.812 -18.556   1.138  0.00  0.00    +0.020 A 
ATOM      7  F   LIG    1       28.038 -18.829   0.065  0.00  0.00    -0.130 F 
ENDROOT
BRANCH   1   9
ATOM      8  C   LIG    1       27.824 -21.503   2.860  0.00  0.00    +0.300 C 
ATOM      9  N   LIG    1       27.533 -20.124   2.460  0.00  0.00    -0.730 N 
ATOM     10  H   LIG    1       26.620 -19.855   2.271  0.00  0.00    +0.410 HD
ENDBRANCH   1   9
BRANCH   4  11
ATOM     11  N   LIG    1       31.729 -16.371   2.019  0.00  0.00    +0.040 N 
ATOM     12  O   LIG    1       31.593 -15.383   1.321  0.00  0.00    -0.170 OA
ATOM     13  O   LIG    1       32.772 -16.551   2.622  0.00  0.00    -0.160 OA
ENDBRANCH   4  11
TORSDOF 2
ENDMDL
MODEL 6
REMARK VINA RESULT:    -4.892     15.168     16.107
REMARK INTER + INTRA:          -5.550
REMARK INTER:                  -5.450
REMARK INTRA:                  -0.100
REMARK UNBOUND:                -0.086
REMARK  Name = ZINC000020474732
REMARK                            x       y       z     vdW  Elec       q    Type
REMARK                         _______ _______ _______ _____ _____    ______ ____
ROOT
ATOM      1  C   LIG    1       22.785 -21.386  17.738  0.00  0.00    +0.240 A 
ATOM      2  C   LIG    1       21.405 -21.476  17.860  0.00  0.00    -0.020 A 
ATOM      3  C   LIG    1       20.675 -22.186  16.927  0.00  0.00    +0.150 A 
ATOM      4  C   LIG    1       21.315 -22.808  15.872  0.00  0.00    -0.080 A 
ATOM      5  C   LIG    1       22.691 -22.722  15.745  0.00  0.00    +0.130 A 
ATOM      6  C   LIG    1       23.427 -22.008  16.672  0.00  0.00    +0.020 A 
ATOM      7  F   LIG    1       24.770 -21.924  16.549  0.00  0.00    -0.130 F 
ENDROOT
BRANCH   1   9
ATOM      8  C   LIG    1       23.830 -21.263  19.983  0.00  0.00    +0.300 C 
ATOM      9  N   LIG    1       23.526 -20.667  18.680  0.00  0.00    -0.730 N 
ATOM     10  H   LIG    1       23.839 -19.772  18.471  0.00  0.00    +0.410 HD
ENDBRANCH   1   9
BRANCH   4  11
ATOM     11  N   LIG    1       20.529 -23.569  14.875  0.00  0.00    +0.040 N 
ATOM     12  O   LIG    1       20.591 -23.272  13.695  0.00  0.00    -0.170 OA
ATOM     13  O   LIG    1       19.821 -24.492  15.234  0.00  0.00    -0.160 OA
ENDBRANCH   4  11
TORSDOF 2
ENDMDL
MODEL 7
REMARK VINA RESULT:    -4.837     14.577     15.532
REMARK INTER + INTRA:          -5.488
REMARK INTER:                  -5.396
REMARK INTRA:                  -0.092
REMARK UNBOUND:                -0.086
REMARK  Name = ZINC000020474732
REMARK                            x       y       z     vdW  Elec       q    Type
REMARK                         _______ _______ _______ _____ _____    ______ ____
ROOT
ATOM      1  C   LIG    1       22.750 -23.240  13.995  0.00  0.00    +0.240 A 
ATOM      2  C   LIG    1       21.368 -23.112  13.998  0.00  0.00    -0.020 A 
ATOM      3  C   LIG    1       20.700 -22.870  15.184  0.00  0.00    +0.150 A 
ATOM      4  C   LIG    1       21.407 -22.755  16.367  0.00  0.00    -0.080 A 
ATOM      5  C   LIG    1       22.785 -22.881  16.369  0.00  0.00    +0.130 A 
ATOM      6  C   LIG    1       23.458 -23.129  15.187  0.00  0.00    +0.020 A 
ATOM      7  F   LIG    1       24.803 -23.253  15.189  0.00  0.00    -0.130 F 
ENDROOT
BRANCH   1   9
ATOM      8  C   LIG    1       24.088 -22.386  12.090  0.00  0.00    +0.300 C 
ATOM      9  N   LIG    1       23.427 -23.486  12.797  0.00  0.00    -0.730 N 
ATOM     10  H   LIG    1       23.459 -24.385  12.434  0.00  0.00    +0.410 HD
ENDBRANCH   1   9
BRANCH   4  11
ATOM     11  N   LIG    1       20.689 -22.495  17.634  0.00  0.00    +0.040 N 
ATOM     12  O   LIG    1       20.398 -21.354  17.948  0.00  0.00    -0.170 OA
ATOM     13  O   LIG    1       20.387 -23.422  18.364  0.00  0.00    -0.160 OA
ENDBRANCH   4  11
TORSDOF 2
ENDMDL
MODEL 8
REMARK VINA RESULT:    -4.822      3.506      4.740
REMARK INTER + INTRA:          -5.471
REMARK INTER:                  -5.390
REMARK INTRA:                  -0.082
REMARK UNBOUND:                -0.086
REMARK  Name = ZINC000020474732
REMARK                            x       y       z     vdW  Elec       q    Type
REMARK                         _______ _______ _______ _____ _____    ______ ____
ROOT
ATOM      1  C   LIG    1       28.855 -18.429   1.140  0.00  0.00    +0.240 A 
ATOM      2  C   LIG    1       29.843 -17.618   1.682  0.00  0.00    -0.020 A 
ATOM      3  C   LIG    1       30.235 -17.793   2.996  0.00  0.00    +0.150 A 
ATOM      4  C   LIG    1       29.647 -18.775   3.771  0.00  0.00    -0.080 A 
ATOM      5  C   LIG    1       28.662 -19.586   3.235  0.00  0.00    +0.130 A 
ATOM      6  C   LIG    1       28.261 -19.413   1.924  0.00  0.00    +0.020 A 
ATOM      7  F   LIG    1       27.299 -20.205   1.401  0.00  0.00    -0.130 F 
ENDROOT
BRANCH   1   9
ATOM      8  C   LIG    1       28.930 -17.095  -0.949  0.00  0.00    +0.300 C 
ATOM      9  N   LIG    1       28.455 -18.254  -0.188  0.00  0.00    -0.730 N 
ATOM     10  H   LIG    1       27.863 -18.899  -0.605  0.00  0.00    +0.410 HD
ENDBRANCH   1   9
BRANCH   4  11
ATOM     11  N   LIG    1       30.071 -18.959   5.176  0.00  0.00    +0.040 N 
ATOM     12  O   LIG    1       29.704 -18.173   6.032  0.00  0.00    -0.170 OA
ATOM     13  O   LIG    1       30.786 -19.897   5.479  0.00  0.00    -0.160 OA
ENDBRANCH   4  11
TORSDOF 2
ENDMDL
MODEL 9
REMARK VINA RESULT:    -4.808     21.260     21.827
REMARK INTER + INTRA:          -5.456
REMARK INTER:                  -5.365
REMARK INTRA:                  -0.091
REMARK UNBOUND:                -0.086
REMARK  Name = ZINC000020474732
REMARK                            x       y       z     vdW  Elec       q    Type
REMARK                         _______ _______ _______ _____ _____    ______ ____
ROOT
ATOM      1  C   LIG    1       24.123  -0.647  11.409  0.00  0.00    +0.240 A 
ATOM      2  C   LIG    1       23.532  -1.044  10.217  0.00  0.00    -0.020 A 
ATOM      3  C   LIG    1       23.923  -0.463   9.026  0.00  0.00    +0.150 A 
ATOM      4  C   LIG    1       24.902   0.512   9.018  0.00  0.00    -0.080 A 
ATOM      5  C   LIG    1       25.495   0.912  10.203  0.00  0.00    +0.130 A 
ATOM      6  C   LIG    1       25.104   0.339  11.399  0.00  0.00    +0.020 A 
ATOM      7  F   LIG    1       25.682   0.729  12.556  0.00  0.00    -0.130 F 
ENDROOT
BRANCH   1   9
ATOM      8  C   LIG    1       22.454  -1.950  12.700  0.00  0.00    +0.300 C 
ATOM      9  N   LIG    1       23.729  -1.232  12.616  0.00  0.00    -0.730 N 
ATOM     10  H   LIG    1       24.299  -1.162  13.397  0.00  0.00    +0.410 HD
ENDBRANCH   1   9
BRANCH   4  11
ATOM     11  N   LIG    1       25.318   1.131   7.740  0.00  0.00    +0.040 N 
ATOM     12  O   LIG    1       25.184   0.521   6.695  0.00  0.00    -0.170 OA
ATOM     13  O   LIG    1       25.795   2.252   7.733  0.00  0.00    -0.160 OA
ENDBRANCH   4  11
TORSDOF 2
ENDMDL
