MODEL 1
REMARK VINA RESULT:    -5.583      0.000      0.000
REMARK INTER + INTRA:          -6.707
REMARK INTER:                  -6.562
REMARK INTRA:                  -0.146
REMARK UNBOUND:                -0.146
REMARK  Name = ZINC000238531635
REMARK                            x       y       z     vdW  Elec       q    Type
REMARK                         _______ _______ _______ _____ _____    ______ ____
ROOT
ATOM      1  C   LIG    1       27.640 -20.408   1.599  0.00  0.00    -0.120 A 
ATOM      2  C   LIG    1       27.777 -20.946   2.861  0.00  0.00    +0.410 A 
ATOM      3  N   LIG    1       28.548 -20.369   3.763  0.00  0.00    -0.480 NA
ATOM      4  C   LIG    1       29.215 -19.261   3.502  0.00  0.00    +0.380 A 
ATOM      5  C   LIG    1       29.131 -18.660   2.263  0.00  0.00    -0.080 A 
ATOM      6  C   LIG    1       28.332 -19.241   1.281  0.00  0.00    +0.220 A 
ENDROOT
BRANCH   1   8
ATOM      7  O   LIG    1       27.253 -21.471  -0.449  0.00  0.00    -0.160 OA
ATOM      8  N   LIG    1       26.773 -21.062   0.593  0.00  0.00    +0.040 N 
ATOM      9  O   LIG    1       25.583 -21.196   0.809  0.00  0.00    -0.130 OA
ENDBRANCH   1   8
BRANCH   6  10
ATOM     10  O   LIG    1       28.223 -18.680   0.050  0.00  0.00    -0.290 OA
BRANCH  10  11
ATOM     11  C   LIG    1       29.106 -17.597  -0.250  0.00  0.00    +0.610 C 
ATOM     12  F   LIG    1       28.465 -16.698  -1.109  0.00  0.00    -0.190 F 
ATOM     13  F   LIG    1       30.258 -18.092  -0.869  0.00  0.00    -0.190 F 
ENDBRANCH  10  11
ENDBRANCH   6  10
TORSDOF 3
ENDMDL
MODEL 2
REMARK VINA RESULT:    -5.164      3.302      3.868
REMARK INTER + INTRA:          -6.215
REMARK INTER:                  -5.838
REMARK INTRA:                  -0.377
REMARK UNBOUND:                -0.146
REMARK  Name = ZINC000238531635
REMARK                            x       y       z     vdW  Elec       q    Type
REMARK                         _______ _______ _______ _____ _____    ______ ____
ROOT
ATOM      1  C   LIG    1       28.942 -21.388   2.131  0.00  0.00    -0.120 A 
ATOM      2  C   LIG    1       30.044 -20.737   2.646  0.00  0.00    +0.410 A 
ATOM      3  N   LIG    1       30.209 -19.440   2.467  0.00  0.00    -0.480 NA
ATOM      4  C   LIG    1       29.336 -18.714   1.795  0.00  0.00    +0.380 A 
ATOM      5  C   LIG    1       28.207 -19.290   1.248  0.00  0.00    -0.080 A 
ATOM      6  C   LIG    1       27.999 -20.657   1.411  0.00  0.00    +0.220 A 
ENDROOT
BRANCH   1   8
ATOM      7  O   LIG    1       28.272 -23.255   3.372  0.00  0.00    -0.160 OA
ATOM      8  N   LIG    1       28.764 -22.843   2.337  0.00  0.00    +0.040 N 
ATOM      9  O   LIG    1       29.106 -23.627   1.470  0.00  0.00    -0.130 OA
ENDBRANCH   1   8
BRANCH   6  10
ATOM     10  O   LIG    1       26.901 -21.261   0.888  0.00  0.00    -0.290 OA
BRANCH  10  11
ATOM     11  C   LIG    1       25.636 -20.897   1.442  0.00  0.00    +0.610 C 
ATOM     12  F   LIG    1       25.603 -21.242   2.797  0.00  0.00    -0.190 F 
ATOM     13  F   LIG    1       24.618 -21.575   0.764  0.00  0.00    -0.190 F 
ENDBRANCH  10  11
ENDBRANCH   6  10
TORSDOF 3
ENDMDL
MODEL 3
REMARK VINA RESULT:    -5.025     15.041     16.098
REMARK INTER + INTRA:          -6.052
REMARK INTER:                  -5.650
REMARK INTRA:                  -0.402
REMARK UNBOUND:                -0.146
REMARK  Name = ZINC000238531635
REMARK                            x       y       z     vdW  Elec       q    Type
REMARK                         _______ _______ _______ _____ _____    ______ ____
ROOT
ATOM      1  C   LIG    1       21.086 -22.763  15.969  0.00  0.00    -0.120 A 
ATOM      2  C   LIG    1       20.581 -22.032  17.024  0.00  0.00    +0.410 A 
ATOM      3  N   LIG    1       21.380 -21.549  17.957  0.00  0.00    -0.480 NA
ATOM      4  C   LIG    1       22.684 -21.740  17.924  0.00  0.00    +0.380 A 
ATOM      5  C   LIG    1       23.268 -22.460  16.901  0.00  0.00    -0.080 A 
ATOM      6  C   LIG    1       22.459 -22.991  15.900  0.00  0.00    +0.220 A 
ENDROOT
BRANCH   1   8
ATOM      7  O   LIG    1       19.685 -24.404  15.065  0.00  0.00    -0.160 OA
ATOM      8  N   LIG    1       20.183 -23.301  14.927  0.00  0.00    +0.040 N 
ATOM      9  O   LIG    1       19.934 -22.639  13.936  0.00  0.00    -0.130 OA
ENDBRANCH   1   8
BRANCH   6  10
ATOM     10  O   LIG    1       22.995 -23.705  14.878  0.00  0.00    -0.290 OA
BRANCH  10  11
ATOM     11  C   LIG    1       23.771 -22.984  13.919  0.00  0.00    +0.610 C 
ATOM     12  F   LIG    1       22.963 -22.036  13.282  0.00  0.00    -0.190 F 
ATOM     13  F   LIG    1       24.283 -23.873  12.969  0.00  0.00    -0.190 F 
ENDBRANCH  10  11
ENDBRANCH   6  10
TORSDOF 3
ENDMDL
MODEL 4
REMARK VINA RESULT:    -5.004      3.131      4.043
REMARK INTER + INTRA:          -6.027
REMARK INTER:                  -5.911
REMARK INTRA:                  -0.116
REMARK UNBOUND:                -0.146
REMARK  Name = ZINC000238531635
REMARK                            x       y       z     vdW  Elec       q    Type
REMARK                         _______ _______ _______ _____ _____    ______ ____
ROOT
ATOM      1  C   LIG    1       29.195 -18.848   2.434  0.00  0.00    -0.120 A 
ATOM      2  C   LIG    1       30.031 -17.766   2.253  0.00  0.00    +0.410 A 
ATOM      3  N   LIG    1       30.052 -17.111   1.107  0.00  0.00    -0.480 NA
ATOM      4  C   LIG    1       29.281 -17.457   0.094  0.00  0.00    +0.380 A 
ATOM      5  C   LIG    1       28.416 -18.527   0.195  0.00  0.00    -0.080 A 
ATOM      6  C   LIG    1       28.369 -19.248   1.386  0.00  0.00    +0.220 A 
ENDROOT
BRANCH   1   8
ATOM      7  O   LIG    1       28.851 -19.000   4.744  0.00  0.00    -0.160 OA
ATOM      8  N   LIG    1       29.178 -19.578   3.722  0.00  0.00    +0.040 N 
ATOM      9  O   LIG    1       29.486 -20.755   3.760  0.00  0.00    -0.130 OA
ENDBRANCH   1   8
BRANCH   6  10
ATOM     10  O   LIG    1       27.531 -20.308   1.525  0.00  0.00    -0.290 OA
BRANCH  10  11
ATOM     11  C   LIG    1       26.667 -20.600   0.426  0.00  0.00    +0.610 C 
ATOM     12  F   LIG    1       25.486 -21.181   0.903  0.00  0.00    -0.190 F 
ATOM     13  F   LIG    1       27.304 -21.490  -0.445  0.00  0.00    -0.190 F 
ENDBRANCH  10  11
ENDBRANCH   6  10
TORSDOF 3
ENDMDL
MODEL 5
REMARK VINA RESULT:    -4.947      2.272      3.184
REMARK INTER + INTRA:          -5.960
REMARK INTER:                  -5.851
REMARK INTRA:                  -0.109
REMARK UNBOUND:                -0.146
REMARK  Name = ZINC000238531635
REMARK                            x       y       z     vdW  Elec       q    Type
REMARK                         _______ _______ _______ _____ _____    ______ ____
ROOT
ATOM      1  C   LIG    1       27.782 -20.608   2.595  0.00  0.00    -0.120 A 
ATOM      2  C   LIG    1       26.590 -21.095   3.090  0.00  0.00    +0.410 A 
ATOM      3  N   LIG    1       25.561 -21.306   2.291  0.00  0.00    -0.480 NA
ATOM      4  C   LIG    1       25.625 -21.064   0.996  0.00  0.00    +0.380 A 
ATOM      5  C   LIG    1       26.781 -20.576   0.423  0.00  0.00    -0.080 A 
ATOM      6  C   LIG    1       27.888 -20.335   1.233  0.00  0.00    +0.220 A 
ENDROOT
BRANCH   1   8
ATOM      7  O   LIG    1       29.886 -21.130   3.475  0.00  0.00    -0.160 OA
ATOM      8  N   LIG    1       28.931 -20.374   3.498  0.00  0.00    +0.040 N 
ATOM      9  O   LIG    1       28.925 -19.424   4.259  0.00  0.00    -0.130 OA
ENDBRANCH   1   8
BRANCH   6  10
ATOM     10  O   LIG    1       29.044 -19.856   0.707  0.00  0.00    -0.290 OA
BRANCH  10  11
ATOM     11  C   LIG    1       29.111 -18.450   0.461  0.00  0.00    +0.610 C 
ATOM     12  F   LIG    1       29.158 -17.765   1.680  0.00  0.00    -0.190 F 
ATOM     13  F   LIG    1       27.980 -18.047  -0.256  0.00  0.00    -0.190 F 
ENDBRANCH  10  11
ENDBRANCH   6  10
TORSDOF 3
ENDMDL
MODEL 6
REMARK VINA RESULT:    -4.873     16.055     17.181
REMARK INTER + INTRA:          -5.873
REMARK INTER:                  -5.488
REMARK INTRA:                  -0.385
REMARK UNBOUND:                -0.146
REMARK  Name = ZINC000238531635
REMARK                            x       y       z     vdW  Elec       q    Type
REMARK                         _______ _______ _______ _____ _____    ______ ____
ROOT
ATOM      1  C   LIG    1       21.267 -22.816  16.244  0.00  0.00    -0.120 A 
ATOM      2  C   LIG    1       20.484 -22.938  15.115  0.00  0.00    +0.410 A 
ATOM      3  N   LIG    1       21.026 -23.201  13.940  0.00  0.00    -0.480 NA
ATOM      4  C   LIG    1       22.327 -23.358  13.794  0.00  0.00    +0.380 A 
ATOM      5  C   LIG    1       23.179 -23.252  14.874  0.00  0.00    -0.080 A 
ATOM      6  C   LIG    1       22.647 -22.970  16.130  0.00  0.00    +0.220 A 
ENDROOT
BRANCH   1   8
ATOM      7  O   LIG    1       20.371 -23.431  18.316  0.00  0.00    -0.160 OA
ATOM      8  N   LIG    1       20.651 -22.521  17.557  0.00  0.00    +0.040 N 
ATOM      9  O   LIG    1       20.429 -21.368  17.880  0.00  0.00    -0.130 OA
ENDBRANCH   1   8
BRANCH   6  10
ATOM     10  O   LIG    1       23.451 -22.857  17.217  0.00  0.00    -0.290 OA
BRANCH  10  11
ATOM     11  C   LIG    1       24.172 -21.633  17.368  0.00  0.00    +0.610 C 
ATOM     12  F   LIG    1       25.482 -21.910  17.776  0.00  0.00    -0.190 F 
ATOM     13  F   LIG    1       23.543 -20.836  18.330  0.00  0.00    -0.190 F 
ENDBRANCH  10  11
ENDBRANCH   6  10
TORSDOF 3
ENDMDL
MODEL 7
REMARK VINA RESULT:    -4.788     16.290     17.495
REMARK INTER + INTRA:          -5.774
REMARK INTER:                  -5.402
REMARK INTRA:                  -0.372
REMARK UNBOUND:                -0.146
REMARK  Name = ZINC000238531635
REMARK                            x       y       z     vdW  Elec       q    Type
REMARK                         _______ _______ _______ _____ _____    ______ ____
ROOT
ATOM      1  C   LIG    1       22.334 -23.152  17.430  0.00  0.00    -0.120 A 
ATOM      2  C   LIG    1       23.007 -23.996  18.289  0.00  0.00    +0.410 A 
ATOM      3  N   LIG    1       22.590 -25.233  18.487  0.00  0.00    -0.480 NA
ATOM      4  C   LIG    1       21.524 -25.714  17.878  0.00  0.00    +0.380 A 
ATOM      5  C   LIG    1       20.797 -24.934  17.002  0.00  0.00    -0.080 A 
ATOM      6  C   LIG    1       21.200 -23.621  16.771  0.00  0.00    +0.220 A 
ENDROOT
BRANCH   1   8
ATOM      7  O   LIG    1       23.674 -21.542  16.387  0.00  0.00    -0.160 OA
ATOM      8  N   LIG    1       22.808 -21.767  17.213  0.00  0.00    +0.040 N 
ATOM      9  O   LIG    1       22.328 -20.852  17.857  0.00  0.00    -0.130 OA
ENDBRANCH   1   8
BRANCH   6  10
ATOM     10  O   LIG    1       20.511 -22.823  15.916  0.00  0.00    -0.290 OA
BRANCH  10  11
ATOM     11  C   LIG    1       20.487 -23.210  14.542  0.00  0.00    +0.610 C 
ATOM     12  F   LIG    1       21.797 -23.397  14.087  0.00  0.00    -0.190 F 
ATOM     13  F   LIG    1       19.870 -22.208  13.785  0.00  0.00    -0.190 F 
ENDBRANCH  10  11
ENDBRANCH   6  10
TORSDOF 3
ENDMDL
MODEL 8
REMARK VINA RESULT:    -4.741     24.875     25.753
REMARK INTER + INTRA:          -5.718
REMARK INTER:                  -5.320
REMARK INTRA:                  -0.398
REMARK UNBOUND:                -0.146
REMARK  Name = ZINC000238531635
REMARK                            x       y       z     vdW  Elec       q    Type
REMARK                         _______ _______ _______ _____ _____    ______ ____
ROOT
ATOM      1  C   LIG    1       15.440 -10.544  20.089  0.00  0.00    -0.120 A 
ATOM      2  C   LIG    1       16.718 -11.055  20.187  0.00  0.00    +0.410 A 
ATOM      3  N   LIG    1       16.990 -12.046  21.014  0.00  0.00    -0.480 NA
ATOM      4  C   LIG    1       16.062 -12.590  21.778  0.00  0.00    +0.380 A 
ATOM      5  C   LIG    1       14.759 -12.136  21.739  0.00  0.00    -0.080 A 
ATOM      6  C   LIG    1       14.432 -11.087  20.883  0.00  0.00    +0.220 A 
ENDROOT
BRANCH   1   8
ATOM      7  O   LIG    1       15.225  -8.279  19.544  0.00  0.00    -0.160 OA
ATOM      8  N   LIG    1       15.144  -9.432  19.159  0.00  0.00    +0.040 N 
ATOM      9  O   LIG    1       14.826  -9.669  18.008  0.00  0.00    -0.130 OA
ENDBRANCH   1   8
BRANCH   6  10
ATOM     10  O   LIG    1       13.162 -10.613  20.817  0.00  0.00    -0.290 OA
BRANCH  10  11
ATOM     11  C   LIG    1       12.686  -9.873  21.941  0.00  0.00    +0.610 C 
ATOM     12  F   LIG    1       11.324  -9.598  21.776  0.00  0.00    -0.190 F 
ATOM     13  F   LIG    1       13.394  -8.671  22.042  0.00  0.00    -0.190 F 
ENDBRANCH  10  11
ENDBRANCH   6  10
TORSDOF 3
ENDMDL
MODEL 9
REMARK VINA RESULT:    -4.725      3.397      4.638
REMARK INTER + INTRA:          -5.699
REMARK INTER:                  -5.454
REMARK INTRA:                  -0.245
REMARK UNBOUND:                -0.146
REMARK  Name = ZINC000238531635
REMARK                            x       y       z     vdW  Elec       q    Type
REMARK                         _______ _______ _______ _____ _____    ______ ____
ROOT
ATOM      1  C   LIG    1       31.670 -17.850   2.957  0.00  0.00    -0.120 A 
ATOM      2  C   LIG    1       32.452 -18.114   4.062  0.00  0.00    +0.410 A 
ATOM      3  N   LIG    1       31.905 -18.466   5.210  0.00  0.00    -0.480 NA
ATOM      4  C   LIG    1       30.599 -18.583   5.353  0.00  0.00    +0.380 A 
ATOM      5  C   LIG    1       29.747 -18.337   4.295  0.00  0.00    -0.080 A 
ATOM      6  C   LIG    1       30.285 -17.957   3.068  0.00  0.00    +0.220 A 
ENDROOT
BRANCH   1   8
ATOM      7  O   LIG    1       32.552 -18.302   0.838  0.00  0.00    -0.160 OA
ATOM      8  N   LIG    1       32.291 -17.455   1.673  0.00  0.00    +0.040 N 
ATOM      9  O   LIG    1       32.535 -16.284   1.450  0.00  0.00    -0.130 OA
ENDBRANCH   1   8
BRANCH   6  10
ATOM     10  O   LIG    1       29.480 -17.707   2.004  0.00  0.00    -0.290 OA
BRANCH  10  11
ATOM     11  C   LIG    1       28.954 -18.838   1.307  0.00  0.00    +0.610 C 
ATOM     12  F   LIG    1       28.529 -18.444   0.033  0.00  0.00    -0.190 F 
ATOM     13  F   LIG    1       27.870 -19.361   2.018  0.00  0.00    -0.190 F 
ENDBRANCH  10  11
ENDBRANCH   6  10
TORSDOF 3
ENDMDL
