MODEL 1
REMARK VINA RESULT:    -6.389      0.000      0.000
REMARK INTER + INTRA:          -6.906
REMARK INTER:                  -7.136
REMARK INTRA:                   0.229
REMARK UNBOUND:                 0.229
REMARK  Name = ZINC000140510457
REMARK                            x       y       z     vdW  Elec       q    Type
REMARK                         _______ _______ _______ _____ _____    ______ ____
ROOT
ATOM      1  C   LIG    1       27.722 -20.710   3.171  0.00  0.00    +0.120 C 
ATOM      2  C   LIG    1       28.279 -19.669   2.234  0.00  0.00    -0.060 A 
ATOM      3  C   LIG    1       29.166 -18.711   2.707  0.00  0.00    +0.170 A 
ATOM      4  C   LIG    1       29.677 -17.753   1.841  0.00  0.00    +0.080 A 
ATOM      5  C   LIG    1       29.303 -17.757   0.511  0.00  0.00    +0.050 A 
ATOM      6  C   LIG    1       28.419 -18.713   0.043  0.00  0.00    +0.080 A 
ATOM      7  C   LIG    1       27.914 -19.671   0.901  0.00  0.00    -0.020 A 
ENDROOT
BRANCH   3   8
ATOM      8  N   LIG    1       29.543 -18.711   4.055  0.00  0.00    -0.680 N 
ATOM      9  H   LIG    1       28.968 -18.301   4.720  0.00  0.00    +0.410 HD
ATOM     10  C   LIG    1       30.708 -19.280   4.429  0.00  0.00    +0.710 C 
ATOM     11  O   LIG    1       31.478 -19.696   3.587  0.00  0.00    -0.570 OA
ATOM     12  N   LIG    1       31.015 -19.385   5.736  0.00  0.00    -0.860 N 
ATOM     13  H   LIG    1       31.853 -19.794   6.006  0.00  0.00    +0.420 HD
ATOM     14  H   LIG    1       30.400 -19.052   6.408  0.00  0.00    +0.400 HD
ENDBRANCH   3   8
BRANCH   7  15
ATOM     15  N   LIG    1       26.969 -20.692   0.396  0.00  0.00    +0.020 N 
ATOM     16  O   LIG    1       27.329 -21.489  -0.451  0.00  0.00    -0.150 OA
ATOM     17  O   LIG    1       25.830 -20.734   0.827  0.00  0.00    -0.150 OA
ENDBRANCH   7  15
TORSDOF 2
ENDMDL
MODEL 2
REMARK VINA RESULT:    -6.006      1.919      3.035
REMARK INTER + INTRA:          -6.479
REMARK INTER:                  -6.486
REMARK INTRA:                   0.007
REMARK UNBOUND:                 0.229
REMARK  Name = ZINC000140510457
REMARK                            x       y       z     vdW  Elec       q    Type
REMARK                         _______ _______ _______ _____ _____    ______ ____
ROOT
ATOM      1  C   LIG    1       28.508 -18.700   0.035  0.00  0.00    +0.120 C 
ATOM      2  C   LIG    1       28.657 -18.962   1.511  0.00  0.00    -0.060 A 
ATOM      3  C   LIG    1       29.474 -18.147   2.283  0.00  0.00    +0.170 A 
ATOM      4  C   LIG    1       29.609 -18.392   3.644  0.00  0.00    +0.080 A 
ATOM      5  C   LIG    1       28.931 -19.445   4.225  0.00  0.00    +0.050 A 
ATOM      6  C   LIG    1       28.118 -20.256   3.453  0.00  0.00    +0.080 A 
ATOM      7  C   LIG    1       27.977 -20.011   2.100  0.00  0.00    -0.020 A 
ENDROOT
BRANCH   3   8
ATOM      8  N   LIG    1       30.159 -17.079   1.691  0.00  0.00    -0.680 N 
ATOM      9  H   LIG    1       29.716 -16.225   1.571  0.00  0.00    +0.410 HD
ATOM     10  C   LIG    1       31.436 -17.240   1.287  0.00  0.00    +0.710 C 
ATOM     11  O   LIG    1       31.956 -18.337   1.338  0.00  0.00    -0.570 OA
ATOM     12  N   LIG    1       32.134 -16.183   0.828  0.00  0.00    -0.860 N 
ATOM     13  H   LIG    1       33.053 -16.298   0.537  0.00  0.00    +0.420 HD
ATOM     14  H   LIG    1       31.719 -15.308   0.787  0.00  0.00    +0.400 HD
ENDBRANCH   3   8
BRANCH   7  15
ATOM     15  N   LIG    1       27.106 -20.880   1.278  0.00  0.00    +0.020 N 
ATOM     16  O   LIG    1       25.902 -20.695   1.261  0.00  0.00    -0.150 OA
ATOM     17  O   LIG    1       27.593 -21.781   0.619  0.00  0.00    -0.150 OA
ENDBRANCH   7  15
TORSDOF 2
ENDMDL
MODEL 3
REMARK VINA RESULT:    -5.804     23.392     24.354
REMARK INTER + INTRA:          -6.253
REMARK INTER:                  -6.291
REMARK INTRA:                   0.038
REMARK UNBOUND:                 0.229
REMARK  Name = ZINC000140510457
REMARK                            x       y       z     vdW  Elec       q    Type
REMARK                         _______ _______ _______ _____ _____    ______ ____
ROOT
ATOM      1  C   LIG    1       17.248 -10.967  19.868  0.00  0.00    +0.120 C 
ATOM      2  C   LIG    1       15.957 -11.210  20.605  0.00  0.00    -0.060 A 
ATOM      3  C   LIG    1       15.896 -12.175  21.602  0.00  0.00    +0.170 A 
ATOM      4  C   LIG    1       14.704 -12.397  22.279  0.00  0.00    +0.080 A 
ATOM      5  C   LIG    1       13.582 -11.657  21.960  0.00  0.00    +0.050 A 
ATOM      6  C   LIG    1       13.645 -10.697  20.966  0.00  0.00    +0.080 A 
ATOM      7  C   LIG    1       14.832 -10.469  20.295  0.00  0.00    -0.020 A 
ENDROOT
BRANCH   3   8
ATOM      8  N   LIG    1       17.035 -12.922  21.924  0.00  0.00    -0.680 N 
ATOM      9  H   LIG    1       17.791 -12.494  22.354  0.00  0.00    +0.410 HD
ATOM     10  C   LIG    1       17.081 -14.239  21.634  0.00  0.00    +0.710 C 
ATOM     11  O   LIG    1       16.181 -14.753  20.999  0.00  0.00    -0.570 OA
ATOM     12  N   LIG    1       18.124 -14.983  22.049  0.00  0.00    -0.860 N 
ATOM     13  H   LIG    1       18.158 -15.930  21.841  0.00  0.00    +0.420 HD
ATOM     14  H   LIG    1       18.842 -14.573  22.555  0.00  0.00    +0.400 HD
ENDBRANCH   3   8
BRANCH   7  15
ATOM     15  N   LIG    1       14.895  -9.441  19.233  0.00  0.00    +0.020 N 
ATOM     16  O   LIG    1       14.653  -9.742  18.078  0.00  0.00    -0.150 OA
ATOM     17  O   LIG    1       15.190  -8.293  19.514  0.00  0.00    -0.150 OA
ENDBRANCH   7  15
TORSDOF 2
ENDMDL
MODEL 4
REMARK VINA RESULT:    -5.722     13.704     15.361
REMARK INTER + INTRA:          -6.162
REMARK INTER:                  -6.163
REMARK INTRA:                   0.001
REMARK UNBOUND:                 0.229
REMARK  Name = ZINC000140510457
REMARK                            x       y       z     vdW  Elec       q    Type
REMARK                         _______ _______ _______ _____ _____    ______ ____
ROOT
ATOM      1  C   LIG    1       24.313 -22.760  15.968  0.00  0.00    +0.120 C 
ATOM      2  C   LIG    1       22.873 -22.864  15.537  0.00  0.00    -0.060 A 
ATOM      3  C   LIG    1       22.562 -23.145  14.213  0.00  0.00    +0.170 A 
ATOM      4  C   LIG    1       21.233 -23.240  13.820  0.00  0.00    +0.080 A 
ATOM      5  C   LIG    1       20.225 -23.055  14.746  0.00  0.00    +0.050 A 
ATOM      6  C   LIG    1       20.539 -22.775  16.064  0.00  0.00    +0.080 A 
ATOM      7  C   LIG    1       21.860 -22.686  16.460  0.00  0.00    -0.020 A 
ENDROOT
BRANCH   3   8
ATOM      8  N   LIG    1       23.586 -23.332  13.277  0.00  0.00    -0.680 N 
ATOM      9  H   LIG    1       23.970 -24.213  13.149  0.00  0.00    +0.410 HD
ATOM     10  C   LIG    1       24.038 -22.286  12.555  0.00  0.00    +0.710 C 
ATOM     11  O   LIG    1       23.634 -21.165  12.791  0.00  0.00    -0.570 OA
ATOM     12  N   LIG    1       24.937 -22.487  11.572  0.00  0.00    -0.860 N 
ATOM     13  H   LIG    1       25.263 -21.735  11.053  0.00  0.00    +0.420 HD
ATOM     14  H   LIG    1       25.260 -23.382  11.384  0.00  0.00    +0.400 HD
ENDBRANCH   3   8
BRANCH   7  15
ATOM     15  N   LIG    1       22.191 -22.387  17.871  0.00  0.00    +0.020 N 
ATOM     16  O   LIG    1       22.358 -23.297  18.663  0.00  0.00    -0.150 OA
ATOM     17  O   LIG    1       22.294 -21.231  18.240  0.00  0.00    -0.150 OA
ENDBRANCH   7  15
TORSDOF 2
ENDMDL
MODEL 5
REMARK VINA RESULT:    -5.426      2.598      4.839
REMARK INTER + INTRA:          -5.831
REMARK INTER:                  -5.807
REMARK INTRA:                  -0.023
REMARK UNBOUND:                 0.229
REMARK  Name = ZINC000140510457
REMARK                            x       y       z     vdW  Elec       q    Type
REMARK                         _______ _______ _______ _____ _____    ______ ____
ROOT
ATOM      1  C   LIG    1       31.288 -18.118   2.550  0.00  0.00    +0.120 C 
ATOM      2  C   LIG    1       29.986 -18.846   2.340  0.00  0.00    -0.060 A 
ATOM      3  C   LIG    1       29.489 -19.027   1.057  0.00  0.00    +0.170 A 
ATOM      4  C   LIG    1       28.287 -19.698   0.868  0.00  0.00    +0.080 A 
ATOM      5  C   LIG    1       27.591 -20.183   1.957  0.00  0.00    +0.050 A 
ATOM      6  C   LIG    1       28.088 -20.001   3.235  0.00  0.00    +0.080 A 
ATOM      7  C   LIG    1       29.287 -19.339   3.425  0.00  0.00    -0.020 A 
ENDROOT
BRANCH   3   8
ATOM      8  N   LIG    1       30.197 -18.534  -0.045  0.00  0.00    -0.680 N 
ATOM      9  H   LIG    1       30.990 -18.997  -0.359  0.00  0.00    +0.410 HD
ATOM     10  C   LIG    1       29.778 -17.415  -0.670  0.00  0.00    +0.710 C 
ATOM     11  O   LIG    1       28.851 -16.775  -0.214  0.00  0.00    -0.570 OA
ATOM     12  N   LIG    1       30.388 -17.007  -1.800  0.00  0.00    -0.860 N 
ATOM     13  H   LIG    1       30.087 -16.202  -2.250  0.00  0.00    +0.420 HD
ATOM     14  H   LIG    1       31.128 -17.517  -2.164  0.00  0.00    +0.400 HD
ENDBRANCH   3   8
BRANCH   7  15
ATOM     15  N   LIG    1       29.816 -19.147   4.794  0.00  0.00    +0.020 N 
ATOM     16  O   LIG    1       29.468 -18.182   5.451  0.00  0.00    -0.150 OA
ATOM     17  O   LIG    1       30.600 -19.953   5.263  0.00  0.00    -0.150 OA
ENDBRANCH   7  15
TORSDOF 2
ENDMDL
MODEL 6
REMARK VINA RESULT:    -5.302      1.889      2.151
REMARK INTER + INTRA:          -5.692
REMARK INTER:                  -5.729
REMARK INTRA:                   0.037
REMARK UNBOUND:                 0.229
REMARK  Name = ZINC000140510457
REMARK                            x       y       z     vdW  Elec       q    Type
REMARK                         _______ _______ _______ _____ _____    ______ ____
ROOT
ATOM      1  C   LIG    1       29.820 -20.188   3.431  0.00  0.00    +0.120 C 
ATOM      2  C   LIG    1       29.439 -19.390   2.210  0.00  0.00    -0.060 A 
ATOM      3  C   LIG    1       30.010 -18.145   1.987  0.00  0.00    +0.170 A 
ATOM      4  C   LIG    1       29.656 -17.413   0.861  0.00  0.00    +0.080 A 
ATOM      5  C   LIG    1       28.737 -17.926  -0.034  0.00  0.00    +0.050 A 
ATOM      6  C   LIG    1       28.170 -19.167   0.192  0.00  0.00    +0.080 A 
ATOM      7  C   LIG    1       28.525 -19.900   1.308  0.00  0.00    -0.020 A 
ENDROOT
BRANCH   3   8
ATOM      8  N   LIG    1       30.941 -17.628   2.896  0.00  0.00    -0.680 N 
ATOM      9  H   LIG    1       30.641 -17.261   3.742  0.00  0.00    +0.410 HD
ATOM     10  C   LIG    1       32.255 -17.638   2.593  0.00  0.00    +0.710 C 
ATOM     11  O   LIG    1       32.622 -17.996   1.491  0.00  0.00    -0.570 OA
ATOM     12  N   LIG    1       33.160 -17.252   3.513  0.00  0.00    -0.860 N 
ATOM     13  H   LIG    1       34.106 -17.259   3.296  0.00  0.00    +0.420 HD
ATOM     14  H   LIG    1       32.867 -16.965   4.392  0.00  0.00    +0.400 HD
ENDBRANCH   3   8
BRANCH   7  15
ATOM     15  N   LIG    1       27.916 -21.229   1.544  0.00  0.00    +0.020 N 
ATOM     16  O   LIG    1       26.912 -21.325   2.227  0.00  0.00    -0.150 OA
ATOM     17  O   LIG    1       28.420 -22.225   1.057  0.00  0.00    -0.150 OA
ENDBRANCH   7  15
TORSDOF 2
ENDMDL
MODEL 7
REMARK VINA RESULT:    -5.235     24.486     25.438
REMARK INTER + INTRA:          -5.617
REMARK INTER:                  -5.619
REMARK INTRA:                   0.001
REMARK UNBOUND:                 0.229
REMARK  Name = ZINC000140510457
REMARK                            x       y       z     vdW  Elec       q    Type
REMARK                         _______ _______ _______ _____ _____    ______ ____
ROOT
ATOM      1  C   LIG    1       14.126 -11.787  22.675  0.00  0.00    +0.120 C 
ATOM      2  C   LIG    1       14.779 -11.134  21.485  0.00  0.00    -0.060 A 
ATOM      3  C   LIG    1       14.254  -9.961  20.960  0.00  0.00    +0.170 A 
ATOM      4  C   LIG    1       14.859  -9.363  19.862  0.00  0.00    +0.080 A 
ATOM      5  C   LIG    1       15.980  -9.936  19.296  0.00  0.00    +0.050 A 
ATOM      6  C   LIG    1       16.501 -11.105  19.820  0.00  0.00    +0.080 A 
ATOM      7  C   LIG    1       15.905 -11.699  20.917  0.00  0.00    -0.020 A 
ENDROOT
BRANCH   3   8
ATOM      8  N   LIG    1       13.117  -9.383  21.537  0.00  0.00    -0.680 N 
ATOM      9  H   LIG    1       13.197  -8.864  22.352  0.00  0.00    +0.410 HD
ATOM     10  C   LIG    1       11.910  -9.548  20.958  0.00  0.00    +0.710 C 
ATOM     11  O   LIG    1       11.791 -10.285  19.999  0.00  0.00    -0.570 OA
ATOM     12  N   LIG    1       10.837  -8.895  21.444  0.00  0.00    -0.860 N 
ATOM     13  H   LIG    1        9.968  -9.013  21.028  0.00  0.00    +0.420 HD
ATOM     14  H   LIG    1       10.931  -8.307  22.209  0.00  0.00    +0.400 HD
ENDBRANCH   3   8
BRANCH   7  15
ATOM     15  N   LIG    1       16.466 -12.950  21.476  0.00  0.00    +0.020 N 
ATOM     16  O   LIG    1       15.966 -14.023  21.189  0.00  0.00    -0.150 OA
ATOM     17  O   LIG    1       17.427 -12.906  22.223  0.00  0.00    -0.150 OA
ENDBRANCH   7  15
TORSDOF 2
ENDMDL
MODEL 8
REMARK VINA RESULT:    -5.114     21.320     22.528
REMARK INTER + INTRA:          -5.482
REMARK INTER:                  -5.461
REMARK INTRA:                  -0.022
REMARK UNBOUND:                 0.229
REMARK  Name = ZINC000140510457
REMARK                            x       y       z     vdW  Elec       q    Type
REMARK                         _______ _______ _______ _____ _____    ______ ____
ROOT
ATOM      1  C   LIG    1       26.474   1.506  11.550  0.00  0.00    +0.120 C 
ATOM      2  C   LIG    1       25.390   0.513  11.221  0.00  0.00    -0.060 A 
ATOM      3  C   LIG    1       25.346  -0.079   9.966  0.00  0.00    +0.170 A 
ATOM      4  C   LIG    1       24.344  -0.994   9.667  0.00  0.00    +0.080 A 
ATOM      5  C   LIG    1       23.395  -1.312  10.618  0.00  0.00    +0.050 A 
ATOM      6  C   LIG    1       23.441  -0.720  11.868  0.00  0.00    +0.080 A 
ATOM      7  C   LIG    1       24.440   0.185  12.170  0.00  0.00    -0.020 A 
ENDROOT
BRANCH   3   8
ATOM      8  N   LIG    1       26.310   0.245   9.004  0.00  0.00    -0.680 N 
ATOM      9  H   LIG    1       27.207  -0.114   9.076  0.00  0.00    +0.410 HD
ATOM     10  C   LIG    1       25.989   1.059   7.977  0.00  0.00    +0.710 C 
ATOM     11  O   LIG    1       24.899   1.595   7.944  0.00  0.00    -0.570 OA
ATOM     12  N   LIG    1       26.878   1.276   6.988  0.00  0.00    -0.860 N 
ATOM     13  H   LIG    1       26.649   1.861   6.250  0.00  0.00    +0.420 HD
ATOM     14  H   LIG    1       27.748   0.848   7.015  0.00  0.00    +0.400 HD
ENDBRANCH   3   8
BRANCH   7  15
ATOM     15  N   LIG    1       24.486   0.816  13.509  0.00  0.00    +0.020 N 
ATOM     16  O   LIG    1       23.895   1.861  13.710  0.00  0.00    -0.150 OA
ATOM     17  O   LIG    1       25.116   0.290  14.409  0.00  0.00    -0.150 OA
ENDBRANCH   7  15
TORSDOF 2
ENDMDL
MODEL 9
REMARK VINA RESULT:    -4.859      2.905      5.095
REMARK INTER + INTRA:          -5.198
REMARK INTER:                  -5.204
REMARK INTRA:                   0.007
REMARK UNBOUND:                 0.229
REMARK  Name = ZINC000140510457
REMARK                            x       y       z     vdW  Elec       q    Type
REMARK                         _______ _______ _______ _____ _____    ______ ____
ROOT
ATOM      1  C   LIG    1       29.447 -18.311   2.899  0.00  0.00    +0.120 C 
ATOM      2  C   LIG    1       30.471 -19.047   2.074  0.00  0.00    -0.060 A 
ATOM      3  C   LIG    1       30.313 -19.149   0.699  0.00  0.00    +0.170 A 
ATOM      4  C   LIG    1       31.259 -19.830  -0.058  0.00  0.00    +0.080 A 
ATOM      5  C   LIG    1       32.354 -20.401   0.560  0.00  0.00    +0.050 A 
ATOM      6  C   LIG    1       32.508 -20.298   1.931  0.00  0.00    +0.080 A 
ATOM      7  C   LIG    1       31.572 -19.616   2.685  0.00  0.00    -0.020 A 
ENDROOT
BRANCH   3   8
ATOM      8  N   LIG    1       29.202 -18.568   0.076  0.00  0.00    -0.680 N 
ATOM      9  H   LIG    1       28.356 -19.040   0.054  0.00  0.00    +0.410 HD
ATOM     10  C   LIG    1       29.311 -17.351  -0.496  0.00  0.00    +0.710 C 
ATOM     11  O   LIG    1       30.395 -16.806  -0.565  0.00  0.00    -0.570 OA
ATOM     12  N   LIG    1       28.216 -16.740  -0.990  0.00  0.00    -0.860 N 
ATOM     13  H   LIG    1       28.294 -15.865  -1.401  0.00  0.00    +0.420 HD
ATOM     14  H   LIG    1       27.351 -17.175  -0.935  0.00  0.00    +0.400 HD
ENDBRANCH   3   8
BRANCH   7  15
ATOM     15  N   LIG    1       31.741 -19.508   4.152  0.00  0.00    +0.020 N 
ATOM     16  O   LIG    1       31.312 -20.384   4.881  0.00  0.00    -0.150 OA
ATOM     17  O   LIG    1       32.308 -18.541   4.629  0.00  0.00    -0.150 OA
ENDBRANCH   7  15
TORSDOF 2
ENDMDL
