MODEL 1
REMARK VINA RESULT:    -4.438      0.000      0.000
REMARK INTER + INTRA:          -5.417
REMARK INTER:                  -5.216
REMARK INTRA:                  -0.201
REMARK UNBOUND:                -0.201
REMARK  Name = ZINC000899884263
REMARK                            x       y       z     vdW  Elec       q    Type
REMARK                         _______ _______ _______ _____ _____    ______ ____
ROOT
ATOM      1  C   LIG    1       26.448 -20.775   1.975  0.00  0.00    +0.160 C 
ATOM      2  C   LIG    1       27.814 -20.149   1.856  0.00  0.00    +0.090 A 
ATOM      3  N   LIG    1       28.303 -19.223   2.641  0.00  0.00    -0.290 NA
ATOM      4  N   LIG    1       29.596 -18.913   2.198  0.00  0.00    -0.380 N 
ATOM      5  C   LIG    1       29.862 -19.682   1.121  0.00  0.00    +0.080 A 
ATOM      6  C   LIG    1       31.139 -19.681   0.321  0.00  0.00    +0.140 C 
ATOM      7  C   LIG    1       28.779 -20.460   0.892  0.00  0.00    -0.230 A 
ATOM      8  C   LIG    1       28.634 -21.476  -0.211  0.00  0.00    +0.120 C 
ENDROOT
BRANCH   4   9
ATOM      9  C   LIG    1       30.498 -17.926   2.796  0.00  0.00    +0.370 C 
BRANCH   9  10
ATOM     10  C   LIG    1       30.434 -16.625   1.992  0.00  0.00    +0.260 C 
BRANCH  10  11
ATOM     11  N   LIG    1       31.791 -16.214   1.620  0.00  0.00    -0.020 N 
ATOM     12  O   LIG    1       31.956 -15.373   0.755  0.00  0.00    -0.150 OA
ATOM     13  O   LIG    1       32.752 -16.714   2.175  0.00  0.00    -0.150 OA
ENDBRANCH  10  11
ENDBRANCH   9  10
ENDBRANCH   4   9
TORSDOF 3
ENDMDL
MODEL 2
REMARK VINA RESULT:    -4.372      3.707      5.406
REMARK INTER + INTRA:          -5.340
REMARK INTER:                  -5.062
REMARK INTRA:                  -0.278
REMARK UNBOUND:                -0.201
REMARK  Name = ZINC000899884263
REMARK                            x       y       z     vdW  Elec       q    Type
REMARK                         _______ _______ _______ _____ _____    ______ ____
ROOT
ATOM      1  C   LIG    1       31.048 -17.164  -1.058  0.00  0.00    +0.160 C 
ATOM      2  C   LIG    1       30.350 -18.060  -0.067  0.00  0.00    +0.090 A 
ATOM      3  N   LIG    1       29.885 -19.258  -0.312  0.00  0.00    -0.290 NA
ATOM      4  N   LIG    1       29.311 -19.754   0.866  0.00  0.00    -0.380 N 
ATOM      5  C   LIG    1       29.448 -18.811   1.823  0.00  0.00    +0.080 A 
ATOM      6  C   LIG    1       28.975 -18.918   3.250  0.00  0.00    +0.140 C 
ATOM      7  C   LIG    1       30.093 -17.756   1.274  0.00  0.00    -0.230 A 
ATOM      8  C   LIG    1       30.460 -16.477   1.980  0.00  0.00    +0.120 C 
ENDROOT
BRANCH   4   9
ATOM      9  C   LIG    1       28.674 -21.062   1.030  0.00  0.00    +0.370 C 
BRANCH   9  10
ATOM     10  C   LIG    1       27.299 -21.047   0.359  0.00  0.00    +0.260 C 
BRANCH  10  11
ATOM     11  N   LIG    1       26.255 -21.159   1.382  0.00  0.00    -0.020 N 
ATOM     12  O   LIG    1       26.554 -21.447   2.527  0.00  0.00    -0.150 OA
ATOM     13  O   LIG    1       25.090 -20.965   1.087  0.00  0.00    -0.150 OA
ENDBRANCH  10  11
ENDBRANCH   9  10
ENDBRANCH   4   9
TORSDOF 3
ENDMDL
MODEL 3
REMARK VINA RESULT:    -4.227     16.992     18.416
REMARK INTER + INTRA:          -5.169
REMARK INTER:                  -4.800
REMARK INTRA:                  -0.368
REMARK UNBOUND:                -0.201
REMARK  Name = ZINC000899884263
REMARK                            x       y       z     vdW  Elec       q    Type
REMARK                         _______ _______ _______ _____ _____    ______ ____
ROOT
ATOM      1  C   LIG    1       19.918 -23.377  14.775  0.00  0.00    +0.160 C 
ATOM      2  C   LIG    1       20.963 -22.886  15.743  0.00  0.00    +0.090 A 
ATOM      3  N   LIG    1       20.735 -22.387  16.930  0.00  0.00    -0.290 NA
ATOM      4  N   LIG    1       21.967 -22.054  17.509  0.00  0.00    -0.380 N 
ATOM      5  C   LIG    1       22.939 -22.369  16.627  0.00  0.00    +0.080 A 
ATOM      6  C   LIG    1       24.420 -22.180  16.832  0.00  0.00    +0.140 C 
ATOM      7  C   LIG    1       22.346 -22.891  15.528  0.00  0.00    -0.230 A 
ATOM      8  C   LIG    1       23.050 -23.383  14.290  0.00  0.00    +0.120 C 
ENDROOT
BRANCH   4   9
ATOM      9  C   LIG    1       22.164 -21.466  18.836  0.00  0.00    +0.370 C 
BRANCH   9  10
ATOM     10  C   LIG    1       21.625 -22.421  19.902  0.00  0.00    +0.260 C 
BRANCH  10  11
ATOM     11  N   LIG    1       22.413 -23.658  19.892  0.00  0.00    -0.020 N 
ATOM     12  O   LIG    1       21.871 -24.723  19.657  0.00  0.00    -0.150 OA
ATOM     13  O   LIG    1       23.608 -23.620  20.119  0.00  0.00    -0.150 OA
ENDBRANCH  10  11
ENDBRANCH   9  10
ENDBRANCH   4   9
TORSDOF 3
ENDMDL
MODEL 4
REMARK VINA RESULT:    -4.199      1.370      2.657
REMARK INTER + INTRA:          -5.137
REMARK INTER:                  -4.900
REMARK INTRA:                  -0.236
REMARK UNBOUND:                -0.201
REMARK  Name = ZINC000899884263
REMARK                            x       y       z     vdW  Elec       q    Type
REMARK                         _______ _______ _______ _____ _____    ______ ____
ROOT
ATOM      1  C   LIG    1       31.826 -21.474  -0.938  0.00  0.00    +0.160 C 
ATOM      2  C   LIG    1       30.931 -20.517  -0.193  0.00  0.00    +0.090 A 
ATOM      3  N   LIG    1       30.999 -19.211  -0.239  0.00  0.00    -0.290 NA
ATOM      4  N   LIG    1       29.996 -18.691   0.590  0.00  0.00    -0.380 N 
ATOM      5  C   LIG    1       29.327 -19.730   1.133  0.00  0.00    +0.080 A 
ATOM      6  C   LIG    1       28.165 -19.637   2.089  0.00  0.00    +0.140 C 
ATOM      7  C   LIG    1       29.881 -20.871   0.660  0.00  0.00    -0.230 A 
ATOM      8  C   LIG    1       29.449 -22.274   1.000  0.00  0.00    +0.120 C 
ENDROOT
BRANCH   4   9
ATOM      9  C   LIG    1       29.723 -17.272   0.826  0.00  0.00    +0.370 C 
BRANCH   9  10
ATOM     10  C   LIG    1       30.459 -16.815   2.087  0.00  0.00    +0.260 C 
BRANCH  10  11
ATOM     11  N   LIG    1       31.788 -16.316   1.722  0.00  0.00    -0.020 N 
ATOM     12  O   LIG    1       31.907 -15.504   0.821  0.00  0.00    -0.150 OA
ATOM     13  O   LIG    1       32.773 -16.712   2.317  0.00  0.00    -0.150 OA
ENDBRANCH  10  11
ENDBRANCH   9  10
ENDBRANCH   4   9
TORSDOF 3
ENDMDL
MODEL 5
REMARK VINA RESULT:    -4.137     16.426     17.960
REMARK INTER + INTRA:          -5.064
REMARK INTER:                  -4.804
REMARK INTRA:                  -0.260
REMARK UNBOUND:                -0.201
REMARK  Name = ZINC000899884263
REMARK                            x       y       z     vdW  Elec       q    Type
REMARK                         _______ _______ _______ _____ _____    ______ ____
ROOT
ATOM      1  C   LIG    1       22.761 -22.972  13.488  0.00  0.00    +0.160 C 
ATOM      2  C   LIG    1       22.541 -23.257  14.951  0.00  0.00    +0.090 A 
ATOM      3  N   LIG    1       23.471 -23.316  15.869  0.00  0.00    -0.290 NA
ATOM      4  N   LIG    1       22.858 -23.602  17.096  0.00  0.00    -0.380 N 
ATOM      5  C   LIG    1       21.530 -23.713  16.881  0.00  0.00    +0.080 A 
ATOM      6  C   LIG    1       20.483 -24.015  17.921  0.00  0.00    +0.140 C 
ATOM      7  C   LIG    1       21.306 -23.498  15.563  0.00  0.00    -0.230 A 
ATOM      8  C   LIG    1       19.966 -23.524  14.876  0.00  0.00    +0.120 C 
ENDROOT
BRANCH   4   9
ATOM      9  C   LIG    1       23.538 -23.755  18.384  0.00  0.00    +0.370 C 
BRANCH   9  10
ATOM     10  C   LIG    1       24.068 -22.395  18.845  0.00  0.00    +0.260 C 
BRANCH  10  11
ATOM     11  N   LIG    1       22.947 -21.465  19.009  0.00  0.00    -0.020 N 
ATOM     12  O   LIG    1       22.244 -21.529  20.002  0.00  0.00    -0.150 OA
ATOM     13  O   LIG    1       22.719 -20.629  18.154  0.00  0.00    -0.150 OA
ENDBRANCH  10  11
ENDBRANCH   9  10
ENDBRANCH   4   9
TORSDOF 3
ENDMDL
MODEL 6
REMARK VINA RESULT:    -4.077      3.693      5.402
REMARK INTER + INTRA:          -4.992
REMARK INTER:                  -5.018
REMARK INTRA:                   0.026
REMARK UNBOUND:                -0.201
REMARK  Name = ZINC000899884263
REMARK                            x       y       z     vdW  Elec       q    Type
REMARK                         _______ _______ _______ _____ _____    ______ ____
ROOT
ATOM      1  C   LIG    1       32.946 -19.083   0.999  0.00  0.00    +0.160 C 
ATOM      2  C   LIG    1       31.666 -19.494   1.681  0.00  0.00    +0.090 A 
ATOM      3  N   LIG    1       30.805 -20.371   1.231  0.00  0.00    -0.290 NA
ATOM      4  N   LIG    1       29.756 -20.468   2.155  0.00  0.00    -0.380 N 
ATOM      5  C   LIG    1       30.018 -19.618   3.171  0.00  0.00    +0.080 A 
ATOM      6  C   LIG    1       29.156 -19.394   4.386  0.00  0.00    +0.140 C 
ATOM      7  C   LIG    1       31.196 -19.008   2.905  0.00  0.00    -0.230 A 
ATOM      8  C   LIG    1       31.877 -17.980   3.772  0.00  0.00    +0.120 C 
ENDROOT
BRANCH   4   9
ATOM      9  C   LIG    1       28.582 -21.335   2.038  0.00  0.00    +0.370 C 
BRANCH   9  10
ATOM     10  C   LIG    1       27.333 -20.476   1.829  0.00  0.00    +0.260 C 
BRANCH  10  11
ATOM     11  N   LIG    1       26.520 -21.052   0.753  0.00  0.00    -0.020 N 
ATOM     12  O   LIG    1       27.049 -21.409  -0.285  0.00  0.00    -0.150 OA
ATOM     13  O   LIG    1       25.317 -21.172   0.896  0.00  0.00    -0.150 OA
ENDBRANCH  10  11
ENDBRANCH   9  10
ENDBRANCH   4   9
TORSDOF 3
ENDMDL
MODEL 7
REMARK VINA RESULT:    -3.991     16.961     18.554
REMARK INTER + INTRA:          -4.892
REMARK INTER:                  -4.650
REMARK INTRA:                  -0.242
REMARK UNBOUND:                -0.201
REMARK  Name = ZINC000899884263
REMARK                            x       y       z     vdW  Elec       q    Type
REMARK                         _______ _______ _______ _____ _____    ______ ____
ROOT
ATOM      1  C   LIG    1       25.299 -23.406  16.172  0.00  0.00    +0.160 C 
ATOM      2  C   LIG    1       23.804 -23.220  16.213  0.00  0.00    +0.090 A 
ATOM      3  N   LIG    1       23.092 -22.964  17.280  0.00  0.00    -0.290 NA
ATOM      4  N   LIG    1       21.749 -22.861  16.896  0.00  0.00    -0.380 N 
ATOM      5  C   LIG    1       21.681 -23.066  15.563  0.00  0.00    +0.080 A 
ATOM      6  C   LIG    1       20.430 -23.047  14.723  0.00  0.00    +0.140 C 
ATOM      7  C   LIG    1       22.940 -23.283  15.115  0.00  0.00    -0.230 A 
ATOM      8  C   LIG    1       23.337 -23.555  13.687  0.00  0.00    +0.120 C 
ENDROOT
BRANCH   4   9
ATOM      9  C   LIG    1       20.617 -22.584  17.784  0.00  0.00    +0.370 C 
BRANCH   9  10
ATOM     10  C   LIG    1       20.343 -23.810  18.657  0.00  0.00    +0.260 C 
BRANCH  10  11
ATOM     11  N   LIG    1       20.799 -23.547  20.025  0.00  0.00    -0.020 N 
ATOM     12  O   LIG    1       20.611 -24.374  20.898  0.00  0.00    -0.150 OA
ATOM     13  O   LIG    1       21.366 -22.502  20.287  0.00  0.00    -0.150 OA
ENDBRANCH  10  11
ENDBRANCH   9  10
ENDBRANCH   4   9
TORSDOF 3
ENDMDL
MODEL 8
REMARK VINA RESULT:    -3.989     18.025     19.521
REMARK INTER + INTRA:          -4.890
REMARK INTER:                  -4.706
REMARK INTRA:                  -0.183
REMARK UNBOUND:                -0.201
REMARK  Name = ZINC000899884263
REMARK                            x       y       z     vdW  Elec       q    Type
REMARK                         _______ _______ _______ _____ _____    ______ ____
ROOT
ATOM      1  C   LIG    1       21.167 -25.143  21.111  0.00  0.00    +0.160 C 
ATOM      2  C   LIG    1       21.405 -24.072  20.077  0.00  0.00    +0.090 A 
ATOM      3  N   LIG    1       20.726 -23.910  18.971  0.00  0.00    -0.290 NA
ATOM      4  N   LIG    1       21.256 -22.808  18.289  0.00  0.00    -0.380 N 
ATOM      5  C   LIG    1       22.277 -22.317  19.024  0.00  0.00    +0.080 A 
ATOM      6  C   LIG    1       23.136 -21.130  18.671  0.00  0.00    +0.140 C 
ATOM      7  C   LIG    1       22.386 -23.077  20.138  0.00  0.00    -0.230 A 
ATOM      8  C   LIG    1       23.392 -22.889  21.244  0.00  0.00    +0.120 C 
ENDROOT
BRANCH   4   9
ATOM      9  C   LIG    1       20.788 -22.282  17.005  0.00  0.00    +0.370 C 
BRANCH   9  10
ATOM     10  C   LIG    1       21.346 -23.142  15.869  0.00  0.00    +0.260 C 
BRANCH  10  11
ATOM     11  N   LIG    1       20.268 -23.468  14.930  0.00  0.00    -0.020 N 
ATOM     12  O   LIG    1       19.969 -22.681  14.050  0.00  0.00    -0.150 OA
ATOM     13  O   LIG    1       19.673 -24.525  15.029  0.00  0.00    -0.150 OA
ENDBRANCH  10  11
ENDBRANCH   9  10
ENDBRANCH   4   9
TORSDOF 3
ENDMDL
MODEL 9
REMARK VINA RESULT:    -3.890     21.101     22.618
REMARK INTER + INTRA:          -4.773
REMARK INTER:                  -4.628
REMARK INTRA:                  -0.145
REMARK UNBOUND:                -0.201
REMARK  Name = ZINC000899884263
REMARK                            x       y       z     vdW  Elec       q    Type
REMARK                         _______ _______ _______ _____ _____    ______ ____
ROOT
ATOM      1  C   LIG    1       26.473   2.845  10.964  0.00  0.00    +0.160 C 
ATOM      2  C   LIG    1       25.634   1.593  10.958  0.00  0.00    +0.090 A 
ATOM      3  N   LIG    1       25.201   0.955  12.014  0.00  0.00    -0.290 NA
ATOM      4  N   LIG    1       24.460  -0.153  11.583  0.00  0.00    -0.380 N 
ATOM      5  C   LIG    1       24.467  -0.158  10.233  0.00  0.00    +0.080 A 
ATOM      6  C   LIG    1       23.793  -1.171   9.344  0.00  0.00    +0.140 C 
ATOM      7  C   LIG    1       25.181   0.915   9.821  0.00  0.00    -0.230 A 
ATOM      8  C   LIG    1       25.448   1.306   8.390  0.00  0.00    +0.120 C 
ENDROOT
BRANCH   4   9
ATOM      9  C   LIG    1       23.797  -1.135  12.445  0.00  0.00    +0.370 C 
BRANCH   9  10
ATOM     10  C   LIG    1       23.930  -0.702  13.906  0.00  0.00    +0.260 C 
BRANCH  10  11
ATOM     11  N   LIG    1       22.686  -1.005  14.620  0.00  0.00    -0.020 N 
ATOM     12  O   LIG    1       21.904  -0.109  14.887  0.00  0.00    -0.150 OA
ATOM     13  O   LIG    1       22.433  -2.150  14.945  0.00  0.00    -0.150 OA
ENDBRANCH  10  11
ENDBRANCH   9  10
ENDBRANCH   4   9
TORSDOF 3
ENDMDL
