MODEL 1
REMARK VINA RESULT:    -5.477      0.000      0.000
REMARK INTER + INTRA:          -6.708
REMARK INTER:                  -6.437
REMARK INTRA:                  -0.271
REMARK UNBOUND:                -0.271
REMARK  Name = ZINC000774664567
REMARK                            x       y       z     vdW  Elec       q    Type
REMARK                         _______ _______ _______ _____ _____    ______ ____
ROOT
ATOM      1  C   LIG    1       29.811 -17.903   1.280  0.00  0.00    +0.130 A 
ATOM      2  C   LIG    1       28.820 -18.845   1.530  0.00  0.00    +0.020 A 
ATOM      3  C   LIG    1       28.663 -19.359   2.802  0.00  0.00    -0.030 A 
ATOM      4  C   LIG    1       29.490 -18.938   3.827  0.00  0.00    +0.030 A 
ATOM      5  C   LIG    1       30.478 -18.001   3.581  0.00  0.00    +0.110 A 
ATOM      6  C   LIG    1       27.589 -20.381   3.074  0.00  0.00    +0.120 C 
ATOM      7  C   LIG    1       30.644 -17.486   2.311  0.00  0.00    -0.030 A 
ENDROOT
BRANCH   7   8
ATOM      8  N   LIG    1       31.700 -16.484   2.049  0.00  0.00    +0.030 N 
ATOM      9  O   LIG    1       31.403 -15.315   1.882  0.00  0.00    -0.110 OA
ATOM     10  O   LIG    1       32.868 -16.829   2.001  0.00  0.00    -0.180 OA
ENDBRANCH   7   8
BRANCH   1  11
ATOM     11  N   LIG    1       29.972 -17.381  -0.005  0.00  0.00    -0.330 N 
ATOM     12  C   LIG    1       28.676 -17.235  -0.680  0.00  0.00    +0.250 C 
BRANCH  11  14
ATOM     13  C   LIG    1       31.889 -17.462  -1.488  0.00  0.00    +0.230 C 
ATOM     14  O   LIG    1       30.885 -18.207  -0.795  0.00  0.00    -0.250 OA
ENDBRANCH  11  14
ENDBRANCH   1  11
TORSDOF 3
ENDMDL
MODEL 2
REMARK VINA RESULT:    -5.398      1.722      3.551
REMARK INTER + INTRA:          -6.616
REMARK INTER:                  -6.378
REMARK INTRA:                  -0.238
REMARK UNBOUND:                -0.271
REMARK  Name = ZINC000774664567
REMARK                            x       y       z     vdW  Elec       q    Type
REMARK                         _______ _______ _______ _____ _____    ______ ____
ROOT
ATOM      1  C   LIG    1       30.514 -18.226   2.181  0.00  0.00    +0.130 A 
ATOM      2  C   LIG    1       29.470 -19.141   2.119  0.00  0.00    +0.020 A 
ATOM      3  C   LIG    1       28.589 -19.110   1.056  0.00  0.00    -0.030 A 
ATOM      4  C   LIG    1       28.744 -18.170   0.054  0.00  0.00    +0.030 A 
ATOM      5  C   LIG    1       29.782 -17.258   0.112  0.00  0.00    +0.110 A 
ATOM      6  C   LIG    1       27.456 -20.102   0.989  0.00  0.00    +0.120 C 
ATOM      7  C   LIG    1       30.664 -17.280   1.174  0.00  0.00    -0.030 A 
ENDROOT
BRANCH   7   8
ATOM      8  N   LIG    1       31.774 -16.303   1.236  0.00  0.00    +0.030 N 
ATOM      9  O   LIG    1       32.885 -16.618   0.848  0.00  0.00    -0.110 OA
ATOM     10  O   LIG    1       31.576 -15.184   1.675  0.00  0.00    -0.180 OA
ENDBRANCH   7   8
BRANCH   1  11
ATOM     11  N   LIG    1       31.408 -18.254   3.254  0.00  0.00    -0.330 N 
ATOM     12  C   LIG    1       32.365 -19.359   3.112  0.00  0.00    +0.250 C 
BRANCH  11  14
ATOM     13  C   LIG    1       31.510 -18.753   5.625  0.00  0.00    +0.230 C 
ATOM     14  O   LIG    1       30.693 -18.339   4.527  0.00  0.00    -0.250 OA
ENDBRANCH  11  14
ENDBRANCH   1  11
TORSDOF 3
ENDMDL
MODEL 3
REMARK VINA RESULT:    -5.386      2.658      4.127
REMARK INTER + INTRA:          -6.601
REMARK INTER:                  -6.454
REMARK INTRA:                  -0.147
REMARK UNBOUND:                -0.271
REMARK  Name = ZINC000774664567
REMARK                            x       y       z     vdW  Elec       q    Type
REMARK                         _______ _______ _______ _____ _____    ______ ____
ROOT
ATOM      1  C   LIG    1       28.793 -19.325   1.433  0.00  0.00    +0.130 A 
ATOM      2  C   LIG    1       29.444 -18.641   2.452  0.00  0.00    +0.020 A 
ATOM      3  C   LIG    1       29.174 -18.948   3.772  0.00  0.00    -0.030 A 
ATOM      4  C   LIG    1       28.257 -19.936   4.080  0.00  0.00    +0.030 A 
ATOM      5  C   LIG    1       27.607 -20.619   3.067  0.00  0.00    +0.110 A 
ATOM      6  C   LIG    1       29.880 -18.205   4.877  0.00  0.00    +0.120 C 
ATOM      7  C   LIG    1       27.868 -20.315   1.747  0.00  0.00    -0.030 A 
ENDROOT
BRANCH   7   8
ATOM      8  N   LIG    1       27.172 -21.046   0.665  0.00  0.00    +0.030 N 
ATOM      9  O   LIG    1       25.982 -20.869   0.477  0.00  0.00    -0.110 OA
ATOM     10  O   LIG    1       27.791 -21.826  -0.037  0.00  0.00    -0.180 OA
ENDBRANCH   7   8
BRANCH   1  11
ATOM     11  N   LIG    1       29.063 -19.017   0.098  0.00  0.00    -0.330 N 
ATOM     12  C   LIG    1       30.502 -18.812  -0.113  0.00  0.00    +0.250 C 
BRANCH  11  14
ATOM     13  C   LIG    1       29.046 -16.928  -1.132  0.00  0.00    +0.230 C 
ATOM     14  O   LIG    1       28.298 -17.849  -0.335  0.00  0.00    -0.250 OA
ENDBRANCH  11  14
ENDBRANCH   1  11
TORSDOF 3
ENDMDL
MODEL 4
REMARK VINA RESULT:    -5.334      3.614      5.242
REMARK INTER + INTRA:          -6.541
REMARK INTER:                  -6.331
REMARK INTRA:                  -0.209
REMARK UNBOUND:                -0.271
REMARK  Name = ZINC000774664567
REMARK                            x       y       z     vdW  Elec       q    Type
REMARK                         _______ _______ _______ _____ _____    ______ ____
ROOT
ATOM      1  C   LIG    1       28.959 -19.407   2.909  0.00  0.00    +0.130 A 
ATOM      2  C   LIG    1       29.589 -18.366   2.238  0.00  0.00    +0.020 A 
ATOM      3  C   LIG    1       29.273 -18.106   0.918  0.00  0.00    -0.030 A 
ATOM      4  C   LIG    1       28.333 -18.881   0.265  0.00  0.00    +0.030 A 
ATOM      5  C   LIG    1       27.704 -19.918   0.931  0.00  0.00    +0.110 A 
ATOM      6  C   LIG    1       29.956 -16.977   0.190  0.00  0.00    +0.120 C 
ATOM      7  C   LIG    1       28.017 -20.187   2.248  0.00  0.00    -0.030 A 
ENDROOT
BRANCH   7   8
ATOM      8  N   LIG    1       27.345 -21.297   2.959  0.00  0.00    +0.030 N 
ATOM      9  O   LIG    1       26.199 -21.164   3.351  0.00  0.00    -0.110 OA
ATOM     10  O   LIG    1       27.938 -22.343   3.153  0.00  0.00    -0.180 OA
ENDBRANCH   7   8
BRANCH   1  11
ATOM     11  N   LIG    1       29.275 -19.673   4.244  0.00  0.00    -0.330 N 
ATOM     12  C   LIG    1       29.382 -18.428   5.016  0.00  0.00    +0.250 C 
BRANCH  11  14
ATOM     13  C   LIG    1       31.570 -19.788   5.021  0.00  0.00    +0.230 C 
ATOM     14  O   LIG    1       30.504 -20.459   4.344  0.00  0.00    -0.250 OA
ENDBRANCH  11  14
ENDBRANCH   1  11
TORSDOF 3
ENDMDL
MODEL 5
REMARK VINA RESULT:    -5.253     21.111     22.327
REMARK INTER + INTRA:          -6.445
REMARK INTER:                  -6.101
REMARK INTRA:                  -0.345
REMARK UNBOUND:                -0.271
REMARK  Name = ZINC000774664567
REMARK                            x       y       z     vdW  Elec       q    Type
REMARK                         _______ _______ _______ _____ _____    ______ ____
ROOT
ATOM      1  C   LIG    1       24.121  -0.135  13.294  0.00  0.00    +0.130 A 
ATOM      2  C   LIG    1       24.734   0.018  12.056  0.00  0.00    +0.020 A 
ATOM      3  C   LIG    1       24.220  -0.625  10.947  0.00  0.00    -0.030 A 
ATOM      4  C   LIG    1       23.096  -1.421  11.067  0.00  0.00    +0.030 A 
ATOM      5  C   LIG    1       22.482  -1.575  12.298  0.00  0.00    +0.110 A 
ATOM      6  C   LIG    1       24.886  -0.460   9.605  0.00  0.00    +0.120 C 
ATOM      7  C   LIG    1       22.994  -0.939  13.411  0.00  0.00    -0.030 A 
ENDROOT
BRANCH   7   8
ATOM      8  N   LIG    1       22.337  -1.105  14.727  0.00  0.00    +0.030 N 
ATOM      9  O   LIG    1       21.523  -0.285  15.109  0.00  0.00    -0.110 OA
ATOM     10  O   LIG    1       22.612  -2.063  15.428  0.00  0.00    -0.180 OA
ENDBRANCH   7   8
BRANCH   1  11
ATOM     11  N   LIG    1       24.638   0.514  14.417  0.00  0.00    -0.330 N 
ATOM     12  C   LIG    1       24.649   1.970  14.224  0.00  0.00    +0.250 C 
BRANCH  11  14
ATOM     13  C   LIG    1       25.997  -0.956  15.785  0.00  0.00    +0.230 C 
ATOM     14  O   LIG    1       25.976   0.018  14.738  0.00  0.00    -0.250 OA
ENDBRANCH  11  14
ENDBRANCH   1  11
TORSDOF 3
ENDMDL
MODEL 6
REMARK VINA RESULT:    -4.963      2.106      3.035
REMARK INTER + INTRA:          -6.105
REMARK INTER:                  -5.757
REMARK INTRA:                  -0.347
REMARK UNBOUND:                -0.271
REMARK  Name = ZINC000774664567
REMARK                            x       y       z     vdW  Elec       q    Type
REMARK                         _______ _______ _______ _____ _____    ______ ____
ROOT
ATOM      1  C   LIG    1       29.076 -19.205   1.341  0.00  0.00    +0.130 A 
ATOM      2  C   LIG    1       28.948 -19.556   2.679  0.00  0.00    +0.020 A 
ATOM      3  C   LIG    1       29.425 -18.712   3.663  0.00  0.00    -0.030 A 
ATOM      4  C   LIG    1       30.031 -17.518   3.317  0.00  0.00    +0.030 A 
ATOM      5  C   LIG    1       30.159 -17.165   1.986  0.00  0.00    +0.110 A 
ATOM      6  C   LIG    1       29.287 -19.093   5.114  0.00  0.00    +0.120 C 
ATOM      7  C   LIG    1       29.689 -18.005   0.997  0.00  0.00    -0.030 A 
ENDROOT
BRANCH   7   8
ATOM      8  N   LIG    1       29.828 -17.627  -0.427  0.00  0.00    +0.030 N 
ATOM      9  O   LIG    1       30.815 -17.967  -1.054  0.00  0.00    -0.110 OA
ATOM     10  O   LIG    1       28.954 -16.976  -0.971  0.00  0.00    -0.180 OA
ENDBRANCH   7   8
BRANCH   1  11
ATOM     11  N   LIG    1       28.595 -20.056   0.344  0.00  0.00    -0.330 N 
ATOM     12  C   LIG    1       27.136 -20.200   0.435  0.00  0.00    +0.250 C 
BRANCH  11  14
ATOM     13  C   LIG    1       30.527 -21.397  -0.247  0.00  0.00    +0.230 C 
ATOM     14  O   LIG    1       29.255 -21.359   0.405  0.00  0.00    -0.250 OA
ENDBRANCH  11  14
ENDBRANCH   1  11
TORSDOF 3
ENDMDL
MODEL 7
REMARK VINA RESULT:    -4.946     24.235     25.531
REMARK INTER + INTRA:          -6.084
REMARK INTER:                  -5.827
REMARK INTRA:                  -0.257
REMARK UNBOUND:                -0.271
REMARK  Name = ZINC000774664567
REMARK                            x       y       z     vdW  Elec       q    Type
REMARK                         _______ _______ _______ _____ _____    ______ ____
ROOT
ATOM      1  C   LIG    1       14.503 -11.315  20.572  0.00  0.00    +0.130 A 
ATOM      2  C   LIG    1       14.809 -12.391  21.397  0.00  0.00    +0.020 A 
ATOM      3  C   LIG    1       16.128 -12.738  21.618  0.00  0.00    -0.030 A 
ATOM      4  C   LIG    1       17.143 -12.017  21.018  0.00  0.00    +0.030 A 
ATOM      5  C   LIG    1       16.843 -10.945  20.197  0.00  0.00    +0.110 A 
ATOM      6  C   LIG    1       16.459 -13.905  22.513  0.00  0.00    +0.120 C 
ATOM      7  C   LIG    1       15.527 -10.595  19.967  0.00  0.00    -0.030 A 
ENDROOT
BRANCH   7   8
ATOM      8  N   LIG    1       15.207  -9.450  19.088  0.00  0.00    +0.030 N 
ATOM      9  O   LIG    1       15.014  -9.630  17.899  0.00  0.00    -0.110 OA
ATOM     10  O   LIG    1       15.136  -8.326  19.554  0.00  0.00    -0.180 OA
ENDBRANCH   7   8
BRANCH   1  11
ATOM     11  N   LIG    1       13.171 -10.961  20.347  0.00  0.00    -0.330 N 
ATOM     12  C   LIG    1       12.611 -10.258  21.508  0.00  0.00    +0.250 C 
BRANCH  11  14
ATOM     13  C   LIG    1       10.958 -11.927  20.123  0.00  0.00    +0.230 C 
ATOM     14  O   LIG    1       12.368 -12.135  20.007  0.00  0.00    -0.250 OA
ENDBRANCH  11  14
ENDBRANCH   1  11
TORSDOF 3
ENDMDL
MODEL 8
REMARK VINA RESULT:    -4.713     16.938     18.566
REMARK INTER + INTRA:          -5.810
REMARK INTER:                  -5.470
REMARK INTRA:                  -0.341
REMARK UNBOUND:                -0.271
REMARK  Name = ZINC000774664567
REMARK                            x       y       z     vdW  Elec       q    Type
REMARK                         _______ _______ _______ _____ _____    ______ ____
ROOT
ATOM      1  C   LIG    1       22.242 -23.592  17.116  0.00  0.00    +0.130 A 
ATOM      2  C   LIG    1       22.651 -23.012  18.311  0.00  0.00    +0.020 A 
ATOM      3  C   LIG    1       21.996 -21.897  18.797  0.00  0.00    -0.030 A 
ATOM      4  C   LIG    1       20.935 -21.357  18.095  0.00  0.00    +0.030 A 
ATOM      5  C   LIG    1       20.524 -21.932  16.905  0.00  0.00    +0.110 A 
ATOM      6  C   LIG    1       22.441 -21.269  20.092  0.00  0.00    +0.120 C 
ATOM      7  C   LIG    1       21.177 -23.043  16.411  0.00  0.00    -0.030 A 
ENDROOT
BRANCH   7   8
ATOM      8  N   LIG    1       20.738 -23.656  15.138  0.00  0.00    +0.030 N 
ATOM      9  O   LIG    1       21.294 -23.361  14.096  0.00  0.00    -0.110 OA
ATOM     10  O   LIG    1       19.819 -24.456  15.134  0.00  0.00    -0.180 OA
ENDBRANCH   7   8
BRANCH   1  11
ATOM     11  N   LIG    1       22.902 -24.719  16.622  0.00  0.00    -0.330 N 
ATOM     12  C   LIG    1       22.699 -25.875  17.504  0.00  0.00    +0.250 C 
BRANCH  11  14
ATOM     13  C   LIG    1       24.637 -23.840  15.174  0.00  0.00    +0.230 C 
ATOM     14  O   LIG    1       24.326 -24.449  16.429  0.00  0.00    -0.250 OA
ENDBRANCH  11  14
ENDBRANCH   1  11
TORSDOF 3
ENDMDL
MODEL 9
REMARK VINA RESULT:    -4.588     10.840     12.219
REMARK INTER + INTRA:          -5.663
REMARK INTER:                  -5.312
REMARK INTRA:                  -0.352
REMARK UNBOUND:                -0.271
REMARK  Name = ZINC000774664567
REMARK                            x       y       z     vdW  Elec       q    Type
REMARK                         _______ _______ _______ _____ _____    ______ ____
ROOT
ATOM      1  C   LIG    1       26.167  -7.293  -0.285  0.00  0.00    +0.130 A 
ATOM      2  C   LIG    1       25.390  -7.090   0.849  0.00  0.00    +0.020 A 
ATOM      3  C   LIG    1       24.563  -5.986   0.929  0.00  0.00    -0.030 A 
ATOM      4  C   LIG    1       24.509  -5.083  -0.117  0.00  0.00    +0.030 A 
ATOM      5  C   LIG    1       25.282  -5.283  -1.247  0.00  0.00    +0.110 A 
ATOM      6  C   LIG    1       23.720  -5.765   2.159  0.00  0.00    +0.120 C 
ATOM      7  C   LIG    1       26.113  -6.381  -1.333  0.00  0.00    -0.030 A 
ENDROOT
BRANCH   7   8
ATOM      8  N   LIG    1       26.940  -6.593  -2.542  0.00  0.00    +0.030 N 
ATOM      9  O   LIG    1       28.048  -6.095  -2.617  0.00  0.00    -0.110 OA
ATOM     10  O   LIG    1       26.510  -7.267  -3.461  0.00  0.00    -0.180 OA
ENDBRANCH   7   8
BRANCH   1  11
ATOM     11  N   LIG    1       27.004  -8.408  -0.370  0.00  0.00    -0.330 N 
ATOM     12  C   LIG    1       26.227  -9.653  -0.317  0.00  0.00    +0.250 C 
BRANCH  11  14
ATOM     13  C   LIG    1       29.288  -7.876   0.248  0.00  0.00    +0.230 C 
ATOM     14  O   LIG    1       28.021  -8.380   0.680  0.00  0.00    -0.250 OA
ENDBRANCH  11  14
ENDBRANCH   1  11
TORSDOF 3
ENDMDL
