MODEL 1
REMARK VINA RESULT:    -5.766      0.000      0.000
REMARK INTER + INTRA:          -7.282
REMARK INTER:                  -7.282
REMARK INTRA:                   0.000
REMARK UNBOUND:                 0.000
REMARK  Name = ZINC000020348851
REMARK                            x       y       z     vdW  Elec       q    Type
REMARK                         _______ _______ _______ _____ _____    ______ ____
ROOT
ATOM      1  C   LIG    1       27.492 -21.659   3.147  0.00  0.00    +0.130 C 
ATOM      2  C   LIG    1       28.144 -20.434   2.559  0.00  0.00    +0.020 A 
ATOM      3  C   LIG    1       29.034 -19.696   3.315  0.00  0.00    +0.010 A 
ATOM      4  C   LIG    1       29.634 -18.569   2.774  0.00  0.00    +0.190 A 
ATOM      5  C   LIG    1       29.338 -18.186   1.474  0.00  0.00    -0.070 A 
ATOM      6  C   LIG    1       28.447 -18.926   0.722  0.00  0.00    +0.140 A 
ATOM      7  C   LIG    1       27.855 -20.053   1.263  0.00  0.00    -0.080 A 
ENDROOT
BRANCH   7   8
ATOM      8  N   LIG    1       26.899 -20.845   0.455  0.00  0.00    +0.030 N 
ATOM      9  O   LIG    1       25.716 -20.850   0.743  0.00  0.00    -0.160 OA
ATOM     10  O   LIG    1       27.298 -21.491  -0.497  0.00  0.00    -0.150 OA
ENDBRANCH   7   8
BRANCH   4  11
ATOM     11  O   LIG    1       30.511 -17.843   3.514  0.00  0.00    -0.290 OA
BRANCH  11  12
ATOM     12  C   LIG    1       31.664 -18.525   4.012  0.00  0.00    +0.220 C 
BRANCH  12  13
ATOM     13  C   LIG    1       31.717 -18.395   5.535  0.00  0.00    +0.210 C 
BRANCH  13  14
ATOM     14  O   LIG    1       32.180 -19.622   6.102  0.00  0.00    -0.570 OA
ATOM     15  H   LIG    1       32.914 -20.026   5.618  0.00  0.00    +0.390 HD
ENDBRANCH  13  14
ENDBRANCH  12  13
ENDBRANCH  11  12
ENDBRANCH   4  11
TORSDOF 5
ENDMDL
MODEL 2
REMARK VINA RESULT:    -5.762      2.541      3.491
REMARK INTER + INTRA:          -7.277
REMARK INTER:                  -7.170
REMARK INTRA:                  -0.107
REMARK UNBOUND:                 0.000
REMARK  Name = ZINC000020348851
REMARK                            x       y       z     vdW  Elec       q    Type
REMARK                         _______ _______ _______ _____ _____    ______ ____
ROOT
ATOM      1  C   LIG    1       27.296 -20.780   0.088  0.00  0.00    +0.130 C 
ATOM      2  C   LIG    1       28.061 -19.892   1.035  0.00  0.00    +0.020 A 
ATOM      3  C   LIG    1       28.685 -18.754   0.562  0.00  0.00    +0.010 A 
ATOM      4  C   LIG    1       29.389 -17.937   1.434  0.00  0.00    +0.190 A 
ATOM      5  C   LIG    1       29.465 -18.266   2.780  0.00  0.00    -0.070 A 
ATOM      6  C   LIG    1       28.841 -19.406   3.247  0.00  0.00    +0.140 A 
ATOM      7  C   LIG    1       28.135 -20.215   2.377  0.00  0.00    -0.080 A 
ENDROOT
BRANCH   7   8
ATOM      8  N   LIG    1       27.466 -21.437   2.881  0.00  0.00    +0.030 N 
ATOM      9  O   LIG    1       28.120 -22.439   3.108  0.00  0.00    -0.160 OA
ATOM     10  O   LIG    1       26.263 -21.438   3.069  0.00  0.00    -0.150 OA
ENDBRANCH   7   8
BRANCH   4  11
ATOM     11  O   LIG    1       30.002 -16.816   0.972  0.00  0.00    -0.290 OA
BRANCH  11  12
ATOM     12  C   LIG    1       31.256 -16.471   1.563  0.00  0.00    +0.220 C 
BRANCH  12  13
ATOM     13  C   LIG    1       32.359 -16.551   0.505  0.00  0.00    +0.210 C 
BRANCH  13  14
ATOM     14  O   LIG    1       32.719 -15.231   0.093  0.00  0.00    -0.570 OA
ATOM     15  H   LIG    1       32.528 -15.044  -0.837  0.00  0.00    +0.390 HD
ENDBRANCH  13  14
ENDBRANCH  12  13
ENDBRANCH  11  12
ENDBRANCH   4  11
TORSDOF 5
ENDMDL
MODEL 3
REMARK VINA RESULT:    -5.659      2.316      3.014
REMARK INTER + INTRA:          -7.147
REMARK INTER:                  -7.002
REMARK INTRA:                  -0.145
REMARK UNBOUND:                 0.000
REMARK  Name = ZINC000020348851
REMARK                            x       y       z     vdW  Elec       q    Type
REMARK                         _______ _______ _______ _____ _____    ______ ____
ROOT
ATOM      1  C   LIG    1       28.420 -20.203   3.391  0.00  0.00    +0.130 C 
ATOM      2  C   LIG    1       28.649 -19.280   2.222  0.00  0.00    +0.020 A 
ATOM      3  C   LIG    1       29.432 -18.153   2.376  0.00  0.00    +0.010 A 
ATOM      4  C   LIG    1       29.642 -17.303   1.300  0.00  0.00    +0.190 A 
ATOM      5  C   LIG    1       29.064 -17.589   0.071  0.00  0.00    -0.070 A 
ATOM      6  C   LIG    1       28.281 -18.717  -0.077  0.00  0.00    +0.140 A 
ATOM      7  C   LIG    1       28.078 -19.565   0.996  0.00  0.00    -0.080 A 
ENDROOT
BRANCH   7   8
ATOM      8  N   LIG    1       27.239 -20.774   0.834  0.00  0.00    +0.030 N 
ATOM      9  O   LIG    1       27.750 -21.830   0.508  0.00  0.00    -0.160 OA
ATOM     10  O   LIG    1       26.039 -20.712   1.028  0.00  0.00    -0.150 OA
ENDBRANCH   7   8
BRANCH   4  11
ATOM     11  O   LIG    1       30.413 -16.195   1.448  0.00  0.00    -0.290 OA
BRANCH  11  12
ATOM     12  C   LIG    1       31.798 -16.399   1.732  0.00  0.00    +0.220 C 
BRANCH  12  13
ATOM     13  C   LIG    1       32.534 -16.776   0.445  0.00  0.00    +0.210 C 
BRANCH  13  14
ATOM     14  O   LIG    1       33.110 -15.604  -0.135  0.00  0.00    -0.570 OA
ATOM     15  H   LIG    1       33.096 -14.831   0.447  0.00  0.00    +0.390 HD
ENDBRANCH  13  14
ENDBRANCH  12  13
ENDBRANCH  11  12
ENDBRANCH   4  11
TORSDOF 5
ENDMDL
MODEL 4
REMARK VINA RESULT:    -5.210     21.224     22.488
REMARK INTER + INTRA:          -6.580
REMARK INTER:                  -6.433
REMARK INTRA:                  -0.147
REMARK UNBOUND:                 0.000
REMARK  Name = ZINC000020348851
REMARK                            x       y       z     vdW  Elec       q    Type
REMARK                         _______ _______ _______ _____ _____    ______ ____
ROOT
ATOM      1  C   LIG    1       24.691   0.612  14.310  0.00  0.00    +0.130 C 
ATOM      2  C   LIG    1       24.113  -0.152  13.147  0.00  0.00    +0.020 A 
ATOM      3  C   LIG    1       24.689  -0.045  11.896  0.00  0.00    +0.010 A 
ATOM      4  C   LIG    1       24.157  -0.748  10.826  0.00  0.00    +0.190 A 
ATOM      5  C   LIG    1       23.046  -1.558  11.015  0.00  0.00    -0.070 A 
ATOM      6  C   LIG    1       22.472  -1.661  12.267  0.00  0.00    +0.140 A 
ATOM      7  C   LIG    1       23.009  -0.963  13.333  0.00  0.00    -0.080 A 
ENDROOT
BRANCH   7   8
ATOM      8  N   LIG    1       22.393  -1.075  14.675  0.00  0.00    +0.030 N 
ATOM      9  O   LIG    1       22.688  -2.004  15.405  0.00  0.00    -0.160 OA
ATOM     10  O   LIG    1       21.592  -0.238  15.049  0.00  0.00    -0.150 OA
ENDBRANCH   7   8
BRANCH   4  11
ATOM     11  O   LIG    1       24.723  -0.646   9.595  0.00  0.00    -0.290 OA
BRANCH  11  12
ATOM     12  C   LIG    1       25.665   0.410   9.398  0.00  0.00    +0.220 C 
BRANCH  12  13
ATOM     13  C   LIG    1       25.146   1.364   8.320  0.00  0.00    +0.210 C 
BRANCH  13  14
ATOM     14  O   LIG    1       25.140   0.696   7.057  0.00  0.00    -0.570 OA
ATOM     15  H   LIG    1       24.797  -0.208   7.092  0.00  0.00    +0.390 HD
ENDBRANCH  13  14
ENDBRANCH  12  13
ENDBRANCH  11  12
ENDBRANCH   4  11
TORSDOF 5
ENDMDL
MODEL 5
REMARK VINA RESULT:    -5.190     23.475     24.275
REMARK INTER + INTRA:          -6.554
REMARK INTER:                  -6.348
REMARK INTRA:                  -0.207
REMARK UNBOUND:                 0.000
REMARK  Name = ZINC000020348851
REMARK                            x       y       z     vdW  Elec       q    Type
REMARK                         _______ _______ _______ _____ _____    ______ ____
ROOT
ATOM      1  C   LIG    1       13.114 -10.752  20.727  0.00  0.00    +0.130 C 
ATOM      2  C   LIG    1       14.550 -11.195  20.841  0.00  0.00    +0.020 A 
ATOM      3  C   LIG    1       14.889 -12.223  21.700  0.00  0.00    +0.010 A 
ATOM      4  C   LIG    1       16.210 -12.631  21.805  0.00  0.00    +0.190 A 
ATOM      5  C   LIG    1       17.189 -12.005  21.047  0.00  0.00    -0.070 A 
ATOM      6  C   LIG    1       16.846 -10.977  20.191  0.00  0.00    +0.140 A 
ATOM      7  C   LIG    1       15.526 -10.576  20.084  0.00  0.00    -0.080 A 
ENDROOT
BRANCH   7   8
ATOM      8  N   LIG    1       15.160  -9.475  19.164  0.00  0.00    +0.030 N 
ATOM      9  O   LIG    1       15.125  -8.328  19.573  0.00  0.00    -0.160 OA
ATOM     10  O   LIG    1       14.896  -9.716  18.000  0.00  0.00    -0.150 OA
ENDBRANCH   7   8
BRANCH   4  11
ATOM     11  O   LIG    1       16.546 -13.642  22.648  0.00  0.00    -0.290 OA
BRANCH  11  12
ATOM     12  C   LIG    1       15.570 -14.665  22.857  0.00  0.00    +0.220 C 
BRANCH  12  13
ATOM     13  C   LIG    1       15.838 -15.830  21.904  0.00  0.00    +0.210 C 
BRANCH  13  14
ATOM     14  O   LIG    1       17.218 -16.194  21.973  0.00  0.00    -0.570 OA
ATOM     15  H   LIG    1       17.370 -17.113  22.234  0.00  0.00    +0.390 HD
ENDBRANCH  13  14
ENDBRANCH  12  13
ENDBRANCH  11  12
ENDBRANCH   4  11
TORSDOF 5
ENDMDL
MODEL 6
REMARK VINA RESULT:    -4.939     15.019     16.131
REMARK INTER + INTRA:          -6.238
REMARK INTER:                  -6.108
REMARK INTRA:                  -0.130
REMARK UNBOUND:                 0.000
REMARK  Name = ZINC000020348851
REMARK                            x       y       z     vdW  Elec       q    Type
REMARK                         _______ _______ _______ _____ _____    ______ ____
ROOT
ATOM      1  C   LIG    1       23.204 -23.446  14.791  0.00  0.00    +0.130 C 
ATOM      2  C   LIG    1       22.547 -22.732  15.945  0.00  0.00    +0.020 A 
ATOM      3  C   LIG    1       23.323 -22.144  16.925  0.00  0.00    +0.010 A 
ATOM      4  C   LIG    1       22.719 -21.487  17.986  0.00  0.00    +0.190 A 
ATOM      5  C   LIG    1       21.334 -21.422  18.059  0.00  0.00    -0.070 A 
ATOM      6  C   LIG    1       20.563 -22.012  17.078  0.00  0.00    +0.140 A 
ATOM      7  C   LIG    1       21.169 -22.661  16.018  0.00  0.00    -0.080 A 
ENDROOT
BRANCH   7   8
ATOM      8  N   LIG    1       20.340 -23.292  14.966  0.00  0.00    +0.030 N 
ATOM      9  O   LIG    1       19.905 -24.418  15.127  0.00  0.00    -0.160 OA
ATOM     10  O   LIG    1       20.092 -22.685  13.940  0.00  0.00    -0.150 OA
ENDBRANCH   7   8
BRANCH   4  11
ATOM     11  O   LIG    1       23.479 -20.907  18.950  0.00  0.00    -0.290 OA
BRANCH  11  12
ATOM     12  C   LIG    1       24.897 -21.021  18.816  0.00  0.00    +0.220 C 
BRANCH  12  13
ATOM     13  C   LIG    1       25.582 -20.077  19.807  0.00  0.00    +0.210 C 
BRANCH  13  14
ATOM     14  O   LIG    1       25.776 -18.802  19.192  0.00  0.00    -0.570 OA
ATOM     15  H   LIG    1       25.058 -18.538  18.600  0.00  0.00    +0.390 HD
ENDBRANCH  13  14
ENDBRANCH  12  13
ENDBRANCH  11  12
ENDBRANCH   4  11
TORSDOF 5
ENDMDL
MODEL 7
REMARK VINA RESULT:    -4.832     23.661     24.489
REMARK INTER + INTRA:          -6.102
REMARK INTER:                  -5.946
REMARK INTRA:                  -0.156
REMARK UNBOUND:                 0.000
REMARK  Name = ZINC000020348851
REMARK                            x       y       z     vdW  Elec       q    Type
REMARK                         _______ _______ _______ _____ _____    ______ ____
ROOT
ATOM      1  C   LIG    1       13.721 -15.062  22.497  0.00  0.00    +0.130 C 
ATOM      2  C   LIG    1       14.740 -14.048  22.045  0.00  0.00    +0.020 A 
ATOM      3  C   LIG    1       14.368 -12.731  21.859  0.00  0.00    +0.010 A 
ATOM      4  C   LIG    1       15.305 -11.797  21.443  0.00  0.00    +0.190 A 
ATOM      5  C   LIG    1       16.617 -12.190  21.215  0.00  0.00    -0.070 A 
ATOM      6  C   LIG    1       16.984 -13.508  21.401  0.00  0.00    +0.140 A 
ATOM      7  C   LIG    1       16.048 -14.435  21.821  0.00  0.00    -0.080 A 
ENDROOT
BRANCH   7   8
ATOM      8  N   LIG    1       16.445 -15.848  22.021  0.00  0.00    +0.030 N 
ATOM      9  O   LIG    1       16.245 -16.666  21.142  0.00  0.00    -0.160 OA
ATOM     10  O   LIG    1       16.972 -16.190  23.064  0.00  0.00    -0.150 OA
ENDBRANCH   7   8
BRANCH   4  11
ATOM     11  O   LIG    1       14.942 -10.501  21.261  0.00  0.00    -0.290 OA
BRANCH  11  12
ATOM     12  C   LIG    1       14.009 -10.229  20.213  0.00  0.00    +0.220 C 
BRANCH  12  13
ATOM     13  C   LIG    1       14.718  -9.492  19.076  0.00  0.00    +0.210 C 
BRANCH  13  14
ATOM     14  O   LIG    1       15.346  -8.316  19.589  0.00  0.00    -0.570 OA
ATOM     15  H   LIG    1       14.772  -7.536  19.598  0.00  0.00    +0.390 HD
ENDBRANCH  13  14
ENDBRANCH  12  13
ENDBRANCH  11  12
ENDBRANCH   4  11
TORSDOF 5
ENDMDL
MODEL 8
REMARK VINA RESULT:    -4.734     21.036     22.097
REMARK INTER + INTRA:          -5.979
REMARK INTER:                  -5.805
REMARK INTRA:                  -0.174
REMARK UNBOUND:                 0.000
REMARK  Name = ZINC000020348851
REMARK                            x       y       z     vdW  Elec       q    Type
REMARK                         _______ _______ _______ _____ _____    ______ ____
ROOT
ATOM      1  C   LIG    1       26.307   1.765  11.071  0.00  0.00    +0.130 C 
ATOM      2  C   LIG    1       25.323   0.679  10.716  0.00  0.00    +0.020 A 
ATOM      3  C   LIG    1       24.629   0.024  11.714  0.00  0.00    +0.010 A 
ATOM      4  C   LIG    1       23.724  -0.975  11.387  0.00  0.00    +0.190 A 
ATOM      5  C   LIG    1       23.518  -1.313  10.057  0.00  0.00    -0.070 A 
ATOM      6  C   LIG    1       24.216  -0.655   9.063  0.00  0.00    +0.140 A 
ATOM      7  C   LIG    1       25.113   0.344   9.392  0.00  0.00    -0.080 A 
ENDROOT
BRANCH   7   8
ATOM      8  N   LIG    1       25.860   1.048   8.324  0.00  0.00    +0.030 N 
ATOM      9  O   LIG    1       25.369   2.021   7.779  0.00  0.00    -0.160 OA
ATOM     10  O   LIG    1       26.963   0.656   7.992  0.00  0.00    -0.150 OA
ENDBRANCH   7   8
BRANCH   4  11
ATOM     11  O   LIG    1       23.039  -1.621  12.366  0.00  0.00    -0.290 OA
BRANCH  11  12
ATOM     12  C   LIG    1       23.692  -1.767  13.629  0.00  0.00    +0.220 C 
BRANCH  12  13
ATOM     13  C   LIG    1       22.649  -1.752  14.748  0.00  0.00    +0.210 C 
BRANCH  13  14
ATOM     14  O   LIG    1       22.083  -0.444  14.854  0.00  0.00    -0.570 OA
ATOM     15  H   LIG    1       21.249  -0.416  15.343  0.00  0.00    +0.390 HD
ENDBRANCH  13  14
ENDBRANCH  12  13
ENDBRANCH  11  12
ENDBRANCH   4  11
TORSDOF 5
ENDMDL
MODEL 9
REMARK VINA RESULT:    -4.573     14.695     16.059
REMARK INTER + INTRA:          -5.776
REMARK INTER:                  -5.744
REMARK INTRA:                  -0.032
REMARK UNBOUND:                 0.000
REMARK  Name = ZINC000020348851
REMARK                            x       y       z     vdW  Elec       q    Type
REMARK                         _______ _______ _______ _____ _____    ______ ____
ROOT
ATOM      1  C   LIG    1       24.905 -23.420  15.820  0.00  0.00    +0.130 C 
ATOM      2  C   LIG    1       23.406 -23.394  15.667  0.00  0.00    +0.020 A 
ATOM      3  C   LIG    1       22.597 -23.588  16.769  0.00  0.00    +0.010 A 
ATOM      4  C   LIG    1       21.217 -23.563  16.629  0.00  0.00    +0.190 A 
ATOM      5  C   LIG    1       20.654 -23.344  15.380  0.00  0.00    -0.070 A 
ATOM      6  C   LIG    1       21.467 -23.152  14.280  0.00  0.00    +0.140 A 
ATOM      7  C   LIG    1       22.842 -23.171  14.425  0.00  0.00    -0.080 A 
ENDROOT
BRANCH   7   8
ATOM      8  N   LIG    1       23.712 -22.964  13.245  0.00  0.00    +0.030 N 
ATOM      9  O   LIG    1       23.811 -21.856  12.749  0.00  0.00    -0.160 OA
ATOM     10  O   LIG    1       24.329 -23.901  12.772  0.00  0.00    -0.150 OA
ENDBRANCH   7   8
BRANCH   4  11
ATOM     11  O   LIG    1       20.419 -23.752  17.712  0.00  0.00    -0.290 OA
BRANCH  11  12
ATOM     12  C   LIG    1       20.534 -22.807  18.777  0.00  0.00    +0.220 C 
BRANCH  12  13
ATOM     13  C   LIG    1       20.811 -23.546  20.088  0.00  0.00    +0.210 C 
BRANCH  13  14
ATOM     14  O   LIG    1       20.047 -22.953  21.139  0.00  0.00    -0.570 OA
ATOM     15  H   LIG    1       19.096 -22.916  20.961  0.00  0.00    +0.390 HD
ENDBRANCH  13  14
ENDBRANCH  12  13
ENDBRANCH  11  12
ENDBRANCH   4  11
TORSDOF 5
ENDMDL
