REMARK  4 active torsions:
REMARK  status: ('A' for Active; 'I' for Inactive)
REMARK    1  A    between atoms: C_4  and  C_7 
REMARK    2  A    between atoms: C_5  and  O_11 
REMARK    3  A    between atoms: C_7  and  O_9 
REMARK    4  A    between atoms: O_11  and  C_12 
ROOT
HETATM    1  C                  -1.892  -0.992  -1.578  0.00  0.00     0.002 A 
HETATM    2  C                  -1.370  -2.149  -0.990  0.00  0.00     0.000 A 
HETATM    3  C                  -0.079  -2.146  -0.464  0.00  0.00     0.008 A 
HETATM    4  C                   0.708  -0.986  -0.521  0.00  0.00     0.084 A 
HETATM    5  C                   0.203   0.156  -1.196  0.00  0.00     0.109 A 
HETATM    6  C                  -1.108   0.161  -1.654  0.00  0.00     0.025 A 
ENDROOT
BRANCH   4   7
HETATM    7  C                   2.085  -1.030   0.104  0.00  0.00     0.179 C 
HETATM    8  O                   2.533  -2.034   0.636  0.00  0.00    -0.646 OA
BRANCH   7   9
HETATM    9  O                   2.879   0.025   0.112  0.00  0.00    -0.773 OA
HETATM   10  H                   2.566   0.782  -0.326  0.00  0.00     0.167 HD
ENDBRANCH   7   9
ENDBRANCH   4   7
BRANCH   5  11
HETATM   11  O                   0.753   1.334  -1.084  0.00  0.00    -0.276 OA
BRANCH  11  12
HETATM   12  C                   0.668   2.025   0.034  0.00  0.00     0.277 C 
HETATM   13  O                   1.300   3.063   0.152  0.00  0.00    -0.264 OA
HETATM   14  C                  -0.243   1.577   1.144  0.00  0.00     0.107 C 
ENDBRANCH  11  12
ENDBRANCH   5  11
TORSDOF 4
