REMARK  5 active torsions:
REMARK  status: ('A' for Active; 'I' for Inactive)
REMARK    1  A    between atoms: C2_3  and  C8_9 
REMARK    2  A    between atoms: C5_6  and  C6_7 
REMARK    3  A    between atoms: C6_7  and  C12_13 
REMARK    4  A    between atoms: C8_9  and  C9_10 
REMARK    5  A    between atoms: C12_13  and  O1_15 
ROOT
HETATM    1  C   MOL     1       0.466   0.765   6.102  1.00  0.00    -0.000 A 
HETATM    2  C1  MOL     1      -0.940   0.744   6.163  1.00  0.00    -0.004 A 
HETATM    3  C2  MOL     1      -1.635  -0.467   6.063  1.00  0.00    -0.022 A 
HETATM    4  C3  MOL     1      -0.919  -1.664   5.914  1.00  0.00    -0.004 A 
HETATM    5  C4  MOL     1       0.486  -1.652   5.896  1.00  0.00    -0.000 A 
HETATM    6  C5  MOL     1       1.177  -0.436   6.015  1.00  0.00     0.002 A 
ENDROOT
BRANCH   6   7
HETATM    7  C6  MOL     1       2.701  -0.426   6.124  1.00  0.00     0.039 C 
HETATM    8  C7  MOL     1       3.427  -1.666   5.604  1.00  0.00     0.037 C 
BRANCH   7   9
HETATM    9  C12 MOL     1       3.318   0.282   7.333  1.00  0.00     0.173 C 
HETATM   10  O   MOL     1       4.671   0.506   7.385  1.00  0.00    -0.646 OA
BRANCH   9  11
HETATM   11  O1  MOL     1       2.501   0.708   8.407  1.00  0.00    -0.773 OA
HETATM   12  H18 MOL     1       3.114   1.182   9.159  1.00  0.00     0.167 HD
ENDBRANCH   9  11
ENDBRANCH   7   9
ENDBRANCH   6   7
BRANCH   3  13
HETATM   13  C8  MOL     1      -3.165  -0.508   6.098  1.00  0.00     0.026 C 
BRANCH  13  14
HETATM   14  C9  MOL     1      -3.791   0.877   6.268  1.00  0.00     0.004 C 
HETATM   15  C10 MOL     1      -5.293   0.724   6.485  1.00  0.00     0.000 C 
HETATM   16  C11 MOL     1      -3.561   1.721   5.016  1.00  0.00     0.000 C 
ENDBRANCH  13  14
ENDBRANCH   3  13
TORSDOF 5
