REMARK  2 active torsions:
REMARK  status: ('A' for Active; 'I' for Inactive)
REMARK    1  A    between atoms: C_5  and  O_7 
REMARK    2  A    between atoms: C_14  and  O_17 
ROOT
ATOM      1  C           1      26.492   5.683 -24.578  1.00  0.00     0.026 A 
ATOM      2  C           1      25.248   6.101 -24.086  1.00  0.00    -0.002 A 
ATOM      3  C           1      25.175   6.935 -22.966  1.00  0.00    -0.022 A 
ATOM      4  C           1      26.386   7.269 -22.382  1.00  0.00     0.000 A 
ATOM      5  C           1      27.704   6.077 -23.995  1.00  0.00     0.111 A 
ATOM      6  C           1      27.624   6.872 -22.852  1.00  0.00     0.112 A 
ATOM      7  O           1      28.630   7.509 -22.196  1.00  0.00    -0.329 OA
ATOM      8  C           1      26.582   8.175 -21.210  1.00  0.00     0.056 C 
ATOM      9  C           1      25.455   9.203 -21.225  1.00  0.00     0.060 C 
ATOM     10  C           1      24.120   8.425 -21.176  1.00  0.00     0.228 C 
ATOM     11  C           1      23.906   7.543 -22.431  1.00  0.00     0.060 C 
ATOM     12  C           1      28.018   8.627 -21.554  1.00  0.00     0.156 C 
ATOM     13  C           1      28.075   9.815 -22.537  1.00  0.00     0.160 C 
ATOM     14  C           1      25.579  10.106 -22.419  1.00  0.00    -0.026 C 
ATOM     15  C           1      26.756  10.369 -23.000  1.00  0.00     0.001 C 
ATOM     16  C           1      26.508   7.361 -19.911  1.00  0.00     0.042 C 
ATOM     17  C           1      25.120   6.728 -19.738  1.00  0.00     0.251 C 
ATOM     18  N           1      24.058   7.701 -19.912  1.00  0.00     0.138 N 
ATOM     19  C           1      22.753   7.150 -19.596  1.00  0.00     0.285 C 
ENDROOT
BRANCH   5  20
ATOM     20  O           1      28.901   5.730 -24.531  1.00  0.00    -0.357 OA
ATOM     21  H           1      28.712   5.217 -25.333  1.00  0.00     0.217 HD
ENDBRANCH   5  20
BRANCH  13  22
ATOM     22  O           1      28.796   9.430 -23.682  1.00  0.00    -0.378 OA
ATOM     23  H           1      28.316   8.703 -24.051  1.00  0.00     0.211 HD
ENDBRANCH  13  22
TORSDOF 2
