MODEL 1
REMARK VINA RESULT:    -9.614      0.000      0.000
REMARK INTER + INTRA:         -13.405
REMARK INTER:                 -12.424
REMARK INTRA:                  -0.981
REMARK UNBOUND:                -0.981
REMARK  5 active torsions:
REMARK  status: ('A' for Active; 'I' for Inactive)
REMARK    1  A    between atoms: C_2  and  C_19 
REMARK    2  A    between atoms: C_2  and  C_11 
REMARK    3  A    between atoms: C_19  and  C_20 
REMARK    4  A    between atoms: C_20  and  C_21 
REMARK    5  A    between atoms: C_21  and  N_22 
ROOT
ATOM      1  O   UNL     1     -31.329 -21.424   1.068  0.00  0.00    -0.346 OA
ATOM      2  C   UNL     1     -32.027 -21.696   2.326  0.00  0.00     0.130 C 
ATOM      3  C   UNL     1     -33.022 -20.577   2.433  0.00  0.00     0.004 A 
ATOM      4  C   UNL     1     -32.974 -19.797   1.286  0.00  0.00     0.006 A 
ATOM      5  C   UNL     1     -31.968 -20.345   0.348  0.00  0.00     0.169 C 
ATOM      6  C   UNL     1     -33.907 -20.279   3.459  0.00  0.00    -0.001 A 
ATOM      7  C   UNL     1     -33.800 -18.697   1.127  0.00  0.00     0.008 A 
ATOM      8  C   UNL     1     -34.744 -19.171   3.316  0.00  0.00     0.010 A 
ATOM      9  C   UNL     1     -34.690 -18.385   2.155  0.00  0.00     0.068 A 
ATOM     10  N   UNL     1     -36.260 -16.337   1.919  0.00  0.00    -0.191 NA
ATOM     11  C   UNL     1     -35.556 -17.255   2.025  0.00  0.00     0.101 C 
ENDROOT
BRANCH   2  12
ATOM     12  C   UNL     1     -32.685 -23.067   2.226  0.00  0.00     0.038 C 
BRANCH  12  13
ATOM     13  C   UNL     1     -34.101 -22.966   1.664  0.00  0.00     0.038 C 
BRANCH  13  14
ATOM     14  C   UNL     1     -34.332 -24.002   0.565  0.00  0.00     0.251 C 
BRANCH  14  15
ATOM     15  N   UNL     1     -34.282 -23.368  -0.747  0.00  0.00     0.141 N 
ATOM     16  C   UNL     1     -34.835 -24.257  -1.771  0.00  0.00     0.285 C 
ATOM     17  C   UNL     1     -35.006 -22.096  -0.734  0.00  0.00     0.285 C 
ENDBRANCH  14  15
ENDBRANCH  13  14
ENDBRANCH  12  13
ENDBRANCH   2  12
BRANCH   2  18
ATOM     18  C   UNL     1     -31.001 -21.668   3.409  0.00  0.00     0.006 A 
ATOM     19  C   UNL     1     -31.192 -22.418   4.569  0.00  0.00     0.001 A 
ATOM     20  C   UNL     1     -30.233 -22.391   5.581  0.00  0.00     0.029 A 
ATOM     21  C   UNL     1     -29.084 -21.615   5.432  0.00  0.00     0.140 A 
ATOM     22  C   UNL     1     -28.893 -20.866   4.272  0.00  0.00     0.029 A 
ATOM     23  F   UNL     1     -28.162 -21.591   6.404  0.00  0.00    -0.204 F 
ATOM     24  C   UNL     1     -29.853 -20.892   3.259  0.00  0.00     0.001 A 
ENDBRANCH   2  18
TORSDOF 5
ENDMDL
MODEL 2
REMARK VINA RESULT:    -9.104      3.091      5.519
REMARK INTER + INTRA:         -12.746
REMARK INTER:                 -11.548
REMARK INTRA:                  -1.199
REMARK UNBOUND:                -0.981
REMARK  5 active torsions:
REMARK  status: ('A' for Active; 'I' for Inactive)
REMARK    1  A    between atoms: C_2  and  C_19 
REMARK    2  A    between atoms: C_2  and  C_11 
REMARK    3  A    between atoms: C_19  and  C_20 
REMARK    4  A    between atoms: C_20  and  C_21 
REMARK    5  A    between atoms: C_21  and  N_22 
ROOT
ATOM      1  O   UNL     1     -34.799 -21.302   1.763  0.00  0.00    -0.346 OA
ATOM      2  C   UNL     1     -33.633 -20.700   1.115  0.00  0.00     0.130 C 
ATOM      3  C   UNL     1     -32.497 -21.032   2.039  0.00  0.00     0.004 A 
ATOM      4  C   UNL     1     -32.953 -21.846   3.066  0.00  0.00     0.006 A 
ATOM      5  C   UNL     1     -34.398 -22.116   2.890  0.00  0.00     0.169 C 
ATOM      6  C   UNL     1     -31.164 -20.654   1.969  0.00  0.00    -0.001 A 
ATOM      7  C   UNL     1     -32.100 -22.304   4.056  0.00  0.00     0.008 A 
ATOM      8  C   UNL     1     -30.292 -21.103   2.962  0.00  0.00     0.010 A 
ATOM      9  C   UNL     1     -30.758 -21.925   4.000  0.00  0.00     0.068 A 
ATOM     10  N   UNL     1     -29.112 -22.746   5.824  0.00  0.00    -0.191 NA
ATOM     11  C   UNL     1     -29.850 -22.377   5.006  0.00  0.00     0.101 C 
ENDROOT
BRANCH   2  12
ATOM     12  C   UNL     1     -33.475 -21.322  -0.268  0.00  0.00     0.038 C 
BRANCH  12  13
ATOM     13  C   UNL     1     -34.811 -21.826  -0.808  0.00  0.00     0.038 C 
BRANCH  13  14
ATOM     14  C   UNL     1     -34.642 -23.160  -1.534  0.00  0.00     0.251 C 
BRANCH  14  15
ATOM     15  N   UNL     1     -35.198 -24.246  -0.735  0.00  0.00     0.141 N 
ATOM     16  C   UNL     1     -34.299 -24.587   0.369  0.00  0.00     0.285 C 
ATOM     17  C   UNL     1     -36.519 -23.883  -0.220  0.00  0.00     0.285 C 
ENDBRANCH  14  15
ENDBRANCH  13  14
ENDBRANCH  12  13
ENDBRANCH   2  12
BRANCH   2  18
ATOM     18  C   UNL     1     -33.895 -19.234   1.019  0.00  0.00     0.006 A 
ATOM     19  C   UNL     1     -34.690 -18.605   1.976  0.00  0.00     0.001 A 
ATOM     20  C   UNL     1     -34.935 -17.234   1.885  0.00  0.00     0.029 A 
ATOM     21  C   UNL     1     -34.385 -16.495   0.839  0.00  0.00     0.140 A 
ATOM     22  C   UNL     1     -33.589 -17.125  -0.117  0.00  0.00     0.029 A 
ATOM     23  F   UNL     1     -34.618 -15.179   0.753  0.00  0.00    -0.204 F 
ATOM     24  C   UNL     1     -33.344 -18.497  -0.028  0.00  0.00     0.001 A 
ENDBRANCH   2  18
TORSDOF 5
ENDMDL
MODEL 3
REMARK VINA RESULT:    -8.748      3.788      6.103
REMARK INTER + INTRA:         -12.287
REMARK INTER:                 -10.871
REMARK INTRA:                  -1.416
REMARK UNBOUND:                -0.981
REMARK  5 active torsions:
REMARK  status: ('A' for Active; 'I' for Inactive)
REMARK    1  A    between atoms: C_2  and  C_19 
REMARK    2  A    between atoms: C_2  and  C_11 
REMARK    3  A    between atoms: C_19  and  C_20 
REMARK    4  A    between atoms: C_20  and  C_21 
REMARK    5  A    between atoms: C_21  and  N_22 
ROOT
ATOM      1  O   UNL     1     -36.823 -20.000   1.910  0.00  0.00    -0.346 OA
ATOM      2  C   UNL     1     -36.118 -18.725   2.050  0.00  0.00     0.130 C 
ATOM      3  C   UNL     1     -37.219 -17.704   2.063  0.00  0.00     0.004 A 
ATOM      4  C   UNL     1     -38.450 -18.345   2.044  0.00  0.00     0.006 A 
ATOM      5  C   UNL     1     -38.252 -19.812   2.030  0.00  0.00     0.169 C 
ATOM      6  C   UNL     1     -37.138 -16.320   2.101  0.00  0.00    -0.001 A 
ATOM      7  C   UNL     1     -39.635 -17.630   2.057  0.00  0.00     0.008 A 
ATOM      8  C   UNL     1     -38.324 -15.584   2.110  0.00  0.00     0.010 A 
ATOM      9  C   UNL     1     -39.566 -16.236   2.089  0.00  0.00     0.068 A 
ATOM     10  N   UNL     1     -41.749 -14.841   2.113  0.00  0.00    -0.191 NA
ATOM     11  C   UNL     1     -40.770 -15.467   2.101  0.00  0.00     0.101 C 
ENDROOT
BRANCH   2  12
ATOM     12  C   UNL     1     -35.321 -18.755   3.349  0.00  0.00     0.038 C 
BRANCH  12  13
ATOM     13  C   UNL     1     -35.127 -20.184   3.851  0.00  0.00     0.038 C 
BRANCH  13  14
ATOM     14  C   UNL     1     -33.761 -20.731   3.440  0.00  0.00     0.251 C 
BRANCH  14  15
ATOM     15  N   UNL     1     -33.906 -21.697   2.358  0.00  0.00     0.141 N 
ATOM     16  C   UNL     1     -32.873 -21.492   1.341  0.00  0.00     0.285 C 
ATOM     17  C   UNL     1     -33.843 -23.065   2.877  0.00  0.00     0.285 C 
ENDBRANCH  14  15
ENDBRANCH  13  14
ENDBRANCH  12  13
ENDBRANCH   2  12
BRANCH   2  18
ATOM     18  C   UNL     1     -35.216 -18.592   0.868  0.00  0.00     0.006 A 
ATOM     19  C   UNL     1     -34.086 -17.780   0.942  0.00  0.00     0.001 A 
ATOM     20  C   UNL     1     -33.244 -17.657  -0.165  0.00  0.00     0.029 A 
ATOM     21  C   UNL     1     -33.533 -18.346  -1.341  0.00  0.00     0.140 A 
ATOM     22  C   UNL     1     -34.664 -19.159  -1.414  0.00  0.00     0.029 A 
ATOM     23  F   UNL     1     -32.724 -18.229  -2.402  0.00  0.00    -0.204 F 
ATOM     24  C   UNL     1     -35.507 -19.282  -0.308  0.00  0.00     0.001 A 
ENDBRANCH   2  18
TORSDOF 5
ENDMDL
MODEL 4
REMARK VINA RESULT:    -8.392      4.345      5.982
REMARK INTER + INTRA:         -11.827
REMARK INTER:                 -10.689
REMARK INTRA:                  -1.138
REMARK UNBOUND:                -0.981
REMARK  5 active torsions:
REMARK  status: ('A' for Active; 'I' for Inactive)
REMARK    1  A    between atoms: C_2  and  C_19 
REMARK    2  A    between atoms: C_2  and  C_11 
REMARK    3  A    between atoms: C_19  and  C_20 
REMARK    4  A    between atoms: C_20  and  C_21 
REMARK    5  A    between atoms: C_21  and  N_22 
ROOT
ATOM      1  O   UNL     1     -35.741 -19.224   3.482  0.00  0.00    -0.346 OA
ATOM      2  C   UNL     1     -37.055 -19.792   3.177  0.00  0.00     0.130 C 
ATOM      3  C   UNL     1     -37.862 -18.609   2.725  0.00  0.00     0.004 A 
ATOM      4  C   UNL     1     -37.050 -17.484   2.670  0.00  0.00     0.006 A 
ATOM      5  C   UNL     1     -35.669 -17.841   3.063  0.00  0.00     0.169 C 
ATOM      6  C   UNL     1     -39.203 -18.536   2.379  0.00  0.00    -0.001 A 
ATOM      7  C   UNL     1     -37.549 -16.255   2.274  0.00  0.00     0.008 A 
ATOM      8  C   UNL     1     -39.722 -17.303   1.982  0.00  0.00     0.010 A 
ATOM      9  C   UNL     1     -38.898 -16.168   1.929  0.00  0.00     0.068 A 
ATOM     10  N   UNL     1     -39.892 -13.894   1.183  0.00  0.00    -0.191 NA
ATOM     11  C   UNL     1     -39.447 -14.914   1.518  0.00  0.00     0.101 C 
ENDROOT
BRANCH   2  12
ATOM     12  C   UNL     1     -36.885 -20.845   2.088  0.00  0.00     0.038 C 
BRANCH  12  13
ATOM     13  C   UNL     1     -35.457 -21.385   2.054  0.00  0.00     0.038 C 
BRANCH  13  14
ATOM     14  C   UNL     1     -34.976 -21.577   0.617  0.00  0.00     0.251 C 
BRANCH  14  15
ATOM     15  N   UNL     1     -35.138 -22.968   0.210  0.00  0.00     0.141 N 
ATOM     16  C   UNL     1     -35.073 -23.090  -1.247  0.00  0.00     0.285 C 
ATOM     17  C   UNL     1     -34.117 -23.810   0.835  0.00  0.00     0.285 C 
ENDBRANCH  14  15
ENDBRANCH  13  14
ENDBRANCH  12  13
ENDBRANCH   2  12
BRANCH   2  18
ATOM     18  C   UNL     1     -37.571 -20.400   4.438  0.00  0.00     0.006 A 
ATOM     19  C   UNL     1     -38.350 -21.555   4.387  0.00  0.00     0.001 A 
ATOM     20  C   UNL     1     -38.833 -22.122   5.567  0.00  0.00     0.029 A 
ATOM     21  C   UNL     1     -38.535 -21.534   6.796  0.00  0.00     0.140 A 
ATOM     22  C   UNL     1     -37.756 -20.379   6.846  0.00  0.00     0.029 A 
ATOM     23  F   UNL     1     -38.997 -22.080   7.928  0.00  0.00    -0.204 F 
ATOM     24  C   UNL     1     -37.273 -19.810   5.666  0.00  0.00     0.001 A 
ENDBRANCH   2  18
TORSDOF 5
ENDMDL
MODEL 5
REMARK VINA RESULT:    -7.989     13.677     16.419
REMARK INTER + INTRA:         -11.305
REMARK INTER:                 -10.268
REMARK INTRA:                  -1.037
REMARK UNBOUND:                -0.981
REMARK  5 active torsions:
REMARK  status: ('A' for Active; 'I' for Inactive)
REMARK    1  A    between atoms: C_2  and  C_19 
REMARK    2  A    between atoms: C_2  and  C_11 
REMARK    3  A    between atoms: C_19  and  C_20 
REMARK    4  A    between atoms: C_20  and  C_21 
REMARK    5  A    between atoms: C_21  and  N_22 
ROOT
ATOM      1  O   UNL     1     -41.814 -11.119   1.392  0.00  0.00    -0.346 OA
ATOM      2  C   UNL     1     -42.923 -10.297   1.878  0.00  0.00     0.130 C 
ATOM      3  C   UNL     1     -43.445 -11.061   3.061  0.00  0.00     0.004 A 
ATOM      4  C   UNL     1     -42.637 -12.164   3.297  0.00  0.00     0.006 A 
ATOM      5  C   UNL     1     -41.534 -12.200   2.311  0.00  0.00     0.169 C 
ATOM      6  C   UNL     1     -44.540 -10.794   3.869  0.00  0.00    -0.001 A 
ATOM      7  C   UNL     1     -42.896 -13.036   4.341  0.00  0.00     0.008 A 
ATOM      8  C   UNL     1     -44.817 -11.667   4.923  0.00  0.00     0.010 A 
ATOM      9  C   UNL     1     -43.999 -12.782   5.157  0.00  0.00     0.068 A 
ATOM     10  N   UNL     1     -44.539 -14.379   7.125  0.00  0.00    -0.191 NA
ATOM     11  C   UNL     1     -44.297 -13.663   6.242  0.00  0.00     0.101 C 
ENDROOT
BRANCH   2  12
ATOM     12  C   UNL     1     -42.378  -8.923   2.252  0.00  0.00     0.038 C 
BRANCH  12  13
ATOM     13  C   UNL     1     -41.049  -8.643   1.555  0.00  0.00     0.038 C 
BRANCH  13  14
ATOM     14  C   UNL     1     -41.012  -7.222   0.994  0.00  0.00     0.251 C 
BRANCH  14  15
ATOM     15  N   UNL     1     -39.634  -6.763   0.868  0.00  0.00     0.141 N 
ATOM     16  C   UNL     1     -39.554  -5.613  -0.034  0.00  0.00     0.285 C 
ATOM     17  C   UNL     1     -39.083  -6.417   2.180  0.00  0.00     0.285 C 
ENDBRANCH  14  15
ENDBRANCH  13  14
ENDBRANCH  12  13
ENDBRANCH   2  12
BRANCH   2  18
ATOM     18  C   UNL     1     -43.914 -10.198   0.766  0.00  0.00     0.006 A 
ATOM     19  C   UNL     1     -44.227  -8.954   0.220  0.00  0.00     0.001 A 
ATOM     20  C   UNL     1     -45.153  -8.864  -0.819  0.00  0.00     0.029 A 
ATOM     21  C   UNL     1     -45.764 -10.016  -1.311  0.00  0.00     0.140 A 
ATOM     22  C   UNL     1     -45.450 -11.260  -0.765  0.00  0.00     0.029 A 
ATOM     23  F   UNL     1     -46.652  -9.929  -2.310  0.00  0.00    -0.204 F 
ATOM     24  C   UNL     1     -44.524 -11.352   0.276  0.00  0.00     0.001 A 
ENDBRANCH   2  18
TORSDOF 5
ENDMDL
MODEL 6
REMARK VINA RESULT:    -7.925      5.113      7.325
REMARK INTER + INTRA:         -11.223
REMARK INTER:                 -10.075
REMARK INTRA:                  -1.148
REMARK UNBOUND:                -0.981
REMARK  5 active torsions:
REMARK  status: ('A' for Active; 'I' for Inactive)
REMARK    1  A    between atoms: C_2  and  C_19 
REMARK    2  A    between atoms: C_2  and  C_11 
REMARK    3  A    between atoms: C_19  and  C_20 
REMARK    4  A    between atoms: C_20  and  C_21 
REMARK    5  A    between atoms: C_21  and  N_22 
ROOT
ATOM      1  O   UNL     1     -38.320 -21.116   2.364  0.00  0.00    -0.346 OA
ATOM      2  C   UNL     1     -37.432 -20.359   3.246  0.00  0.00     0.130 C 
ATOM      3  C   UNL     1     -37.942 -20.669   4.624  0.00  0.00     0.004 A 
ATOM      4  C   UNL     1     -38.961 -21.608   4.544  0.00  0.00     0.006 A 
ATOM      5  C   UNL     1     -39.184 -21.988   3.131  0.00  0.00     0.169 C 
ATOM      6  C   UNL     1     -37.529 -20.170   5.851  0.00  0.00    -0.001 A 
ATOM      7  C   UNL     1     -39.602 -22.074   5.679  0.00  0.00     0.008 A 
ATOM      8  C   UNL     1     -38.169 -20.627   7.004  0.00  0.00     0.010 A 
ATOM      9  C   UNL     1     -39.200 -21.574   6.918  0.00  0.00     0.068 A 
ATOM     10  N   UNL     1     -40.363 -22.405   9.079  0.00  0.00    -0.191 NA
ATOM     11  C   UNL     1     -39.841 -22.032   8.110  0.00  0.00     0.101 C 
ENDROOT
BRANCH   2  12
ATOM     12  C   UNL     1     -36.003 -20.839   3.020  0.00  0.00     0.038 C 
BRANCH  12  13
ATOM     13  C   UNL     1     -35.807 -21.352   1.595  0.00  0.00     0.038 C 
BRANCH  13  14
ATOM     14  C   UNL     1     -34.663 -22.362   1.527  0.00  0.00     0.251 C 
BRANCH  14  15
ATOM     15  N   UNL     1     -33.797 -22.072   0.390  0.00  0.00     0.141 N 
ATOM     16  C   UNL     1     -34.493 -21.234  -0.588  0.00  0.00     0.285 C 
ATOM     17  C   UNL     1     -32.566 -21.417   0.835  0.00  0.00     0.285 C 
ENDBRANCH  14  15
ENDBRANCH  13  14
ENDBRANCH  12  13
ENDBRANCH   2  12
BRANCH   2  18
ATOM     18  C   UNL     1     -37.579 -18.919   2.883  0.00  0.00     0.006 A 
ATOM     19  C   UNL     1     -36.502 -18.047   3.037  0.00  0.00     0.001 A 
ATOM     20  C   UNL     1     -36.642 -16.701   2.697  0.00  0.00     0.029 A 
ATOM     21  C   UNL     1     -37.857 -16.229   2.203  0.00  0.00     0.140 A 
ATOM     22  C   UNL     1     -38.933 -17.102   2.048  0.00  0.00     0.029 A 
ATOM     23  F   UNL     1     -37.990 -14.937   1.875  0.00  0.00    -0.204 F 
ATOM     24  C   UNL     1     -38.795 -18.448   2.389  0.00  0.00     0.001 A 
ENDBRANCH   2  18
TORSDOF 5
ENDMDL
MODEL 7
REMARK VINA RESULT:    -7.758     12.923     15.528
REMARK INTER + INTRA:         -11.007
REMARK INTER:                 -10.037
REMARK INTRA:                  -0.970
REMARK UNBOUND:                -0.981
REMARK  5 active torsions:
REMARK  status: ('A' for Active; 'I' for Inactive)
REMARK    1  A    between atoms: C_2  and  C_19 
REMARK    2  A    between atoms: C_2  and  C_11 
REMARK    3  A    between atoms: C_19  and  C_20 
REMARK    4  A    between atoms: C_20  and  C_21 
REMARK    5  A    between atoms: C_21  and  N_22 
ROOT
ATOM      1  O   UNL     1     -44.966 -10.171   1.565  0.00  0.00    -0.346 OA
ATOM      2  C   UNL     1     -43.690 -10.680   2.070  0.00  0.00     0.130 C 
ATOM      3  C   UNL     1     -42.717  -9.579   1.761  0.00  0.00     0.004 A 
ATOM      4  C   UNL     1     -43.395  -8.492   1.228  0.00  0.00     0.006 A 
ATOM      5  C   UNL     1     -44.843  -8.787   1.160  0.00  0.00     0.169 C 
ATOM      6  C   UNL     1     -41.343  -9.539   1.948  0.00  0.00    -0.001 A 
ATOM      7  C   UNL     1     -42.727  -7.336   0.861  0.00  0.00     0.008 A 
ATOM      8  C   UNL     1     -40.655  -8.382   1.579  0.00  0.00     0.010 A 
ATOM      9  C   UNL     1     -41.344  -7.286   1.039  0.00  0.00     0.068 A 
ATOM     10  N   UNL     1     -40.037  -5.151   0.369  0.00  0.00    -0.191 NA
ATOM     11  C   UNL     1     -40.623  -6.109   0.669  0.00  0.00     0.101 C 
ENDROOT
BRANCH   2  12
ATOM     12  C   UNL     1     -43.833 -10.943   3.564  0.00  0.00     0.038 C 
BRANCH  12  13
ATOM     13  C   UNL     1     -45.260 -11.356   3.923  0.00  0.00     0.038 C 
BRANCH  13  14
ATOM     14  C   UNL     1     -45.268 -12.633   4.761  0.00  0.00     0.251 C 
BRANCH  14  15
ATOM     15  N   UNL     1     -44.341 -12.511   5.880  0.00  0.00     0.141 N 
ATOM     16  C   UNL     1     -44.986 -11.848   7.014  0.00  0.00     0.285 C 
ATOM     17  C   UNL     1     -43.840 -13.827   6.280  0.00  0.00     0.285 C 
ENDBRANCH  14  15
ENDBRANCH  13  14
ENDBRANCH  12  13
ENDBRANCH   2  12
BRANCH   2  18
ATOM     18  C   UNL     1     -43.398 -11.940   1.326  0.00  0.00     0.006 A 
ATOM     19  C   UNL     1     -44.326 -12.441   0.414  0.00  0.00     0.001 A 
ATOM     20  C   UNL     1     -44.051 -13.620  -0.280  0.00  0.00     0.029 A 
ATOM     21  C   UNL     1     -42.851 -14.295  -0.063  0.00  0.00     0.140 A 
ATOM     22  C   UNL     1     -41.924 -13.792   0.849  0.00  0.00     0.029 A 
ATOM     23  F   UNL     1     -42.587 -15.425  -0.731  0.00  0.00    -0.204 F 
ATOM     24  C   UNL     1     -42.197 -12.613   1.545  0.00  0.00     0.001 A 
ENDBRANCH   2  18
TORSDOF 5
ENDMDL
MODEL 8
REMARK VINA RESULT:    -7.564     11.784     15.256
REMARK INTER + INTRA:         -10.757
REMARK INTER:                  -9.554
REMARK INTRA:                  -1.202
REMARK UNBOUND:                -0.981
REMARK  5 active torsions:
REMARK  status: ('A' for Active; 'I' for Inactive)
REMARK    1  A    between atoms: C_2  and  C_19 
REMARK    2  A    between atoms: C_2  and  C_11 
REMARK    3  A    between atoms: C_19  and  C_20 
REMARK    4  A    between atoms: C_20  and  C_21 
REMARK    5  A    between atoms: C_21  and  N_22 
ROOT
ATOM      1  O   UNL     1     -45.097 -13.106   1.883  0.00  0.00    -0.346 OA
ATOM      2  C   UNL     1     -44.142 -11.999   1.936  0.00  0.00     0.130 C 
ATOM      3  C   UNL     1     -44.603 -11.074   0.847  0.00  0.00     0.004 A 
ATOM      4  C   UNL     1     -45.782 -11.554   0.294  0.00  0.00     0.006 A 
ATOM      5  C   UNL     1     -46.183 -12.805   0.976  0.00  0.00     0.169 C 
ATOM      6  C   UNL     1     -44.031  -9.895   0.390  0.00  0.00    -0.001 A 
ATOM      7  C   UNL     1     -46.424 -10.881  -0.731  0.00  0.00     0.008 A 
ATOM      8  C   UNL     1     -44.665  -9.207  -0.646  0.00  0.00     0.010 A 
ATOM      9  C   UNL     1     -45.855  -9.697  -1.204  0.00  0.00     0.068 A 
ATOM     10  N   UNL     1     -47.008  -8.392  -3.122  0.00  0.00    -0.191 NA
ATOM     11  C   UNL     1     -46.490  -8.978  -2.262  0.00  0.00     0.101 C 
ENDROOT
BRANCH   2  12
ATOM     12  C   UNL     1     -44.212 -11.367   3.320  0.00  0.00     0.038 C 
BRANCH  12  13
ATOM     13  C   UNL     1     -44.912 -12.287   4.318  0.00  0.00     0.038 C 
BRANCH  13  14
ATOM     14  C   UNL     1     -43.909 -12.913   5.285  0.00  0.00     0.251 C 
BRANCH  14  15
ATOM     15  N   UNL     1     -44.512 -13.082   6.602  0.00  0.00     0.141 N 
ATOM     16  C   UNL     1     -44.787 -11.782   7.215  0.00  0.00     0.285 C 
ATOM     17  C   UNL     1     -45.743 -13.870   6.509  0.00  0.00     0.285 C 
ENDBRANCH  14  15
ENDBRANCH  13  14
ENDBRANCH  12  13
ENDBRANCH   2  12
BRANCH   2  18
ATOM     18  C   UNL     1     -42.790 -12.575   1.675  0.00  0.00     0.006 A 
ATOM     19  C   UNL     1     -41.667 -12.024   2.290  0.00  0.00     0.001 A 
ATOM     20  C   UNL     1     -40.404 -12.564   2.045  0.00  0.00     0.029 A 
ATOM     21  C   UNL     1     -40.266 -13.654   1.187  0.00  0.00     0.140 A 
ATOM     22  C   UNL     1     -41.390 -14.205   0.572  0.00  0.00     0.029 A 
ATOM     23  F   UNL     1     -39.053 -14.173   0.953  0.00  0.00    -0.204 F 
ATOM     24  C   UNL     1     -42.654 -13.665   0.816  0.00  0.00     0.001 A 
ENDBRANCH   2  18
TORSDOF 5
ENDMDL
MODEL 9
REMARK VINA RESULT:    -7.534     13.678     15.840
REMARK INTER + INTRA:         -10.718
REMARK INTER:                  -9.634
REMARK INTRA:                  -1.083
REMARK UNBOUND:                -0.981
REMARK  5 active torsions:
REMARK  status: ('A' for Active; 'I' for Inactive)
REMARK    1  A    between atoms: C_2  and  C_19 
REMARK    2  A    between atoms: C_2  and  C_11 
REMARK    3  A    between atoms: C_19  and  C_20 
REMARK    4  A    between atoms: C_20  and  C_21 
REMARK    5  A    between atoms: C_21  and  N_22 
ROOT
ATOM      1  O   UNL     1     -42.695 -11.853   2.191  0.00  0.00    -0.346 OA
ATOM      2  C   UNL     1     -43.817 -11.043   1.714  0.00  0.00     0.130 C 
ATOM      3  C   UNL     1     -43.203  -9.699   1.451  0.00  0.00     0.004 A 
ATOM      4  C   UNL     1     -41.832  -9.764   1.653  0.00  0.00     0.006 A 
ATOM      5  C   UNL     1     -41.446 -11.138   2.046  0.00  0.00     0.169 C 
ATOM      6  C   UNL     1     -43.809  -8.516   1.053  0.00  0.00    -0.001 A 
ATOM      7  C   UNL     1     -41.023  -8.655   1.470  0.00  0.00     0.008 A 
ATOM      8  C   UNL     1     -43.007  -7.388   0.868  0.00  0.00     0.010 A 
ATOM      9  C   UNL     1     -41.621  -7.457   1.075  0.00  0.00     0.068 A 
ATOM     10  N   UNL     1     -40.162  -5.346   0.719  0.00  0.00    -0.191 NA
ATOM     11  C   UNL     1     -40.817  -6.293   0.880  0.00  0.00     0.101 C 
ENDROOT
BRANCH   2  12
ATOM     12  C   UNL     1     -44.382 -11.694   0.458  0.00  0.00     0.038 C 
BRANCH  12  13
ATOM     13  C   UNL     1     -44.224 -13.213   0.498  0.00  0.00     0.038 C 
BRANCH  13  14
ATOM     14  C   UNL     1     -45.072 -13.882  -0.582  0.00  0.00     0.251 C 
BRANCH  14  15
ATOM     15  N   UNL     1     -45.434 -15.235  -0.176  0.00  0.00     0.141 N 
ATOM     16  C   UNL     1     -46.739 -15.607  -0.726  0.00  0.00     0.285 C 
ATOM     17  C   UNL     1     -44.412 -16.192  -0.603  0.00  0.00     0.285 C 
ENDBRANCH  14  15
ENDBRANCH  13  14
ENDBRANCH  12  13
ENDBRANCH   2  12
BRANCH   2  18
ATOM     18  C   UNL     1     -44.831 -11.015   2.809  0.00  0.00     0.006 A 
ATOM     19  C   UNL     1     -44.430 -11.175   4.135  0.00  0.00     0.001 A 
ATOM     20  C   UNL     1     -45.380 -11.149   5.157  0.00  0.00     0.029 A 
ATOM     21  C   UNL     1     -46.727 -10.962   4.852  0.00  0.00     0.140 A 
ATOM     22  C   UNL     1     -47.127 -10.802   3.526  0.00  0.00     0.029 A 
ATOM     23  F   UNL     1     -47.638 -10.935   5.834  0.00  0.00    -0.204 F 
ATOM     24  C   UNL     1     -46.179 -10.829   2.503  0.00  0.00     0.001 A 
ENDBRANCH   2  18
TORSDOF 5
ENDMDL
