MODEL 1
REMARK VINA RESULT:    -9.572      0.000      0.000
REMARK INTER + INTRA:         -13.378
REMARK INTER:                 -12.369
REMARK INTRA:                  -1.009
REMARK UNBOUND:                -1.009
REMARK  5 active torsions:
REMARK  status: ('A' for Active; 'I' for Inactive)
REMARK    1  A    between atoms: C_2  and  C_19 
REMARK    2  A    between atoms: C_2  and  C_11 
REMARK    3  A    between atoms: C_19  and  C_20 
REMARK    4  A    between atoms: C_20  and  C_21 
REMARK    5  A    between atoms: C_21  and  N_22 
ROOT
ATOM      1  O   UNL     1     -31.371 -21.502   1.091  0.00  0.00    -0.346 OA
ATOM      2  C   UNL     1     -32.046 -21.740   2.368  0.00  0.00     0.130 C 
ATOM      3  C   UNL     1     -33.027 -20.608   2.471  0.00  0.00     0.004 A 
ATOM      4  C   UNL     1     -32.994 -19.853   1.308  0.00  0.00     0.006 A 
ATOM      5  C   UNL     1     -32.013 -20.431   0.362  0.00  0.00     0.169 C 
ATOM      6  C   UNL     1     -33.888 -20.279   3.508  0.00  0.00    -0.001 A 
ATOM      7  C   UNL     1     -33.812 -18.748   1.142  0.00  0.00     0.008 A 
ATOM      8  C   UNL     1     -34.716 -19.166   3.358  0.00  0.00     0.010 A 
ATOM      9  C   UNL     1     -34.678 -18.404   2.180  0.00  0.00     0.068 A 
ATOM     10  N   UNL     1     -36.232 -16.346   1.932  0.00  0.00    -0.191 NA
ATOM     11  C   UNL     1     -35.534 -17.269   2.044  0.00  0.00     0.101 C 
ENDROOT
BRANCH   2  12
ATOM     12  C   UNL     1     -32.720 -23.105   2.310  0.00  0.00     0.038 C 
BRANCH  12  13
ATOM     13  C   UNL     1     -34.142 -23.003   1.763  0.00  0.00     0.038 C 
BRANCH  13  14
ATOM     14  C   UNL     1     -34.374 -24.016   0.643  0.00  0.00     0.251 C 
BRANCH  14  15
ATOM     15  N   UNL     1     -34.314 -23.358  -0.657  0.00  0.00     0.141 N 
ATOM     16  C   UNL     1     -34.813 -24.245  -1.708  0.00  0.00     0.285 C 
ATOM     17  C   UNL     1     -35.081 -22.111  -0.639  0.00  0.00     0.285 C 
ENDBRANCH  14  15
ENDBRANCH  13  14
ENDBRANCH  12  13
ENDBRANCH   2  12
BRANCH   2  18
ATOM     18  C   UNL     1     -30.998 -21.700   3.430  0.00  0.00     0.006 A 
ATOM     19  C   UNL     1     -29.865 -20.906   3.261  0.00  0.00     0.001 A 
ATOM     20  C   UNL     1     -28.886 -20.871   4.254  0.00  0.00     0.029 A 
ATOM     21  C   UNL     1     -29.042 -21.628   5.415  0.00  0.00     0.140 A 
ATOM     22  C   UNL     1     -30.176 -22.421   5.583  0.00  0.00     0.029 A 
ATOM     23  F   UNL     1     -28.103 -21.592   6.369  0.00  0.00    -0.204 F 
ATOM     24  C   UNL     1     -31.156 -22.458   4.590  0.00  0.00     0.001 A 
ENDBRANCH   2  18
TORSDOF 5
ENDMDL
MODEL 2
REMARK VINA RESULT:    -8.750      3.738      5.978
REMARK INTER + INTRA:         -12.316
REMARK INTER:                 -10.941
REMARK INTRA:                  -1.375
REMARK UNBOUND:                -1.009
REMARK  5 active torsions:
REMARK  status: ('A' for Active; 'I' for Inactive)
REMARK    1  A    between atoms: C_2  and  C_19 
REMARK    2  A    between atoms: C_2  and  C_11 
REMARK    3  A    between atoms: C_19  and  C_20 
REMARK    4  A    between atoms: C_20  and  C_21 
REMARK    5  A    between atoms: C_21  and  N_22 
ROOT
ATOM      1  O   UNL     1     -36.690 -20.084   1.896  0.00  0.00    -0.346 OA
ATOM      2  C   UNL     1     -35.996 -18.802   2.030  0.00  0.00     0.130 C 
ATOM      3  C   UNL     1     -37.106 -17.792   2.056  0.00  0.00     0.004 A 
ATOM      4  C   UNL     1     -38.331 -18.444   2.049  0.00  0.00     0.006 A 
ATOM      5  C   UNL     1     -38.120 -19.909   2.032  0.00  0.00     0.169 C 
ATOM      6  C   UNL     1     -37.037 -16.407   2.094  0.00  0.00    -0.001 A 
ATOM      7  C   UNL     1     -39.522 -17.740   2.076  0.00  0.00     0.008 A 
ATOM      8  C   UNL     1     -38.230 -15.682   2.117  0.00  0.00     0.010 A 
ATOM      9  C   UNL     1     -39.466 -16.346   2.108  0.00  0.00     0.068 A 
ATOM     10  N   UNL     1     -41.661 -14.970   2.157  0.00  0.00    -0.191 NA
ATOM     11  C   UNL     1     -40.677 -15.587   2.134  0.00  0.00     0.101 C 
ENDROOT
BRANCH   2  12
ATOM     12  C   UNL     1     -35.184 -18.826   3.319  0.00  0.00     0.038 C 
BRANCH  12  13
ATOM     13  C   UNL     1     -34.963 -20.255   3.812  0.00  0.00     0.038 C 
BRANCH  13  14
ATOM     14  C   UNL     1     -33.629 -20.807   3.314  0.00  0.00     0.251 C 
BRANCH  14  15
ATOM     15  N   UNL     1     -33.850 -21.813   2.282  0.00  0.00     0.141 N 
ATOM     16  C   UNL     1     -32.870 -21.672   1.204  0.00  0.00     0.285 C 
ATOM     17  C   UNL     1     -33.786 -23.160   2.852  0.00  0.00     0.285 C 
ENDBRANCH  14  15
ENDBRANCH  13  14
ENDBRANCH  12  13
ENDBRANCH   2  12
BRANCH   2  18
ATOM     18  C   UNL     1     -35.108 -18.661   0.838  0.00  0.00     0.006 A 
ATOM     19  C   UNL     1     -33.978 -17.848   0.904  0.00  0.00     0.001 A 
ATOM     20  C   UNL     1     -33.149 -17.716  -0.211  0.00  0.00     0.029 A 
ATOM     21  C   UNL     1     -33.452 -18.397  -1.389  0.00  0.00     0.140 A 
ATOM     22  C   UNL     1     -34.583 -19.211  -1.454  0.00  0.00     0.029 A 
ATOM     23  F   UNL     1     -32.656 -18.272  -2.459  0.00  0.00    -0.204 F 
ATOM     24  C   UNL     1     -35.413 -19.343  -0.340  0.00  0.00     0.001 A 
ENDBRANCH   2  18
TORSDOF 5
ENDMDL
MODEL 3
REMARK VINA RESULT:    -8.494      5.402      7.196
REMARK INTER + INTRA:         -11.985
REMARK INTER:                 -10.979
REMARK INTRA:                  -1.005
REMARK UNBOUND:                -1.009
REMARK  5 active torsions:
REMARK  status: ('A' for Active; 'I' for Inactive)
REMARK    1  A    between atoms: C_2  and  C_19 
REMARK    2  A    between atoms: C_2  and  C_11 
REMARK    3  A    between atoms: C_19  and  C_20 
REMARK    4  A    between atoms: C_20  and  C_21 
REMARK    5  A    between atoms: C_21  and  N_22 
ROOT
ATOM      1  O   UNL     1     -37.780 -19.550   2.176  0.00  0.00    -0.346 OA
ATOM      2  C   UNL     1     -37.139 -18.260   2.436  0.00  0.00     0.130 C 
ATOM      3  C   UNL     1     -38.219 -17.258   2.150  0.00  0.00     0.004 A 
ATOM      4  C   UNL     1     -39.405 -17.919   1.861  0.00  0.00     0.006 A 
ATOM      5  C   UNL     1     -39.198 -19.382   1.946  0.00  0.00     0.169 C 
ATOM      6  C   UNL     1     -38.161 -15.872   2.157  0.00  0.00    -0.001 A 
ATOM      7  C   UNL     1     -40.565 -17.223   1.566  0.00  0.00     0.008 A 
ATOM      8  C   UNL     1     -39.321 -15.155   1.857  0.00  0.00     0.010 A 
ATOM      9  C   UNL     1     -40.517 -15.828   1.563  0.00  0.00     0.068 A 
ATOM     10  N   UNL     1     -42.653 -14.468   1.016  0.00  0.00    -0.191 NA
ATOM     11  C   UNL     1     -41.695 -15.078   1.261  0.00  0.00     0.101 C 
ENDROOT
BRANCH   2  12
ATOM     12  C   UNL     1     -36.675 -18.235   3.887  0.00  0.00     0.038 C 
BRANCH  12  13
ATOM     13  C   UNL     1     -36.651 -19.639   4.489  0.00  0.00     0.038 C 
BRANCH  13  14
ATOM     14  C   UNL     1     -37.545 -19.722   5.725  0.00  0.00     0.251 C 
BRANCH  14  15
ATOM     15  N   UNL     1     -38.018 -21.087   5.918  0.00  0.00     0.141 N 
ATOM     16  C   UNL     1     -38.367 -21.319   7.320  0.00  0.00     0.285 C 
ATOM     17  C   UNL     1     -39.170 -21.360   5.057  0.00  0.00     0.285 C 
ENDBRANCH  14  15
ENDBRANCH  13  14
ENDBRANCH  12  13
ENDBRANCH   2  12
BRANCH   2  18
ATOM     18  C   UNL     1     -35.982 -18.151   1.499  0.00  0.00     0.006 A 
ATOM     19  C   UNL     1     -35.784 -19.126   0.522  0.00  0.00     0.001 A 
ATOM     20  C   UNL     1     -34.701 -19.023  -0.353  0.00  0.00     0.029 A 
ATOM     21  C   UNL     1     -33.821 -17.947  -0.251  0.00  0.00     0.140 A 
ATOM     22  C   UNL     1     -34.021 -16.973   0.727  0.00  0.00     0.029 A 
ATOM     23  F   UNL     1     -32.784 -17.848  -1.092  0.00  0.00    -0.204 F 
ATOM     24  C   UNL     1     -35.102 -17.075   1.603  0.00  0.00     0.001 A 
ENDBRANCH   2  18
TORSDOF 5
ENDMDL
MODEL 4
REMARK VINA RESULT:    -8.305      3.568      5.846
REMARK INTER + INTRA:         -11.742
REMARK INTER:                 -10.694
REMARK INTRA:                  -1.047
REMARK UNBOUND:                -1.009
REMARK  5 active torsions:
REMARK  status: ('A' for Active; 'I' for Inactive)
REMARK    1  A    between atoms: C_2  and  C_19 
REMARK    2  A    between atoms: C_2  and  C_11 
REMARK    3  A    between atoms: C_19  and  C_20 
REMARK    4  A    between atoms: C_20  and  C_21 
REMARK    5  A    between atoms: C_21  and  N_22 
ROOT
ATOM      1  O   UNL     1     -33.443 -21.964   0.973  0.00  0.00    -0.346 OA
ATOM      2  C   UNL     1     -33.273 -20.547   1.299  0.00  0.00     0.130 C 
ATOM      3  C   UNL     1     -34.294 -20.299   2.371  0.00  0.00     0.004 A 
ATOM      4  C   UNL     1     -34.917 -21.492   2.708  0.00  0.00     0.006 A 
ATOM      5  C   UNL     1     -34.351 -22.599   1.904  0.00  0.00     0.169 C 
ATOM      6  C   UNL     1     -34.636 -19.114   3.006  0.00  0.00    -0.001 A 
ATOM      7  C   UNL     1     -35.900 -21.543   3.681  0.00  0.00     0.008 A 
ATOM      8  C   UNL     1     -35.629 -19.147   3.986  0.00  0.00     0.010 A 
ATOM      9  C   UNL     1     -36.257 -20.356   4.323  0.00  0.00     0.068 A 
ATOM     10  N   UNL     1     -38.093 -20.383   6.151  0.00  0.00    -0.191 NA
ATOM     11  C   UNL     1     -37.270 -20.371   5.330  0.00  0.00     0.101 C 
ENDROOT
BRANCH   2  12
ATOM     12  C   UNL     1     -31.843 -20.331   1.780  0.00  0.00     0.038 C 
BRANCH  12  13
ATOM     13  C   UNL     1     -31.160 -21.656   2.110  0.00  0.00     0.038 C 
BRANCH  13  14
ATOM     14  C   UNL     1     -30.166 -21.492   3.258  0.00  0.00     0.251 C 
BRANCH  14  15
ATOM     15  N   UNL     1     -30.320 -22.576   4.221  0.00  0.00     0.141 N 
ATOM     16  C   UNL     1     -29.534 -22.311   5.427  0.00  0.00     0.285 C 
ATOM     17  C   UNL     1     -31.730 -22.764   4.565  0.00  0.00     0.285 C 
ENDBRANCH  14  15
ENDBRANCH  13  14
ENDBRANCH  12  13
ENDBRANCH   2  12
BRANCH   2  18
ATOM     18  C   UNL     1     -33.543 -19.777   0.049  0.00  0.00     0.006 A 
ATOM     19  C   UNL     1     -32.517 -19.054  -0.559  0.00  0.00     0.001 A 
ATOM     20  C   UNL     1     -32.771 -18.334  -1.727  0.00  0.00     0.029 A 
ATOM     21  C   UNL     1     -34.049 -18.339  -2.285  0.00  0.00     0.140 A 
ATOM     22  C   UNL     1     -35.074 -19.063  -1.677  0.00  0.00     0.029 A 
ATOM     23  F   UNL     1     -34.292 -17.649  -3.407  0.00  0.00    -0.204 F 
ATOM     24  C   UNL     1     -34.821 -19.783  -0.508  0.00  0.00     0.001 A 
ENDBRANCH   2  18
TORSDOF 5
ENDMDL
MODEL 5
REMARK VINA RESULT:    -8.263      2.189      3.497
REMARK INTER + INTRA:         -11.687
REMARK INTER:                 -10.814
REMARK INTRA:                  -0.873
REMARK UNBOUND:                -1.009
REMARK  5 active torsions:
REMARK  status: ('A' for Active; 'I' for Inactive)
REMARK    1  A    between atoms: C_2  and  C_19 
REMARK    2  A    between atoms: C_2  and  C_11 
REMARK    3  A    between atoms: C_19  and  C_20 
REMARK    4  A    between atoms: C_20  and  C_21 
REMARK    5  A    between atoms: C_21  and  N_22 
ROOT
ATOM      1  O   UNL     1     -33.733 -22.671   1.916  0.00  0.00    -0.346 OA
ATOM      2  C   UNL     1     -33.327 -21.386   2.488  0.00  0.00     0.130 C 
ATOM      3  C   UNL     1     -33.134 -20.504   1.288  0.00  0.00     0.004 A 
ATOM      4  C   UNL     1     -33.504 -21.189   0.140  0.00  0.00     0.006 A 
ATOM      5  C   UNL     1     -33.973 -22.547   0.495  0.00  0.00     0.169 C 
ATOM      6  C   UNL     1     -32.678 -19.195   1.220  0.00  0.00    -0.001 A 
ATOM      7  C   UNL     1     -33.429 -20.596  -1.109  0.00  0.00     0.008 A 
ATOM      8  C   UNL     1     -32.592 -18.585  -0.032  0.00  0.00     0.010 A 
ATOM      9  C   UNL     1     -32.966 -19.282  -1.191  0.00  0.00     0.068 A 
ATOM     10  N   UNL     1     -32.799 -18.119  -3.500  0.00  0.00    -0.191 NA
ATOM     11  C   UNL     1     -32.873 -18.641  -2.464  0.00  0.00     0.101 C 
ENDROOT
BRANCH   2  12
ATOM     12  C   UNL     1     -34.435 -20.897   3.412  0.00  0.00     0.038 C 
BRANCH  12  13
ATOM     13  C   UNL     1     -35.747 -21.633   3.147  0.00  0.00     0.038 C 
BRANCH  13  14
ATOM     14  C   UNL     1     -36.716 -20.760   2.352  0.00  0.00     0.251 C 
BRANCH  14  15
ATOM     15  N   UNL     1     -36.395 -19.350   2.536  0.00  0.00     0.141 N 
ATOM     16  C   UNL     1     -36.386 -18.651   1.249  0.00  0.00     0.285 C 
ATOM     17  C   UNL     1     -37.348 -18.718   3.450  0.00  0.00     0.285 C 
ENDBRANCH  14  15
ENDBRANCH  13  14
ENDBRANCH  12  13
ENDBRANCH   2  12
BRANCH   2  18
ATOM     18  C   UNL     1     -32.062 -21.626   3.243  0.00  0.00     0.006 A 
ATOM     19  C   UNL     1     -30.872 -21.042   2.811  0.00  0.00     0.001 A 
ATOM     20  C   UNL     1     -29.690 -21.267   3.518  0.00  0.00     0.029 A 
ATOM     21  C   UNL     1     -29.700 -22.074   4.654  0.00  0.00     0.140 A 
ATOM     22  C   UNL     1     -30.891 -22.657   5.086  0.00  0.00     0.029 A 
ATOM     23  F   UNL     1     -28.565 -22.288   5.334  0.00  0.00    -0.204 F 
ATOM     24  C   UNL     1     -32.074 -22.433   4.379  0.00  0.00     0.001 A 
ENDBRANCH   2  18
TORSDOF 5
ENDMDL
MODEL 6
REMARK VINA RESULT:    -7.940      4.765      6.603
REMARK INTER + INTRA:         -11.270
REMARK INTER:                 -10.217
REMARK INTRA:                  -1.053
REMARK UNBOUND:                -1.009
REMARK  5 active torsions:
REMARK  status: ('A' for Active; 'I' for Inactive)
REMARK    1  A    between atoms: C_2  and  C_19 
REMARK    2  A    between atoms: C_2  and  C_11 
REMARK    3  A    between atoms: C_19  and  C_20 
REMARK    4  A    between atoms: C_20  and  C_21 
REMARK    5  A    between atoms: C_21  and  N_22 
ROOT
ATOM      1  O   UNL     1     -36.699 -18.708   3.580  0.00  0.00    -0.346 OA
ATOM      2  C   UNL     1     -37.592 -19.837   3.318  0.00  0.00     0.130 C 
ATOM      3  C   UNL     1     -38.812 -19.200   2.718  0.00  0.00     0.004 A 
ATOM      4  C   UNL     1     -38.593 -17.840   2.549  0.00  0.00     0.006 A 
ATOM      5  C   UNL     1     -37.229 -17.490   3.006  0.00  0.00     0.169 C 
ATOM      6  C   UNL     1     -40.015 -19.779   2.341  0.00  0.00    -0.001 A 
ATOM      7  C   UNL     1     -39.563 -17.016   2.005  0.00  0.00     0.008 A 
ATOM      8  C   UNL     1     -41.005 -18.960   1.796  0.00  0.00     0.010 A 
ATOM      9  C   UNL     1     -40.780 -17.586   1.628  0.00  0.00     0.068 A 
ATOM     10  N   UNL     1     -42.638 -16.096   0.608  0.00  0.00    -0.191 NA
ATOM     11  C   UNL     1     -41.805 -16.764   1.066  0.00  0.00     0.101 C 
ENDROOT
BRANCH   2  12
ATOM     12  C   UNL     1     -36.891 -20.795   2.361  0.00  0.00     0.038 C 
BRANCH  12  13
ATOM     13  C   UNL     1     -35.379 -20.788   2.575  0.00  0.00     0.038 C 
BRANCH  13  14
ATOM     14  C   UNL     1     -34.731 -22.025   1.954  0.00  0.00     0.251 C 
BRANCH  14  15
ATOM     15  N   UNL     1     -33.575 -21.643   1.152  0.00  0.00     0.141 N 
ATOM     16  C   UNL     1     -33.997 -21.148  -0.159  0.00  0.00     0.285 C 
ATOM     17  C   UNL     1     -32.779 -20.629   1.845  0.00  0.00     0.285 C 
ENDBRANCH  14  15
ENDBRANCH  13  14
ENDBRANCH  12  13
ENDBRANCH   2  12
BRANCH   2  18
ATOM     18  C   UNL     1     -37.864 -20.492   4.631  0.00  0.00     0.006 A 
ATOM     19  C   UNL     1     -38.487 -21.738   4.672  0.00  0.00     0.001 A 
ATOM     20  C   UNL     1     -38.742 -22.349   5.901  0.00  0.00     0.029 A 
ATOM     21  C   UNL     1     -38.372 -21.714   7.085  0.00  0.00     0.140 A 
ATOM     22  C   UNL     1     -37.748 -20.467   7.043  0.00  0.00     0.029 A 
ATOM     23  F   UNL     1     -38.614 -22.301   8.264  0.00  0.00    -0.204 F 
ATOM     24  C   UNL     1     -37.494 -19.855   5.815  0.00  0.00     0.001 A 
ENDBRANCH   2  18
TORSDOF 5
ENDMDL
MODEL 7
REMARK VINA RESULT:    -7.914     13.839     16.527
REMARK INTER + INTRA:         -11.236
REMARK INTER:                 -10.187
REMARK INTRA:                  -1.049
REMARK UNBOUND:                -1.009
REMARK  5 active torsions:
REMARK  status: ('A' for Active; 'I' for Inactive)
REMARK    1  A    between atoms: C_2  and  C_19 
REMARK    2  A    between atoms: C_2  and  C_11 
REMARK    3  A    between atoms: C_19  and  C_20 
REMARK    4  A    between atoms: C_20  and  C_21 
REMARK    5  A    between atoms: C_21  and  N_22 
ROOT
ATOM      1  O   UNL     1     -41.908 -10.923   1.264  0.00  0.00    -0.346 OA
ATOM      2  C   UNL     1     -43.073 -10.172   1.733  0.00  0.00     0.130 C 
ATOM      3  C   UNL     1     -43.565 -10.968   2.906  0.00  0.00     0.004 A 
ATOM      4  C   UNL     1     -42.695 -12.020   3.156  0.00  0.00     0.006 A 
ATOM      5  C   UNL     1     -41.576 -11.986   2.187  0.00  0.00     0.169 C 
ATOM      6  C   UNL     1     -44.688 -10.771   3.697  0.00  0.00    -0.001 A 
ATOM      7  C   UNL     1     -42.916 -12.908   4.195  0.00  0.00     0.008 A 
ATOM      8  C   UNL     1     -44.927 -11.660   4.746  0.00  0.00     0.010 A 
ATOM      9  C   UNL     1     -44.045 -12.723   4.994  0.00  0.00     0.068 A 
ATOM     10  N   UNL     1     -44.517 -14.353   6.952  0.00  0.00    -0.191 NA
ATOM     11  C   UNL     1     -44.306 -13.622   6.073  0.00  0.00     0.101 C 
ENDROOT
BRANCH   2  12
ATOM     12  C   UNL     1     -42.620  -8.768   2.116  0.00  0.00     0.038 C 
BRANCH  12  13
ATOM     13  C   UNL     1     -41.227  -8.463   1.568  0.00  0.00     0.038 C 
BRANCH  13  14
ATOM     14  C   UNL     1     -41.205  -7.120   0.842  0.00  0.00     0.251 C 
BRANCH  14  15
ATOM     15  N   UNL     1     -39.831  -6.676   0.639  0.00  0.00     0.141 N 
ATOM     16  C   UNL     1     -39.790  -5.245   0.332  0.00  0.00     0.285 C 
ATOM     17  C   UNL     1     -39.016  -6.964   1.821  0.00  0.00     0.285 C 
ENDBRANCH  14  15
ENDBRANCH  13  14
ENDBRANCH  12  13
ENDBRANCH   2  12
BRANCH   2  18
ATOM     18  C   UNL     1     -44.050 -10.134   0.605  0.00  0.00     0.006 A 
ATOM     19  C   UNL     1     -44.371  -8.918   0.002  0.00  0.00     0.001 A 
ATOM     20  C   UNL     1     -45.284  -8.884  -1.052  0.00  0.00     0.029 A 
ATOM     21  C   UNL     1     -45.875 -10.064  -1.502  0.00  0.00     0.140 A 
ATOM     22  C   UNL     1     -45.553 -11.280  -0.899  0.00  0.00     0.029 A 
ATOM     23  F   UNL     1     -46.750 -10.031  -2.515  0.00  0.00    -0.204 F 
ATOM     24  C   UNL     1     -44.640 -11.315   0.156  0.00  0.00     0.001 A 
ENDBRANCH   2  18
TORSDOF 5
ENDMDL
MODEL 8
REMARK VINA RESULT:    -7.797      4.310      7.136
REMARK INTER + INTRA:         -11.085
REMARK INTER:                  -9.992
REMARK INTRA:                  -1.094
REMARK UNBOUND:                -1.009
REMARK  5 active torsions:
REMARK  status: ('A' for Active; 'I' for Inactive)
REMARK    1  A    between atoms: C_2  and  C_19 
REMARK    2  A    between atoms: C_2  and  C_11 
REMARK    3  A    between atoms: C_19  and  C_20 
REMARK    4  A    between atoms: C_20  and  C_21 
REMARK    5  A    between atoms: C_21  and  N_22 
ROOT
ATOM      1  O   UNL     1     -35.570 -17.169   2.984  0.00  0.00    -0.346 OA
ATOM      2  C   UNL     1     -36.218 -18.342   2.396  0.00  0.00     0.130 C 
ATOM      3  C   UNL     1     -35.525 -18.512   1.076  0.00  0.00     0.004 A 
ATOM      4  C   UNL     1     -34.497 -17.586   0.966  0.00  0.00     0.006 A 
ATOM      5  C   UNL     1     -34.430 -16.761   2.193  0.00  0.00     0.169 C 
ATOM      6  C   UNL     1     -35.777 -19.420   0.058  0.00  0.00    -0.001 A 
ATOM      7  C   UNL     1     -33.692 -17.533  -0.160  0.00  0.00     0.008 A 
ATOM      8  C   UNL     1     -34.977 -19.376  -1.086  0.00  0.00     0.010 A 
ATOM      9  C   UNL     1     -33.940 -18.438  -1.193  0.00  0.00     0.068 A 
ATOM     10  N   UNL     1     -32.470 -18.388  -3.327  0.00  0.00    -0.191 NA
ATOM     11  C   UNL     1     -33.130 -18.410  -2.370  0.00  0.00     0.101 C 
ENDROOT
BRANCH   2  12
ATOM     12  C   UNL     1     -36.011 -19.527   3.332  0.00  0.00     0.038 C 
BRANCH  12  13
ATOM     13  C   UNL     1     -34.598 -20.093   3.210  0.00  0.00     0.038 C 
BRANCH  13  14
ATOM     14  C   UNL     1     -34.628 -21.605   2.992  0.00  0.00     0.251 C 
BRANCH  14  15
ATOM     15  N   UNL     1     -33.368 -22.059   2.415  0.00  0.00     0.141 N 
ATOM     16  C   UNL     1     -32.713 -20.972   1.685  0.00  0.00     0.285 C 
ATOM     17  C   UNL     1     -32.480 -22.577   3.457  0.00  0.00     0.285 C 
ENDBRANCH  14  15
ENDBRANCH  13  14
ENDBRANCH  12  13
ENDBRANCH   2  12
BRANCH   2  18
ATOM     18  C   UNL     1     -37.667 -18.015   2.255  0.00  0.00     0.006 A 
ATOM     19  C   UNL     1     -38.620 -19.031   2.311  0.00  0.00     0.001 A 
ATOM     20  C   UNL     1     -39.975 -18.724   2.178  0.00  0.00     0.029 A 
ATOM     21  C   UNL     1     -40.374 -17.401   1.990  0.00  0.00     0.140 A 
ATOM     22  C   UNL     1     -39.421 -16.385   1.935  0.00  0.00     0.029 A 
ATOM     23  F   UNL     1     -41.675 -17.106   1.864  0.00  0.00    -0.204 F 
ATOM     24  C   UNL     1     -38.066 -16.692   2.067  0.00  0.00     0.001 A 
ENDBRANCH   2  18
TORSDOF 5
ENDMDL
MODEL 9
REMARK VINA RESULT:    -7.658     13.145     15.686
REMARK INTER + INTRA:         -10.905
REMARK INTER:                  -9.967
REMARK INTRA:                  -0.938
REMARK UNBOUND:                -1.009
REMARK  5 active torsions:
REMARK  status: ('A' for Active; 'I' for Inactive)
REMARK    1  A    between atoms: C_2  and  C_19 
REMARK    2  A    between atoms: C_2  and  C_11 
REMARK    3  A    between atoms: C_19  and  C_20 
REMARK    4  A    between atoms: C_20  and  C_21 
REMARK    5  A    between atoms: C_21  and  N_22 
ROOT
ATOM      1  O   UNL     1     -45.006  -9.985   1.624  0.00  0.00    -0.346 OA
ATOM      2  C   UNL     1     -43.739 -10.554   2.087  0.00  0.00     0.130 C 
ATOM      3  C   UNL     1     -42.725  -9.503   1.739  0.00  0.00     0.004 A 
ATOM      4  C   UNL     1     -43.368  -8.386   1.224  0.00  0.00     0.006 A 
ATOM      5  C   UNL     1     -44.830  -8.611   1.208  0.00  0.00     0.169 C 
ATOM      6  C   UNL     1     -41.345  -9.528   1.877  0.00  0.00    -0.001 A 
ATOM      7  C   UNL     1     -42.659  -7.265   0.828  0.00  0.00     0.008 A 
ATOM      8  C   UNL     1     -40.615  -8.407   1.478  0.00  0.00     0.010 A 
ATOM      9  C   UNL     1     -41.269  -7.281   0.957  0.00  0.00     0.068 A 
ATOM     10  N   UNL     1     -39.885  -5.215   0.231  0.00  0.00    -0.191 NA
ATOM     11  C   UNL     1     -40.506  -6.142   0.556  0.00  0.00     0.101 C 
ENDROOT
BRANCH   2  12
ATOM     12  C   UNL     1     -43.842 -10.805   3.587  0.00  0.00     0.038 C 
BRANCH  12  13
ATOM     13  C   UNL     1     -45.224 -11.331   3.970  0.00  0.00     0.038 C 
BRANCH  13  14
ATOM     14  C   UNL     1     -45.334 -11.538   5.479  0.00  0.00     0.251 C 
BRANCH  14  15
ATOM     15  N   UNL     1     -44.876 -12.873   5.843  0.00  0.00     0.141 N 
ATOM     16  C   UNL     1     -44.166 -12.845   7.123  0.00  0.00     0.285 C 
ATOM     17  C   UNL     1     -46.004 -13.804   5.910  0.00  0.00     0.285 C 
ENDBRANCH  14  15
ENDBRANCH  13  14
ENDBRANCH  12  13
ENDBRANCH   2  12
BRANCH   2  18
ATOM     18  C   UNL     1     -43.534 -11.829   1.340  0.00  0.00     0.006 A 
ATOM     19  C   UNL     1     -42.409 -12.613   1.595  0.00  0.00     0.001 A 
ATOM     20  C   UNL     1     -42.219 -13.805   0.895  0.00  0.00     0.029 A 
ATOM     21  C   UNL     1     -43.153 -14.212  -0.056  0.00  0.00     0.140 A 
ATOM     22  C   UNL     1     -44.278 -13.428  -0.310  0.00  0.00     0.029 A 
ATOM     23  F   UNL     1     -42.971 -15.358  -0.726  0.00  0.00    -0.204 F 
ATOM     24  C   UNL     1     -44.469 -12.235   0.388  0.00  0.00     0.001 A 
ENDBRANCH   2  18
TORSDOF 5
ENDMDL
