MODEL 1
REMARK VINA RESULT:    -9.643      0.000      0.000
REMARK INTER + INTRA:         -13.409
REMARK INTER:                 -12.462
REMARK INTRA:                  -0.947
REMARK UNBOUND:                -0.947
REMARK  5 active torsions:
REMARK  status: ('A' for Active; 'I' for Inactive)
REMARK    1  A    between atoms: C_2  and  C_19 
REMARK    2  A    between atoms: C_2  and  C_11 
REMARK    3  A    between atoms: C_19  and  C_20 
REMARK    4  A    between atoms: C_20  and  C_21 
REMARK    5  A    between atoms: C_21  and  N_22 
ROOT
ATOM      1  O   UNL     1     -31.342 -21.386   1.034  0.00  0.00    -0.346 OA
ATOM      2  C   UNL     1     -32.040 -21.687   2.285  0.00  0.00     0.130 C 
ATOM      3  C   UNL     1     -33.046 -20.580   2.411  0.00  0.00     0.004 A 
ATOM      4  C   UNL     1     -33.003 -19.779   1.279  0.00  0.00     0.006 A 
ATOM      5  C   UNL     1     -31.991 -20.299   0.333  0.00  0.00     0.169 C 
ATOM      6  C   UNL     1     -33.936 -20.310   3.440  0.00  0.00    -0.001 A 
ATOM      7  C   UNL     1     -33.839 -18.685   1.138  0.00  0.00     0.008 A 
ATOM      8  C   UNL     1     -34.782 -19.207   3.316  0.00  0.00     0.010 A 
ATOM      9  C   UNL     1     -34.735 -18.399   2.170  0.00  0.00     0.068 A 
ATOM     10  N   UNL     1     -36.324 -16.363   1.968  0.00  0.00    -0.191 NA
ATOM     11  C   UNL     1     -35.611 -17.276   2.059  0.00  0.00     0.101 C 
ENDROOT
BRANCH   2  12
ATOM     12  C   UNL     1     -32.684 -23.063   2.158  0.00  0.00     0.038 C 
BRANCH  12  13
ATOM     13  C   UNL     1     -34.142 -22.957   1.715  0.00  0.00     0.038 C 
BRANCH  13  14
ATOM     14  C   UNL     1     -34.458 -23.973   0.620  0.00  0.00     0.251 C 
BRANCH  14  15
ATOM     15  N   UNL     1     -34.294 -23.368  -0.697  0.00  0.00     0.141 N 
ATOM     16  C   UNL     1     -34.795 -24.262  -1.742  0.00  0.00     0.285 C 
ATOM     17  C   UNL     1     -34.982 -22.078  -0.761  0.00  0.00     0.285 C 
ENDBRANCH  14  15
ENDBRANCH  13  14
ENDBRANCH  12  13
ENDBRANCH   2  12
BRANCH   2  18
ATOM     18  C   UNL     1     -31.016 -21.670   3.370  0.00  0.00     0.006 A 
ATOM     19  C   UNL     1     -29.874 -20.881   3.238  0.00  0.00     0.001 A 
ATOM     20  C   UNL     1     -28.918 -20.865   4.254  0.00  0.00     0.029 A 
ATOM     21  C   UNL     1     -29.104 -21.638   5.399  0.00  0.00     0.140 A 
ATOM     22  C   UNL     1     -30.247 -22.427   5.531  0.00  0.00     0.029 A 
ATOM     23  F   UNL     1     -28.187 -21.622   6.375  0.00  0.00    -0.204 F 
ATOM     24  C   UNL     1     -31.204 -22.443   4.515  0.00  0.00     0.001 A 
ENDBRANCH   2  18
TORSDOF 5
ENDMDL
MODEL 2
REMARK VINA RESULT:    -9.117      3.088      5.504
REMARK INTER + INTRA:         -12.729
REMARK INTER:                 -11.583
REMARK INTRA:                  -1.145
REMARK UNBOUND:                -0.947
REMARK  5 active torsions:
REMARK  status: ('A' for Active; 'I' for Inactive)
REMARK    1  A    between atoms: C_2  and  C_19 
REMARK    2  A    between atoms: C_2  and  C_11 
REMARK    3  A    between atoms: C_19  and  C_20 
REMARK    4  A    between atoms: C_20  and  C_21 
REMARK    5  A    between atoms: C_21  and  N_22 
ROOT
ATOM      1  O   UNL     1     -34.715 -21.369   1.883  0.00  0.00    -0.346 OA
ATOM      2  C   UNL     1     -33.562 -20.770   1.211  0.00  0.00     0.130 C 
ATOM      3  C   UNL     1     -32.412 -21.077   2.126  0.00  0.00     0.004 A 
ATOM      4  C   UNL     1     -32.850 -21.876   3.173  0.00  0.00     0.006 A 
ATOM      5  C   UNL     1     -34.294 -22.160   3.019  0.00  0.00     0.169 C 
ATOM      6  C   UNL     1     -31.084 -20.689   2.034  0.00  0.00    -0.001 A 
ATOM      7  C   UNL     1     -31.981 -22.309   4.160  0.00  0.00     0.008 A 
ATOM      8  C   UNL     1     -30.196 -21.114   3.024  0.00  0.00     0.010 A 
ATOM      9  C   UNL     1     -30.643 -21.921   4.082  0.00  0.00     0.068 A 
ATOM     10  N   UNL     1     -28.968 -22.697   5.900  0.00  0.00    -0.191 NA
ATOM     11  C   UNL     1     -29.720 -22.348   5.085  0.00  0.00     0.101 C 
ENDROOT
BRANCH   2  12
ATOM     12  C   UNL     1     -33.415 -21.414  -0.162  0.00  0.00     0.038 C 
BRANCH  12  13
ATOM     13  C   UNL     1     -34.769 -21.849  -0.721  0.00  0.00     0.038 C 
BRANCH  13  14
ATOM     14  C   UNL     1     -34.649 -23.164  -1.488  0.00  0.00     0.251 C 
BRANCH  14  15
ATOM     15  N   UNL     1     -35.223 -24.258  -0.713  0.00  0.00     0.141 N 
ATOM     16  C   UNL     1     -34.352 -24.606   0.411  0.00  0.00     0.285 C 
ATOM     17  C   UNL     1     -36.558 -23.902  -0.230  0.00  0.00     0.285 C 
ENDBRANCH  14  15
ENDBRANCH  13  14
ENDBRANCH  12  13
ENDBRANCH   2  12
BRANCH   2  18
ATOM     18  C   UNL     1     -33.837 -19.308   1.093  0.00  0.00     0.006 A 
ATOM     19  C   UNL     1     -33.303 -18.582   0.029  0.00  0.00     0.001 A 
ATOM     20  C   UNL     1     -33.561 -17.215  -0.080  0.00  0.00     0.029 A 
ATOM     21  C   UNL     1     -34.352 -16.576   0.874  0.00  0.00     0.140 A 
ATOM     22  C   UNL     1     -34.886 -17.303   1.938  0.00  0.00     0.029 A 
ATOM     23  F   UNL     1     -34.601 -15.264   0.768  0.00  0.00    -0.204 F 
ATOM     24  C   UNL     1     -34.628 -18.670   2.048  0.00  0.00     0.001 A 
ENDBRANCH   2  18
TORSDOF 5
ENDMDL
MODEL 3
REMARK VINA RESULT:    -8.984      3.076      5.505
REMARK INTER + INTRA:         -12.557
REMARK INTER:                 -11.397
REMARK INTRA:                  -1.159
REMARK UNBOUND:                -0.947
REMARK  5 active torsions:
REMARK  status: ('A' for Active; 'I' for Inactive)
REMARK    1  A    between atoms: C_2  and  C_19 
REMARK    2  A    between atoms: C_2  and  C_11 
REMARK    3  A    between atoms: C_19  and  C_20 
REMARK    4  A    between atoms: C_20  and  C_21 
REMARK    5  A    between atoms: C_21  and  N_22 
ROOT
ATOM      1  O   UNL     1     -33.478 -22.503   3.076  0.00  0.00    -0.346 OA
ATOM      2  C   UNL     1     -32.738 -21.515   2.289  0.00  0.00     0.130 C 
ATOM      3  C   UNL     1     -31.422 -21.401   3.002  0.00  0.00     0.004 A 
ATOM      4  C   UNL     1     -31.370 -22.321   4.039  0.00  0.00     0.006 A 
ATOM      5  C   UNL     1     -32.625 -23.106   4.076  0.00  0.00     0.169 C 
ATOM      6  C   UNL     1     -30.351 -20.557   2.745  0.00  0.00    -0.001 A 
ATOM      7  C   UNL     1     -30.256 -22.427   4.853  0.00  0.00     0.008 A 
ATOM      8  C   UNL     1     -29.222 -20.649   3.561  0.00  0.00     0.010 A 
ATOM      9  C   UNL     1     -29.175 -21.580   4.609  0.00  0.00     0.068 A 
ATOM     10  N   UNL     1     -27.062 -21.728   6.102  0.00  0.00    -0.191 NA
ATOM     11  C   UNL     1     -28.010 -21.661   5.433  0.00  0.00     0.101 C 
ENDROOT
BRANCH   2  12
ATOM     12  C   UNL     1     -32.598 -22.040   0.865  0.00  0.00     0.038 C 
BRANCH  12  13
ATOM     13  C   UNL     1     -33.800 -22.893   0.465  0.00  0.00     0.038 C 
BRANCH  13  14
ATOM     14  C   UNL     1     -34.495 -22.319  -0.769  0.00  0.00     0.251 C 
BRANCH  14  15
ATOM     15  N   UNL     1     -35.441 -23.286  -1.314  0.00  0.00     0.141 N 
ATOM     16  C   UNL     1     -34.733 -24.393  -1.959  0.00  0.00     0.285 C 
ATOM     17  C   UNL     1     -36.324 -23.792  -0.262  0.00  0.00     0.285 C 
ENDBRANCH  14  15
ENDBRANCH  13  14
ENDBRANCH  12  13
ENDBRANCH   2  12
BRANCH   2  18
ATOM     18  C   UNL     1     -33.529 -20.250   2.321  0.00  0.00     0.006 A 
ATOM     19  C   UNL     1     -34.307 -19.943   3.437  0.00  0.00     0.001 A 
ATOM     20  C   UNL     1     -35.046 -18.760   3.466  0.00  0.00     0.029 A 
ATOM     21  C   UNL     1     -35.007 -17.886   2.380  0.00  0.00     0.140 A 
ATOM     22  C   UNL     1     -34.228 -18.194   1.264  0.00  0.00     0.029 A 
ATOM     23  F   UNL     1     -35.715 -16.750   2.409  0.00  0.00    -0.204 F 
ATOM     24  C   UNL     1     -33.489 -19.378   1.234  0.00  0.00     0.001 A 
ENDBRANCH   2  18
TORSDOF 5
ENDMDL
MODEL 4
REMARK VINA RESULT:    -8.811      3.719      5.973
REMARK INTER + INTRA:         -12.333
REMARK INTER:                 -10.936
REMARK INTRA:                  -1.396
REMARK UNBOUND:                -0.947
REMARK  5 active torsions:
REMARK  status: ('A' for Active; 'I' for Inactive)
REMARK    1  A    between atoms: C_2  and  C_19 
REMARK    2  A    between atoms: C_2  and  C_11 
REMARK    3  A    between atoms: C_19  and  C_20 
REMARK    4  A    between atoms: C_20  and  C_21 
REMARK    5  A    between atoms: C_21  and  N_22 
ROOT
ATOM      1  O   UNL     1     -36.648 -20.079   1.880  0.00  0.00    -0.346 OA
ATOM      2  C   UNL     1     -35.961 -18.791   1.991  0.00  0.00     0.130 C 
ATOM      3  C   UNL     1     -37.080 -17.790   2.044  0.00  0.00     0.004 A 
ATOM      4  C   UNL     1     -38.298 -18.453   2.072  0.00  0.00     0.006 A 
ATOM      5  C   UNL     1     -38.075 -19.916   2.053  0.00  0.00     0.169 C 
ATOM      6  C   UNL     1     -37.022 -16.405   2.076  0.00  0.00    -0.001 A 
ATOM      7  C   UNL     1     -39.495 -17.759   2.128  0.00  0.00     0.008 A 
ATOM      8  C   UNL     1     -38.221 -15.691   2.128  0.00  0.00     0.010 A 
ATOM      9  C   UNL     1     -39.451 -16.365   2.155  0.00  0.00     0.068 A 
ATOM     10  N   UNL     1     -41.656 -15.009   2.257  0.00  0.00    -0.191 NA
ATOM     11  C   UNL     1     -40.667 -15.617   2.211  0.00  0.00     0.101 C 
ENDROOT
BRANCH   2  12
ATOM     12  C   UNL     1     -35.116 -18.803   3.259  0.00  0.00     0.038 C 
BRANCH  12  13
ATOM     13  C   UNL     1     -34.871 -20.228   3.751  0.00  0.00     0.038 C 
BRANCH  13  14
ATOM     14  C   UNL     1     -33.544 -20.771   3.225  0.00  0.00     0.251 C 
BRANCH  14  15
ATOM     15  N   UNL     1     -33.779 -21.771   2.190  0.00  0.00     0.141 N 
ATOM     16  C   UNL     1     -32.827 -21.609   1.090  0.00  0.00     0.285 C 
ATOM     17  C   UNL     1     -33.686 -23.121   2.748  0.00  0.00     0.285 C 
ENDBRANCH  14  15
ENDBRANCH  13  14
ENDBRANCH  12  13
ENDBRANCH   2  12
BRANCH   2  18
ATOM     18  C   UNL     1     -35.107 -18.645   0.776  0.00  0.00     0.006 A 
ATOM     19  C   UNL     1     -33.960 -17.855   0.822  0.00  0.00     0.001 A 
ATOM     20  C   UNL     1     -33.163 -17.719  -0.315  0.00  0.00     0.029 A 
ATOM     21  C   UNL     1     -33.513 -18.374  -1.495  0.00  0.00     0.140 A 
ATOM     22  C   UNL     1     -34.661 -19.165  -1.540  0.00  0.00     0.029 A 
ATOM     23  F   UNL     1     -32.747 -18.245  -2.586  0.00  0.00    -0.204 F 
ATOM     24  C   UNL     1     -35.460 -19.301  -0.403  0.00  0.00     0.001 A 
ENDBRANCH   2  18
TORSDOF 5
ENDMDL
MODEL 5
REMARK VINA RESULT:    -8.594      5.400      7.282
REMARK INTER + INTRA:         -12.053
REMARK INTER:                 -11.004
REMARK INTRA:                  -1.050
REMARK UNBOUND:                -0.947
REMARK  5 active torsions:
REMARK  status: ('A' for Active; 'I' for Inactive)
REMARK    1  A    between atoms: C_2  and  C_19 
REMARK    2  A    between atoms: C_2  and  C_11 
REMARK    3  A    between atoms: C_19  and  C_20 
REMARK    4  A    between atoms: C_20  and  C_21 
REMARK    5  A    between atoms: C_21  and  N_22 
ROOT
ATOM      1  O   UNL     1     -38.225 -19.375   2.129  0.00  0.00    -0.346 OA
ATOM      2  C   UNL     1     -37.536 -18.127   2.461  0.00  0.00     0.130 C 
ATOM      3  C   UNL     1     -38.530 -17.061   2.103  0.00  0.00     0.004 A 
ATOM      4  C   UNL     1     -39.723 -17.649   1.706  0.00  0.00     0.006 A 
ATOM      5  C   UNL     1     -39.607 -19.122   1.784  0.00  0.00     0.169 C 
ATOM      6  C   UNL     1     -38.394 -15.681   2.138  0.00  0.00    -0.001 A 
ATOM      7  C   UNL     1     -40.812 -16.884   1.328  0.00  0.00     0.008 A 
ATOM      8  C   UNL     1     -39.482 -14.895   1.755  0.00  0.00     0.010 A 
ATOM      9  C   UNL     1     -40.686 -15.494   1.352  0.00  0.00     0.068 A 
ATOM     10  N   UNL     1     -42.688 -14.007   0.652  0.00  0.00    -0.191 NA
ATOM     11  C   UNL     1     -41.790 -14.674   0.966  0.00  0.00     0.101 C 
ENDROOT
BRANCH   2  12
ATOM     12  C   UNL     1     -37.194 -18.146   3.946  0.00  0.00     0.038 C 
BRANCH  12  13
ATOM     13  C   UNL     1     -36.820 -19.551   4.414  0.00  0.00     0.038 C 
BRANCH  13  14
ATOM     14  C   UNL     1     -37.352 -19.821   5.820  0.00  0.00     0.251 C 
BRANCH  14  15
ATOM     15  N   UNL     1     -38.423 -20.809   5.776  0.00  0.00     0.141 N 
ATOM     16  C   UNL     1     -38.205 -21.758   4.684  0.00  0.00     0.285 C 
ATOM     17  C   UNL     1     -38.522 -21.519   7.053  0.00  0.00     0.285 C 
ENDBRANCH  14  15
ENDBRANCH  13  14
ENDBRANCH  12  13
ENDBRANCH   2  12
BRANCH   2  18
ATOM     18  C   UNL     1     -36.301 -18.075   1.625  0.00  0.00     0.006 A 
ATOM     19  C   UNL     1     -36.062 -19.064   0.672  0.00  0.00     0.001 A 
ATOM     20  C   UNL     1     -34.906 -19.014  -0.109  0.00  0.00     0.029 A 
ATOM     21  C   UNL     1     -33.993 -17.976   0.064  0.00  0.00     0.140 A 
ATOM     22  C   UNL     1     -34.232 -16.986   1.017  0.00  0.00     0.029 A 
ATOM     23  F   UNL     1     -32.885 -17.927  -0.687  0.00  0.00    -0.204 F 
ATOM     24  C   UNL     1     -35.388 -17.036   1.799  0.00  0.00     0.001 A 
ENDBRANCH   2  18
TORSDOF 5
ENDMDL
MODEL 6
REMARK VINA RESULT:    -8.367      4.089      6.025
REMARK INTER + INTRA:         -11.759
REMARK INTER:                 -10.637
REMARK INTRA:                  -1.122
REMARK UNBOUND:                -0.947
REMARK  5 active torsions:
REMARK  status: ('A' for Active; 'I' for Inactive)
REMARK    1  A    between atoms: C_2  and  C_19 
REMARK    2  A    between atoms: C_2  and  C_11 
REMARK    3  A    between atoms: C_19  and  C_20 
REMARK    4  A    between atoms: C_20  and  C_21 
REMARK    5  A    between atoms: C_21  and  N_22 
ROOT
ATOM      1  O   UNL     1     -35.723 -19.303   3.521  0.00  0.00    -0.346 OA
ATOM      2  C   UNL     1     -37.028 -19.900   3.234  0.00  0.00     0.130 C 
ATOM      3  C   UNL     1     -37.858 -18.741   2.763  0.00  0.00     0.004 A 
ATOM      4  C   UNL     1     -37.067 -17.603   2.681  0.00  0.00     0.006 A 
ATOM      5  C   UNL     1     -35.678 -17.928   3.074  0.00  0.00     0.169 C 
ATOM      6  C   UNL     1     -39.202 -18.700   2.422  0.00  0.00    -0.001 A 
ATOM      7  C   UNL     1     -37.590 -16.391   2.264  0.00  0.00     0.008 A 
ATOM      8  C   UNL     1     -39.745 -17.484   2.004  0.00  0.00     0.010 A 
ATOM      9  C   UNL     1     -38.943 -16.336   1.924  0.00  0.00     0.068 A 
ATOM     10  N   UNL     1     -39.981 -14.096   1.138  0.00  0.00    -0.191 NA
ATOM     11  C   UNL     1     -39.515 -15.100   1.492  0.00  0.00     0.101 C 
ENDROOT
BRANCH   2  12
ATOM     12  C   UNL     1     -36.844 -20.971   2.166  0.00  0.00     0.038 C 
BRANCH  12  13
ATOM     13  C   UNL     1     -35.385 -21.415   2.067  0.00  0.00     0.038 C 
BRANCH  13  14
ATOM     14  C   UNL     1     -35.078 -21.989   0.685  0.00  0.00     0.251 C 
BRANCH  14  15
ATOM     15  N   UNL     1     -33.811 -22.710   0.705  0.00  0.00     0.141 N 
ATOM     16  C   UNL     1     -32.738 -21.853   1.213  0.00  0.00     0.285 C 
ATOM     17  C   UNL     1     -33.921 -23.922   1.518  0.00  0.00     0.285 C 
ENDBRANCH  14  15
ENDBRANCH  13  14
ENDBRANCH  12  13
ENDBRANCH   2  12
BRANCH   2  18
ATOM     18  C   UNL     1     -37.527 -20.492   4.510  0.00  0.00     0.006 A 
ATOM     19  C   UNL     1     -38.242 -21.688   4.490  0.00  0.00     0.001 A 
ATOM     20  C   UNL     1     -38.708 -22.240   5.684  0.00  0.00     0.029 A 
ATOM     21  C   UNL     1     -38.458 -21.596   6.894  0.00  0.00     0.140 A 
ATOM     22  C   UNL     1     -37.742 -20.400   6.913  0.00  0.00     0.029 A 
ATOM     23  F   UNL     1     -38.904 -22.127   8.040  0.00  0.00    -0.204 F 
ATOM     24  C   UNL     1     -37.276 -19.846   5.720  0.00  0.00     0.001 A 
ENDBRANCH   2  18
TORSDOF 5
ENDMDL
MODEL 7
REMARK VINA RESULT:    -8.200      2.901      5.403
REMARK INTER + INTRA:         -11.543
REMARK INTER:                 -10.853
REMARK INTRA:                  -0.690
REMARK UNBOUND:                -0.947
REMARK  5 active torsions:
REMARK  status: ('A' for Active; 'I' for Inactive)
REMARK    1  A    between atoms: C_2  and  C_19 
REMARK    2  A    between atoms: C_2  and  C_11 
REMARK    3  A    between atoms: C_19  and  C_20 
REMARK    4  A    between atoms: C_20  and  C_21 
REMARK    5  A    between atoms: C_21  and  N_22 
ROOT
ATOM      1  O   UNL     1     -33.552 -21.412   2.990  0.00  0.00    -0.346 OA
ATOM      2  C   UNL     1     -33.389 -20.894   1.631  0.00  0.00     0.130 C 
ATOM      3  C   UNL     1     -34.288 -19.693   1.593  0.00  0.00     0.004 A 
ATOM      4  C   UNL     1     -34.831 -19.477   2.852  0.00  0.00     0.006 A 
ATOM      5  C   UNL     1     -34.328 -20.497   3.798  0.00  0.00     0.169 C 
ATOM      6  C   UNL     1     -34.591 -18.851   0.533  0.00  0.00    -0.001 A 
ATOM      7  C   UNL     1     -35.695 -18.422   3.092  0.00  0.00     0.008 A 
ATOM      8  C   UNL     1     -35.464 -17.785   0.758  0.00  0.00     0.010 A 
ATOM      9  C   UNL     1     -36.013 -17.572   2.032  0.00  0.00     0.068 A 
ATOM     10  N   UNL     1     -37.626 -15.581   2.417  0.00  0.00    -0.191 NA
ATOM     11  C   UNL     1     -36.903 -16.474   2.244  0.00  0.00     0.101 C 
ENDROOT
BRANCH   2  12
ATOM     12  C   UNL     1     -31.920 -20.544   1.421  0.00  0.00     0.038 C 
BRANCH  12  13
ATOM     13  C   UNL     1     -31.003 -21.564   2.091  0.00  0.00     0.038 C 
BRANCH  13  14
ATOM     14  C   UNL     1     -30.165 -20.912   3.190  0.00  0.00     0.251 C 
BRANCH  14  15
ATOM     15  N   UNL     1     -29.760 -21.907   4.176  0.00  0.00     0.141 N 
ATOM     16  C   UNL     1     -28.793 -21.337   5.116  0.00  0.00     0.285 C 
ATOM     17  C   UNL     1     -30.924 -22.423   4.897  0.00  0.00     0.285 C 
ENDBRANCH  14  15
ENDBRANCH  13  14
ENDBRANCH  12  13
ENDBRANCH   2  12
BRANCH   2  18
ATOM     18  C   UNL     1     -33.823 -21.975   0.698  0.00  0.00     0.006 A 
ATOM     19  C   UNL     1     -34.146 -21.666  -0.623  0.00  0.00     0.001 A 
ATOM     20  C   UNL     1     -34.552 -22.678  -1.495  0.00  0.00     0.029 A 
ATOM     21  C   UNL     1     -34.634 -23.995  -1.045  0.00  0.00     0.140 A 
ATOM     22  C   UNL     1     -34.310 -24.302   0.276  0.00  0.00     0.029 A 
ATOM     23  F   UNL     1     -35.022 -24.965  -1.882  0.00  0.00    -0.204 F 
ATOM     24  C   UNL     1     -33.904 -23.291   1.149  0.00  0.00     0.001 A 
ENDBRANCH   2  18
TORSDOF 5
ENDMDL
MODEL 8
REMARK VINA RESULT:    -7.813      5.921      8.364
REMARK INTER + INTRA:         -11.043
REMARK INTER:                 -10.398
REMARK INTRA:                  -0.645
REMARK UNBOUND:                -0.947
REMARK  5 active torsions:
REMARK  status: ('A' for Active; 'I' for Inactive)
REMARK    1  A    between atoms: C_2  and  C_19 
REMARK    2  A    between atoms: C_2  and  C_11 
REMARK    3  A    between atoms: C_19  and  C_20 
REMARK    4  A    between atoms: C_20  and  C_21 
REMARK    5  A    between atoms: C_21  and  N_22 
ROOT
ATOM      1  O   UNL     1     -38.900 -17.625   3.341  0.00  0.00    -0.346 OA
ATOM      2  C   UNL     1     -39.178 -18.930   2.738  0.00  0.00     0.130 C 
ATOM      3  C   UNL     1     -40.360 -18.671   1.849  0.00  0.00     0.004 A 
ATOM      4  C   UNL     1     -40.663 -17.316   1.857  0.00  0.00     0.006 A 
ATOM      5  C   UNL     1     -39.709 -16.594   2.728  0.00  0.00     0.169 C 
ATOM      6  C   UNL     1     -41.101 -19.561   1.086  0.00  0.00    -0.001 A 
ATOM      7  C   UNL     1     -41.712 -16.808   1.111  0.00  0.00     0.008 A 
ATOM      8  C   UNL     1     -42.166 -19.064   0.331  0.00  0.00     0.010 A 
ATOM      9  C   UNL     1     -42.469 -17.694   0.344  0.00  0.00     0.068 A 
ATOM     10  N   UNL     1     -44.448 -16.805  -1.072  0.00  0.00    -0.191 NA
ATOM     11  C   UNL     1     -43.561 -17.204  -0.436  0.00  0.00     0.101 C 
ENDROOT
BRANCH   2  12
ATOM     12  C   UNL     1     -37.942 -19.378   1.966  0.00  0.00     0.038 C 
BRANCH  12  13
ATOM     13  C   UNL     1     -36.860 -18.300   1.974  0.00  0.00     0.038 C 
BRANCH  13  14
ATOM     14  C   UNL     1     -35.504 -18.881   1.577  0.00  0.00     0.251 C 
BRANCH  14  15
ATOM     15  N   UNL     1     -34.826 -17.992   0.640  0.00  0.00     0.141 N 
ATOM     16  C   UNL     1     -34.651 -16.662   1.225  0.00  0.00     0.285 C 
ATOM     17  C   UNL     1     -33.530 -18.548   0.248  0.00  0.00     0.285 C 
ENDBRANCH  14  15
ENDBRANCH  13  14
ENDBRANCH  12  13
ENDBRANCH   2  12
BRANCH   2  18
ATOM     18  C   UNL     1     -39.485 -19.870   3.855  0.00  0.00     0.006 A 
ATOM     19  C   UNL     1     -38.447 -20.440   4.591  0.00  0.00     0.001 A 
ATOM     20  C   UNL     1     -38.736 -21.320   5.635  0.00  0.00     0.029 A 
ATOM     21  C   UNL     1     -40.060 -21.627   5.942  0.00  0.00     0.140 A 
ATOM     22  C   UNL     1     -41.098 -21.056   5.205  0.00  0.00     0.029 A 
ATOM     23  F   UNL     1     -40.337 -22.470   6.945  0.00  0.00    -0.204 F 
ATOM     24  C   UNL     1     -40.810 -20.177   4.160  0.00  0.00     0.001 A 
ENDBRANCH   2  18
TORSDOF 5
ENDMDL
MODEL 9
REMARK VINA RESULT:    -7.753      2.099      3.046
REMARK INTER + INTRA:         -10.966
REMARK INTER:                  -9.930
REMARK INTRA:                  -1.037
REMARK UNBOUND:                -0.947
REMARK  5 active torsions:
REMARK  status: ('A' for Active; 'I' for Inactive)
REMARK    1  A    between atoms: C_2  and  C_19 
REMARK    2  A    between atoms: C_2  and  C_11 
REMARK    3  A    between atoms: C_19  and  C_20 
REMARK    4  A    between atoms: C_20  and  C_21 
REMARK    5  A    between atoms: C_21  and  N_22 
ROOT
ATOM      1  O   UNL     1     -33.392 -21.901   0.792  0.00  0.00    -0.346 OA
ATOM      2  C   UNL     1     -33.662 -21.476   2.166  0.00  0.00     0.130 C 
ATOM      3  C   UNL     1     -33.942 -20.006   2.039  0.00  0.00     0.004 A 
ATOM      4  C   UNL     1     -33.941 -19.645   0.699  0.00  0.00     0.006 A 
ATOM      5  C   UNL     1     -33.678 -20.834  -0.142  0.00  0.00     0.169 C 
ATOM      6  C   UNL     1     -34.188 -19.066   3.029  0.00  0.00    -0.001 A 
ATOM      7  C   UNL     1     -34.181 -18.340   0.304  0.00  0.00     0.008 A 
ATOM      8  C   UNL     1     -34.428 -17.745   2.647  0.00  0.00     0.010 A 
ATOM      9  C   UNL     1     -34.425 -17.384   1.292  0.00  0.00     0.068 A 
ATOM     10  N   UNL     1     -34.878 -14.924   0.617  0.00  0.00    -0.191 NA
ATOM     11  C   UNL     1     -34.674 -16.027   0.920  0.00  0.00     0.101 C 
ENDROOT
BRANCH   2  12
ATOM     12  C   UNL     1     -34.856 -22.264   2.690  0.00  0.00     0.038 C 
BRANCH  12  13
ATOM     13  C   UNL     1     -36.175 -21.591   2.314  0.00  0.00     0.038 C 
BRANCH  13  14
ATOM     14  C   UNL     1     -37.021 -21.311   3.555  0.00  0.00     0.251 C 
BRANCH  14  15
ATOM     15  N   UNL     1     -38.070 -20.346   3.246  0.00  0.00     0.141 N 
ATOM     16  C   UNL     1     -37.705 -19.544   2.077  0.00  0.00     0.285 C 
ATOM     17  C   UNL     1     -39.346 -21.026   3.017  0.00  0.00     0.285 C 
ENDBRANCH  14  15
ENDBRANCH  13  14
ENDBRANCH  12  13
ENDBRANCH   2  12
BRANCH   2  18
ATOM     18  C   UNL     1     -32.434 -21.767   2.963  0.00  0.00     0.006 A 
ATOM     19  C   UNL     1     -32.499 -22.635   4.052  0.00  0.00     0.001 A 
ATOM     20  C   UNL     1     -31.350 -22.906   4.796  0.00  0.00     0.029 A 
ATOM     21  C   UNL     1     -30.139 -22.310   4.450  0.00  0.00     0.140 A 
ATOM     22  C   UNL     1     -30.074 -21.442   3.360  0.00  0.00     0.029 A 
ATOM     23  F   UNL     1     -29.036 -22.572   5.163  0.00  0.00    -0.204 F 
ATOM     24  C   UNL     1     -31.223 -21.169   2.616  0.00  0.00     0.001 A 
ENDBRANCH   2  18
TORSDOF 5
ENDMDL
