MODEL 1
REMARK VINA RESULT:    -7.120      0.000      0.000
REMARK INTER + INTRA:         -10.107
REMARK INTER:                  -9.201
REMARK INTRA:                  -0.906
REMARK UNBOUND:                -0.906
REMARK  5 active torsions:
REMARK  status: ('A' for Active; 'I' for Inactive)
REMARK    1  A    between atoms: C_2  and  C_19 
REMARK    2  A    between atoms: C_2  and  C_11 
REMARK    3  A    between atoms: C_19  and  C_20 
REMARK    4  A    between atoms: C_20  and  C_21 
REMARK    5  A    between atoms: C_21  and  N_22 
ROOT
ATOM      1  O   UNL     1     -39.114 -16.989   3.636  0.00  0.00    -0.346 OA
ATOM      2  C   UNL     1     -39.211 -18.214   2.840  0.00  0.00     0.130 C 
ATOM      3  C   UNL     1     -37.882 -18.298   2.147  0.00  0.00     0.004 A 
ATOM      4  C   UNL     1     -37.058 -17.274   2.591  0.00  0.00     0.006 A 
ATOM      5  C   UNL     1     -37.768 -16.461   3.603  0.00  0.00     0.169 C 
ATOM      6  C   UNL     1     -37.434 -19.215   1.207  0.00  0.00    -0.001 A 
ATOM      7  C   UNL     1     -35.767 -17.128   2.112  0.00  0.00     0.008 A 
ATOM      8  C   UNL     1     -36.137 -19.079   0.710  0.00  0.00     0.010 A 
ATOM      9  C   UNL     1     -35.308 -18.040   1.161  0.00  0.00     0.068 A 
ATOM     10  N   UNL     1     -32.903 -17.819   0.222  0.00  0.00    -0.191 NA
ATOM     11  C   UNL     1     -33.982 -17.918   0.643  0.00  0.00     0.101 C 
ENDROOT
BRANCH   2  12
ATOM     12  C   UNL     1     -39.463 -19.384   3.784  0.00  0.00     0.038 C 
BRANCH  12  13
ATOM     13  C   UNL     1     -38.252 -19.651   4.676  0.00  0.00     0.038 C 
BRANCH  13  14
ATOM     14  C   UNL     1     -38.179 -21.123   5.078  0.00  0.00     0.251 C 
BRANCH  14  15
ATOM     15  N   UNL     1     -38.185 -21.253   6.530  0.00  0.00     0.141 N 
ATOM     16  C   UNL     1     -37.417 -20.172   7.148  0.00  0.00     0.285 C 
ATOM     17  C   UNL     1     -39.557 -21.258   7.041  0.00  0.00     0.285 C 
ENDBRANCH  14  15
ENDBRANCH  13  14
ENDBRANCH  12  13
ENDBRANCH   2  12
BRANCH   2  18
ATOM     18  C   UNL     1     -40.350 -18.031   1.894  0.00  0.00     0.006 A 
ATOM     19  C   UNL     1     -41.071 -19.139   1.448  0.00  0.00     0.001 A 
ATOM     20  C   UNL     1     -42.135 -18.966   0.563  0.00  0.00     0.029 A 
ATOM     21  C   UNL     1     -42.478 -17.688   0.126  0.00  0.00     0.140 A 
ATOM     22  C   UNL     1     -41.757 -16.580   0.572  0.00  0.00     0.029 A 
ATOM     23  F   UNL     1     -43.501 -17.522  -0.723  0.00  0.00    -0.204 F 
ATOM     24  C   UNL     1     -40.692 -16.752   1.457  0.00  0.00     0.001 A 
ENDBRANCH   2  18
TORSDOF 5
ENDMDL
MODEL 2
REMARK VINA RESULT:    -7.111     16.709     19.840
REMARK INTER + INTRA:         -10.095
REMARK INTER:                  -8.734
REMARK INTRA:                  -1.362
REMARK UNBOUND:                -0.906
REMARK  5 active torsions:
REMARK  status: ('A' for Active; 'I' for Inactive)
REMARK    1  A    between atoms: C_2  and  C_19 
REMARK    2  A    between atoms: C_2  and  C_11 
REMARK    3  A    between atoms: C_19  and  C_20 
REMARK    4  A    between atoms: C_20  and  C_21 
REMARK    5  A    between atoms: C_21  and  N_22 
ROOT
ATOM      1  O   UNL     1     -19.370 -13.775   6.370  0.00  0.00    -0.346 OA
ATOM      2  C   UNL     1     -19.956 -14.126   7.664  0.00  0.00     0.130 C 
ATOM      3  C   UNL     1     -20.812 -15.321   7.359  0.00  0.00     0.004 A 
ATOM      4  C   UNL     1     -20.644 -15.689   6.031  0.00  0.00     0.006 A 
ATOM      5  C   UNL     1     -19.671 -14.785   5.379  0.00  0.00     0.169 C 
ATOM      6  C   UNL     1     -21.662 -16.033   8.192  0.00  0.00    -0.001 A 
ATOM      7  C   UNL     1     -21.318 -16.771   5.493  0.00  0.00     0.008 A 
ATOM      8  C   UNL     1     -22.353 -17.125   7.663  0.00  0.00     0.010 A 
ATOM      9  C   UNL     1     -22.181 -17.492   6.320  0.00  0.00     0.068 A 
ATOM     10  N   UNL     1     -23.475 -19.526   5.370  0.00  0.00    -0.191 NA
ATOM     11  C   UNL     1     -22.895 -18.613   5.796  0.00  0.00     0.101 C 
ENDROOT
BRANCH   2  12
ATOM     12  C   UNL     1     -18.826 -14.438   8.637  0.00  0.00     0.038 C 
BRANCH  12  13
ATOM     13  C   UNL     1     -17.481 -13.946   8.105  0.00  0.00     0.038 C 
BRANCH  13  14
ATOM     14  C   UNL     1     -16.555 -15.118   7.783  0.00  0.00     0.251 C 
BRANCH  14  15
ATOM     15  N   UNL     1     -17.183 -16.379   8.163  0.00  0.00     0.141 N 
ATOM     16  C   UNL     1     -17.360 -17.240   6.992  0.00  0.00     0.285 C 
ATOM     17  C   UNL     1     -16.387 -17.065   9.182  0.00  0.00     0.285 C 
ENDBRANCH  14  15
ENDBRANCH  13  14
ENDBRANCH  12  13
ENDBRANCH   2  12
BRANCH   2  18
ATOM     18  C   UNL     1     -20.748 -12.945   8.119  0.00  0.00     0.006 A 
ATOM     19  C   UNL     1     -21.481 -12.200   7.196  0.00  0.00     0.001 A 
ATOM     20  C   UNL     1     -22.220 -11.096   7.623  0.00  0.00     0.029 A 
ATOM     21  C   UNL     1     -22.226 -10.740   8.971  0.00  0.00     0.140 A 
ATOM     22  C   UNL     1     -21.493 -11.486   9.893  0.00  0.00     0.029 A 
ATOM     23  F   UNL     1     -22.937  -9.681   9.381  0.00  0.00    -0.204 F 
ATOM     24  C   UNL     1     -20.752 -12.590   9.467  0.00  0.00     0.001 A 
ENDBRANCH   2  18
TORSDOF 5
ENDMDL
MODEL 3
REMARK VINA RESULT:    -6.951     16.805     20.043
REMARK INTER + INTRA:          -9.889
REMARK INTER:                  -8.792
REMARK INTRA:                  -1.097
REMARK UNBOUND:                -0.906
REMARK  5 active torsions:
REMARK  status: ('A' for Active; 'I' for Inactive)
REMARK    1  A    between atoms: C_2  and  C_19 
REMARK    2  A    between atoms: C_2  and  C_11 
REMARK    3  A    between atoms: C_19  and  C_20 
REMARK    4  A    between atoms: C_20  and  C_21 
REMARK    5  A    between atoms: C_21  and  N_22 
ROOT
ATOM      1  O   UNL     1     -19.689 -14.949   5.400  0.00  0.00    -0.346 OA
ATOM      2  C   UNL     1     -20.033 -15.273   6.785  0.00  0.00     0.130 C 
ATOM      3  C   UNL     1     -18.756 -15.820   7.355  0.00  0.00     0.004 A 
ATOM      4  C   UNL     1     -17.742 -15.715   6.413  0.00  0.00     0.006 A 
ATOM      5  C   UNL     1     -18.266 -15.089   5.178  0.00  0.00     0.169 C 
ATOM      6  C   UNL     1     -18.508 -16.357   8.610  0.00  0.00    -0.001 A 
ATOM      7  C   UNL     1     -16.455 -16.144   6.688  0.00  0.00     0.008 A 
ATOM      8  C   UNL     1     -17.216 -16.798   8.901  0.00  0.00     0.010 A 
ATOM      9  C   UNL     1     -16.195 -16.692   7.946  0.00  0.00     0.068 A 
ATOM     10  N   UNL     1     -13.807 -17.516   8.522  0.00  0.00    -0.191 NA
ATOM     11  C   UNL     1     -14.878 -17.147   8.263  0.00  0.00     0.101 C 
ENDROOT
BRANCH   2  12
ATOM     12  C   UNL     1     -20.493 -13.996   7.480  0.00  0.00     0.038 C 
BRANCH  12  13
ATOM     13  C   UNL     1     -21.226 -13.069   6.512  0.00  0.00     0.038 C 
BRANCH  13  14
ATOM     14  C   UNL     1     -21.923 -11.934   7.260  0.00  0.00     0.251 C 
BRANCH  14  15
ATOM     15  N   UNL     1     -21.031 -11.367   8.265  0.00  0.00     0.141 N 
ATOM     16  C   UNL     1     -20.361 -10.173   7.745  0.00  0.00     0.285 C 
ATOM     17  C   UNL     1     -21.771 -11.043   9.486  0.00  0.00     0.285 C 
ENDBRANCH  14  15
ENDBRANCH  13  14
ENDBRANCH  12  13
ENDBRANCH   2  12
BRANCH   2  18
ATOM     18  C   UNL     1     -21.128 -16.285   6.737  0.00  0.00     0.006 A 
ATOM     19  C   UNL     1     -21.415 -16.944   5.543  0.00  0.00     0.001 A 
ATOM     20  C   UNL     1     -22.441 -17.890   5.499  0.00  0.00     0.029 A 
ATOM     21  C   UNL     1     -23.176 -18.175   6.649  0.00  0.00     0.140 A 
ATOM     22  C   UNL     1     -22.888 -17.515   7.843  0.00  0.00     0.029 A 
ATOM     23  F   UNL     1     -24.158 -19.084   6.607  0.00  0.00    -0.204 F 
ATOM     24  C   UNL     1     -21.863 -16.568   7.888  0.00  0.00     0.001 A 
ENDBRANCH   2  18
TORSDOF 5
ENDMDL
MODEL 4
REMARK VINA RESULT:    -6.614     16.709     19.697
REMARK INTER + INTRA:          -9.452
REMARK INTER:                  -8.315
REMARK INTRA:                  -1.138
REMARK UNBOUND:                -0.906
REMARK  5 active torsions:
REMARK  status: ('A' for Active; 'I' for Inactive)
REMARK    1  A    between atoms: C_2  and  C_19 
REMARK    2  A    between atoms: C_2  and  C_11 
REMARK    3  A    between atoms: C_19  and  C_20 
REMARK    4  A    between atoms: C_20  and  C_21 
REMARK    5  A    between atoms: C_21  and  N_22 
ROOT
ATOM      1  O   UNL     1     -19.265 -15.916   7.694  0.00  0.00    -0.346 OA
ATOM      2  C   UNL     1     -20.243 -15.446   6.713  0.00  0.00     0.130 C 
ATOM      3  C   UNL     1     -20.680 -14.114   7.249  0.00  0.00     0.004 A 
ATOM      4  C   UNL     1     -19.936 -13.798   8.378  0.00  0.00     0.006 A 
ATOM      5  C   UNL     1     -18.962 -14.878   8.655  0.00  0.00     0.169 C 
ATOM      6  C   UNL     1     -21.649 -13.245   6.770  0.00  0.00    -0.001 A 
ATOM      7  C   UNL     1     -20.137 -12.614   9.065  0.00  0.00     0.008 A 
ATOM      8  C   UNL     1     -21.866 -12.048   7.455  0.00  0.00     0.010 A 
ATOM      9  C   UNL     1     -21.114 -11.734   8.596  0.00  0.00     0.068 A 
ATOM     10  N   UNL     1     -21.540  -9.502   9.841  0.00  0.00    -0.191 NA
ATOM     11  C   UNL     1     -21.349 -10.503   9.283  0.00  0.00     0.101 C 
ENDROOT
BRANCH   2  12
ATOM     12  C   UNL     1     -19.555 -15.343   5.357  0.00  0.00     0.038 C 
BRANCH  12  13
ATOM     13  C   UNL     1     -18.305 -16.219   5.299  0.00  0.00     0.038 C 
BRANCH  13  14
ATOM     14  C   UNL     1     -17.060 -15.382   5.013  0.00  0.00     0.251 C 
BRANCH  14  15
ATOM     15  N   UNL     1     -17.406 -14.218   4.204  0.00  0.00     0.141 N 
ATOM     16  C   UNL     1     -16.753 -13.016   4.725  0.00  0.00     0.285 C 
ATOM     17  C   UNL     1     -17.032 -14.433   2.805  0.00  0.00     0.285 C 
ENDBRANCH  14  15
ENDBRANCH  13  14
ENDBRANCH  12  13
ENDBRANCH   2  12
BRANCH   2  18
ATOM     18  C   UNL     1     -21.347 -16.450   6.682  0.00  0.00     0.006 A 
ATOM     19  C   UNL     1     -22.032 -16.769   7.853  0.00  0.00     0.001 A 
ATOM     20  C   UNL     1     -23.063 -17.708   7.823  0.00  0.00     0.029 A 
ATOM     21  C   UNL     1     -23.408 -18.327   6.622  0.00  0.00     0.140 A 
ATOM     22  C   UNL     1     -22.723 -18.007   5.451  0.00  0.00     0.029 A 
ATOM     23  F   UNL     1     -24.399 -19.227   6.593  0.00  0.00    -0.204 F 
ATOM     24  C   UNL     1     -21.690 -17.068   5.480  0.00  0.00     0.001 A 
ENDBRANCH   2  18
TORSDOF 5
ENDMDL
MODEL 5
REMARK VINA RESULT:    -6.502     17.591     19.970
REMARK INTER + INTRA:          -9.308
REMARK INTER:                  -7.969
REMARK INTRA:                  -1.340
REMARK UNBOUND:                -0.906
REMARK  5 active torsions:
REMARK  status: ('A' for Active; 'I' for Inactive)
REMARK    1  A    between atoms: C_2  and  C_19 
REMARK    2  A    between atoms: C_2  and  C_11 
REMARK    3  A    between atoms: C_19  and  C_20 
REMARK    4  A    between atoms: C_20  and  C_21 
REMARK    5  A    between atoms: C_21  and  N_22 
ROOT
ATOM      1  O   UNL     1     -19.305 -14.300   8.608  0.00  0.00    -0.346 OA
ATOM      2  C   UNL     1     -20.056 -14.109   7.366  0.00  0.00     0.130 C 
ATOM      3  C   UNL     1     -20.919 -12.913   7.648  0.00  0.00     0.004 A 
ATOM      4  C   UNL     1     -20.609 -12.398   8.899  0.00  0.00     0.006 A 
ATOM      5  C   UNL     1     -19.528 -13.197   9.518  0.00  0.00     0.169 C 
ATOM      6  C   UNL     1     -21.892 -12.321   6.856  0.00  0.00    -0.001 A 
ATOM      7  C   UNL     1     -21.260 -11.284   9.401  0.00  0.00     0.008 A 
ATOM      8  C   UNL     1     -22.560 -11.200   7.350  0.00  0.00     0.010 A 
ATOM      9  C   UNL     1     -22.245 -10.684   8.616  0.00  0.00     0.068 A 
ATOM     10  N   UNL     1     -23.501  -8.598   9.501  0.00  0.00    -0.191 NA
ATOM     11  C   UNL     1     -22.938  -9.534   9.104  0.00  0.00     0.101 C 
ENDROOT
BRANCH   2  12
ATOM     12  C   UNL     1     -19.063 -13.871   6.234  0.00  0.00     0.038 C 
BRANCH  12  13
ATOM     13  C   UNL     1     -17.643 -14.251   6.649  0.00  0.00     0.038 C 
BRANCH  13  14
ATOM     14  C   UNL     1     -17.068 -15.320   5.722  0.00  0.00     0.251 C 
BRANCH  14  15
ATOM     15  N   UNL     1     -16.429 -16.375   6.500  0.00  0.00     0.141 N 
ATOM     16  C   UNL     1     -15.415 -15.815   7.394  0.00  0.00     0.285 C 
ATOM     17  C   UNL     1     -17.425 -17.124   7.268  0.00  0.00     0.285 C 
ENDBRANCH  14  15
ENDBRANCH  13  14
ENDBRANCH  12  13
ENDBRANCH   2  12
BRANCH   2  18
ATOM     18  C   UNL     1     -20.845 -15.355   7.137  0.00  0.00     0.006 A 
ATOM     19  C   UNL     1     -20.891 -15.927   5.867  0.00  0.00     0.001 A 
ATOM     20  C   UNL     1     -21.629 -17.091   5.654  0.00  0.00     0.029 A 
ATOM     21  C   UNL     1     -22.320 -17.682   6.711  0.00  0.00     0.140 A 
ATOM     22  C   UNL     1     -22.273 -17.110   7.982  0.00  0.00     0.029 A 
ATOM     23  F   UNL     1     -23.027 -18.801   6.507  0.00  0.00    -0.204 F 
ATOM     24  C   UNL     1     -21.535 -15.944   8.196  0.00  0.00     0.001 A 
ENDBRANCH   2  18
TORSDOF 5
ENDMDL
MODEL 6
REMARK VINA RESULT:    -6.317     21.626     23.609
REMARK INTER + INTRA:          -9.069
REMARK INTER:                  -7.864
REMARK INTRA:                  -1.205
REMARK UNBOUND:                -0.906
REMARK  5 active torsions:
REMARK  status: ('A' for Active; 'I' for Inactive)
REMARK    1  A    between atoms: C_2  and  C_19 
REMARK    2  A    between atoms: C_2  and  C_11 
REMARK    3  A    between atoms: C_19  and  C_20 
REMARK    4  A    between atoms: C_20  and  C_21 
REMARK    5  A    between atoms: C_21  and  N_22 
ROOT
ATOM      1  O   UNL     1     -17.950 -12.445   3.132  0.00  0.00    -0.346 OA
ATOM      2  C   UNL     1     -16.549 -12.021   3.119  0.00  0.00     0.130 C 
ATOM      3  C   UNL     1     -16.597 -10.639   2.533  0.00  0.00     0.004 A 
ATOM      4  C   UNL     1     -17.917 -10.262   2.333  0.00  0.00     0.006 A 
ATOM      5  C   UNL     1     -18.822 -11.347   2.776  0.00  0.00     0.169 C 
ATOM      6  C   UNL     1     -15.556  -9.780   2.215  0.00  0.00    -0.001 A 
ATOM      7  C   UNL     1     -18.241  -9.024   1.806  0.00  0.00     0.008 A 
ATOM      8  C   UNL     1     -15.866  -8.529   1.679  0.00  0.00     0.010 A 
ATOM      9  C   UNL     1     -17.202  -8.153   1.476  0.00  0.00     0.068 A 
ATOM     10  N   UNL     1     -17.743  -5.821   0.484  0.00  0.00    -0.191 NA
ATOM     11  C   UNL     1     -17.500  -6.867   0.928  0.00  0.00     0.101 C 
ENDROOT
BRANCH   2  12
ATOM     12  C   UNL     1     -16.026 -12.042   4.550  0.00  0.00     0.038 C 
BRANCH  12  13
ATOM     13  C   UNL     1     -16.920 -12.883   5.458  0.00  0.00     0.038 C 
BRANCH  13  14
ATOM     14  C   UNL     1     -16.170 -14.103   5.989  0.00  0.00     0.251 C 
BRANCH  14  15
ATOM     15  N   UNL     1     -16.302 -15.223   5.064  0.00  0.00     0.141 N 
ATOM     16  C   UNL     1     -14.986 -15.688   4.626  0.00  0.00     0.285 C 
ATOM     17  C   UNL     1     -17.047 -16.319   5.685  0.00  0.00     0.285 C 
ENDBRANCH  14  15
ENDBRANCH  13  14
ENDBRANCH  12  13
ENDBRANCH   2  12
BRANCH   2  18
ATOM     18  C   UNL     1     -15.808 -12.991   2.260  0.00  0.00     0.006 A 
ATOM     19  C   UNL     1     -14.440 -12.829   2.048  0.00  0.00     0.001 A 
ATOM     20  C   UNL     1     -13.748 -13.737   1.245  0.00  0.00     0.029 A 
ATOM     21  C   UNL     1     -14.425 -14.804   0.656  0.00  0.00     0.140 A 
ATOM     22  C   UNL     1     -15.794 -14.965   0.868  0.00  0.00     0.029 A 
ATOM     23  F   UNL     1     -13.760 -15.675  -0.114  0.00  0.00    -0.204 F 
ATOM     24  C   UNL     1     -16.487 -14.057   1.671  0.00  0.00     0.001 A 
ENDBRANCH   2  18
TORSDOF 5
ENDMDL
MODEL 7
REMARK VINA RESULT:    -6.151     19.907     22.564
REMARK INTER + INTRA:          -8.854
REMARK INTER:                  -7.819
REMARK INTRA:                  -1.035
REMARK UNBOUND:                -0.906
REMARK  5 active torsions:
REMARK  status: ('A' for Active; 'I' for Inactive)
REMARK    1  A    between atoms: C_2  and  C_19 
REMARK    2  A    between atoms: C_2  and  C_11 
REMARK    3  A    between atoms: C_19  and  C_20 
REMARK    4  A    between atoms: C_20  and  C_21 
REMARK    5  A    between atoms: C_21  and  N_22 
ROOT
ATOM      1  O   UNL     1     -16.161 -12.945   4.368  0.00  0.00    -0.346 OA
ATOM      2  C   UNL     1     -17.317 -13.242   3.521  0.00  0.00     0.130 C 
ATOM      3  C   UNL     1     -17.804 -11.889   3.090  0.00  0.00     0.004 A 
ATOM      4  C   UNL     1     -16.939 -10.910   3.558  0.00  0.00     0.006 A 
ATOM      5  C   UNL     1     -15.828 -11.538   4.309  0.00  0.00     0.169 C 
ATOM      6  C   UNL     1     -18.918 -11.552   2.335  0.00  0.00    -0.001 A 
ATOM      7  C   UNL     1     -17.157  -9.569   3.293  0.00  0.00     0.008 A 
ATOM      8  C   UNL     1     -19.154 -10.204   2.063  0.00  0.00     0.010 A 
ATOM      9  C   UNL     1     -18.278  -9.217   2.539  0.00  0.00     0.068 A 
ATOM     10  N   UNL     1     -18.743  -6.724   2.012  0.00  0.00    -0.191 NA
ATOM     11  C   UNL     1     -18.535  -7.842   2.249  0.00  0.00     0.101 C 
ENDROOT
BRANCH   2  12
ATOM     12  C   UNL     1     -16.851 -14.105   2.354  0.00  0.00     0.038 C 
BRANCH  12  13
ATOM     13  C   UNL     1     -15.392 -14.526   2.521  0.00  0.00     0.038 C 
BRANCH  13  14
ATOM     14  C   UNL     1     -14.669 -14.546   1.176  0.00  0.00     0.251 C 
BRANCH  14  15
ATOM     15  N   UNL     1     -13.326 -13.995   1.314  0.00  0.00     0.141 N 
ATOM     16  C   UNL     1     -13.385 -12.577   1.673  0.00  0.00     0.285 C 
ATOM     17  C   UNL     1     -12.563 -14.741   2.316  0.00  0.00     0.285 C 
ENDBRANCH  14  15
ENDBRANCH  13  14
ENDBRANCH  12  13
ENDBRANCH   2  12
BRANCH   2  18
ATOM     18  C   UNL     1     -18.303 -13.973   4.370  0.00  0.00     0.006 A 
ATOM     19  C   UNL     1     -18.473 -15.348   4.215  0.00  0.00     0.001 A 
ATOM     20  C   UNL     1     -19.396 -16.029   5.009  0.00  0.00     0.029 A 
ATOM     21  C   UNL     1     -20.147 -15.336   5.957  0.00  0.00     0.140 A 
ATOM     22  C   UNL     1     -19.976 -13.960   6.112  0.00  0.00     0.029 A 
ATOM     23  F   UNL     1     -21.031 -15.991   6.720  0.00  0.00    -0.204 F 
ATOM     24  C   UNL     1     -19.054 -13.277   5.318  0.00  0.00     0.001 A 
ENDBRANCH   2  18
TORSDOF 5
ENDMDL
MODEL 8
REMARK VINA RESULT:    -6.100     16.564     19.098
REMARK INTER + INTRA:          -8.788
REMARK INTER:                  -7.767
REMARK INTRA:                  -1.021
REMARK UNBOUND:                -0.906
REMARK  5 active torsions:
REMARK  status: ('A' for Active; 'I' for Inactive)
REMARK    1  A    between atoms: C_2  and  C_19 
REMARK    2  A    between atoms: C_2  and  C_11 
REMARK    3  A    between atoms: C_19  and  C_20 
REMARK    4  A    between atoms: C_20  and  C_21 
REMARK    5  A    between atoms: C_21  and  N_22 
ROOT
ATOM      1  O   UNL     1     -28.792  -6.677  14.309  0.00  0.00    -0.346 OA
ATOM      2  C   UNL     1     -29.676  -7.479  13.461  0.00  0.00     0.130 C 
ATOM      3  C   UNL     1     -30.988  -7.459  14.190  0.00  0.00     0.004 A 
ATOM      4  C   UNL     1     -30.894  -6.628  15.298  0.00  0.00     0.006 A 
ATOM      5  C   UNL     1     -29.538  -6.040  15.371  0.00  0.00     0.169 C 
ATOM      6  C   UNL     1     -32.173  -8.114  13.890  0.00  0.00    -0.001 A 
ATOM      7  C   UNL     1     -31.973  -6.428  16.142  0.00  0.00     0.008 A 
ATOM      8  C   UNL     1     -33.269  -7.926  14.734  0.00  0.00     0.010 A 
ATOM      9  C   UNL     1     -33.170  -7.087  15.854  0.00  0.00     0.068 A 
ATOM     10  N   UNL     1     -35.224  -6.756  17.397  0.00  0.00    -0.191 NA
ATOM     11  C   UNL     1     -34.303  -6.905  16.706  0.00  0.00     0.101 C 
ENDROOT
BRANCH   2  12
ATOM     12  C   UNL     1     -29.750  -6.825  12.087  0.00  0.00     0.038 C 
BRANCH  12  13
ATOM     13  C   UNL     1     -28.493  -6.010  11.789  0.00  0.00     0.038 C 
BRANCH  13  14
ATOM     14  C   UNL     1     -28.802  -4.515  11.755  0.00  0.00     0.251 C 
BRANCH  14  15
ATOM     15  N   UNL     1     -27.965  -3.846  10.766  0.00  0.00     0.141 N 
ATOM     16  C   UNL     1     -26.547  -4.071  11.053  0.00  0.00     0.285 C 
ATOM     17  C   UNL     1     -28.290  -4.310   9.417  0.00  0.00     0.285 C 
ENDBRANCH  14  15
ENDBRANCH  13  14
ENDBRANCH  12  13
ENDBRANCH   2  12
BRANCH   2  18
ATOM     18  C   UNL     1     -29.078  -8.844  13.376  0.00  0.00     0.006 A 
ATOM     19  C   UNL     1     -29.565  -9.760  12.445  0.00  0.00     0.001 A 
ATOM     20  C   UNL     1     -29.006 -11.036  12.367  0.00  0.00     0.029 A 
ATOM     21  C   UNL     1     -27.962 -11.393  13.219  0.00  0.00     0.140 A 
ATOM     22  C   UNL     1     -27.475 -10.476  14.150  0.00  0.00     0.029 A 
ATOM     23  F   UNL     1     -27.424 -12.618  13.143  0.00  0.00    -0.204 F 
ATOM     24  C   UNL     1     -28.034  -9.199  14.230  0.00  0.00     0.001 A 
ENDBRANCH   2  18
TORSDOF 5
ENDMDL
MODEL 9
REMARK VINA RESULT:    -6.041     16.684     18.627
REMARK INTER + INTRA:          -8.712
REMARK INTER:                  -7.451
REMARK INTRA:                  -1.261
REMARK UNBOUND:                -0.906
REMARK  5 active torsions:
REMARK  status: ('A' for Active; 'I' for Inactive)
REMARK    1  A    between atoms: C_2  and  C_19 
REMARK    2  A    between atoms: C_2  and  C_11 
REMARK    3  A    between atoms: C_19  and  C_20 
REMARK    4  A    between atoms: C_20  and  C_21 
REMARK    5  A    between atoms: C_21  and  N_22 
ROOT
ATOM      1  O   UNL     1     -29.517  -8.504  15.776  0.00  0.00    -0.346 OA
ATOM      2  C   UNL     1     -30.537  -8.182  14.778  0.00  0.00     0.130 C 
ATOM      3  C   UNL     1     -29.925  -7.065  13.984  0.00  0.00     0.004 A 
ATOM      4  C   UNL     1     -28.625  -6.842  14.417  0.00  0.00     0.006 A 
ATOM      5  C   UNL     1     -28.288  -7.790  15.503  0.00  0.00     0.169 C 
ATOM      6  C   UNL     1     -30.469  -6.314  12.953  0.00  0.00    -0.001 A 
ATOM      7  C   UNL     1     -27.832  -5.864  13.843  0.00  0.00     0.008 A 
ATOM      8  C   UNL     1     -29.683  -5.321  12.366  0.00  0.00     0.010 A 
ATOM      9  C   UNL     1     -28.371  -5.098  12.808  0.00  0.00     0.068 A 
ATOM     10  N   UNL     1     -26.937  -3.250  11.694  0.00  0.00    -0.191 NA
ATOM     11  C   UNL     1     -27.580  -4.078  12.194  0.00  0.00     0.101 C 
ENDROOT
BRANCH   2  12
ATOM     12  C   UNL     1     -30.804  -9.428  13.941  0.00  0.00     0.038 C 
BRANCH  12  13
ATOM     13  C   UNL     1     -29.776 -10.521  14.227  0.00  0.00     0.038 C 
BRANCH  13  14
ATOM     14  C   UNL     1     -29.148 -11.036  12.933  0.00  0.00     0.251 C 
BRANCH  14  15
ATOM     15  N   UNL     1     -27.693 -10.977  13.017  0.00  0.00     0.141 N 
ATOM     16  C   UNL     1     -27.198  -9.699  12.505  0.00  0.00     0.285 C 
ATOM     17  C   UNL     1     -27.248 -11.178  14.397  0.00  0.00     0.285 C 
ENDBRANCH  14  15
ENDBRANCH  13  14
ENDBRANCH  12  13
ENDBRANCH   2  12
BRANCH   2  18
ATOM     18  C   UNL     1     -31.760  -7.763  15.524  0.00  0.00     0.006 A 
ATOM     19  C   UNL     1     -33.023  -8.062  15.015  0.00  0.00     0.001 A 
ATOM     20  C   UNL     1     -34.166  -7.669  15.713  0.00  0.00     0.029 A 
ATOM     21  C   UNL     1     -34.043  -6.979  16.918  0.00  0.00     0.140 A 
ATOM     22  C   UNL     1     -32.780  -6.681  17.427  0.00  0.00     0.029 A 
ATOM     23  F   UNL     1     -35.140  -6.604  17.590  0.00  0.00    -0.204 F 
ATOM     24  C   UNL     1     -31.636  -7.073  16.729  0.00  0.00     0.001 A 
ENDBRANCH   2  18
TORSDOF 5
ENDMDL
