MODEL 1
REMARK VINA RESULT:    -6.138      0.000      0.000
REMARK INTER + INTRA:          -8.956
REMARK INTER:                  -7.933
REMARK INTRA:                  -1.024
REMARK UNBOUND:                -1.024
REMARK  5 active torsions:
REMARK  status: ('A' for Active; 'I' for Inactive)
REMARK    1  A    between atoms: C_2  and  C_19 
REMARK    2  A    between atoms: C_2  and  C_11 
REMARK    3  A    between atoms: C_19  and  C_20 
REMARK    4  A    between atoms: C_20  and  C_21 
REMARK    5  A    between atoms: C_21  and  N_22 
ROOT
ATOM      1  O   UNL     1     -28.689  -6.640  14.067  0.00  0.00    -0.346 OA
ATOM      2  C   UNL     1     -29.579  -7.494  13.280  0.00  0.00     0.130 C 
ATOM      3  C   UNL     1     -30.876  -7.454  14.034  0.00  0.00     0.004 A 
ATOM      4  C   UNL     1     -30.771  -6.568  15.097  0.00  0.00     0.006 A 
ATOM      5  C   UNL     1     -29.421  -5.960  15.112  0.00  0.00     0.169 C 
ATOM      6  C   UNL     1     -32.059  -8.138  13.792  0.00  0.00    -0.001 A 
ATOM      7  C   UNL     1     -31.835  -6.339  15.953  0.00  0.00     0.008 A 
ATOM      8  C   UNL     1     -33.139  -7.921  14.649  0.00  0.00     0.010 A 
ATOM      9  C   UNL     1     -33.028  -7.026  15.723  0.00  0.00     0.068 A 
ATOM     10  N   UNL     1     -35.055  -6.643  17.291  0.00  0.00    -0.191 NA
ATOM     11  C   UNL     1     -34.145  -6.816  16.588  0.00  0.00     0.101 C 
ENDROOT
BRANCH   2  12
ATOM     12  C   UNL     1     -29.690  -6.911  11.876  0.00  0.00     0.038 C 
BRANCH  12  13
ATOM     13  C   UNL     1     -28.349  -6.361  11.393  0.00  0.00     0.038 C 
BRANCH  13  14
ATOM     14  C   UNL     1     -28.477  -4.901  10.962  0.00  0.00     0.251 C 
BRANCH  14  15
ATOM     15  N   UNL     1     -27.605  -4.630   9.826  0.00  0.00     0.141 N 
ATOM     16  C   UNL     1     -27.851  -3.288   9.296  0.00  0.00     0.285 C 
ATOM     17  C   UNL     1     -26.199  -4.774  10.209  0.00  0.00     0.285 C 
ENDBRANCH  14  15
ENDBRANCH  13  14
ENDBRANCH  12  13
ENDBRANCH   2  12
BRANCH   2  18
ATOM     18  C   UNL     1     -28.965  -8.854  13.250  0.00  0.00     0.006 A 
ATOM     19  C   UNL     1     -29.426  -9.807  12.342  0.00  0.00     0.001 A 
ATOM     20  C   UNL     1     -28.852 -11.078  12.316  0.00  0.00     0.029 A 
ATOM     21  C   UNL     1     -27.818 -11.395  13.196  0.00  0.00     0.140 A 
ATOM     22  C   UNL     1     -27.358 -10.442  14.103  0.00  0.00     0.029 A 
ATOM     23  F   UNL     1     -27.266 -12.615  13.169  0.00  0.00    -0.204 F 
ATOM     24  C   UNL     1     -27.932  -9.170  14.131  0.00  0.00     0.001 A 
ENDBRANCH   2  18
TORSDOF 5
ENDMDL
MODEL 2
REMARK VINA RESULT:    -6.112      3.105      5.529
REMARK INTER + INTRA:          -8.922
REMARK INTER:                  -8.231
REMARK INTRA:                  -0.691
REMARK UNBOUND:                -1.024
REMARK  5 active torsions:
REMARK  status: ('A' for Active; 'I' for Inactive)
REMARK    1  A    between atoms: C_2  and  C_19 
REMARK    2  A    between atoms: C_2  and  C_11 
REMARK    3  A    between atoms: C_19  and  C_20 
REMARK    4  A    between atoms: C_20  and  C_21 
REMARK    5  A    between atoms: C_21  and  N_22 
ROOT
ATOM      1  O   UNL     1     -30.160 -10.023  12.075  0.00  0.00    -0.346 OA
ATOM      2  C   UNL     1     -29.739  -8.789  12.738  0.00  0.00     0.130 C 
ATOM      3  C   UNL     1     -28.522  -9.197  13.517  0.00  0.00     0.004 A 
ATOM      4  C   UNL     1     -28.210 -10.519  13.237  0.00  0.00     0.006 A 
ATOM      5  C   UNL     1     -29.176 -11.067  12.259  0.00  0.00     0.169 C 
ATOM      6  C   UNL     1     -27.746  -8.453  14.395  0.00  0.00    -0.001 A 
ATOM      7  C   UNL     1     -27.122 -11.143  13.824  0.00  0.00     0.008 A 
ATOM      8  C   UNL     1     -26.648  -9.068  14.998  0.00  0.00     0.010 A 
ATOM      9  C   UNL     1     -26.337 -10.406  14.713  0.00  0.00     0.068 A 
ATOM     10  N   UNL     1     -24.289 -11.517  15.846  0.00  0.00    -0.191 NA
ATOM     11  C   UNL     1     -25.208 -11.019  15.338  0.00  0.00     0.101 C 
ENDROOT
BRANCH   2  12
ATOM     12  C   UNL     1     -29.437  -7.745  11.669  0.00  0.00     0.038 C 
BRANCH  12  13
ATOM     13  C   UNL     1     -27.968  -7.326  11.699  0.00  0.00     0.038 C 
BRANCH  13  14
ATOM     14  C   UNL     1     -27.833  -5.810  11.828  0.00  0.00     0.251 C 
BRANCH  14  15
ATOM     15  N   UNL     1     -27.983  -5.175  10.524  0.00  0.00     0.141 N 
ATOM     16  C   UNL     1     -29.052  -4.175  10.557  0.00  0.00     0.285 C 
ATOM     17  C   UNL     1     -26.725  -4.558  10.102  0.00  0.00     0.285 C 
ENDBRANCH  14  15
ENDBRANCH  13  14
ENDBRANCH  12  13
ENDBRANCH   2  12
BRANCH   2  18
ATOM     18  C   UNL     1     -30.869  -8.354  13.610  0.00  0.00     0.006 A 
ATOM     19  C   UNL     1     -31.299  -7.028  13.585  0.00  0.00     0.001 A 
ATOM     20  C   UNL     1     -32.356  -6.623  14.401  0.00  0.00     0.029 A 
ATOM     21  C   UNL     1     -32.981  -7.544  15.240  0.00  0.00     0.140 A 
ATOM     22  C   UNL     1     -32.551  -8.871  15.265  0.00  0.00     0.029 A 
ATOM     23  F   UNL     1     -33.997  -7.156  16.022  0.00  0.00    -0.204 F 
ATOM     24  C   UNL     1     -31.493  -9.277  14.449  0.00  0.00     0.001 A 
ENDBRANCH   2  18
TORSDOF 5
ENDMDL
MODEL 3
REMARK VINA RESULT:    -6.030     15.988     18.344
REMARK INTER + INTRA:          -8.816
REMARK INTER:                  -7.759
REMARK INTRA:                  -1.057
REMARK UNBOUND:                -1.024
REMARK  5 active torsions:
REMARK  status: ('A' for Active; 'I' for Inactive)
REMARK    1  A    between atoms: C_2  and  C_19 
REMARK    2  A    between atoms: C_2  and  C_11 
REMARK    3  A    between atoms: C_19  and  C_20 
REMARK    4  A    between atoms: C_20  and  C_21 
REMARK    5  A    between atoms: C_21  and  N_22 
ROOT
ATOM      1  O   UNL     1     -18.144 -12.486   3.048  0.00  0.00    -0.346 OA
ATOM      2  C   UNL     1     -16.749 -12.059   3.166  0.00  0.00     0.130 C 
ATOM      3  C   UNL     1     -16.754 -10.662   2.615  0.00  0.00     0.004 A 
ATOM      4  C   UNL     1     -18.054 -10.283   2.313  0.00  0.00     0.006 A 
ATOM      5  C   UNL     1     -18.988 -11.381   2.648  0.00  0.00     0.169 C 
ATOM      6  C   UNL     1     -15.693  -9.792   2.410  0.00  0.00    -0.001 A 
ATOM      7  C   UNL     1     -18.337  -9.031   1.794  0.00  0.00     0.008 A 
ATOM      8  C   UNL     1     -15.962  -8.528   1.883  0.00  0.00     0.010 A 
ATOM      9  C   UNL     1     -17.278  -8.149   1.577  0.00  0.00     0.068 A 
ATOM     10  N   UNL     1     -17.743  -5.793   0.605  0.00  0.00    -0.191 NA
ATOM     11  C   UNL     1     -17.534  -6.850   1.040  0.00  0.00     0.101 C 
ENDROOT
BRANCH   2  12
ATOM     12  C   UNL     1     -16.349 -12.117   4.635  0.00  0.00     0.038 C 
BRANCH  12  13
ATOM     13  C   UNL     1     -17.215 -13.109   5.409  0.00  0.00     0.038 C 
BRANCH  13  14
ATOM     14  C   UNL     1     -16.485 -14.435   5.612  0.00  0.00     0.251 C 
BRANCH  14  15
ATOM     15  N   UNL     1     -17.442 -15.526   5.748  0.00  0.00     0.141 N 
ATOM     16  C   UNL     1     -18.277 -15.335   6.935  0.00  0.00     0.285 C 
ATOM     17  C   UNL     1     -18.278 -15.631   4.551  0.00  0.00     0.285 C 
ENDBRANCH  14  15
ENDBRANCH  13  14
ENDBRANCH  12  13
ENDBRANCH   2  12
BRANCH   2  18
ATOM     18  C   UNL     1     -15.933 -13.003   2.348  0.00  0.00     0.006 A 
ATOM     19  C   UNL     1     -14.551 -12.840   2.267  0.00  0.00     0.001 A 
ATOM     20  C   UNL     1     -13.789 -13.724   1.502  0.00  0.00     0.029 A 
ATOM     21  C   UNL     1     -14.410 -14.769   0.820  0.00  0.00     0.140 A 
ATOM     22  C   UNL     1     -15.792 -14.932   0.901  0.00  0.00     0.029 A 
ATOM     23  F   UNL     1     -13.678 -15.618   0.087  0.00  0.00    -0.204 F 
ATOM     24  C   UNL     1     -16.556 -14.048   1.666  0.00  0.00     0.001 A 
ENDBRANCH   2  18
TORSDOF 5
ENDMDL
MODEL 4
REMARK VINA RESULT:    -6.007     13.281     16.963
REMARK INTER + INTRA:          -8.787
REMARK INTER:                  -7.659
REMARK INTRA:                  -1.127
REMARK UNBOUND:                -1.024
REMARK  5 active torsions:
REMARK  status: ('A' for Active; 'I' for Inactive)
REMARK    1  A    between atoms: C_2  and  C_19 
REMARK    2  A    between atoms: C_2  and  C_11 
REMARK    3  A    between atoms: C_19  and  C_20 
REMARK    4  A    between atoms: C_20  and  C_21 
REMARK    5  A    between atoms: C_21  and  N_22 
ROOT
ATOM      1  O   UNL     1     -16.715 -11.556   3.958  0.00  0.00    -0.346 OA
ATOM      2  C   UNL     1     -18.057 -11.522   3.375  0.00  0.00     0.130 C 
ATOM      3  C   UNL     1     -18.095 -10.215   2.636  0.00  0.00     0.004 A 
ATOM      4  C   UNL     1     -16.848  -9.608   2.697  0.00  0.00     0.006 A 
ATOM      5  C   UNL     1     -15.910 -10.463   3.458  0.00  0.00     0.169 C 
ATOM      6  C   UNL     1     -19.145  -9.618   1.954  0.00  0.00    -0.001 A 
ATOM      7  C   UNL     1     -16.610  -8.389   2.087  0.00  0.00     0.008 A 
ATOM      8  C   UNL     1     -18.922  -8.386   1.337  0.00  0.00     0.010 A 
ATOM      9  C   UNL     1     -17.661  -7.775   1.403  0.00  0.00     0.068 A 
ATOM     10  N   UNL     1     -17.279  -5.490   0.242  0.00  0.00    -0.191 NA
ATOM     11  C   UNL     1     -17.450  -6.514   0.763  0.00  0.00     0.101 C 
ENDROOT
BRANCH   2  12
ATOM     12  C   UNL     1     -18.217 -12.728   2.457  0.00  0.00     0.038 C 
BRANCH  12  13
ATOM     13  C   UNL     1     -17.226 -13.834   2.814  0.00  0.00     0.038 C 
BRANCH  13  14
ATOM     14  C   UNL     1     -16.345 -14.190   1.618  0.00  0.00     0.251 C 
BRANCH  14  15
ATOM     15  N   UNL     1     -14.940 -13.974   1.940  0.00  0.00     0.141 N 
ATOM     16  C   UNL     1     -14.618 -14.540   3.251  0.00  0.00     0.285 C 
ATOM     17  C   UNL     1     -14.079 -14.558   0.910  0.00  0.00     0.285 C 
ENDBRANCH  14  15
ENDBRANCH  13  14
ENDBRANCH  12  13
ENDBRANCH   2  12
BRANCH   2  18
ATOM     18  C   UNL     1     -19.026 -11.576   4.509  0.00  0.00     0.006 A 
ATOM     19  C   UNL     1     -19.084 -10.528   5.427  0.00  0.00     0.001 A 
ATOM     20  C   UNL     1     -19.990 -10.581   6.487  0.00  0.00     0.029 A 
ATOM     21  C   UNL     1     -20.837 -11.679   6.627  0.00  0.00     0.140 A 
ATOM     22  C   UNL     1     -20.778 -12.727   5.708  0.00  0.00     0.029 A 
ATOM     23  F   UNL     1     -21.708 -11.729   7.643  0.00  0.00    -0.204 F 
ATOM     24  C   UNL     1     -19.872 -12.676   4.648  0.00  0.00     0.001 A 
ENDBRANCH   2  18
TORSDOF 5
ENDMDL
MODEL 5
REMARK VINA RESULT:    -5.946      6.006      8.596
REMARK INTER + INTRA:          -8.708
REMARK INTER:                  -7.274
REMARK INTRA:                  -1.434
REMARK UNBOUND:                -1.024
REMARK  5 active torsions:
REMARK  status: ('A' for Active; 'I' for Inactive)
REMARK    1  A    between atoms: C_2  and  C_19 
REMARK    2  A    between atoms: C_2  and  C_11 
REMARK    3  A    between atoms: C_19  and  C_20 
REMARK    4  A    between atoms: C_20  and  C_21 
REMARK    5  A    between atoms: C_21  and  N_22 
ROOT
ATOM      1  O   UNL     1     -33.745  -2.790  18.939  0.00  0.00    -0.346 OA
ATOM      2  C   UNL     1     -32.907  -3.076  17.774  0.00  0.00     0.130 C 
ATOM      3  C   UNL     1     -33.179  -1.926  16.846  0.00  0.00     0.004 A 
ATOM      4  C   UNL     1     -34.011  -1.009  17.471  0.00  0.00     0.006 A 
ATOM      5  C   UNL     1     -34.334  -1.473  18.839  0.00  0.00     0.169 C 
ATOM      6  C   UNL     1     -32.716  -1.705  15.558  0.00  0.00    -0.001 A 
ATOM      7  C   UNL     1     -34.412   0.152  16.832  0.00  0.00     0.008 A 
ATOM      8  C   UNL     1     -33.114  -0.541  14.898  0.00  0.00     0.010 A 
ATOM      9  C   UNL     1     -33.958   0.383  15.533  0.00  0.00     0.068 A 
ATOM     10  N   UNL     1     -34.675   2.536  14.282  0.00  0.00    -0.191 NA
ATOM     11  C   UNL     1     -34.354   1.570  14.843  0.00  0.00     0.101 C 
ENDROOT
BRANCH   2  12
ATOM     12  C   UNL     1     -31.454  -3.141  18.228  0.00  0.00     0.038 C 
BRANCH  12  13
ATOM     13  C   UNL     1     -31.351  -3.438  19.723  0.00  0.00     0.038 C 
BRANCH  13  14
ATOM     14  C   UNL     1     -30.950  -4.892  19.968  0.00  0.00     0.251 C 
BRANCH  14  15
ATOM     15  N   UNL     1     -32.131  -5.706  20.229  0.00  0.00     0.141 N 
ATOM     16  C   UNL     1     -31.998  -7.023  19.604  0.00  0.00     0.285 C 
ATOM     17  C   UNL     1     -32.351  -5.848  21.670  0.00  0.00     0.285 C 
ENDBRANCH  14  15
ENDBRANCH  13  14
ENDBRANCH  12  13
ENDBRANCH   2  12
BRANCH   2  18
ATOM     18  C   UNL     1     -33.359  -4.387  17.223  0.00  0.00     0.006 A 
ATOM     19  C   UNL     1     -32.490  -5.151  16.444  0.00  0.00     0.001 A 
ATOM     20  C   UNL     1     -32.914  -6.377  15.929  0.00  0.00     0.029 A 
ATOM     21  C   UNL     1     -34.203  -6.836  16.193  0.00  0.00     0.140 A 
ATOM     22  C   UNL     1     -35.071  -6.072  16.972  0.00  0.00     0.029 A 
ATOM     23  F   UNL     1     -34.609  -8.014  15.700  0.00  0.00    -0.204 F 
ATOM     24  C   UNL     1     -34.649  -4.845  17.488  0.00  0.00     0.001 A 
ENDBRANCH   2  18
TORSDOF 5
ENDMDL
MODEL 6
REMARK VINA RESULT:    -5.789     14.252     17.175
REMARK INTER + INTRA:          -8.505
REMARK INTER:                  -7.367
REMARK INTRA:                  -1.138
REMARK UNBOUND:                -1.024
REMARK  5 active torsions:
REMARK  status: ('A' for Active; 'I' for Inactive)
REMARK    1  A    between atoms: C_2  and  C_19 
REMARK    2  A    between atoms: C_2  and  C_11 
REMARK    3  A    between atoms: C_19  and  C_20 
REMARK    4  A    between atoms: C_20  and  C_21 
REMARK    5  A    between atoms: C_21  and  N_22 
ROOT
ATOM      1  O   UNL     1     -16.225 -12.922   4.344  0.00  0.00    -0.346 OA
ATOM      2  C   UNL     1     -17.451 -13.167   3.583  0.00  0.00     0.130 C 
ATOM      3  C   UNL     1     -17.837 -11.808   3.075  0.00  0.00     0.004 A 
ATOM      4  C   UNL     1     -16.859 -10.886   3.420  0.00  0.00     0.006 A 
ATOM      5  C   UNL     1     -15.769 -11.562   4.158  0.00  0.00     0.169 C 
ATOM      6  C   UNL     1     -18.958 -11.421   2.355  0.00  0.00    -0.001 A 
ATOM      7  C   UNL     1     -16.968  -9.552   3.063  0.00  0.00     0.008 A 
ATOM      8  C   UNL     1     -19.085 -10.079   1.991  0.00  0.00     0.010 A 
ATOM      9  C   UNL     1     -18.094  -9.150   2.344  0.00  0.00     0.068 A 
ATOM     10  N   UNL     1     -18.359  -6.668   1.649  0.00  0.00    -0.191 NA
ATOM     11  C   UNL     1     -18.240  -7.781   1.961  0.00  0.00     0.101 C 
ENDROOT
BRANCH   2  12
ATOM     12  C   UNL     1     -17.136 -14.152   2.464  0.00  0.00     0.038 C 
BRANCH  12  13
ATOM     13  C   UNL     1     -15.729 -14.729   2.609  0.00  0.00     0.038 C 
BRANCH  13  14
ATOM     14  C   UNL     1     -14.886 -14.439   1.369  0.00  0.00     0.251 C 
BRANCH  14  15
ATOM     15  N   UNL     1     -13.520 -14.101   1.751  0.00  0.00     0.141 N 
ATOM     16  C   UNL     1     -13.295 -12.659   1.641  0.00  0.00     0.285 C 
ATOM     17  C   UNL     1     -13.239 -14.555   3.114  0.00  0.00     0.285 C 
ENDBRANCH  14  15
ENDBRANCH  13  14
ENDBRANCH  12  13
ENDBRANCH   2  12
BRANCH   2  18
ATOM     18  C   UNL     1     -18.449 -13.736   4.536  0.00  0.00     0.006 A 
ATOM     19  C   UNL     1     -18.717 -15.104   4.530  0.00  0.00     0.001 A 
ATOM     20  C   UNL     1     -19.650 -15.635   5.421  0.00  0.00     0.029 A 
ATOM     21  C   UNL     1     -20.313 -14.797   6.317  0.00  0.00     0.140 A 
ATOM     22  C   UNL     1     -20.045 -13.429   6.323  0.00  0.00     0.029 A 
ATOM     23  F   UNL     1     -21.208 -15.307   7.174  0.00  0.00    -0.204 F 
ATOM     24  C   UNL     1     -19.111 -12.897   5.432  0.00  0.00     0.001 A 
ENDBRANCH   2  18
TORSDOF 5
ENDMDL
MODEL 7
REMARK VINA RESULT:    -5.643      3.330      6.118
REMARK INTER + INTRA:          -8.317
REMARK INTER:                  -7.219
REMARK INTRA:                  -1.098
REMARK UNBOUND:                -1.024
REMARK  5 active torsions:
REMARK  status: ('A' for Active; 'I' for Inactive)
REMARK    1  A    between atoms: C_2  and  C_19 
REMARK    2  A    between atoms: C_2  and  C_11 
REMARK    3  A    between atoms: C_19  and  C_20 
REMARK    4  A    between atoms: C_20  and  C_21 
REMARK    5  A    between atoms: C_21  and  N_22 
ROOT
ATOM      1  O   UNL     1     -29.787  -8.621  15.655  0.00  0.00    -0.346 OA
ATOM      2  C   UNL     1     -30.765  -8.151  14.672  0.00  0.00     0.130 C 
ATOM      3  C   UNL     1     -30.053  -7.037  13.961  0.00  0.00     0.004 A 
ATOM      4  C   UNL     1     -28.746  -6.951  14.419  0.00  0.00     0.006 A 
ATOM      5  C   UNL     1     -28.501  -7.993  15.440  0.00  0.00     0.169 C 
ATOM      6  C   UNL     1     -30.521  -6.177  12.978  0.00  0.00    -0.001 A 
ATOM      7  C   UNL     1     -27.868  -6.005  13.918  0.00  0.00     0.008 A 
ATOM      8  C   UNL     1     -29.649  -5.215  12.466  0.00  0.00     0.010 A 
ATOM      9  C   UNL     1     -28.329  -5.130  12.933  0.00  0.00     0.068 A 
ATOM     10  N   UNL     1     -26.735  -3.335  11.957  0.00  0.00    -0.191 NA
ATOM     11  C   UNL     1     -27.450  -4.140  12.395  0.00  0.00     0.101 C 
ENDROOT
BRANCH   2  12
ATOM     12  C   UNL     1     -31.120  -9.312  13.751  0.00  0.00     0.038 C 
BRANCH  12  13
ATOM     13  C   UNL     1     -30.219 -10.519  14.004  0.00  0.00     0.038 C 
BRANCH  13  14
ATOM     14  C   UNL     1     -29.186 -10.676  12.890  0.00  0.00     0.251 C 
BRANCH  14  15
ATOM     15  N   UNL     1     -27.851 -10.368  13.390  0.00  0.00     0.141 N 
ATOM     16  C   UNL     1     -27.116 -11.597  13.691  0.00  0.00     0.285 C 
ATOM     17  C   UNL     1     -27.112  -9.560  12.419  0.00  0.00     0.285 C 
ENDBRANCH  14  15
ENDBRANCH  13  14
ENDBRANCH  12  13
ENDBRANCH   2  12
BRANCH   2  18
ATOM     18  C   UNL     1     -31.959  -7.684  15.435  0.00  0.00     0.006 A 
ATOM     19  C   UNL     1     -33.239  -8.040  15.012  0.00  0.00     0.001 A 
ATOM     20  C   UNL     1     -34.355  -7.602  15.726  0.00  0.00     0.029 A 
ATOM     21  C   UNL     1     -34.190  -6.810  16.862  0.00  0.00     0.140 A 
ATOM     22  C   UNL     1     -32.909  -6.454  17.284  0.00  0.00     0.029 A 
ATOM     23  F   UNL     1     -35.261  -6.391  17.548  0.00  0.00    -0.204 F 
ATOM     24  C   UNL     1     -31.792  -6.891  16.570  0.00  0.00     0.001 A 
ENDBRANCH   2  18
TORSDOF 5
ENDMDL
MODEL 8
REMARK VINA RESULT:    -5.411     17.357     21.801
REMARK INTER + INTRA:          -8.017
REMARK INTER:                  -6.762
REMARK INTRA:                  -1.255
REMARK UNBOUND:                -1.024
REMARK  5 active torsions:
REMARK  status: ('A' for Active; 'I' for Inactive)
REMARK    1  A    between atoms: C_2  and  C_19 
REMARK    2  A    between atoms: C_2  and  C_11 
REMARK    3  A    between atoms: C_19  and  C_20 
REMARK    4  A    between atoms: C_20  and  C_21 
REMARK    5  A    between atoms: C_21  and  N_22 
ROOT
ATOM      1  O   UNL     1     -15.739  -5.752  -1.974  0.00  0.00    -0.346 OA
ATOM      2  C   UNL     1     -14.555  -5.632  -1.123  0.00  0.00     0.130 C 
ATOM      3  C   UNL     1     -14.366  -4.150  -0.975  0.00  0.00     0.004 A 
ATOM      4  C   UNL     1     -15.413  -3.482  -1.594  0.00  0.00     0.006 A 
ATOM      5  C   UNL     1     -16.360  -4.460  -2.175  0.00  0.00     0.169 C 
ATOM      6  C   UNL     1     -13.355  -3.450  -0.334  0.00  0.00    -0.001 A 
ATOM      7  C   UNL     1     -15.483  -2.100  -1.598  0.00  0.00     0.008 A 
ATOM      8  C   UNL     1     -13.409  -2.055  -0.333  0.00  0.00     0.010 A 
ATOM      9  C   UNL     1     -14.468  -1.384  -0.962  0.00  0.00     0.068 A 
ATOM     10  N   UNL     1     -14.542   1.206  -0.937  0.00  0.00    -0.191 NA
ATOM     11  C   UNL     1     -14.509   0.045  -0.949  0.00  0.00     0.101 C 
ENDROOT
BRANCH   2  12
ATOM     12  C   UNL     1     -14.840  -6.329   0.202  0.00  0.00     0.038 C 
BRANCH  12  13
ATOM     13  C   UNL     1     -16.339  -6.538   0.410  0.00  0.00     0.038 C 
BRANCH  13  14
ATOM     14  C   UNL     1     -16.825  -5.819   1.666  0.00  0.00     0.251 C 
BRANCH  14  15
ATOM     15  N   UNL     1     -17.499  -4.576   1.310  0.00  0.00     0.141 N 
ATOM     16  C   UNL     1     -18.859  -4.553   1.851  0.00  0.00     0.285 C 
ATOM     17  C   UNL     1     -16.741  -3.421   1.794  0.00  0.00     0.285 C 
ENDBRANCH  14  15
ENDBRANCH  13  14
ENDBRANCH  12  13
ENDBRANCH   2  12
BRANCH   2  18
ATOM     18  C   UNL     1     -13.429  -6.293  -1.847  0.00  0.00     0.006 A 
ATOM     19  C   UNL     1     -12.840  -5.662  -2.942  0.00  0.00     0.001 A 
ATOM     20  C   UNL     1     -11.788  -6.281  -3.619  0.00  0.00     0.029 A 
ATOM     21  C   UNL     1     -11.326  -7.527  -3.199  0.00  0.00     0.140 A 
ATOM     22  C   UNL     1     -11.916  -8.157  -2.104  0.00  0.00     0.029 A 
ATOM     23  F   UNL     1     -10.315  -8.120  -3.848  0.00  0.00    -0.204 F 
ATOM     24  C   UNL     1     -12.969  -7.540  -1.427  0.00  0.00     0.001 A 
ENDBRANCH   2  18
TORSDOF 5
ENDMDL
MODEL 9
REMARK VINA RESULT:    -5.392     14.571     17.046
REMARK INTER + INTRA:          -7.992
REMARK INTER:                  -6.828
REMARK INTRA:                  -1.164
REMARK UNBOUND:                -1.024
REMARK  5 active torsions:
REMARK  status: ('A' for Active; 'I' for Inactive)
REMARK    1  A    between atoms: C_2  and  C_19 
REMARK    2  A    between atoms: C_2  and  C_11 
REMARK    3  A    between atoms: C_19  and  C_20 
REMARK    4  A    between atoms: C_20  and  C_21 
REMARK    5  A    between atoms: C_21  and  N_22 
ROOT
ATOM      1  O   UNL     1     -16.140 -11.630   4.459  0.00  0.00    -0.346 OA
ATOM      2  C   UNL     1     -16.515 -12.736   3.577  0.00  0.00     0.130 C 
ATOM      3  C   UNL     1     -17.494 -13.530   4.393  0.00  0.00     0.004 A 
ATOM      4  C   UNL     1     -17.741 -12.877   5.592  0.00  0.00     0.006 A 
ATOM      5  C   UNL     1     -16.965 -11.618   5.647  0.00  0.00     0.169 C 
ATOM      6  C   UNL     1     -18.124 -14.729   4.093  0.00  0.00    -0.001 A 
ATOM      7  C   UNL     1     -18.618 -13.397   6.529  0.00  0.00     0.008 A 
ATOM      8  C   UNL     1     -19.007 -15.269   5.029  0.00  0.00     0.010 A 
ATOM      9  C   UNL     1     -19.253 -14.606   6.241  0.00  0.00     0.068 A 
ATOM     10  N   UNL     1     -20.902 -15.634   7.955  0.00  0.00    -0.191 NA
ATOM     11  C   UNL     1     -20.162 -15.173   7.187  0.00  0.00     0.101 C 
ENDROOT
BRANCH   2  12
ATOM     12  C   UNL     1     -17.132 -12.155   2.311  0.00  0.00     0.038 C 
BRANCH  12  13
ATOM     13  C   UNL     1     -17.141 -10.628   2.345  0.00  0.00     0.038 C 
BRANCH  13  14
ATOM     14  C   UNL     1     -18.569 -10.087   2.378  0.00  0.00     0.251 C 
BRANCH  14  15
ATOM     15  N   UNL     1     -18.591  -8.749   2.957  0.00  0.00     0.141 N 
ATOM     16  C   UNL     1     -17.285  -8.410   3.523  0.00  0.00     0.285 C 
ATOM     17  C   UNL     1     -18.980  -7.759   1.951  0.00  0.00     0.285 C 
ENDBRANCH  14  15
ENDBRANCH  13  14
ENDBRANCH  12  13
ENDBRANCH   2  12
BRANCH   2  18
ATOM     18  C   UNL     1     -15.266 -13.492   3.270  0.00  0.00     0.006 A 
ATOM     19  C   UNL     1     -14.777 -13.528   1.965  0.00  0.00     0.001 A 
ATOM     20  C   UNL     1     -13.609 -14.236   1.679  0.00  0.00     0.029 A 
ATOM     21  C   UNL     1     -12.932 -14.905   2.697  0.00  0.00     0.140 A 
ATOM     22  C   UNL     1     -13.421 -14.868   4.002  0.00  0.00     0.029 A 
ATOM     23  F   UNL     1     -11.809 -15.583   2.422  0.00  0.00    -0.204 F 
ATOM     24  C   UNL     1     -14.590 -14.161   4.290  0.00  0.00     0.001 A 
ENDBRANCH   2  18
TORSDOF 5
ENDMDL
