REMARK  Name = ZINC000062723655
REMARK                            x       y       z     vdW  Elec       q    Type
REMARK                         _______ _______ _______ _____ _____    ______ ____
ROOT
ATOM      1  C   LIG    1        0.440  -0.650  -1.200  0.00  0.00    +0.220 A 
ATOM      2  C   LIG    1        1.074   0.003  -2.249  0.00  0.00    -0.010 A 
ATOM      3  C   LIG    1        1.838  -0.716  -3.148  0.00  0.00    +0.080 A 
ATOM      4  C   LIG    1        1.971  -2.084  -3.004  0.00  0.00    +0.020 A 
ATOM      5  C   LIG    1        1.341  -2.738  -1.962  0.00  0.00    +0.010 A 
ATOM      6  C   LIG    1        0.580  -2.025  -1.056  0.00  0.00    -0.110 A 
ATOM      7  C   LIG    1       -0.107  -2.738   0.080  0.00  0.00    +0.120 C 
ENDROOT
BRANCH   1   9
ATOM      8  C   LIG    1       -0.480   1.523  -0.443  0.00  0.00    +0.290 C 
ATOM      9  N   LIG    1       -0.333   0.074  -0.290  0.00  0.00    -0.740 N 
ATOM     10  H   LIG    1       -0.772  -0.383   0.445  0.00  0.00    +0.410 HD
ENDBRANCH   1   9
BRANCH   5  11
ATOM     11  N   LIG    1        1.486  -4.204  -1.812  0.00  0.00    +0.020 N 
ATOM     12  O   LIG    1        1.522  -4.916  -2.799  0.00  0.00    -0.150 OA
ATOM     13  O   LIG    1        1.570  -4.697  -0.702  0.00  0.00    -0.150 OA
ENDBRANCH   5  11
TORSDOF 2
