REMARK  Name = ZINC000083253825
REMARK                            x       y       z     vdW  Elec       q    Type
REMARK                         _______ _______ _______ _____ _____    ______ ____
ROOT
ATOM      1  C   LIG    1       -1.412  -0.526   0.013  0.00  0.00    +0.280 A 
ATOM      2  N   LIG    1       -2.116  -0.782  -1.048  0.00  0.00    -0.460 NA
ATOM      3  C   LIG    1       -3.340  -1.236  -0.663  0.00  0.00    +0.070 A 
ATOM      4  C   LIG    1       -4.478  -1.652  -1.355  0.00  0.00    +0.000 A 
ATOM      5  C   LIG    1       -5.590  -2.065  -0.655  0.00  0.00    +0.130 A 
ATOM      6  C   LIG    1       -5.585  -2.069   0.732  0.00  0.00    +0.070 A 
ATOM      7  C   LIG    1       -4.468  -1.660   1.429  0.00  0.00    +0.130 A 
ATOM      8  C   LIG    1       -3.340  -1.241   0.741  0.00  0.00    +0.010 A 
ATOM      9  O   LIG    1       -2.121  -0.798   1.120  0.00  0.00    -0.190 OA
ENDROOT
BRANCH   4  10
ATOM     10  N   LIG    1       -4.489  -1.651  -2.835  0.00  0.00    +0.030 N 
ATOM     11  O   LIG    1       -3.504  -1.286  -3.451  0.00  0.00    -0.120 OA
ATOM     12  O   LIG    1       -5.484  -2.015  -3.436  0.00  0.00    -0.170 OA
ENDBRANCH   4  10
BRANCH   1  13
ATOM     13  C   LIG    1        0.002  -0.004   0.002  0.00  0.00    +0.350 C 
BRANCH  13  14
ATOM     14  N   LIG    1       -0.018   1.465   0.010  0.00  0.00    -0.840 NA
ATOM     15  H   LIG    1       -0.556   1.823  -0.764  0.00  0.00    +0.350 HD
ATOM     16  H   LIG    1        0.919   1.839   0.003  0.00  0.00    +0.360 HD
ENDBRANCH  13  14
ENDBRANCH   1  13
TORSDOF 3
