REMARK  Name = ZINC000034140391
REMARK                            x       y       z     vdW  Elec       q    Type
REMARK                         _______ _______ _______ _____ _____    ______ ____
ROOT
ATOM      1  C   LIG    1       -1.201  -0.765   0.266  0.00  0.00    +0.300 A 
ATOM      2  C   LIG    1       -2.410  -0.092   0.381  0.00  0.00    -0.020 A 
ATOM      3  C   LIG    1       -3.599  -0.757   0.132  0.00  0.00    +0.140 A 
ATOM      4  C   LIG    1       -3.579  -2.101  -0.232  0.00  0.00    -0.020 A 
ATOM      5  O   LIG    1       -4.866  -2.521  -0.420  0.00  0.00    -0.300 OA
ATOM      6  C   LIG    1       -5.690  -1.535   0.229  0.00  0.00    +0.440 C 
ATOM      7  C   LIG    1       -2.371  -2.770  -0.345  0.00  0.00    +0.160 A 
ATOM      8  O   LIG    1       -4.896  -0.335   0.173  0.00  0.00    -0.300 OA
ATOM      9  C   LIG    1       -1.185  -2.104  -0.103  0.00  0.00    -0.120 A 
ENDROOT
BRANCH   1  11
ATOM     10  C   LIG    1       -0.006   1.348   0.775  0.00  0.00    +0.300 C 
ATOM     11  N   LIG    1        0.001  -0.094   0.518  0.00  0.00    -0.720 N 
ATOM     12  H   LIG    1        0.838  -0.584   0.521  0.00  0.00    +0.420 HD
ENDBRANCH   1  11
BRANCH   9  13
ATOM     13  N   LIG    1        0.104  -2.822  -0.224  0.00  0.00    +0.040 N 
ATOM     14  O   LIG    1        0.191  -3.982   0.136  0.00  0.00    -0.140 OA
ATOM     15  O   LIG    1        1.077  -2.252  -0.684  0.00  0.00    -0.170 OA
ENDBRANCH   9  13
TORSDOF 2
