REMARK  Name = ZINC000032917102
REMARK                            x       y       z     vdW  Elec       q    Type
REMARK                         _______ _______ _______ _____ _____    ______ ____
ROOT
ATOM      1  C   LIG    1       -2.865  -2.425   0.016  0.00  0.00    -0.030 A 
ATOM      2  C   LIG    1       -3.175  -3.769   0.018  0.00  0.00    +0.140 A 
ATOM      3  C   LIG    1       -4.570  -3.865   0.028  0.00  0.00    -0.140 A 
ATOM      4  C   LIG    1       -5.073  -2.607   0.033  0.00  0.00    +0.330 A 
ATOM      5  N   LIG    1       -4.051  -1.726   0.032  0.00  0.00    -0.400 N 
ATOM      6  C   LIG    1       -4.183  -0.267   0.035  0.00  0.00    +0.360 C 
ENDROOT
BRANCH   3   7
ATOM      7  N   LIG    1       -5.357  -5.119   0.034  0.00  0.00    +0.060 N 
ATOM      8  O   LIG    1       -6.574  -5.074   0.044  0.00  0.00    -0.170 OA
ATOM      9  O   LIG    1       -4.787  -6.196   0.029  0.00  0.00    -0.160 OA
ENDBRANCH   3   7
BRANCH   1  10
ATOM     10  C   LIG    1       -1.519  -1.846   0.007  0.00  0.00    +0.540 C 
ATOM     11  O   LIG    1       -0.544  -2.574  -0.007  0.00  0.00    -0.480 OA
BRANCH  10  12
ATOM     12  O   LIG    1       -1.360  -0.507   0.012  0.00  0.00    -0.360 OA
BRANCH  12  14
ATOM     13  C   LIG    1       -0.019   1.526   0.010  0.00  0.00    +0.080 C 
ATOM     14  C   LIG    1        0.002  -0.004   0.002  0.00  0.00    +0.220 C 
ENDBRANCH  12  14
ENDBRANCH  10  12
ENDBRANCH   1  10
TORSDOF 4
