REMARK  Name = ZINC000001753293
REMARK                            x       y       z     vdW  Elec       q    Type
REMARK                         _______ _______ _______ _____ _____    ______ ____
ROOT
ATOM      1  C   LIG    1        0.013  -2.631  -2.600  0.00  0.00    -0.110 A 
ATOM      2  C   LIG    1       -1.187  -2.869  -3.244  0.00  0.00    +0.100 A 
ATOM      3  C   LIG    1       -1.193  -3.323  -4.550  0.00  0.00    +0.030 A 
ATOM      4  C   LIG    1        0.001  -3.538  -5.212  0.00  0.00    +0.110 A 
ATOM      5  C   LIG    1        1.201  -3.300  -4.569  0.00  0.00    -0.040 A 
ATOM      6  C   LIG    1        1.207  -2.842  -3.265  0.00  0.00    +0.120 A 
ENDROOT
BRANCH   5   7
ATOM      7  N   LIG    1        2.480  -3.531  -5.278  0.00  0.00    +0.030 N 
ATOM      8  O   LIG    1        3.537  -3.321  -4.711  0.00  0.00    -0.160 OA
ATOM      9  O   LIG    1        2.474  -3.931  -6.428  0.00  0.00    -0.150 OA
ENDBRANCH   5   7
BRANCH   1  10
ATOM     10  C   LIG    1        0.020  -2.136  -1.177  0.00  0.00    +0.330 C 
BRANCH  10  13
ATOM     11  C   LIG    1       -0.018   1.503   0.010  0.00  0.00    +0.110 C 
ATOM     12  C   LIG    1        0.002  -0.004   0.002  0.00  0.00    +0.510 C 
ATOM     13  N   LIG    1        0.000  -0.672  -1.169  0.00  0.00    -0.730 N 
ATOM     14  H   LIG    1       -0.015  -0.182  -2.006  0.00  0.00    +0.400 HD
ATOM     15  O   LIG    1        0.020  -0.616   1.049  0.00  0.00    -0.540 OA
ENDBRANCH  10  13
ENDBRANCH   1  10
TORSDOF 3
