REMARK  Name = ZINC000001598151
REMARK                            x       y       z     vdW  Elec       q    Type
REMARK                         _______ _______ _______ _____ _____    ______ ____
ROOT
ATOM      1  C   LIG    1       -0.265   1.499  -0.106  0.00  0.00    +0.100 C 
ATOM      2  C   LIG    1        0.002  -0.004   0.002  0.00  0.00    +0.030 C 
ATOM      3  C   LIG    1       -1.314  -0.767   0.277  0.00  0.00    +0.070 C 
ATOM      4  C   LIG    1       -1.087  -1.461   1.655  0.00  0.00    +0.010 C 
ATOM      5  C   LIG    1       -0.054  -2.591   1.357  0.00  0.00    +0.010 C 
ATOM      6  C   LIG    1        1.270  -1.845   1.072  0.00  0.00    -0.000 C 
ATOM      7  C   LIG    1       -0.184  -0.395   2.371  0.00  0.00    +0.050 C 
ATOM      8  C   LIG    1        0.901  -0.309   1.239  0.00  0.00    +0.030 C 
ENDROOT
BRANCH   2   9
ATOM      9  N   LIG    1        0.635  -0.498  -1.223  0.00  0.00    -0.010 N 
ATOM     10  O   LIG    1        0.041  -1.282  -1.942  0.00  0.00    -0.160 OA
ATOM     11  O   LIG    1        1.756  -0.126  -1.523  0.00  0.00    -0.160 OA
ENDBRANCH   2   9
TORSDOF 1
