REMARK  Name = ZINC000095532215
REMARK                            x       y       z     vdW  Elec       q    Type
REMARK                         _______ _______ _______ _____ _____    ______ ____
ROOT
ATOM      1  C   LIG    1       -1.311   1.977  -0.221  0.00  0.00    -0.010 A 
ATOM      2  C   LIG    1       -2.496   1.276  -0.316  0.00  0.00    +0.080 A 
ATOM      3  C   LIG    1       -3.700   1.911  -0.068  0.00  0.00    +0.050 A 
ATOM      4  C   LIG    1       -3.723   3.250   0.276  0.00  0.00    +0.070 A 
ATOM      5  C   LIG    1       -2.544   3.961   0.374  0.00  0.00    +0.090 A 
ATOM      6  C   LIG    1       -1.328   3.325   0.132  0.00  0.00    +0.040 A 
ENDROOT
BRANCH   6   7
ATOM      7  C   LIG    1       -0.057   4.084   0.236  0.00  0.00    +0.230 A 
ATOM      8  N   LIG    1        1.151   3.572   0.145  0.00  0.00    -0.270 NA
ATOM      9  N   LIG    1        2.053   4.637   0.299  0.00  0.00    -0.470 N 
ATOM     10  H   LIG    1        3.021   4.585   0.282  0.00  0.00    +0.450 HD
ATOM     11  C   LIG    1        1.310   5.745   0.476  0.00  0.00    +0.500 A 
ATOM     12  N   LIG    1        0.049   5.405   0.432  0.00  0.00    -0.530 NA
ENDBRANCH   6   7
BRANCH   1  14
ATOM     13  O   LIG    1        0.799   1.814  -1.221  0.00  0.00    -0.100 OA
ATOM     14  N   LIG    1       -0.023   1.297  -0.487  0.00  0.00    +0.020 N 
ATOM     15  O   LIG    1        0.216   0.222   0.034  0.00  0.00    -0.170 OA
ENDBRANCH   1  14
TORSDOF 2
