REMARK  Name = ZINC000072334133
REMARK                            x       y       z     vdW  Elec       q    Type
REMARK                         _______ _______ _______ _____ _____    ______ ____
ROOT
ATOM      1  C   LIG    1       -0.018   1.503   0.010  0.00  0.00    +0.180 C 
ATOM      2  C   LIG    1        0.002  -0.004   0.002  0.00  0.00    +0.070 A 
ATOM      3  N   LIG    1        0.008  -0.765  -1.062  0.00  0.00    -0.220 NA
ATOM      4  N   LIG    1        0.028  -2.102  -0.644  0.00  0.00    -0.330 N 
ATOM      5  C   LIG    1        0.034  -2.115   0.706  0.00  0.00    +0.120 A 
ATOM      6  C   LIG    1        0.024  -0.830   1.131  0.00  0.00    +0.020 A 
ENDROOT
BRANCH   5   7
ATOM      7  N   LIG    1        0.054  -3.319   1.567  0.00  0.00    +0.050 N 
ATOM      8  O   LIG    1        0.057  -3.200   2.779  0.00  0.00    -0.110 OA
ATOM      9  O   LIG    1        0.067  -4.428   1.063  0.00  0.00    -0.160 OA
ENDBRANCH   5   7
BRANCH   4  10
ATOM     10  C   LIG    1        0.041  -3.278  -1.517  0.00  0.00    +0.260 C 
ATOM     11  C   LIG    1        1.286  -3.241  -2.405  0.00  0.00    +0.060 C 
ATOM     12  C   LIG    1       -1.212  -3.276  -2.395  0.00  0.00    +0.060 C 
ENDBRANCH   4  10
TORSDOF 2
