REMARK  Name = ZINC000014980233
REMARK                            x       y       z     vdW  Elec       q    Type
REMARK                         _______ _______ _______ _____ _____    ______ ____
ROOT
ATOM      1  O   LIG    1        0.002  -0.004   0.002  0.00  0.00    -0.480 OA
ATOM      2  C   LIG    1       -0.014   1.214   0.009  0.00  0.00    +0.560 A 
ATOM      3  N   LIG    1       -1.109   2.007   0.029  0.00  0.00    -0.560 N 
ATOM      4  H   LIG    1       -2.029   1.700   0.041  0.00  0.00    +0.470 HD
ATOM      5  O   LIG    1       -0.692   3.358   0.030  0.00  0.00    -0.030 OA
ATOM      6  C   LIG    1        0.654   3.422   0.010  0.00  0.00    +0.160 A 
ATOM      7  C   LIG    1        1.546   4.490   0.002  0.00  0.00    +0.050 A 
ATOM      8  C   LIG    1        2.903   4.254  -0.020  0.00  0.00    +0.190 A 
ATOM      9  C   LIG    1        3.395   2.957  -0.034  0.00  0.00    -0.080 A 
ATOM     10  C   LIG    1        2.530   1.886  -0.026  0.00  0.00    +0.230 A 
ATOM     11  C   LIG    1        1.153   2.109   0.002  0.00  0.00    -0.240 A 
ENDROOT
BRANCH   9  12
ATOM     12  N   LIG    1        4.857   2.724  -0.057  0.00  0.00    +0.030 N 
ATOM     13  O   LIG    1        5.292   1.586  -0.070  0.00  0.00    -0.150 OA
ATOM     14  O   LIG    1        5.625   3.669  -0.064  0.00  0.00    -0.150 OA
ENDBRANCH   9  12
TORSDOF 1
