REMARK  Name = ZINC000004300850
REMARK                            x       y       z     vdW  Elec       q    Type
REMARK                         _______ _______ _______ _____ _____    ______ ____
ROOT
ATOM      1  C   LIG    1       -0.538   1.446   0.086  0.00  0.00    +0.140 C 
ATOM      2  C   LIG    1       -0.247  -0.032   0.039  0.00  0.00    -0.010 A 
ATOM      3  C   LIG    1       -0.348  -0.717  -1.157  0.00  0.00    +0.050 A 
ATOM      4  C   LIG    1       -0.080  -2.077  -1.204  0.00  0.00    +0.110 A 
ATOM      5  C   LIG    1        0.293  -2.748  -0.046  0.00  0.00    +0.050 A 
ATOM      6  O   LIG    1        0.569  -4.081  -0.071  0.00  0.00    -0.300 OA
ATOM      7  C   LIG    1        0.099  -4.814  -1.208  0.00  0.00    +0.240 C 
ATOM      8  C   LIG    1        0.451  -4.017  -2.472  0.00  0.00    +0.240 C 
ATOM      9  C   LIG    1        0.392  -2.055   1.152  0.00  0.00    +0.110 A 
ATOM     10  O   LIG    1       -0.188  -2.739  -2.388  0.00  0.00    -0.300 OA
ATOM     11  C   LIG    1        0.127  -0.699   1.191  0.00  0.00    -0.040 A 
ENDROOT
BRANCH  11  12
ATOM     12  N   LIG    1        0.234   0.038   2.470  0.00  0.00    +0.030 N 
ATOM     13  O   LIG    1       -0.114  -0.493   3.509  0.00  0.00    -0.150 OA
ATOM     14  O   LIG    1        0.669   1.175   2.483  0.00  0.00    -0.140 OA
ENDBRANCH  11  12
TORSDOF 1
