REMARK  Name = ZINC000095922830
REMARK                            x       y       z     vdW  Elec       q    Type
REMARK                         _______ _______ _______ _____ _____    ______ ____
ROOT
ATOM      1  C   LIG    1       -1.306   1.936   0.019  0.00  0.00    -0.060 A 
ATOM      2  C   LIG    1       -1.327   3.325   0.021  0.00  0.00    +0.120 A 
ATOM      3  N   LIG    1       -0.348   4.299   0.015  0.00  0.00    -0.580 N 
ATOM      4  H   LIG    1        0.610   4.151   0.008  0.00  0.00    +0.440 HD
ATOM      5  C   LIG    1       -0.978   5.505   0.021  0.00  0.00    +0.520 A 
ATOM      6  N   LIG    1       -2.268   5.336   0.030  0.00  0.00    -0.470 NA
ATOM      7  C   LIG    1       -2.554   4.008   0.030  0.00  0.00    +0.010 A 
ATOM      8  C   LIG    1       -3.748   3.279   0.038  0.00  0.00    +0.220 A 
ATOM      9  C   LIG    1       -3.707   1.901   0.036  0.00  0.00    +0.000 A 
ATOM     10  F   LIG    1       -4.936   3.922   0.047  0.00  0.00    -0.100 F 
ATOM     11  C   LIG    1       -2.491   1.232   0.021  0.00  0.00    +0.180 A 
ENDROOT
BRANCH   1  13
ATOM     12  O   LIG    1        0.002  -0.004   0.002  0.00  0.00    -0.140 OA
ATOM     13  N   LIG    1       -0.014   1.214   0.009  0.00  0.00    +0.040 N 
ATOM     14  O   LIG    1        1.032   1.837   0.002  0.00  0.00    -0.190 OA
ENDBRANCH   1  13
TORSDOF 1
