REMARK  Name = ZINC000200922723
REMARK                            x       y       z     vdW  Elec       q    Type
REMARK                         _______ _______ _______ _____ _____    ______ ____
ROOT
ATOM      1  C   LIG    1       -0.018   1.503   0.010  0.00  0.00    +0.150 C 
ATOM      2  C   LIG    1        0.002  -0.004   0.002  0.00  0.00    -0.070 A 
ATOM      3  C   LIG    1        0.006  -0.707  -1.192  0.00  0.00    +0.110 A 
ATOM      4  C   LIG    1        0.026  -2.089  -1.161  0.00  0.00    +0.160 A 
ATOM      5  N   LIG    1        0.041  -2.739  -0.014  0.00  0.00    -0.410 NA
ATOM      6  C   LIG    1        0.037  -2.105   1.143  0.00  0.00    +0.300 A 
ATOM      7  C   LIG    1        0.023  -0.722   1.191  0.00  0.00    +0.100 A 
ATOM      8  F   LIG    1        0.020  -0.078   2.379  0.00  0.00    -0.100 F 
ENDROOT
BRANCH   4   9
ATOM      9  N   LIG    1        0.030  -2.849  -2.431  0.00  0.00    +0.030 N 
ATOM     10  O   LIG    1        0.047  -4.066  -2.412  0.00  0.00    -0.110 OA
ATOM     11  O   LIG    1        0.017  -2.256  -3.495  0.00  0.00    -0.150 OA
ENDBRANCH   4   9
TORSDOF 1
