REMARK  Name = ZINC000040442435
REMARK                            x       y       z     vdW  Elec       q    Type
REMARK                         _______ _______ _______ _____ _____    ______ ____
ROOT
ATOM      1  C   LIG    1       -0.012  -0.813  -1.222  0.00  0.00    -0.180 A 
ATOM      2  C   LIG    1        0.028  -0.215  -2.494  0.00  0.00    +0.250 A 
ATOM      3  C   LIG    1        0.046  -1.016  -3.629  0.00  0.00    +0.000 A 
ATOM      4  C   LIG    1        0.024  -2.390  -3.506  0.00  0.00    +0.100 A 
ATOM      5  C   LIG    1       -0.015  -2.984  -2.253  0.00  0.00    +0.050 A 
ATOM      6  C   LIG    1       -0.028  -2.209  -1.116  0.00  0.00    +0.030 A 
ENDROOT
BRANCH   1   8
ATOM      7  C   LIG    1       -1.345   0.376   0.634  0.00  0.00    +0.090 C 
ATOM      8  C   LIG    1       -0.032   0.020  -0.015  0.00  0.00    +0.410 C 
ATOM      9  O   LIG    1        1.009   0.422   0.462  0.00  0.00    -0.430 OA
ENDBRANCH   1   8
BRANCH   2  10
ATOM     10  N   LIG    1        0.050   1.167  -2.615  0.00  0.00    -0.860 N 
ATOM     11  H   LIG    1        0.004   1.577  -3.493  0.00  0.00    +0.410 HD
ATOM     12  H   LIG    1        0.112   1.722  -1.823  0.00  0.00    +0.400 HD
ENDBRANCH   2  10
BRANCH   6  13
ATOM     13  N   LIG    1       -0.070  -2.851   0.217  0.00  0.00    +0.020 N 
ATOM     14  O   LIG    1        0.024  -2.171   1.224  0.00  0.00    -0.160 OA
ATOM     15  O   LIG    1       -0.200  -4.059   0.308  0.00  0.00    -0.140 OA
ENDBRANCH   6  13
TORSDOF 3
