REMARK  Name = ZINC000074370121
REMARK                            x       y       z     vdW  Elec       q    Type
REMARK                         _______ _______ _______ _____ _____    ______ ____
ROOT
ATOM      1  C   LIG    1       -1.412  -0.526   0.013  0.00  0.00    -0.090 A 
ATOM      2  C   LIG    1       -2.122  -0.571   1.198  0.00  0.00    +0.150 A 
ATOM      3  C   LIG    1       -3.419  -1.048   1.208  0.00  0.00    +0.000 A 
ATOM      4  C   LIG    1       -4.006  -1.482   0.032  0.00  0.00    +0.170 A 
ATOM      5  C   LIG    1       -3.294  -1.437  -1.154  0.00  0.00    -0.080 A 
ATOM      6  F   LIG    1       -5.274  -1.949   0.042  0.00  0.00    -0.100 F 
ATOM      7  C   LIG    1       -1.999  -0.954  -1.164  0.00  0.00    +0.140 A 
ENDROOT
BRANCH   5   8
ATOM      8  N   LIG    1       -3.920  -1.899  -2.413  0.00  0.00    +0.030 N 
ATOM      9  O   LIG    1       -5.063  -2.320  -2.405  0.00  0.00    -0.140 OA
ATOM     10  O   LIG    1       -3.293  -1.859  -3.456  0.00  0.00    -0.150 OA
ENDBRANCH   5   8
BRANCH   1  12
ATOM     11  C   LIG    1       -0.019   1.526   0.010  0.00  0.00    +0.020 C 
ATOM     12  C   LIG    1        0.002  -0.004   0.002  0.00  0.00    +0.230 C 
BRANCH  12  13
ATOM     13  O   LIG    1        0.693  -0.477   1.160  0.00  0.00    -0.560 OA
ATOM     14  H   LIG    1        1.611  -0.180   1.219  0.00  0.00    +0.390 HD
ENDBRANCH  12  13
ENDBRANCH   1  12
TORSDOF 3
