REMARK  Name = ZINC000095098502
REMARK                            x       y       z     vdW  Elec       q    Type
REMARK                         _______ _______ _______ _____ _____    ______ ____
ROOT
ATOM      1  C   LIG    1        0.832  -1.850  -1.434  0.00  0.00    +0.400 A 
ATOM      2  N   LIG    1        0.396  -2.812  -0.655  0.00  0.00    -0.330 NA
ATOM      3  N   LIG    1        0.741  -4.037  -1.240  0.00  0.00    -0.340 N 
ATOM      4  C   LIG    1        1.397  -3.781  -2.391  0.00  0.00    +0.380 A 
ATOM      5  C   LIG    1        1.464  -2.438  -2.541  0.00  0.00    -0.230 A 
ENDROOT
BRANCH   5   6
ATOM      6  N   LIG    1        2.098  -1.718  -3.667  0.00  0.00    +0.080 N 
ATOM      7  O   LIG    1        2.094  -0.500  -3.691  0.00  0.00    -0.190 OA
ATOM      8  O   LIG    1        2.624  -2.342  -4.571  0.00  0.00    -0.180 OA
ENDBRANCH   5   6
BRANCH   1   9
ATOM      9  N   LIG    1        0.688  -0.476  -1.203  0.00  0.00    -0.700 N 
ATOM     10  H   LIG    1        1.042   0.162  -1.842  0.00  0.00    +0.420 HD
BRANCH   9  12
ATOM     11  C   LIG    1       -0.019   1.526   0.010  0.00  0.00    +0.030 C 
ATOM     12  C   LIG    1        0.002  -0.004   0.002  0.00  0.00    +0.240 C 
ENDBRANCH   9  12
ENDBRANCH   1   9
BRANCH   3  13
ATOM     13  C   LIG    1        0.443  -5.364  -0.697  0.00  0.00    +0.340 C 
ATOM     14  C   LIG    1        0.991  -5.467   0.728  0.00  0.00    +0.040 C 
ENDBRANCH   3  13
TORSDOF 4
