REMARK  Name = ZINC000104835969
REMARK                            x       y       z     vdW  Elec       q    Type
REMARK                         _______ _______ _______ _____ _____    ______ ____
ROOT
ATOM      1  C   LIG    1       -0.024   0.438  -0.672  0.00  0.00    +0.210 C 
ATOM      2  C   LIG    1        0.074  -0.956  -0.109  0.00  0.00    +0.280 A 
ATOM      3  N   LIG    1        0.053  -2.061  -0.804  0.00  0.00    -0.480 NA
ATOM      4  C   LIG    1        0.163  -3.108   0.027  0.00  0.00    +0.310 A 
ATOM      5  C   LIG    1        0.256  -2.635   1.284  0.00  0.00    -0.010 A 
ATOM      6  N   LIG    1        0.205  -1.270   1.198  0.00  0.00    -0.430 N 
ENDROOT
BRANCH   5   7
ATOM      7  N   LIG    1        0.393  -3.437   2.521  0.00  0.00    +0.070 N 
ATOM      8  O   LIG    1        0.358  -2.890   3.608  0.00  0.00    -0.170 OA
ATOM      9  O   LIG    1        0.540  -4.644   2.451  0.00  0.00    -0.130 OA
ENDBRANCH   5   7
BRANCH   6  10
ATOM     10  C   LIG    1        0.271  -0.325   2.316  0.00  0.00    +0.230 C 
ATOM     11  C   LIG    1       -1.072   0.396   2.454  0.00  0.00    +0.060 C 
ATOM     12  C   LIG    1        1.376   0.700   2.054  0.00  0.00    +0.060 C 
ENDBRANCH   6  10
TORSDOF 2
