REMARK  Name = ZINC000028467217
REMARK                            x       y       z     vdW  Elec       q    Type
REMARK                         _______ _______ _______ _____ _____    ______ ____
ROOT
ATOM      1  N   LIG    1        0.688  -0.476  -1.203  0.00  0.00    -0.440 N 
ATOM      2  C   LIG    1        0.106  -0.829  -2.370  0.00  0.00    +0.480 A 
ATOM      3  N   LIG    1        1.037  -1.196  -3.208  0.00  0.00    -0.470 NA
ATOM      4  C   LIG    1        2.234  -1.091  -2.612  0.00  0.00    +0.100 A 
ATOM      5  C   LIG    1        3.566  -1.419  -3.237  0.00  0.00    +0.160 C 
ATOM      6  C   LIG    1        2.038  -0.638  -1.359  0.00  0.00    +0.010 A 
ENDROOT
BRANCH   6   7
ATOM      7  N   LIG    1        3.082  -0.373  -0.343  0.00  0.00    +0.040 N 
ATOM      8  O   LIG    1        3.597   0.728  -0.271  0.00  0.00    -0.120 OA
ATOM      9  O   LIG    1        3.425  -1.257   0.422  0.00  0.00    -0.120 OA
ENDBRANCH   6   7
BRANCH   1  11
ATOM     10  C   LIG    1       -0.019   1.526   0.010  0.00  0.00    +0.050 C 
ATOM     11  C   LIG    1        0.002  -0.004   0.002  0.00  0.00    +0.300 C 
ENDBRANCH   1  11
TORSDOF 2
