REMARK  Name = ZINC000033829707
REMARK                            x       y       z     vdW  Elec       q    Type
REMARK                         _______ _______ _______ _____ _____    ______ ____
ROOT
ATOM      1  O   LIG    1       -0.015   0.142   0.812  0.00  0.00    -0.410 OA
ATOM      2  C   LIG    1        0.037   1.354   0.793  0.00  0.00    +0.380 C 
ATOM      3  C   LIG    1       -1.149   2.211   1.198  0.00  0.00    +0.040 C 
ATOM      4  C   LIG    1       -1.210   3.393   0.220  0.00  0.00    +0.270 C 
ATOM      5  O   LIG    1        0.015   4.123   0.284  0.00  0.00    -0.300 OA
ATOM      6  C   LIG    1        1.180   3.452   0.129  0.00  0.00    +0.190 A 
ATOM      7  C   LIG    1        2.322   4.130  -0.276  0.00  0.00    +0.040 A 
ATOM      8  C   LIG    1        3.514   3.448  -0.428  0.00  0.00    +0.120 A 
ATOM      9  C   LIG    1        3.587   2.087  -0.181  0.00  0.00    +0.060 A 
ATOM     10  C   LIG    1        2.464   1.393   0.219  0.00  0.00    +0.050 A 
ATOM     11  C   LIG    1        1.256   2.071   0.380  0.00  0.00    -0.210 A 
ENDROOT
BRANCH  10  12
ATOM     12  N   LIG    1        2.542  -0.061   0.483  0.00  0.00    +0.020 N 
ATOM     13  O   LIG    1        3.106  -0.794  -0.309  0.00  0.00    -0.150 OA
ATOM     14  O   LIG    1        2.042  -0.524   1.492  0.00  0.00    -0.110 OA
ENDBRANCH  10  12
TORSDOF 1
