REMARK  Name = ZINC000090669454
REMARK                            x       y       z     vdW  Elec       q    Type
REMARK                         _______ _______ _______ _____ _____    ______ ____
ROOT
ATOM      1  CA  LIG    1        1.247   1.960   0.001  0.00  0.00    -0.040 A 
ATOM      2  C   LIG    1        1.374   3.334   0.012  0.00  0.00    +0.200 A 
ATOM      3  N   LIG    1        2.707   3.608  -0.000  0.00  0.00    -0.370 N 
ATOM      4  C   LIG    1        3.401   4.786   0.003  0.00  0.00    +0.300 A 
ATOM      5  C   LIG    1        4.749   4.789  -0.013  0.00  0.00    +0.030 A 
ATOM      6  C   LIG    1        5.462   3.578  -0.033  0.00  0.00    +0.180 A 
ATOM      7  C   LIG    1        4.787   2.398  -0.036  0.00  0.00    -0.010 A 
ATOM      8  C   LIG    1        3.375   2.409  -0.019  0.00  0.00    +0.230 A 
ATOM      9  N   LIG    1        2.486   1.430  -0.013  0.00  0.00    -0.400 NA
ENDROOT
BRANCH   7  10
ATOM     10  N   LIG    1        5.525   1.115  -0.056  0.00  0.00    +0.030 N 
ATOM     11  O   LIG    1        4.914   0.061  -0.059  0.00  0.00    -0.110 OA
ATOM     12  O   LIG    1        6.743   1.113  -0.070  0.00  0.00    -0.170 OA
ENDBRANCH   7  10
BRANCH   1  14
ATOM     13  O   LIG    1        0.002  -0.004   0.002  0.00  0.00    -0.420 OA
ATOM     14  C   LIG    1       -0.014   1.209   0.009  0.00  0.00    +0.540 C 
ENDBRANCH   1  14
TORSDOF 2
