REMARK  Name = ZINC000001656044
REMARK                            x       y       z     vdW  Elec       q    Type
REMARK                         _______ _______ _______ _____ _____    ______ ____
ROOT
ATOM      1  C   LIG    1        0.105   1.786   0.415  0.00  0.00    +0.020 C 
ATOM      2  C   LIG    1        0.014   0.263   0.302  0.00  0.00    +0.000 C 
ATOM      3  C   LIG    1       -1.451  -0.169   0.389  0.00  0.00    +0.010 C 
ATOM      4  C   LIG    1       -1.542  -1.692   0.277  0.00  0.00    +0.030 C 
ATOM      5  C   LIG    1       -0.752  -2.335   1.418  0.00  0.00    +0.010 C 
ATOM      6  C   LIG    1        0.713  -1.904   1.331  0.00  0.00    +0.130 C 
ATOM      7  C   LIG    1        0.804  -0.381   1.444  0.00  0.00    +0.040 C 
ENDROOT
BRANCH   6   8
ATOM      8  O   LIG    1        1.259  -2.322   0.079  0.00  0.00    -0.530 OA
ATOM      9  H   LIG    1        1.235  -3.279  -0.061  0.00  0.00    +0.380 HD
ENDBRANCH   6   8
BRANCH   6  10
ATOM     10  C   LIG    1        1.503  -2.548   2.473  0.00  0.00    +0.230 C 
BRANCH  10  11
ATOM     11  N   LIG    1        2.877  -2.041   2.462  0.00  0.00    -0.020 N 
ATOM     12  O   LIG    1        3.502  -1.996   1.418  0.00  0.00    -0.130 OA
ATOM     13  O   LIG    1        3.395  -1.663   3.498  0.00  0.00    -0.180 OA
ENDBRANCH  10  11
ENDBRANCH   6  10
TORSDOF 3
