REMARK  Name = ZINC000001595433
REMARK                            x       y       z     vdW  Elec       q    Type
REMARK                         _______ _______ _______ _____ _____    ______ ____
ROOT
ATOM      1  C   LIG    1        0.632  -2.000  -1.327  0.00  0.00    +0.390 C 
ATOM      2  O   LIG    1        0.054  -2.616  -0.457  0.00  0.00    -0.440 OA
ENDROOT
BRANCH   1   3
ATOM      3  C   LIG    1        1.248  -2.721  -2.453  0.00  0.00    -0.170 A 
ATOM      4  C   LIG    1        1.920  -2.015  -3.456  0.00  0.00    +0.060 A 
ATOM      5  C   LIG    1        2.495  -2.697  -4.508  0.00  0.00    +0.000 A 
ATOM      6  C   LIG    1        2.408  -4.077  -4.572  0.00  0.00    +0.050 A 
ATOM      7  C   LIG    1        1.744  -4.783  -3.583  0.00  0.00    +0.000 A 
ATOM      8  C   LIG    1        1.170  -4.115  -2.522  0.00  0.00    +0.080 A 
ENDBRANCH   1   3
BRANCH   1   9
ATOM      9  C   LIG    1        0.718  -0.497  -1.257  0.00  0.00    +0.090 C 
BRANCH   9  11
ATOM     10  C   LIG    1       -0.019   1.526   0.010  0.00  0.00    +0.110 C 
ATOM     11  C   LIG    1        0.002  -0.004   0.002  0.00  0.00    +0.160 C 
BRANCH  11  12
ATOM     12  N   LIG    1        0.711  -0.489   1.189  0.00  0.00    -0.020 N 
ATOM     13  O   LIG    1        1.874  -0.180   1.372  0.00  0.00    -0.170 OA
ATOM     14  O   LIG    1        0.136  -1.202   1.992  0.00  0.00    -0.140 OA
ENDBRANCH  11  12
ENDBRANCH   9  11
ENDBRANCH   1   9
TORSDOF 4
