REMARK  Name = ZINC000146443335
REMARK                            x       y       z     vdW  Elec       q    Type
REMARK                         _______ _______ _______ _____ _____    ______ ____
ROOT
ATOM      1  C   LIG    1        0.739  -2.004  -1.265  0.00  0.00    +0.230 A 
ATOM      2  C   LIG    1       -0.219  -2.683  -1.939  0.00  0.00    -0.210 A 
ATOM      3  C   LIG    1       -0.206  -4.085  -1.951  0.00  0.00    +0.270 A 
ATOM      4  C   LIG    1        0.778  -4.748  -1.279  0.00  0.00    -0.190 A 
ATOM      5  C   LIG    1        1.757  -4.012  -0.589  0.00  0.00    +0.540 A 
ATOM      6  O   LIG    1        2.643  -4.593   0.016  0.00  0.00    -0.490 OA
ATOM      7  C   LIG    1       -1.298  -1.933  -2.676  0.00  0.00    +0.140 C 
ATOM      8  N   LIG    1        1.721  -2.666  -0.601  0.00  0.00    -0.590 N 
ATOM      9  H   LIG    1        2.399  -2.164  -0.123  0.00  0.00    +0.430 HD
ENDROOT
BRANCH   4  10
ATOM     10  N   LIG    1        0.815  -6.228  -1.276  0.00  0.00    +0.050 N 
ATOM     11  O   LIG    1        1.697  -6.814  -0.673  0.00  0.00    -0.130 OA
ATOM     12  O   LIG    1       -0.036  -6.860  -1.875  0.00  0.00    -0.180 OA
ENDBRANCH   4  10
BRANCH   1  13
ATOM     13  C   LIG    1        0.718  -0.497  -1.257  0.00  0.00    +0.100 C 
BRANCH  13  15
ATOM     14  C   LIG    1       -0.019   1.526   0.010  0.00  0.00    +0.030 C 
ATOM     15  C   LIG    1        0.002  -0.004   0.002  0.00  0.00    +0.030 C 
ENDBRANCH  13  15
ENDBRANCH   1  13
TORSDOF 3
