REMARK  Name = ZINC000050439717
REMARK                            x       y       z     vdW  Elec       q    Type
REMARK                         _______ _______ _______ _____ _____    ______ ____
ROOT
ATOM      1  C   LIG    1       -0.462   1.462   0.008  0.00  0.00    +0.110 C 
ATOM      2  C   LIG    1       -0.211  -0.023   0.001  0.00  0.00    +0.010 A 
ATOM      3  C   LIG    1       -0.259  -0.725  -1.187  0.00  0.00    -0.040 A 
ATOM      4  C   LIG    1       -0.027  -2.095  -1.193  0.00  0.00    +0.280 A 
ATOM      5  C   LIG    1        0.253  -2.754  -0.002  0.00  0.00    -0.120 A 
ATOM      6  C   LIG    1        0.300  -2.045   1.182  0.00  0.00    +0.140 A 
ATOM      7  C   LIG    1        0.074  -0.681   1.184  0.00  0.00    -0.140 A 
ATOM      8  C   LIG    1        0.127   0.088   2.478  0.00  0.00    +0.110 C 
ENDROOT
BRANCH   5   9
ATOM      9  N   LIG    1        0.501  -4.213  -0.004  0.00  0.00    +0.040 N 
ATOM     10  O   LIG    1        1.115  -4.725  -0.922  0.00  0.00    -0.190 OA
ATOM     11  O   LIG    1        0.091  -4.901   0.914  0.00  0.00    -0.150 OA
ENDBRANCH   5   9
BRANCH   4  12
ATOM     12  N   LIG    1       -0.075  -2.808  -2.393  0.00  0.00    -0.580 N 
ATOM     13  H   LIG    1        0.011  -3.775  -2.386  0.00  0.00    +0.410 HD
BRANCH  12  14
ATOM     14  N   LIG    1       -0.242  -2.145  -3.575  0.00  0.00    -0.600 NA
ATOM     15  H   LIG    1       -1.078  -1.580  -3.558  0.00  0.00    +0.340 HD
ATOM     16  H   LIG    1       -0.257  -2.789  -4.352  0.00  0.00    +0.370 HD
ENDBRANCH  12  14
ENDBRANCH   4  12
TORSDOF 3
