REMARK  Name = ZINC000107142048
REMARK                            x       y       z     vdW  Elec       q    Type
REMARK                         _______ _______ _______ _____ _____    ______ ____
ROOT
ATOM      1  C   LIG    1       -1.198  -0.636   0.010  0.00  0.00    +0.210 A 
ATOM      2  C   LIG    1       -1.813  -0.966   1.228  0.00  0.00    -0.180 A 
ATOM      3  C   LIG    1       -3.052  -1.618   1.223  0.00  0.00    +0.140 A 
ATOM      4  C   LIG    1       -3.658  -1.931   0.025  0.00  0.00    +0.090 A 
ATOM      5  C   LIG    1       -3.045  -1.602  -1.177  0.00  0.00    +0.130 A 
ATOM      6  F   LIG    1       -4.853  -2.560   0.019  0.00  0.00    -0.110 F 
ATOM      7  C   LIG    1       -1.825  -0.954  -1.185  0.00  0.00    -0.060 A 
ENDROOT
BRANCH   7   8
ATOM      8  N   LIG    1       -1.182  -0.608  -2.472  0.00  0.00    +0.030 N 
ATOM      9  O   LIG    1       -0.106  -0.037  -2.481  0.00  0.00    -0.120 OA
ATOM     10  O   LIG    1       -1.728  -0.894  -3.522  0.00  0.00    -0.150 OA
ENDBRANCH   7   8
BRANCH   1  12
ATOM     11  C   LIG    1       -0.017   1.425   0.010  0.00  0.00    +0.270 C 
ATOM     12  O   LIG    1        0.002  -0.004   0.002  0.00  0.00    -0.310 OA
ENDBRANCH   1  12
BRANCH   2  13
ATOM     13  C   LIG    1       -1.161  -0.629   2.500  0.00  0.00    +0.520 C 
ATOM     14  O   LIG    1       -1.696  -0.916   3.550  0.00  0.00    -0.440 OA
ENDBRANCH   2  13
TORSDOF 3
