REMARK  Name = ZINC000095098116
REMARK                            x       y       z     vdW  Elec       q    Type
REMARK                         _______ _______ _______ _____ _____    ______ ____
ROOT
ATOM      1  C   LIG    1        0.003  -0.004   0.013  0.00  0.00    +0.250 A 
ATOM      2  C   LIG    1       -1.183  -0.728   0.120  0.00  0.00    -0.080 A 
ATOM      3  C   LIG    1       -1.113  -2.113   0.095  0.00  0.00    +0.110 A 
ATOM      4  C   LIG    1        0.119  -2.724  -0.033  0.00  0.00    +0.270 A 
ATOM      5  N   LIG    1        1.224  -2.010  -0.131  0.00  0.00    -0.390 NA
ATOM      6 CL   LIG    1       -2.710   0.083   0.278  0.00  0.00    -0.020 Cl
ATOM      7  C   LIG    1        1.202  -0.692  -0.117  0.00  0.00    +0.090 A 
ENDROOT
BRANCH   1   8
ATOM      8  N   LIG    1       -0.015   1.393   0.033  0.00  0.00    -0.830 N 
ATOM      9  H   LIG    1       -0.858   1.869  -0.029  0.00  0.00    +0.410 HD
ATOM     10  H   LIG    1        0.817   1.888   0.103  0.00  0.00    +0.420 HD
ENDBRANCH   1   8
BRANCH   7  11
ATOM     11  N   LIG    1        2.471   0.062  -0.231  0.00  0.00    +0.040 N 
ATOM     12  O   LIG    1        3.518  -0.450   0.123  0.00  0.00    -0.110 OA
ATOM     13  O   LIG    1        2.467   1.196  -0.678  0.00  0.00    -0.180 OA
ENDBRANCH   7  11
TORSDOF 2
