REMARK  Name = ZINC000001733863
REMARK                            x       y       z     vdW  Elec       q    Type
REMARK                         _______ _______ _______ _____ _____    ______ ____
ROOT
ATOM      1  C   LIG    1       -1.293   1.929   0.019  0.00  0.00    +0.140 C 
ATOM      2  C   LIG    1       -2.164   1.503  -1.188  0.00  0.00    +0.070 C 
ATOM      3  C   LIG    1       -3.434   0.880  -0.526  0.00  0.00    +0.050 C 
ATOM      4  C   LIG    1       -2.916  -0.397   0.146  0.00  0.00    -0.020 C 
ATOM      5  C   LIG    1       -2.166  -0.052   1.173  0.00  0.00    -0.010 C 
ATOM      6  C   LIG    1       -3.593   1.822   0.724  0.00  0.00    +0.070 C 
ATOM      7  C   LIG    1       -2.146   1.512   1.259  0.00  0.00    +0.040 C 
ENDROOT
BRANCH   1   9
ATOM      8  O   LIG    1        0.002  -0.004   0.002  0.00  0.00    -0.140 OA
ATOM      9  N   LIG    1       -0.014   1.214   0.009  0.00  0.00    -0.010 N 
ATOM     10  O   LIG    1        1.032   1.837   0.002  0.00  0.00    -0.170 OA
ENDBRANCH   1   9
TORSDOF 1
