REMARK  Name = ZINC000032130297
REMARK                            x       y       z     vdW  Elec       q    Type
REMARK                         _______ _______ _______ _____ _____    ______ ____
ROOT
ATOM      1  C   LIG    1       -0.626   1.428  -0.066  0.00  0.00    +0.170 C 
ATOM      2  C   LIG    1       -0.288  -0.040  -0.034  0.00  0.00    +0.040 A 
ATOM      3  C   LIG    1       -0.358  -0.790  -1.194  0.00  0.00    -0.040 A 
ATOM      4  C   LIG    1       -0.049  -2.136  -1.168  0.00  0.00    +0.150 A 
ATOM      5  C   LIG    1        0.331  -2.736   0.024  0.00  0.00    +0.110 A 
ATOM      6  C   LIG    1        0.399  -1.982   1.187  0.00  0.00    +0.150 A 
ATOM      7  C   LIG    1        0.095  -0.635   1.154  0.00  0.00    -0.040 A 
ENDROOT
BRANCH   3   8
ATOM      8  N   LIG    1       -0.763  -0.149  -2.465  0.00  0.00    +0.030 N 
ATOM      9  O   LIG    1       -0.922   1.058  -2.515  0.00  0.00    -0.130 OA
ATOM     10  O   LIG    1       -0.937  -0.828  -3.461  0.00  0.00    -0.140 OA
ENDBRANCH   3   8
BRANCH   7  11
ATOM     11  N   LIG    1        0.169   0.170   2.394  0.00  0.00    +0.030 N 
ATOM     12  O   LIG    1        0.031   1.380   2.344  0.00  0.00    -0.130 OA
ATOM     13  O   LIG    1        0.366  -0.376   3.464  0.00  0.00    -0.140 OA
ENDBRANCH   7  11
BRANCH   5  14
ATOM     14  O   LIG    1        0.635  -4.060   0.053  0.00  0.00    -0.470 OA
ATOM     15  H   LIG    1        1.568  -4.253  -0.112  0.00  0.00    +0.410 HD
ENDBRANCH   5  14
TORSDOF 3
