REMARK  Name = ZINC000071256067
REMARK                            x       y       z     vdW  Elec       q    Type
REMARK                         _______ _______ _______ _____ _____    ______ ____
ROOT
ATOM      1  C   LIG    1        0.036   1.483   0.310  0.00  0.00    +0.160 C 
ATOM      2  C   LIG    1        0.028  -0.015   0.144  0.00  0.00    +0.090 A 
ATOM      3  C   LIG    1        0.005  -0.559  -1.125  0.00  0.00    +0.120 A 
ATOM      4  C   LIG    1       -0.002  -1.938  -1.272  0.00  0.00    -0.080 A 
ATOM      5  C   LIG    1        0.014  -2.725  -0.124  0.00  0.00    +0.250 A 
ATOM      6  C   LIG    1        0.036  -2.103   1.120  0.00  0.00    +0.110 A 
ATOM      7 CL   LIG    1        0.057  -3.067   2.563  0.00  0.00    +0.000 Cl
ATOM      8  N   LIG    1        0.048  -0.787   1.213  0.00  0.00    -0.390 NA
ENDROOT
BRANCH   5   9
ATOM      9  N   LIG    1        0.008  -4.119  -0.220  0.00  0.00    -0.830 N 
ATOM     10  H   LIG    1       -0.063  -4.660   0.582  0.00  0.00    +0.410 HD
ATOM     11  H   LIG    1        0.075  -4.546  -1.088  0.00  0.00    +0.420 HD
ENDBRANCH   5   9
BRANCH   4  12
ATOM     12  N   LIG    1       -0.025  -2.557  -2.616  0.00  0.00    +0.050 N 
ATOM     13  O   LIG    1        0.078  -3.765  -2.731  0.00  0.00    -0.180 OA
ATOM     14  O   LIG    1       -0.149  -1.859  -3.606  0.00  0.00    -0.130 OA
ENDBRANCH   4  12
TORSDOF 2
