REMARK  Name = ZINC000016083126
REMARK                            x       y       z     vdW  Elec       q    Type
REMARK                         _______ _______ _______ _____ _____    ______ ____
ROOT
ATOM      1  O   LIG    1        0.002  -0.004   0.002  0.00  0.00    -0.440 OA
ATOM      2  C   LIG    1       -0.014   1.203   0.009  0.00  0.00    +0.360 C 
ATOM      3  C   LIG    1       -1.316   1.980   0.032  0.00  0.00    +0.040 C 
ATOM      4  C   LIG    1       -1.349   2.790   1.325  0.00  0.00    +0.110 C 
ATOM      5  C   LIG    1       -0.053   3.525   1.546  0.00  0.00    -0.080 A 
ATOM      6  C   LIG    1       -0.089   4.625   2.398  0.00  0.00    +0.110 A 
ATOM      7  C   LIG    1        1.054   5.348   2.665  0.00  0.00    -0.040 A 
ATOM      8  C   LIG    1        2.252   4.976   2.084  0.00  0.00    +0.100 A 
ATOM      9  C   LIG    1        2.291   3.889   1.236  0.00  0.00    +0.040 A 
ATOM     10  C   LIG    1        1.138   3.165   0.960  0.00  0.00    -0.020 A 
ATOM     11  C   LIG    1        1.261   2.012   0.001  0.00  0.00    +0.100 C 
ENDROOT
BRANCH   7  12
ATOM     12  N   LIG    1        0.999   6.517   3.570  0.00  0.00    +0.030 N 
ATOM     13  O   LIG    1        2.010   7.154   3.805  0.00  0.00    -0.150 OA
ATOM     14  O   LIG    1       -0.058   6.843   4.081  0.00  0.00    -0.160 OA
ENDBRANCH   7  12
TORSDOF 1
