REMARK  Name = ZINC000073642839
REMARK                            x       y       z     vdW  Elec       q    Type
REMARK                         _______ _______ _______ _____ _____    ______ ____
ROOT
ATOM      1  C   LIG    1       -0.018   1.503   0.010  0.00  0.00    +0.130 C 
ATOM      2  C   LIG    1        0.002  -0.004   0.002  0.00  0.00    -0.070 A 
ATOM      3  C   LIG    1        0.006  -0.686  -1.204  0.00  0.00    +0.130 A 
ATOM      4  C   LIG    1        0.025  -2.067  -1.228  0.00  0.00    +0.000 A 
ATOM      5  C   LIG    1        0.041  -2.777  -0.039  0.00  0.00    +0.040 A 
ATOM      6  O   LIG    1        0.060  -4.096   0.263  0.00  0.00    -0.210 OA
ATOM      7  C   LIG    1        0.068  -4.219   1.602  0.00  0.00    +0.520 A 
ATOM      8  N   LIG    1        0.054  -3.037   2.163  0.00  0.00    -0.530 NA
ATOM      9  C   LIG    1        0.037  -2.090   1.185  0.00  0.00    +0.080 A 
ATOM     10  C   LIG    1        0.023  -0.695   1.194  0.00  0.00    +0.130 A 
ENDROOT
BRANCH   7  11
ATOM     11  N   LIG    1        0.088  -5.415   2.284  0.00  0.00    -0.790 N 
ATOM     12  H   LIG    1        0.092  -5.421   3.254  0.00  0.00    +0.440 HD
ATOM     13  H   LIG    1        0.097  -6.252   1.794  0.00  0.00    +0.430 HD
ENDBRANCH   7  11
BRANCH   4  14
ATOM     14  N   LIG    1        0.029  -2.786  -2.521  0.00  0.00    +0.030 N 
ATOM     15  O   LIG    1        0.046  -4.004  -2.541  0.00  0.00    -0.150 OA
ATOM     16  O   LIG    1        0.016  -2.160  -3.566  0.00  0.00    -0.150 OA
ENDBRANCH   4  14
TORSDOF 2
