REMARK  Name = ZINC000095863177
REMARK                            x       y       z     vdW  Elec       q    Type
REMARK                         _______ _______ _______ _____ _____    ______ ____
ROOT
ATOM      1  O   LIG    1       -4.443   1.425   2.004  0.00  0.00    -0.360 OA
ENDROOT
BRANCH   1   2
ATOM      2  C   LIG    1       -5.724   2.050   2.093  0.00  0.00    +0.320 C 
ATOM      3  C   LIG    1       -6.617   1.252   3.046  0.00  0.00    +0.020 C 
ATOM      4  C   LIG    1       -7.968   1.961   3.183  0.00  0.00    +0.030 C 
ATOM      5  C   LIG    1       -7.733   3.394   3.671  0.00  0.00    +0.000 C 
ATOM      6  C   LIG    1       -6.797   4.110   2.693  0.00  0.00    +0.220 C 
ATOM      7  O   LIG    1       -5.572   3.382   2.588  0.00  0.00    -0.410 OA
ENDBRANCH   1   2
BRANCH   1   8
ATOM      8  C   LIG    1       -3.566   2.029   1.050  0.00  0.00    +0.200 C 
BRANCH   8   9
ATOM      9  C   LIG    1       -2.231   1.282   1.040  0.00  0.00    +0.060 C 
BRANCH   9  10
ATOM     10  C   LIG    1       -1.293   1.929   0.019  0.00  0.00    +0.270 C 
BRANCH  10  12
ATOM     11  O   LIG    1        0.002  -0.004   0.002  0.00  0.00    -0.150 OA
ATOM     12  N   LIG    1       -0.014   1.214   0.009  0.00  0.00    -0.020 N 
ATOM     13  O   LIG    1        1.032   1.837   0.002  0.00  0.00    -0.160 OA
ENDBRANCH  10  12
ENDBRANCH   9  10
ENDBRANCH   8   9
ENDBRANCH   1   8
TORSDOF 5
