REMARK  Name = ZINC000199932580
REMARK                            x       y       z     vdW  Elec       q    Type
REMARK                         _______ _______ _______ _____ _____    ______ ____
ROOT
ATOM      1  O   LIG    1       -0.004   0.126   0.797  0.00  0.00    -0.400 OA
ATOM      2  C   LIG    1        0.041   1.338   0.779  0.00  0.00    +0.350 C 
ATOM      3  C   LIG    1       -1.153   2.184   1.179  0.00  0.00    +0.270 C 
ATOM      4  O   LIG    1       -1.225   3.282   0.259  0.00  0.00    -0.360 OA
ATOM      5  C   LIG    1       -0.117   4.177   0.325  0.00  0.00    +0.310 C 
ATOM      6  C   LIG    1        1.183   3.442   0.141  0.00  0.00    -0.070 A 
ATOM      7  C   LIG    1        2.315   4.127  -0.251  0.00  0.00    +0.070 A 
ATOM      8  C   LIG    1        3.513   3.453  -0.417  0.00  0.00    +0.080 A 
ATOM      9  C   LIG    1        3.591   2.090  -0.192  0.00  0.00    +0.090 A 
ATOM     10  C   LIG    1        2.468   1.388   0.199  0.00  0.00    +0.020 A 
ATOM     11  C   LIG    1        1.262   2.063   0.372  0.00  0.00    -0.120 A 
ENDROOT
BRANCH  10  12
ATOM     12  N   LIG    1        2.547  -0.070   0.439  0.00  0.00    +0.020 N 
ATOM     13  O   LIG    1        3.104  -0.791  -0.369  0.00  0.00    -0.150 OA
ATOM     14  O   LIG    1        2.054  -0.549   1.445  0.00  0.00    -0.110 OA
ENDBRANCH  10  12
TORSDOF 1
