REMARK  Name = ZINC000044713241
REMARK                            x       y       z     vdW  Elec       q    Type
REMARK                         _______ _______ _______ _____ _____    ______ ____
ROOT
ATOM      1  C   LIG    1       -1.306   1.936   0.019  0.00  0.00    -0.060 A 
ATOM      2  C   LIG    1       -1.341   3.334   0.021  0.00  0.00    -0.040 A 
ATOM      3  C   LIG    1       -0.339   4.396   0.016  0.00  0.00    -0.030 A 
ATOM      4  C   LIG    1       -1.005   5.564   0.022  0.00  0.00    +0.280 A 
ATOM      5  N   LIG    1       -2.352   5.333   0.030  0.00  0.00    -0.570 N 
ATOM      6  H   LIG    1       -3.035   6.022   0.036  0.00  0.00    +0.430 HD
ATOM      7  C   LIG    1       -2.595   3.979   0.030  0.00  0.00    +0.030 A 
ATOM      8  C   LIG    1       -3.743   3.197   0.036  0.00  0.00    +0.350 A 
ATOM      9  N   LIG    1       -3.650   1.883   0.034  0.00  0.00    -0.460 NA
ATOM     10  C   LIG    1       -2.488   1.250   0.021  0.00  0.00    +0.340 A 
ENDROOT
BRANCH   1  12
ATOM     11  O   LIG    1        0.002  -0.004   0.002  0.00  0.00    -0.160 OA
ATOM     12  N   LIG    1       -0.014   1.214   0.009  0.00  0.00    +0.040 N 
ATOM     13  O   LIG    1        1.032   1.837   0.002  0.00  0.00    -0.150 OA
ENDBRANCH   1  12
TORSDOF 1
