REMARK  Name = ZINC000001691451
REMARK                            x       y       z     vdW  Elec       q    Type
REMARK                         _______ _______ _______ _____ _____    ______ ____
ROOT
ATOM      1  C   LIG    1       -0.018   1.503   0.010  0.00  0.00    +0.140 C 
ATOM      2  C   LIG    1        0.002  -0.004   0.002  0.00  0.00    +0.010 C 
ATOM      3  C   LIG    1        0.006  -0.707  -1.193  0.00  0.00    +0.060 C 
ATOM      4  C   LIG    1        0.026  -2.088  -1.162  0.00  0.00    +0.150 C 
ATOM      5  N   LIG    1        0.040  -2.737  -0.013  0.00  0.00    -0.130 NA
ATOM      6  C   LIG    1        0.037  -2.101   1.143  0.00  0.00    +0.170 C 
ATOM      7  C   LIG    1        0.055  -2.889   2.428  0.00  0.00    +0.190 C 
ATOM      8  O   LIG    1        0.060  -4.153  -0.021  0.00  0.00    -0.520 OA
ATOM      9  C   LIG    1        0.031  -2.863  -2.455  0.00  0.00    +0.180 C 
ATOM     10  C   LIG    1        0.023  -0.720   1.190  0.00  0.00    -0.060 C 
ENDROOT
BRANCH  10  11
ATOM     11  N   LIG    1        0.020  -0.014   2.490  0.00  0.00    +0.020 N 
ATOM     12  O   LIG    1       -1.036   0.266   3.029  0.00  0.00    -0.120 OA
ATOM     13  O   LIG    1        1.074   0.288   3.022  0.00  0.00    -0.110 OA
ENDBRANCH  10  11
TORSDOF 1
