REMARK  Name = ZINC000039168908
REMARK                            x       y       z     vdW  Elec       q    Type
REMARK                         _______ _______ _______ _____ _____    ______ ____
ROOT
ATOM      1  O   LIG    1       -0.276   0.007  -0.856  0.00  0.00    -0.480 OA
ATOM      2  C   LIG    1       -0.220   1.204  -0.655  0.00  0.00    +0.660 C 
ATOM      3  N   LIG    1       -1.354   1.893  -0.415  0.00  0.00    -0.660 N 
ATOM      4  H   LIG    1       -2.208   1.433  -0.383  0.00  0.00    +0.440 HD
ATOM      5  C   LIG    1       -1.292   3.277  -0.212  0.00  0.00    +0.240 A 
ATOM      6  C   LIG    1       -0.139   3.961  -0.577  0.00  0.00    -0.180 A 
ATOM      7  C   LIG    1        1.006   3.189  -1.184  0.00  0.00    +0.360 C 
ATOM      8  C   LIG    1       -0.052   5.324  -0.385  0.00  0.00    +0.150 A 
ATOM      9  C   LIG    1       -1.118   6.009   0.172  0.00  0.00    +0.020 A 
ATOM     10  C   LIG    1       -2.268   5.332   0.536  0.00  0.00    +0.140 A 
ATOM     11  C   LIG    1       -2.359   3.966   0.345  0.00  0.00    -0.080 A 
ATOM     12  O   LIG    1        0.973   1.827  -0.669  0.00  0.00    -0.340 OA
ENDROOT
BRANCH  11  13
ATOM     13  N   LIG    1       -3.590   3.242   0.734  0.00  0.00    +0.040 N 
ATOM     14  O   LIG    1       -3.627   2.026   0.670  0.00  0.00    -0.180 OA
ATOM     15  O   LIG    1       -4.566   3.862   1.117  0.00  0.00    -0.130 OA
ENDBRANCH  11  13
TORSDOF 1
