REMARK  Name = ZINC000235258519
REMARK                            x       y       z     vdW  Elec       q    Type
REMARK                         _______ _______ _______ _____ _____    ______ ____
ROOT
ATOM      1  C   LIG    1       -0.019   1.526   0.010  0.00  0.00    +0.090 C 
ATOM      2  C   LIG    1        0.002  -0.004   0.002  0.00  0.00    +0.060 C 
ATOM      3  C   LIG    1       -1.405  -0.554   0.094  0.00  0.00    +0.530 C 
ATOM      4  N   LIG    1       -1.474  -1.277   1.225  0.00  0.00    -0.650 N 
ATOM      5  H   LIG    1       -2.273  -1.740   1.523  0.00  0.00    +0.430 HD
ATOM      6  C   LIG    1       -0.266  -1.283   1.922  0.00  0.00    +0.220 A 
ATOM      7  C   LIG    1        0.092  -1.898   3.121  0.00  0.00    -0.070 A 
ATOM      8  C   LIG    1        1.371  -1.754   3.618  0.00  0.00    +0.140 A 
ATOM      9  C   LIG    1        2.309  -1.004   2.932  0.00  0.00    +0.020 A 
ATOM     10  C   LIG    1        1.964  -0.392   1.740  0.00  0.00    +0.140 A 
ATOM     11  O   LIG    1       -2.302  -0.377  -0.703  0.00  0.00    -0.470 OA
ATOM     12  C   LIG    1        0.688  -0.531   1.241  0.00  0.00    -0.140 A 
ENDROOT
BRANCH   7  13
ATOM     13  N   LIG    1       -0.903  -2.703   3.864  0.00  0.00    +0.040 N 
ATOM     14  O   LIG    1       -2.033  -2.832   3.427  0.00  0.00    -0.180 OA
ATOM     15  O   LIG    1       -0.592  -3.238   4.914  0.00  0.00    -0.140 OA
ENDBRANCH   7  13
TORSDOF 1
