REMARK  Name = ZINC000001666917
REMARK                            x       y       z     vdW  Elec       q    Type
REMARK                         _______ _______ _______ _____ _____    ______ ____
ROOT
ATOM      1  C   LIG    1        0.739  -2.027  -1.265  0.00  0.00    +0.120 C 
ENDROOT
BRANCH   1   2
ATOM      2  N   LIG    1       -0.631  -2.534  -1.375  0.00  0.00    -0.010 N 
ATOM      3  O   LIG    1       -1.090  -3.245  -0.499  0.00  0.00    -0.150 OA
ATOM      4  O   LIG    1       -1.312  -2.243  -2.343  0.00  0.00    -0.170 OA
ENDBRANCH   1   2
BRANCH   1   5
ATOM      5  C   LIG    1        0.718  -0.497  -1.257  0.00  0.00    +0.090 C 
BRANCH   5   7
ATOM      6  C   LIG    1       -0.019   1.526   0.010  0.00  0.00    +0.030 C 
ATOM      7  C   LIG    1        0.002  -0.004   0.002  0.00  0.00    -0.010 C 
ENDBRANCH   5   7
ENDBRANCH   1   5
BRANCH   1   8
ATOM      8  C   LIG    1        1.562  -2.520  -2.457  0.00  0.00    +0.250 C 
BRANCH   8   9
ATOM      9  C   LIG    1        1.480  -4.045  -2.538  0.00  0.00    -0.020 C 
ATOM     10  C   LIG    1        2.401  -4.547  -3.652  0.00  0.00    +0.040 C 
ENDBRANCH   8   9
BRANCH   8  11
ATOM     11  O   LIG    1        1.044  -1.950  -3.661  0.00  0.00    -0.550 OA
ATOM     12  H   LIG    1        0.121  -2.177  -3.838  0.00  0.00    +0.390 HD
ENDBRANCH   8  11
ENDBRANCH   1   8
TORSDOF 6
