REMARK  Name = ZINC000004522357
REMARK                            x       y       z     vdW  Elec       q    Type
REMARK                         _______ _______ _______ _____ _____    ______ ____
ROOT
ATOM      1  C   LIG    1        1.191   2.109   0.259  0.00  0.00    +0.250 A 
ATOM      2  C   LIG    1        2.403   1.435   0.341  0.00  0.00    -0.020 A 
ATOM      3  C   LIG    1        3.582   2.104   0.078  0.00  0.00    +0.120 A 
ATOM      4  C   LIG    1        3.558   3.442  -0.269  0.00  0.00    +0.010 A 
ATOM      5  C   LIG    1        2.353   4.116  -0.352  0.00  0.00    +0.140 A 
ATOM      6  C   LIG    1        1.169   3.452  -0.095  0.00  0.00    -0.080 A 
ENDROOT
BRANCH   6   7
ATOM      7  N   LIG    1       -0.120   4.174  -0.185  0.00  0.00    +0.030 N 
ATOM      8  O   LIG    1       -0.197   5.331   0.188  0.00  0.00    -0.130 OA
ATOM      9  O   LIG    1       -1.103   3.611  -0.632  0.00  0.00    -0.170 OA
ENDBRANCH   6   7
BRANCH   1  10
ATOM     10  N   LIG    1       -0.005   1.435   0.525  0.00  0.00    -0.600 N 
ATOM     11  H   LIG    1       -0.843   1.924   0.547  0.00  0.00    +0.440 HD
BRANCH  10  13
ATOM     12  N   LIG    1        0.014  -1.022   0.934  0.00  0.00    -0.390 NA
ATOM     13  C   LIG    1        0.005   0.099   0.747  0.00  0.00    +0.410 C 
ENDBRANCH  10  13
ENDBRANCH   1  10
TORSDOF 3
