REMARK  Name = ZINC000014983758
REMARK                            x       y       z     vdW  Elec       q    Type
REMARK                         _______ _______ _______ _____ _____    ______ ____
ROOT
ATOM      1  C   LIG    1       -1.306   1.937   0.019  0.00  0.00    +0.010 A 
ATOM      2  C   LIG    1       -1.327   3.332   0.021  0.00  0.00    -0.070 A 
ATOM      3  C   LIG    1       -0.287   4.365   0.015  0.00  0.00    -0.020 A 
ATOM      4  C   LIG    1       -0.913   5.552   0.021  0.00  0.00    +0.260 A 
ATOM      5  N   LIG    1       -2.270   5.365   0.030  0.00  0.00    -0.590 N 
ATOM      6  H   LIG    1       -2.930   6.075   0.036  0.00  0.00    +0.430 HD
ATOM      7  C   LIG    1       -2.556   4.018   0.030  0.00  0.00    +0.110 A 
ATOM      8  C   LIG    1       -3.742   3.292   0.036  0.00  0.00    +0.050 A 
ATOM      9  C   LIG    1       -3.701   1.910   0.033  0.00  0.00    +0.120 A 
ATOM     10  C   LIG    1       -2.481   1.239   0.021  0.00  0.00    +0.070 A 
ENDROOT
BRANCH   1  12
ATOM     11  O   LIG    1        0.002  -0.004   0.002  0.00  0.00    -0.170 OA
ATOM     12  N   LIG    1       -0.014   1.214   0.009  0.00  0.00    +0.030 N 
ATOM     13  O   LIG    1        1.032   1.837   0.002  0.00  0.00    -0.150 OA
ENDBRANCH   1  12
BRANCH   9  14
ATOM     14  O   LIG    1       -4.861   1.201   0.039  0.00  0.00    -0.480 OA
ATOM     15  H   LIG    1       -5.201   0.998  -0.843  0.00  0.00    +0.400 HD
ENDBRANCH   9  14
TORSDOF 2
