REMARK  Name = ZINC000218744248
REMARK                            x       y       z     vdW  Elec       q    Type
REMARK                         _______ _______ _______ _____ _____    ______ ____
ROOT
ATOM      1  C   LIG    1       -0.018   1.465   0.010  0.00  0.00    +0.200 C 
ATOM      2  N   LIG    1        0.002  -0.004   0.002  0.00  0.00    -0.540 NA
ATOM      3  C   LIG    1       -1.356  -0.549  -0.155  0.00  0.00    +0.180 C 
ATOM      4  C   LIG    1       -1.246  -2.029  -0.522  0.00  0.00    +0.100 C 
ATOM      5  C   LIG    1       -0.324  -2.731   0.442  0.00  0.00    -0.070 A 
ATOM      6  C   LIG    1       -0.366  -4.115   0.507  0.00  0.00    +0.100 A 
ATOM      7  C   LIG    1        0.464  -4.798   1.374  0.00  0.00    -0.040 A 
ATOM      8  C   LIG    1        1.341  -4.098   2.180  0.00  0.00    +0.100 A 
ATOM      9  C   LIG    1        1.383  -2.720   2.117  0.00  0.00    +0.040 A 
ATOM     10  C   LIG    1        0.548  -2.032   1.249  0.00  0.00    -0.030 A 
ATOM     11  C   LIG    1        0.622  -0.528   1.223  0.00  0.00    +0.240 C 
ENDROOT
BRANCH   7  12
ATOM     12  N   LIG    1        0.414  -6.276   1.439  0.00  0.00    +0.030 N 
ATOM     13  O   LIG    1        1.147  -6.877   2.204  0.00  0.00    -0.160 OA
ATOM     14  O   LIG    1       -0.359  -6.892   0.728  0.00  0.00    -0.160 OA
ENDBRANCH   7  12
TORSDOF 1
