REMARK  Name = ZINC000082510338
REMARK                            x       y       z     vdW  Elec       q    Type
REMARK                         _______ _______ _______ _____ _____    ______ ____
ROOT
ATOM      1  C   LIG    1        0.814  -0.502   1.170  0.00  0.00    +0.270 A 
ATOM      2  N   LIG    1        0.334  -0.767   2.348  0.00  0.00    -0.450 NA
ATOM      3  C   LIG    1        1.348  -1.193   3.149  0.00  0.00    +0.020 A 
ATOM      4  C   LIG    1        1.420  -1.604   4.480  0.00  0.00    +0.190 A 
ATOM      5  C   LIG    1        2.632  -1.985   5.013  0.00  0.00    -0.040 A 
ATOM      6  C   LIG    1        3.779  -1.962   4.235  0.00  0.00    +0.130 A 
ATOM      7  C   LIG    1        3.723  -1.557   2.917  0.00  0.00    +0.080 A 
ATOM      8  C   LIG    1        2.512  -1.171   2.365  0.00  0.00    +0.050 A 
ATOM      9  O   LIG    1        2.134  -0.740   1.141  0.00  0.00    -0.200 OA
ENDROOT
BRANCH   5  10
ATOM     10  N   LIG    1        2.709  -2.422   6.425  0.00  0.00    +0.030 N 
ATOM     11  O   LIG    1        3.779  -2.760   6.900  0.00  0.00    -0.150 OA
ATOM     12  O   LIG    1        1.704  -2.445   7.112  0.00  0.00    -0.150 OA
ENDBRANCH   5  10
BRANCH   1  13
ATOM     13  C   LIG    1        0.002  -0.004   0.002  0.00  0.00    +0.350 C 
BRANCH  13  14
ATOM     14  N   LIG    1       -0.018   1.465   0.010  0.00  0.00    -0.840 NA
ATOM     15  H   LIG    1       -0.556   1.823  -0.764  0.00  0.00    +0.360 HD
ATOM     16  H   LIG    1        0.919   1.839   0.003  0.00  0.00    +0.350 HD
ENDBRANCH  13  14
ENDBRANCH   1  13
TORSDOF 3
