REMARK  Name = ZINC000001656037
REMARK                            x       y       z     vdW  Elec       q    Type
REMARK                         _______ _______ _______ _____ _____    ______ ____
ROOT
ATOM      1  C   LIG    1       -0.019   1.526   0.010  0.00  0.00    +0.040 C 
ATOM      2  C   LIG    1        0.002  -0.004   0.002  0.00  0.00    +0.010 C 
ATOM      3  C   LIG    1        0.718  -0.497  -1.257  0.00  0.00    +0.040 C 
ATOM      4  C   LIG    1        2.154   0.032  -1.268  0.00  0.00    +0.020 C 
ATOM      5  C   LIG    1        2.894  -0.475  -0.028  0.00  0.00    +0.030 C 
ATOM      6  C   LIG    1        2.178   0.019   1.231  0.00  0.00    -0.010 C 
ATOM      7  C   LIG    1        0.742  -0.511   1.242  0.00  0.00    +0.140 C 
ENDROOT
BRANCH   7   8
ATOM      8  O   LIG    1        0.761  -1.940   1.234  0.00  0.00    -0.550 OA
ATOM      9  H   LIG    1        1.216  -2.331   1.992  0.00  0.00    +0.390 HD
ENDBRANCH   7   8
BRANCH   7  10
ATOM     10  C   LIG    1        0.026  -0.018   2.500  0.00  0.00    +0.240 C 
BRANCH  10  11
ATOM     11  N   LIG    1        0.799  -0.401   3.684  0.00  0.00    -0.010 N 
ATOM     12  O   LIG    1        1.253  -1.528   3.776  0.00  0.00    -0.170 OA
ATOM     13  O   LIG    1        0.988   0.406   4.576  0.00  0.00    -0.150 OA
ENDBRANCH  10  11
ENDBRANCH   7  10
TORSDOF 3
