REMARK  Name = ZINC000097447146
REMARK                            x       y       z     vdW  Elec       q    Type
REMARK                         _______ _______ _______ _____ _____    ______ ____
ROOT
ATOM      1  C   LIG    1       -1.201  -0.638   0.010  0.00  0.00    +0.220 A 
ATOM      2  C   LIG    1       -2.374   0.102   0.019  0.00  0.00    -0.070 A 
ATOM      3  C   LIG    1       -3.598  -0.543   0.027  0.00  0.00    +0.180 A 
ATOM      4  C   LIG    1       -3.650  -1.931   0.026  0.00  0.00    +0.040 A 
ATOM      5  C   LIG    1       -2.476  -2.669   0.016  0.00  0.00    +0.160 A 
ATOM      6  F   LIG    1       -4.741   0.176   0.036  0.00  0.00    -0.110 F 
ATOM      7  C   LIG    1       -1.255  -2.024   0.003  0.00  0.00    -0.080 A 
ENDROOT
BRANCH   7   8
ATOM      8  N   LIG    1       -0.002  -2.812  -0.007  0.00  0.00    +0.040 N 
ATOM      9  O   LIG    1        1.075  -2.244  -0.019  0.00  0.00    -0.130 OA
ATOM     10  O   LIG    1       -0.049  -4.029  -0.004  0.00  0.00    -0.170 OA
ENDBRANCH   7   8
BRANCH   1  12
ATOM     11  C   LIG    1       -0.017   1.425   0.010  0.00  0.00    +0.270 C 
ATOM     12  O   LIG    1        0.002  -0.004   0.002  0.00  0.00    -0.270 OA
ENDBRANCH   1  12
BRANCH   4  13
ATOM     13  O   LIG    1       -4.853  -2.566   0.033  0.00  0.00    -0.470 OA
ATOM     14  H   LIG    1       -5.207  -2.749  -0.849  0.00  0.00    +0.400 HD
ENDBRANCH   4  13
TORSDOF 3
