REMARK  Name = ZINC000028466968
REMARK                            x       y       z     vdW  Elec       q    Type
REMARK                         _______ _______ _______ _____ _____    ______ ____
ROOT
ATOM      1  N   LIG    1       -1.372  -0.511   0.012  0.00  0.00    -0.340 N 
ATOM      2  N   LIG    1       -2.137  -0.797   1.151  0.00  0.00    -0.230 NA
ATOM      3  C   LIG    1       -3.308  -1.228   0.759  0.00  0.00    +0.270 A 
ATOM      4  C   LIG    1       -3.328  -1.230  -0.639  0.00  0.00    -0.160 A 
ATOM      5  C   LIG    1       -4.483  -1.654  -1.509  0.00  0.00    +0.150 C 
ATOM      6  C   LIG    1       -2.128  -0.780  -1.073  0.00  0.00    +0.130 A 
ENDROOT
BRANCH   6   7
ATOM      7  N   LIG    1       -1.714  -0.620  -2.485  0.00  0.00    +0.030 N 
ATOM      8  O   LIG    1       -1.914   0.434  -3.063  0.00  0.00    -0.110 OA
ATOM      9  O   LIG    1       -1.174  -1.542  -3.070  0.00  0.00    -0.110 OA
ENDBRANCH   6   7
BRANCH   1  11
ATOM     10  C   LIG    1       -0.019   1.526   0.010  0.00  0.00    +0.060 C 
ATOM     11  C   LIG    1        0.002  -0.004   0.002  0.00  0.00    +0.320 C 
ENDBRANCH   1  11
TORSDOF 2
