REMARK  Name = ZINC000001722958
REMARK                            x       y       z     vdW  Elec       q    Type
REMARK                         _______ _______ _______ _____ _____    ______ ____
ROOT
ATOM      1  C   LIG    1       -0.079   1.524  -0.296  0.00  0.00    +0.060 C 
ATOM      2  C   LIG    1       -0.010   0.022  -0.016  0.00  0.00    -0.060 C 
ATOM      3  C   LIG    1        0.691  -0.682  -1.180  0.00  0.00    +0.050 C 
ATOM      4  C   LIG    1        2.076  -0.070  -1.397  0.00  0.00    +0.040 C 
ATOM      5  C   LIG    1        2.942  -0.317  -0.158  0.00  0.00    +0.020 C 
ATOM      6  C   LIG    1        2.210   0.214   1.054  0.00  0.00    +0.370 C 
ATOM      7  O   LIG    1        2.754   0.966   1.826  0.00  0.00    -0.440 OA
ATOM      8  C   LIG    1        0.778  -0.222   1.275  0.00  0.00    +0.010 C 
ENDROOT
BRANCH   2   9
ATOM      9  C   LIG    1       -1.427  -0.534   0.138  0.00  0.00    +0.260 C 
BRANCH   9  10
ATOM     10  N   LIG    1       -2.047   0.035   1.337  0.00  0.00    -0.020 N 
ATOM     11  O   LIG    1       -2.602  -0.694   2.140  0.00  0.00    -0.160 OA
ATOM     12  O   LIG    1       -2.007   1.236   1.531  0.00  0.00    -0.150 OA
ENDBRANCH   9  10
ENDBRANCH   2   9
TORSDOF 2
