REMARK  Name = ZINC000115158236
REMARK                            x       y       z     vdW  Elec       q    Type
REMARK                         _______ _______ _______ _____ _____    ______ ____
ROOT
ATOM      1  C   LIG    1        0.042  -0.032   0.264  0.00  0.00    +0.280 A 
ATOM      2  C   LIG    1       -1.145  -0.744   0.370  0.00  0.00    -0.050 A 
ATOM      3  C   LIG    1       -1.162  -2.099   0.100  0.00  0.00    +0.010 A 
ATOM      4  C   LIG    1        0.001  -2.745  -0.275  0.00  0.00    -0.030 A 
ATOM      5  C   LIG    1        1.185  -2.039  -0.381  0.00  0.00    +0.140 A 
ATOM      6  C   LIG    1        1.208  -0.683  -0.118  0.00  0.00    -0.120 A 
ENDROOT
BRANCH   1   7
ATOM      7  N   LIG    1        0.063   1.338   0.536  0.00  0.00    -0.850 N 
ATOM      8  H   LIG    1       -0.769   1.817   0.678  0.00  0.00    +0.410 HD
ATOM      9  H   LIG    1        0.908   1.811   0.579  0.00  0.00    +0.410 HD
ENDBRANCH   1   7
BRANCH   6  10
ATOM     10  N   LIG    1        2.476   0.072  -0.232  0.00  0.00    +0.040 N 
ATOM     11  O   LIG    1        3.523  -0.440   0.121  0.00  0.00    -0.150 OA
ATOM     12  O   LIG    1        2.471   1.205  -0.678  0.00  0.00    -0.180 OA
ENDBRANCH   6  10
BRANCH   3  13
ATOM     13  C   LIG    1       -2.450  -2.873   0.213  0.00  0.00    +0.080 C 
BRANCH  13  14
ATOM     14  C   LIG    1       -3.177  -2.855  -1.133  0.00  0.00    +0.030 C 
BRANCH  14  15
ATOM     15  C   LIG    1       -4.484  -3.641  -1.018  0.00  0.00    +0.170 C 
BRANCH  15  16
ATOM     16  O   LIG    1       -5.163  -3.624  -2.275  0.00  0.00    -0.580 OA
ATOM     17  H   LIG    1       -6.002  -4.105  -2.276  0.00  0.00    +0.380 HD
ENDBRANCH  15  16
ENDBRANCH  14  15
ENDBRANCH  13  14
ENDBRANCH   3  13
TORSDOF 6
