REMARK  Name = ZINC000000997143
REMARK                            x       y       z     vdW  Elec       q    Type
REMARK                         _______ _______ _______ _____ _____    ______ ____
ROOT
ATOM      1  C   LIG    1       -3.546   2.018   1.050  0.00  0.00    -0.190 A 
ATOM      2  C   LIG    1       -3.898   3.013   1.880  0.00  0.00    +0.240 A 
ATOM      3  N   LIG    1       -5.168   3.434   1.591  0.00  0.00    -0.590 N 
ATOM      4  H   LIG    1       -5.639   4.143   2.056  0.00  0.00    +0.420 HD
ATOM      5  C   LIG    1       -5.676   2.703   0.541  0.00  0.00    +0.090 A 
ATOM      6  C   LIG    1       -6.890   2.718  -0.138  0.00  0.00    -0.010 A 
ATOM      7  C   LIG    1       -7.106   1.836  -1.175  0.00  0.00    +0.030 A 
ATOM      8  C   LIG    1       -6.123   0.931  -1.550  0.00  0.00    -0.010 A 
ATOM      9  C   LIG    1       -4.923   0.899  -0.897  0.00  0.00    +0.040 A 
ATOM     10  C   LIG    1       -4.681   1.788   0.152  0.00  0.00    -0.100 A 
ENDROOT
BRANCH   1  11
ATOM     11  C   LIG    1       -2.231   1.282   1.040  0.00  0.00    +0.140 C 
BRANCH  11  12
ATOM     12  C   LIG    1       -1.293   1.929   0.019  0.00  0.00    +0.260 C 
BRANCH  12  14
ATOM     13  O   LIG    1        0.002  -0.004   0.002  0.00  0.00    -0.160 OA
ATOM     14  N   LIG    1       -0.014   1.214   0.009  0.00  0.00    -0.020 N 
ATOM     15  O   LIG    1        1.032   1.837   0.002  0.00  0.00    -0.170 OA
ENDBRANCH  12  14
ENDBRANCH  11  12
ENDBRANCH   1  11
TORSDOF 3
