REMARK  Name = ZINC000104566799
REMARK                            x       y       z     vdW  Elec       q    Type
REMARK                         _______ _______ _______ _____ _____    ______ ____
ROOT
ATOM      1  C   LIG    1       -1.877   0.731  -0.476  0.00  0.00    +0.120 C 
ATOM      2  C   LIG    1       -0.913  -0.415  -0.307  0.00  0.00    -0.100 A 
ATOM      3  C   LIG    1       -0.129  -0.821  -1.371  0.00  0.00    +0.080 A 
ATOM      4  C   LIG    1        0.755  -1.871  -1.219  0.00  0.00    -0.080 A 
ATOM      5  C   LIG    1        0.857  -2.519   0.005  0.00  0.00    +0.160 A 
ATOM      6  C   LIG    1        0.067  -2.109   1.072  0.00  0.00    -0.080 A 
ATOM      7  C   LIG    1        1.609  -2.311  -2.380  0.00  0.00    +0.120 C 
ATOM      8  C   LIG    1       -0.811  -1.055   0.915  0.00  0.00    +0.100 A 
ENDROOT
BRANCH   6   9
ATOM      9  N   LIG    1        0.172  -2.797   2.378  0.00  0.00    +0.020 N 
ATOM     10  O   LIG    1        0.333  -4.004   2.420  0.00  0.00    -0.160 OA
ATOM     11  O   LIG    1        0.098  -2.157   3.412  0.00  0.00    -0.150 OA
ENDBRANCH   6   9
BRANCH   5  12
ATOM     12  N   LIG    1        1.750  -3.581   0.162  0.00  0.00    -0.450 N 
ATOM     13  H   LIG    1        1.983  -3.717   1.135  0.00  0.00    +0.340 HD
BRANCH  12  14
ATOM     14  N   LIG    1        2.948  -3.377  -0.636  0.00  0.00    -0.650 NA
ATOM     15  H   LIG    1        3.521  -4.207  -0.648  0.00  0.00    +0.370 HD
ATOM     16  H   LIG    1        3.472  -2.581  -0.305  0.00  0.00    +0.330 HD
ENDBRANCH  12  14
ENDBRANCH   5  12
TORSDOF 3
