REMARK  Name = ZINC000004777716
REMARK                            x       y       z     vdW  Elec       q    Type
REMARK                         _______ _______ _______ _____ _____    ______ ____
ROOT
ATOM      1  O   LIG    1       -0.022   0.076  -0.130  0.00  0.00    -0.620 OA
ATOM      2  N   LIG    1       -0.043   1.535  -0.032  0.00  0.00    -0.100 N 
ATOM      3  C   LIG    1       -0.798   2.092  -1.164  0.00  0.00    +0.190 C 
ATOM      4  C   LIG    1       -0.165   1.654  -2.485  0.00  0.00    +0.050 C 
ATOM      5  C   LIG    1        1.275   2.174  -2.540  0.00  0.00    +0.000 C 
ATOM      6  C   LIG    1        2.039   1.628  -1.333  0.00  0.00    +0.050 C 
ATOM      7  C   LIG    1       -0.725   1.933   1.209  0.00  0.00    +0.140 C 
ATOM      8  C   LIG    1       -0.015   1.325   2.419  0.00  0.00    +0.050 C 
ATOM      9  C   LIG    1        1.428   1.840   2.455  0.00  0.00    +0.010 C 
ATOM     10  C   LIG    1        2.115   1.464   1.142  0.00  0.00    +0.050 C 
ATOM     11  C   LIG    1        1.332   2.046  -0.040  0.00  0.00    +0.130 C 
ENDROOT
BRANCH   7  12
ATOM     12  C   LIG    1       -2.172   1.438   1.169  0.00  0.00    +0.180 C 
BRANCH  12  13
ATOM     13  O   LIG    1       -2.187   0.009   1.153  0.00  0.00    -0.520 OA
ATOM     14  H   LIG    1       -3.074  -0.374   1.128  0.00  0.00    +0.370 HD
ENDBRANCH  12  13
ENDBRANCH   7  12
TORSDOF 2
