REMARK  Name = ZINC000005845266
REMARK                            x       y       z     vdW  Elec       q    Type
REMARK                         _______ _______ _______ _____ _____    ______ ____
ROOT
ATOM      1  C   LIG    1        0.002  -0.004   0.002  0.00  0.00    +0.120 A 
ATOM      2  C   LIG    1       -1.152  -0.932   0.002  0.00  0.00    -0.230 A 
ATOM      3  C   LIG    1       -2.513  -0.654   0.009  0.00  0.00    +0.220 A 
ATOM      4  C   LIG    1       -3.448  -1.696   0.007  0.00  0.00    -0.060 A 
ATOM      5  C   LIG    1       -3.017  -3.002  -0.002  0.00  0.00    +0.120 A 
ATOM      6  C   LIG    1       -1.661  -3.301  -0.009  0.00  0.00    +0.040 A 
ATOM      7  C   LIG    1       -0.694  -2.266  -0.008  0.00  0.00    +0.210 A 
ATOM      8  N   LIG    1        0.634  -2.421  -0.013  0.00  0.00    -0.640 NA
ATOM      9  S   LIG    1        1.409  -1.074  -0.018  0.00  0.00    +0.500 S 
ENDROOT
BRANCH   1  10
ATOM     10  N   LIG    1       -0.016   1.330   0.009  0.00  0.00    -0.750 N 
ATOM     11  H   LIG    1       -0.863   1.803   0.016  0.00  0.00    +0.420 HD
ATOM     12  H   LIG    1        0.817   1.826   0.004  0.00  0.00    +0.430 HD
ENDBRANCH   1  10
BRANCH   4  13
ATOM     13  N   LIG    1       -4.896  -1.393   0.015  0.00  0.00    +0.000 N 
ATOM     14  O   LIG    1       -5.775  -2.374   0.013  0.00  0.00    -0.180 OA
ATOM     15  O   LIG    1       -5.307  -0.141   0.023  0.00  0.00    -0.200 OA
ENDBRANCH   4  13
TORSDOF 2
