REMARK  Name = ZINC000002524659
REMARK                            x       y       z     vdW  Elec       q    Type
REMARK                         _______ _______ _______ _____ _____    ______ ____
ROOT
ATOM      1  C   LIG    1       -3.546   2.018   1.050  0.00  0.00    -0.110 A 
ATOM      2  C   LIG    1       -3.730   3.093   1.899  0.00  0.00    +0.060 A 
ATOM      3  C   LIG    1       -4.935   3.768   1.910  0.00  0.00    -0.010 A 
ATOM      4  C   LIG    1       -5.960   3.368   1.068  0.00  0.00    +0.110 A 
ATOM      5  C   LIG    1       -5.775   2.292   0.218  0.00  0.00    -0.010 A 
ATOM      6  F   LIG    1       -7.139   4.028   1.077  0.00  0.00    -0.130 F 
ATOM      7  C   LIG    1       -4.567   1.621   0.206  0.00  0.00    +0.060 A 
ENDROOT
BRANCH   1   8
ATOM      8  C   LIG    1       -2.231   1.282   1.040  0.00  0.00    +0.110 C 
BRANCH   8   9
ATOM      9  C   LIG    1       -1.293   1.929   0.019  0.00  0.00    +0.260 C 
BRANCH   9  11
ATOM     10  O   LIG    1        0.002  -0.004   0.002  0.00  0.00    -0.160 OA
ATOM     11  N   LIG    1       -0.014   1.214   0.009  0.00  0.00    -0.020 N 
ATOM     12  O   LIG    1        1.032   1.837   0.002  0.00  0.00    -0.160 OA
ENDBRANCH   9  11
ENDBRANCH   8   9
ENDBRANCH   1   8
TORSDOF 3
