REMARK  Name = ZINC000001583723
REMARK                            x       y       z     vdW  Elec       q    Type
REMARK                         _______ _______ _______ _____ _____    ______ ____
ROOT
ATOM      1  C   LIG    1        0.853  -1.876  -1.470  0.00  0.00    -0.030 A 
ATOM      2  C   LIG    1        1.478  -2.458  -2.555  0.00  0.00    +0.070 A 
ATOM      3  C   LIG    1        1.387  -3.844  -2.372  0.00  0.00    +0.100 A 
ATOM      4  C   LIG    1        0.725  -4.052  -1.210  0.00  0.00    +0.040 A 
ATOM      5  O   LIG    1        0.411  -2.869  -0.668  0.00  0.00    -0.120 OA
ENDROOT
BRANCH   4   6
ATOM      6  N   LIG    1        0.405  -5.375  -0.628  0.00  0.00    +0.060 N 
ATOM      7  O   LIG    1       -0.198  -5.446   0.428  0.00  0.00    -0.120 OA
ATOM      8  O   LIG    1        0.744  -6.392  -1.205  0.00  0.00    -0.110 OA
ENDBRANCH   4   6
BRANCH   1   9
ATOM      9  C   LIG    1        0.707  -0.490  -1.238  0.00  0.00    +0.430 C 
ATOM     10  O   LIG    1        1.151   0.310  -2.037  0.00  0.00    -0.410 OA
BRANCH   9  12
ATOM     11  C   LIG    1       -0.019   1.526   0.010  0.00  0.00    +0.040 C 
ATOM     12  C   LIG    1        0.002  -0.004   0.002  0.00  0.00    +0.050 C 
ENDBRANCH   9  12
ENDBRANCH   1   9
TORSDOF 3
