REMARK  Name = ZINC000095756856
REMARK                            x       y       z     vdW  Elec       q    Type
REMARK                         _______ _______ _______ _____ _____    ______ ____
ROOT
ATOM      1  C   LIG    1        1.250   1.962   0.001  0.00  0.00    +0.180 A 
ATOM      2  N   LIG    1        2.444   1.425  -0.019  0.00  0.00    -0.410 NA
ATOM      3  C   LIG    1        3.365   2.405  -0.021  0.00  0.00    +0.060 A 
ATOM      4  C   LIG    1        4.765   2.417  -0.038  0.00  0.00    +0.130 A 
ATOM      5  C   LIG    1        5.434   3.607  -0.034  0.00  0.00    +0.100 A 
ATOM      6  C   LIG    1        4.739   4.810  -0.014  0.00  0.00    -0.010 A 
ATOM      7  C   LIG    1        3.360   4.823   0.003  0.00  0.00    +0.150 A 
ATOM      8  C   LIG    1        2.660   3.625  -0.000  0.00  0.00    +0.020 A 
ATOM      9  O   LIG    1        1.349   3.306   0.007  0.00  0.00    -0.180 OA
ENDROOT
BRANCH   6  10
ATOM     10  N   LIG    1        5.485   6.088  -0.010  0.00  0.00    +0.030 N 
ATOM     11  O   LIG    1        4.881   7.146   0.008  0.00  0.00    -0.150 OA
ATOM     12  O   LIG    1        6.703   6.083  -0.025  0.00  0.00    -0.140 OA
ENDBRANCH   6  10
BRANCH   1  14
ATOM     13  O   LIG    1        0.002  -0.004   0.002  0.00  0.00    -0.390 OA
ATOM     14  C   LIG    1       -0.014   1.208   0.009  0.00  0.00    +0.600 C 
ENDBRANCH   1  14
TORSDOF 2
