REMARK  Name = ZINC000096306187
REMARK                            x       y       z     vdW  Elec       q    Type
REMARK                         _______ _______ _______ _____ _____    ______ ____
ROOT
ATOM      1  C   LIG    1        1.185   2.066   0.002  0.00  0.00    +0.240 A 
ATOM      2  C   LIG    1        2.398   1.390  -0.019  0.00  0.00    -0.020 A 
ATOM      3  C   LIG    1        3.583   2.100  -0.026  0.00  0.00    +0.150 A 
ATOM      4  C   LIG    1        3.562   3.482  -0.013  0.00  0.00    -0.080 A 
ATOM      5  C   LIG    1        2.357   4.159   0.008  0.00  0.00    +0.150 A 
ATOM      6  C   LIG    1        1.168   3.455   0.009  0.00  0.00    +0.000 A 
ENDROOT
BRANCH   4   7
ATOM      7  N   LIG    1        4.834   4.240  -0.021  0.00  0.00    +0.030 N 
ATOM      8  O   LIG    1        4.818   5.458  -0.009  0.00  0.00    -0.160 OA
ATOM      9  O   LIG    1        5.897   3.645  -0.040  0.00  0.00    -0.160 OA
ENDBRANCH   4   7
BRANCH   1  10
ATOM     10  N   LIG    1       -0.016   1.351   0.009  0.00  0.00    -0.600 N 
ATOM     11  H   LIG    1       -0.863   1.824   0.016  0.00  0.00    +0.440 HD
BRANCH  10  13
ATOM     12  N   LIG    1        0.018  -1.140  -0.004  0.00  0.00    -0.390 NA
ATOM     13  C   LIG    1        0.002  -0.004   0.002  0.00  0.00    +0.400 C 
ENDBRANCH  10  13
ENDBRANCH   1  10
TORSDOF 3
