REMARK  Name = ZINC000096316052
REMARK                            x       y       z     vdW  Elec       q    Type
REMARK                         _______ _______ _______ _____ _____    ______ ____
ROOT
ATOM      1  C   LIG    1       -0.018   1.503   0.010  0.00  0.00    +0.120 C 
ATOM      2  C   LIG    1        0.002  -0.004   0.002  0.00  0.00    -0.040 A 
ATOM      3  C   LIG    1        0.006  -0.689  -1.196  0.00  0.00    +0.100 A 
ATOM      4  C   LIG    1        0.025  -2.072  -1.205  0.00  0.00    -0.020 A 
ATOM      5  C   LIG    1        0.041  -2.778  -0.015  0.00  0.00    +0.100 A 
ATOM      6  C   LIG    1        0.037  -2.106   1.190  0.00  0.00    -0.040 A 
ATOM      7  C   LIG    1        0.053  -2.876   2.485  0.00  0.00    +0.120 C 
ATOM      8  C   LIG    1        0.023  -0.710   1.206  0.00  0.00    -0.090 A 
ENDROOT
BRANCH   8   9
ATOM      9  C   LIG    1        0.019   0.017   2.493  0.00  0.00    +0.570 C 
ATOM     10  O   LIG    1        1.070   0.327   3.020  0.00  0.00    -0.520 OA
ATOM     11  N   LIG    1       -1.150   0.338   3.082  0.00  0.00    -0.840 N 
ATOM     12  H   LIG    1       -1.153   0.815   3.927  0.00  0.00    +0.410 HD
ATOM     13  H   LIG    1       -1.989   0.091   2.662  0.00  0.00    +0.410 HD
ENDBRANCH   8   9
BRANCH   4  14
ATOM     14  N   LIG    1        0.029  -2.800  -2.494  0.00  0.00    +0.020 N 
ATOM     15  O   LIG    1        0.046  -4.018  -2.505  0.00  0.00    -0.150 OA
ATOM     16  O   LIG    1        0.016  -2.182  -3.543  0.00  0.00    -0.150 OA
ENDBRANCH   4  14
TORSDOF 2
