REMARK  Name = ZINC000096527760
REMARK                            x       y       z     vdW  Elec       q    Type
REMARK                         _______ _______ _______ _____ _____    ______ ____
ROOT
ATOM      1  C   LIG    1        0.002  -0.004   0.002  0.00  0.00    +0.390 A 
ATOM      2  N   LIG    1       -1.049  -0.789   0.002  0.00  0.00    -0.320 NA
ATOM      3  N   LIG    1       -0.603  -2.117  -0.007  0.00  0.00    -0.440 N 
ATOM      4  H   LIG    1       -1.165  -2.907  -0.010  0.00  0.00    +0.460 HD
ATOM      5  C   LIG    1        0.747  -2.104  -0.013  0.00  0.00    +0.200 A 
ATOM      6  C   LIG    1        1.149  -0.814  -0.013  0.00  0.00    -0.220 A 
ENDROOT
BRANCH   5   7
ATOM      7  C   LIG    1        1.645  -3.314  -0.024  0.00  0.00    +0.050 C 
ATOM      8  C   LIG    1        1.302  -4.255   1.157  0.00  0.00    +0.030 C 
ATOM      9  C   LIG    1        1.829  -5.627   0.667  0.00  0.00    +0.030 C 
ATOM     10  C   LIG    1        1.498  -5.642  -0.840  0.00  0.00    +0.010 C 
ATOM     11  C   LIG    1        1.381  -4.172  -1.279  0.00  0.00    +0.030 C 
ENDBRANCH   5   7
BRANCH   1  12
ATOM     12  N   LIG    1       -0.017   1.396   0.010  0.00  0.00    -0.830 N 
ATOM     13  H   LIG    1       -0.863   1.869   0.016  0.00  0.00    +0.420 HD
ATOM     14  H   LIG    1        0.816   1.892   0.004  0.00  0.00    +0.410 HD
ENDBRANCH   1  12
BRANCH   6  15
ATOM     15  N   LIG    1        2.551  -0.338  -0.019  0.00  0.00    +0.050 N 
ATOM     16  O   LIG    1        3.133  -0.144   1.033  0.00  0.00    -0.140 OA
ATOM     17  O   LIG    1        3.123  -0.141  -1.076  0.00  0.00    -0.140 OA
ENDBRANCH   6  15
TORSDOF 3
