REMARK  Name = ZINC000034223952
REMARK                            x       y       z     vdW  Elec       q    Type
REMARK                         _______ _______ _______ _____ _____    ______ ____
ROOT
ATOM      1  C   LIG    1       -0.018   1.503   0.010  0.00  0.00    +0.120 C 
ATOM      2  C   LIG    1        0.002  -0.004   0.002  0.00  0.00    -0.130 A 
ATOM      3  C   LIG    1        0.006  -0.685  -1.209  0.00  0.00    +0.170 A 
ATOM      4  C   LIG    1        0.024  -2.051  -1.243  0.00  0.00    -0.070 A 
ATOM      5  C   LIG    1        0.040  -2.774  -0.053  0.00  0.00    +0.170 A 
ATOM      6  N   LIG    1        0.059  -4.112   0.245  0.00  0.00    -0.480 N 
ATOM      7  H   LIG    1        0.066  -4.833  -0.404  0.00  0.00    +0.450 HD
ATOM      8  N   LIG    1        0.068  -4.271   1.634  0.00  0.00    -0.230 NA
ATOM      9  C   LIG    1        0.055  -3.106   2.218  0.00  0.00    +0.300 A 
ATOM     10  C   LIG    1        0.036  -2.085   1.175  0.00  0.00    -0.180 A 
ATOM     11  C   LIG    1        0.023  -0.686   1.184  0.00  0.00    +0.170 A 
ENDROOT
BRANCH   4  12
ATOM     12  N   LIG    1        0.028  -2.760  -2.542  0.00  0.00    +0.040 N 
ATOM     13  O   LIG    1        0.044  -3.978  -2.571  0.00  0.00    -0.190 OA
ATOM     14  O   LIG    1        0.015  -2.126  -3.582  0.00  0.00    -0.150 OA
ENDBRANCH   4  12
TORSDOF 1
