REMARK  Name = ZINC000040449915
REMARK                            x       y       z     vdW  Elec       q    Type
REMARK                         _______ _______ _______ _____ _____    ______ ____
ROOT
ATOM      1  C   LIG    1       -1.306   1.936   0.019  0.00  0.00    +0.030 A 
ATOM      2  C   LIG    1       -1.343   3.324   0.021  0.00  0.00    +0.030 A 
ATOM      3  C   LIG    1       -2.564   3.968   0.030  0.00  0.00    +0.320 A 
ATOM      4  N   LIG    1       -3.691   3.282   0.036  0.00  0.00    -0.480 NA
ATOM      5  C   LIG    1       -3.698   1.958   0.035  0.00  0.00    +0.320 A 
ATOM      6  C   LIG    1       -2.504   1.244   0.021  0.00  0.00    +0.050 A 
ENDROOT
BRANCH   5   7
ATOM      7  N   LIG    1       -4.908   1.275   0.042  0.00  0.00    -0.460 N 
ATOM      8  C   LIG    1       -5.051   0.456   1.273  0.00  0.00    +0.200 C 
ATOM      9  C   LIG    1       -6.579   0.219   1.367  0.00  0.00    +0.040 C 
ATOM     10  C   LIG    1       -7.167   1.565   0.883  0.00  0.00    +0.020 C 
ATOM     11  C   LIG    1       -6.048   2.217   0.050  0.00  0.00    +0.200 C 
ENDBRANCH   5   7
BRANCH   1  13
ATOM     12  O   LIG    1        0.002  -0.004   0.002  0.00  0.00    -0.140 OA
ATOM     13  N   LIG    1       -0.014   1.214   0.009  0.00  0.00    +0.020 N 
ATOM     14  O   LIG    1        1.032   1.837   0.002  0.00  0.00    -0.140 OA
ENDBRANCH   1  13
TORSDOF 2
