REMARK  Name = ZINC000001625003
REMARK                            x       y       z     vdW  Elec       q    Type
REMARK                         _______ _______ _______ _____ _____    ______ ____
ROOT
ATOM      1  C   LIG    1       -2.550   3.798   1.055  0.00  0.00    -0.090 A 
ATOM      2  C   LIG    1       -2.746   4.875   0.211  0.00  0.00    +0.090 A 
ATOM      3  C   LIG    1       -3.953   5.550   0.221  0.00  0.00    +0.040 A 
ATOM      4  C   LIG    1       -4.963   5.148   1.073  0.00  0.00    +0.110 A 
ATOM      5  C   LIG    1       -4.768   4.070   1.917  0.00  0.00    -0.040 A 
ATOM      6  C   LIG    1       -3.563   3.392   1.904  0.00  0.00    +0.110 A 
ENDROOT
BRANCH   5   7
ATOM      7  N   LIG    1       -5.850   3.639   2.830  0.00  0.00    +0.020 N 
ATOM      8  O   LIG    1       -5.677   2.689   3.573  0.00  0.00    -0.150 OA
ATOM      9  O   LIG    1       -6.912   4.234   2.839  0.00  0.00    -0.150 OA
ENDBRANCH   5   7
BRANCH   1  10
ATOM     10  C   LIG    1       -1.235   3.063   1.045  0.00  0.00    +0.120 C 
BRANCH  10  11
ATOM     11  C   LIG    1       -1.293   1.929   0.019  0.00  0.00    +0.270 C 
BRANCH  11  13
ATOM     12  O   LIG    1        0.002  -0.004   0.002  0.00  0.00    -0.160 OA
ATOM     13  N   LIG    1       -0.014   1.214   0.009  0.00  0.00    -0.020 N 
ATOM     14  O   LIG    1        1.032   1.837   0.002  0.00  0.00    -0.150 OA
ENDBRANCH  11  13
ENDBRANCH  10  11
ENDBRANCH   1  10
TORSDOF 4
