REMARK  Name = ZINC000026254541
REMARK                            x       y       z     vdW  Elec       q    Type
REMARK                         _______ _______ _______ _____ _____    ______ ____
ROOT
ATOM      1  C   LIG    1        1.200   1.933   0.001  0.00  0.00    -0.010 A 
ATOM      2  C   LIG    1        1.328   3.308   0.013  0.00  0.00    -0.070 A 
ATOM      3  C   LIG    1        2.703   3.580  -0.000  0.00  0.00    +0.020 A 
ATOM      4  C   LIG    1        3.346   2.390  -0.019  0.00  0.00    +0.260 A 
ATOM      5  O   LIG    1        2.442   1.404  -0.013  0.00  0.00    -0.110 OA
ENDROOT
BRANCH   2   6
ATOM      6  N   LIG    1        0.230   4.300   0.035  0.00  0.00    +0.050 N 
ATOM      7  O   LIG    1       -0.929   3.925   0.045  0.00  0.00    -0.150 OA
ATOM      8  O   LIG    1        0.485   5.491   0.044  0.00  0.00    -0.120 OA
ENDBRANCH   2   6
BRANCH   1  10
ATOM      9  O   LIG    1        0.002  -0.004   0.002  0.00  0.00    -0.410 OA
ATOM     10  C   LIG    1       -0.014   1.210   0.009  0.00  0.00    +0.560 C 
ENDBRANCH   1  10
TORSDOF 2
