REMARK  Name = ZINC000001599385
REMARK                            x       y       z     vdW  Elec       q    Type
REMARK                         _______ _______ _______ _____ _____    ______ ____
ROOT
ATOM      1  C   LIG    1       -1.413  -2.063   0.004  0.00  0.00    +0.300 C 
ATOM      2  O   LIG    1       -0.825  -2.539   1.218  0.00  0.00    -0.370 OA
ATOM      3  C   LIG    1       -0.784  -3.966   1.319  0.00  0.00    +0.280 C 
ATOM      4  C   LIG    1       -2.211  -4.513   1.202  0.00  0.00    -0.030 C 
ATOM      5  C   LIG    1       -2.840  -3.986  -0.092  0.00  0.00    +0.280 C 
ATOM      6  C   LIG    1       -2.171  -6.043   1.167  0.00  0.00    +0.130 C 
ATOM      7  O   LIG    1       -2.750  -2.558  -0.103  0.00  0.00    -0.380 OA
ENDROOT
BRANCH   4   8
ATOM      8  N   LIG    1       -3.002  -4.070   2.353  0.00  0.00    +0.000 N 
ATOM      9  O   LIG    1       -2.460  -3.872   3.425  0.00  0.00    -0.150 OA
ATOM     10  O   LIG    1       -4.202  -3.898   2.236  0.00  0.00    -0.150 OA
ENDBRANCH   4   8
BRANCH   1  11
ATOM     11  C   LIG    1       -1.433  -0.534   0.013  0.00  0.00    +0.060 C 
BRANCH  11  13
ATOM     12  C   LIG    1       -0.019   1.526   0.010  0.00  0.00    +0.030 C 
ATOM     13  C   LIG    1        0.002  -0.004   0.002  0.00  0.00    +0.010 C 
ENDBRANCH  11  13
ENDBRANCH   1  11
TORSDOF 3
