REMARK  Name = ZINC000001720696
REMARK                            x       y       z     vdW  Elec       q    Type
REMARK                         _______ _______ _______ _____ _____    ______ ____
ROOT
ATOM      1  C   LIG    1        0.052  -3.279   1.392  0.00  0.00    +0.120 A 
ATOM      2  C   LIG    1        0.072  -4.546   0.887  0.00  0.00    +0.050 A 
ATOM      3  C   LIG    1        0.087  -5.420   1.989  0.00  0.00    +0.120 A 
ATOM      4  C   LIG    1        0.076  -4.655   3.101  0.00  0.00    +0.040 A 
ATOM      5  O   LIG    1        0.060  -3.365   2.737  0.00  0.00    -0.120 OA
ENDROOT
BRANCH   1  10
ATOM      6  C   LIG    1       -0.018   1.503   0.010  0.00  0.00    +0.220 C 
ATOM      7  C   LIG    1        0.002  -0.004   0.002  0.00  0.00    +0.180 A 
ATOM      8  N   LIG    1        0.008  -0.766  -1.053  0.00  0.00    -0.360 NA
ATOM      9  O   LIG    1        0.025  -1.935  -0.733  0.00  0.00    +0.120 OA
ATOM     10  C   LIG    1        0.032  -2.038   0.607  0.00  0.00    +0.230 A 
ATOM     11  N   LIG    1        0.023  -0.801   1.080  0.00  0.00    -0.440 NA
ENDBRANCH   1  10
BRANCH   4  12
ATOM     12  N   LIG    1        0.085  -5.159   4.494  0.00  0.00    +0.060 N 
ATOM     13  O   LIG    1        0.073  -4.374   5.425  0.00  0.00    -0.120 OA
ATOM     14  O   LIG    1        0.105  -6.357   4.707  0.00  0.00    -0.110 OA
ENDBRANCH   4  12
TORSDOF 2
