REMARK  Name = ZINC000082402723
REMARK                            x       y       z     vdW  Elec       q    Type
REMARK                         _______ _______ _______ _____ _____    ______ ____
ROOT
ATOM      1  C   LIG    1       -0.018   1.503   0.010  0.00  0.00    +0.150 C 
ATOM      2  C   LIG    1        0.002  -0.004   0.002  0.00  0.00    +0.210 A 
ATOM      3  C   LIG    1        0.005  -0.678  -1.201  0.00  0.00    -0.100 A 
ATOM      4  C   LIG    1        0.025  -2.073  -1.196  0.00  0.00    +0.310 A 
ATOM      5  C   LIG    1        0.039  -2.729   0.034  0.00  0.00    -0.180 A 
ATOM      6  C   LIG    1        0.035  -1.981   1.193  0.00  0.00    +0.240 A 
ATOM      7  C   LIG    1        0.050  -2.678   2.529  0.00  0.00    +0.150 C 
ATOM      8  N   LIG    1        0.022  -0.662   1.146  0.00  0.00    -0.510 NA
ENDROOT
BRANCH   5   9
ATOM      9  N   LIG    1        0.060  -4.208   0.096  0.00  0.00    +0.030 N 
ATOM     10  O   LIG    1       -0.986  -4.831   0.126  0.00  0.00    -0.140 OA
ATOM     11  O   LIG    1        1.123  -4.801   0.117  0.00  0.00    -0.140 OA
ENDBRANCH   5   9
BRANCH   4  12
ATOM     12  N   LIG    1        0.029  -2.791  -2.388  0.00  0.00    -0.850 N 
ATOM     13  H   LIG    1        0.042  -3.761  -2.370  0.00  0.00    +0.410 HD
ATOM     14  H   LIG    1        0.019  -2.322  -3.237  0.00  0.00    +0.420 HD
ENDBRANCH   4  12
TORSDOF 2
