REMARK  Name = ZINC000408716549
REMARK                            x       y       z     vdW  Elec       q    Type
REMARK                         _______ _______ _______ _____ _____    ______ ____
ROOT
ATOM      1  N   LIG    1       -1.414  -1.994   0.125  0.00  0.00    -0.220 N 
ATOM      2  N   LIG    1       -0.856  -2.794  -0.711  0.00  0.00    -0.180 NA
ATOM      3  C   LIG    1       -1.007  -4.041  -0.340  0.00  0.00    +0.060 A 
ATOM      4  C   LIG    1       -1.732  -4.050   0.852  0.00  0.00    +0.100 A 
ATOM      5  C   LIG    1       -1.983  -2.715   1.140  0.00  0.00    -0.080 A 
ENDROOT
BRANCH   3   6
ATOM      6  N   LIG    1       -0.497  -5.230  -1.058  0.00  0.00    +0.060 N 
ATOM      7  O   LIG    1       -0.701  -6.345  -0.612  0.00  0.00    -0.130 OA
ATOM      8  O   LIG    1        0.126  -5.095  -2.096  0.00  0.00    -0.130 OA
ENDBRANCH   3   6
BRANCH   1   9
ATOM      9  C   LIG    1       -1.433  -0.534   0.013  0.00  0.00    +0.260 C 
ATOM     10  C   LIG    1       -2.135  -0.131  -1.286  0.00  0.00    +0.080 C 
BRANCH   9  12
ATOM     11  C   LIG    1       -0.019   1.526   0.010  0.00  0.00    +0.050 C 
ATOM     12  C   LIG    1        0.002  -0.004   0.002  0.00  0.00    +0.020 C 
ENDBRANCH   9  12
ENDBRANCH   1   9
BRANCH   5  13
ATOM     13  C   LIG    1       -2.714  -2.186   2.292  0.00  0.00    +0.530 C 
ATOM     14  O   LIG    1       -3.175  -2.946   3.118  0.00  0.00    -0.420 OA
ENDBRANCH   5  13
TORSDOF 4
