REMARK  Name = ZINC000021982005
REMARK                            x       y       z     vdW  Elec       q    Type
REMARK                         _______ _______ _______ _____ _____    ______ ____
ROOT
ATOM      1  C   LIG    1        0.606  -0.607  -1.056  0.00  0.00    +0.140 A 
ATOM      2  C   LIG    1       -0.123  -0.926  -2.197  0.00  0.00    -0.070 A 
ATOM      3  C   LIG    1        0.536  -1.540  -3.250  0.00  0.00    +0.070 A 
ATOM      4  C   LIG    1        1.886  -1.813  -3.133  0.00  0.00    +0.300 A 
ATOM      5  N   LIG    1        2.548  -1.498  -2.037  0.00  0.00    -0.410 NA
ATOM      6  C   LIG    1       -1.594  -0.611  -2.286  0.00  0.00    +0.150 C 
ATOM      7  C   LIG    1        1.960  -0.908  -1.015  0.00  0.00    +0.120 A 
ENDROOT
BRANCH   7   8
ATOM      8  N   LIG    1        2.682  -0.604   0.090  0.00  0.00    +0.060 N 
ATOM      9  O   LIG    1        2.144  -0.059   1.038  0.00  0.00    -0.160 OA
ATOM     10  O   LIG    1        3.868  -0.874   0.136  0.00  0.00    -0.150 OA
ENDBRANCH   7   8
BRANCH   1  12
ATOM     11  C   LIG    1       -0.017   1.425   0.010  0.00  0.00    +0.250 C 
ATOM     12  O   LIG    1        0.002  -0.004   0.002  0.00  0.00    -0.310 OA
ENDBRANCH   1  12
TORSDOF 2
