REMARK  Name = ZINC000002539651
REMARK                            x       y       z     vdW  Elec       q    Type
REMARK                         _______ _______ _______ _____ _____    ______ ____
ROOT
ATOM      1  C   LIG    1       -0.016   1.312   0.009  0.00  0.00    +0.260 A 
ATOM      2  C   LIG    1        1.172   2.038   0.002  0.00  0.00    +0.250 A 
ATOM      3  N   LIG    1        2.334   1.418  -0.013  0.00  0.00    -0.400 NA
ATOM      4  C   LIG    1        2.373   0.089  -0.021  0.00  0.00    +0.120 A 
ATOM      5  C   LIG    1        1.169  -0.652  -0.013  0.00  0.00    +0.110 A 
ATOM      6  C   LIG    1        1.213  -2.066  -0.021  0.00  0.00    +0.080 A 
ATOM      7  C   LIG    1        2.384  -2.734  -0.037  0.00  0.00    +0.080 A 
ATOM      8  C   LIG    1        3.623  -2.051  -0.046  0.00  0.00    +0.110 A 
ATOM      9  N   LIG    1        4.775  -2.726  -0.062  0.00  0.00    -0.420 NA
ATOM     10  C   LIG    1        5.916  -2.072  -0.070  0.00  0.00    +0.260 A 
ATOM     11  C   LIG    1        5.937  -0.680  -0.061  0.00  0.00    +0.250 A 
ATOM     12  N   LIG    1        4.812   0.005  -0.045  0.00  0.00    -0.400 NA
ATOM     13  C   LIG    1        3.648  -0.638  -0.038  0.00  0.00    +0.120 A 
ATOM     14  N   LIG    1        0.002  -0.004   0.002  0.00  0.00    -0.420 NA
ENDROOT
TORSDOF 0
