REMARK  Name = ZINC000039128319
REMARK                            x       y       z     vdW  Elec       q    Type
REMARK                         _______ _______ _______ _____ _____    ______ ____
ROOT
ATOM      1  C   LIG    1        0.002  -0.004   0.002  0.00  0.00    +0.230 A 
ATOM      2  C   LIG    1       -1.189  -0.716   0.004  0.00  0.00    +0.020 A 
ATOM      3  C   LIG    1       -1.169  -2.098  -0.004  0.00  0.00    +0.030 A 
ATOM      4  C   LIG    1        0.036  -2.775  -0.014  0.00  0.00    +0.030 A 
ATOM      5  C   LIG    1        1.229  -2.072  -0.016  0.00  0.00    +0.130 A 
ATOM      6  F   LIG    1        2.405  -2.737  -0.026  0.00  0.00    -0.110 F 
ATOM      7  C   LIG    1        1.216  -0.685  -0.013  0.00  0.00    +0.040 A 
ENDROOT
BRANCH   1   8
ATOM      8  N   LIG    1       -0.017   1.395   0.010  0.00  0.00    -0.850 N 
ATOM      9  H   LIG    1       -0.863   1.869   0.016  0.00  0.00    +0.410 HD
ATOM     10  H   LIG    1        0.816   1.892   0.004  0.00  0.00    +0.410 HD
ENDBRANCH   1   8
BRANCH   3  11
ATOM     11  N   LIG    1       -2.441  -2.855  -0.002  0.00  0.00    +0.030 N 
ATOM     12  O   LIG    1       -2.425  -4.072  -0.008  0.00  0.00    -0.150 OA
ATOM     13  O   LIG    1       -3.504  -2.260   0.007  0.00  0.00    -0.150 OA
ENDBRANCH   3  11
BRANCH   7  14
ATOM     14  O   LIG    1        2.388   0.007  -0.015  0.00  0.00    -0.470 OA
ATOM     15  H   LIG    1        2.724   0.209  -0.899  0.00  0.00    +0.400 HD
ENDBRANCH   7  14
TORSDOF 3
