REMARK  Name = ZINC000196911900
REMARK                            x       y       z     vdW  Elec       q    Type
REMARK                         _______ _______ _______ _____ _____    ______ ____
ROOT
ATOM      1  C   LIG    1        0.655  -2.037   1.299  0.00  0.00    -0.050 C 
ATOM      2  C   LIG    1        1.491  -2.557   2.473  0.00  0.00    +0.040 C 
ATOM      3  C   LIG    1        1.289  -4.067   2.612  0.00  0.00    +0.020 C 
ATOM      4  C   LIG    1       -0.171  -4.365   2.957  0.00  0.00    +0.030 C 
ATOM      5  C   LIG    1       -1.069  -3.913   1.800  0.00  0.00    +0.020 C 
ATOM      6  C   LIG    1       -0.783  -2.457   1.504  0.00  0.00    +0.370 C 
ATOM      7  O   LIG    1       -1.680  -1.651   1.440  0.00  0.00    -0.450 OA
ENDROOT
BRANCH   1   8
ATOM      8  C   LIG    1        0.742  -0.511   1.242  0.00  0.00    +0.100 C 
BRANCH   8  10
ATOM      9  C   LIG    1       -0.019   1.526   0.010  0.00  0.00    +0.090 C 
ATOM     10  C   LIG    1        0.002  -0.004   0.002  0.00  0.00    +0.150 C 
BRANCH  10  11
ATOM     11  N   LIG    1        0.688  -0.476  -1.203  0.00  0.00    -0.020 N 
ATOM     12  O   LIG    1        0.098  -1.180  -2.003  0.00  0.00    -0.170 OA
ATOM     13  O   LIG    1        1.848  -0.165  -1.405  0.00  0.00    -0.160 OA
ENDBRANCH  10  11
ENDBRANCH   8  10
ENDBRANCH   1   8
TORSDOF 3
