REMARK  Name = ZINC000095929723
REMARK                            x       y       z     vdW  Elec       q    Type
REMARK                         _______ _______ _______ _____ _____    ______ ____
ROOT
ATOM      1  C   LIG    1        1.248   1.961   0.001  0.00  0.00    -0.200 A 
ATOM      2  C   LIG    1        1.234   3.360   0.014  0.00  0.00    +0.190 A 
ATOM      3  C   LIG    1        2.421   4.059   0.007  0.00  0.00    -0.040 A 
ATOM      4  C   LIG    1        3.630   3.383  -0.013  0.00  0.00    +0.140 A 
ATOM      5  C   LIG    1        3.657   1.999  -0.026  0.00  0.00    +0.070 A 
ATOM      6  F   LIG    1        4.841   1.348  -0.046  0.00  0.00    -0.100 F 
ATOM      7  C   LIG    1        2.473   1.281  -0.015  0.00  0.00    +0.180 A 
ATOM      8  F   LIG    1        2.499  -0.070  -0.027  0.00  0.00    -0.080 F 
ENDROOT
BRANCH   3   9
ATOM      9  N   LIG    1        2.405   5.539   0.021  0.00  0.00    +0.030 N 
ATOM     10  O   LIG    1        3.453   6.160   0.015  0.00  0.00    -0.140 OA
ATOM     11  O   LIG    1        1.344   6.136   0.039  0.00  0.00    -0.140 OA
ENDBRANCH   3   9
BRANCH   1  13
ATOM     12  O   LIG    1        0.002  -0.004   0.002  0.00  0.00    -0.430 OA
ATOM     13  C   LIG    1       -0.014   1.208   0.009  0.00  0.00    +0.520 C 
ENDBRANCH   1  13
TORSDOF 2
