REMARK  Name = ZINC000083824752
REMARK                            x       y       z     vdW  Elec       q    Type
REMARK                         _______ _______ _______ _____ _____    ______ ____
ROOT
ATOM      1  C   LIG    1        1.341  -2.529  -2.322  0.00  0.00    +0.190 A 
ATOM      2  C   LIG    1        1.908  -1.762  -3.328  0.00  0.00    -0.110 A 
ATOM      3  C   LIG    1        2.524  -2.381  -4.406  0.00  0.00    +0.260 A 
ATOM      4  C   LIG    1        2.571  -3.768  -4.475  0.00  0.00    -0.030 A 
ATOM      5  C   LIG    1        2.005  -4.529  -3.471  0.00  0.00    +0.050 A 
ATOM      6  C   LIG    1        1.396  -3.915  -2.394  0.00  0.00    +0.010 A 
ENDROOT
BRANCH   5   7
ATOM      7  N   LIG    1        2.056  -6.007  -3.546  0.00  0.00    +0.020 N 
ATOM      8  O   LIG    1        1.557  -6.679  -2.662  0.00  0.00    -0.150 OA
ATOM      9  O   LIG    1        2.597  -6.550  -4.493  0.00  0.00    -0.150 OA
ENDBRANCH   5   7
BRANCH   3  10
ATOM     10  N   LIG    1        3.096  -1.611  -5.421  0.00  0.00    -0.860 N 
ATOM     11  H   LIG    1        3.527  -2.044  -6.175  0.00  0.00    +0.410 HD
ATOM     12  H   LIG    1        3.063  -0.642  -5.373  0.00  0.00    +0.410 HD
ENDBRANCH   3  10
BRANCH   1  13
ATOM     13  O   LIG    1        0.738  -1.926  -1.265  0.00  0.00    -0.300 OA
BRANCH  13  14
ATOM     14  C   LIG    1        0.718  -0.497  -1.257  0.00  0.00    +0.200 C 
BRANCH  14  16
ATOM     15  C   LIG    1       -0.019   1.526   0.010  0.00  0.00    +0.040 C 
ATOM     16  C   LIG    1        0.002  -0.004   0.002  0.00  0.00    +0.030 C 
ENDBRANCH  14  16
ENDBRANCH  13  14
ENDBRANCH   1  13
TORSDOF 5
