REMARK  Name = ZINC000669687376
REMARK                            x       y       z     vdW  Elec       q    Type
REMARK                         _______ _______ _______ _____ _____    ______ ____
ROOT
ATOM      1  C   LIG    1       -1.306   1.936   0.019  0.00  0.00    -0.040 A 
ATOM      2  C   LIG    1       -1.325   3.319   0.021  0.00  0.00    +0.110 A 
ATOM      3  C   LIG    1       -2.531   3.993   0.030  0.00  0.00    +0.080 A 
ATOM      4  C   LIG    1       -3.719   3.286   0.037  0.00  0.00    -0.060 A 
ATOM      5  C   LIG    1       -3.700   1.904   0.034  0.00  0.00    +0.040 A 
ATOM      6  C   LIG    1       -2.494   1.229   0.021  0.00  0.00    +0.110 A 
ENDROOT
BRANCH   4   7
ATOM      7  C   LIG    1       -5.034   4.022   0.048  0.00  0.00    +0.360 C 
ATOM      8  N   LIG    1       -4.936   5.277  -0.718  0.00  0.00    -0.550 NA
ATOM      9  C   LIG    1       -5.962   5.382  -1.488  0.00  0.00    +0.520 C 
ATOM     10  O   LIG    1       -6.812   4.343  -1.369  0.00  0.00    -0.190 OA
ATOM     11  N   LIG    1       -6.071   3.256  -0.692  0.00  0.00    -0.450 NA
ATOM     12  H   LIG    1       -5.648   2.634  -1.365  0.00  0.00    +0.350 HD
ENDBRANCH   4   7
BRANCH   1  14
ATOM     13  O   LIG    1        0.002  -0.004   0.002  0.00  0.00    -0.150 OA
ATOM     14  N   LIG    1       -0.014   1.214   0.009  0.00  0.00    +0.020 N 
ATOM     15  O   LIG    1        1.032   1.837   0.002  0.00  0.00    -0.150 OA
ENDBRANCH   1  14
TORSDOF 2
