REMARK  Name = ZINC000085385138
REMARK                            x       y       z     vdW  Elec       q    Type
REMARK                         _______ _______ _______ _____ _____    ______ ____
ROOT
ATOM      1  O   LIG    1        0.002  -0.004   0.002  0.00  0.00    -0.430 OA
ATOM      2  C   LIG    1       -0.014   1.208   0.009  0.00  0.00    +0.400 C 
ATOM      3  C   LIG    1       -1.321   1.975   0.032  0.00  0.00    +0.060 C 
ATOM      4  C   LIG    1       -1.181   3.147  -0.950  0.00  0.00    +0.060 C 
ATOM      5  C   LIG    1       -0.092   4.095  -0.455  0.00  0.00    +0.130 C 
ATOM      6  C   LIG    1        1.206   3.366  -0.231  0.00  0.00    +0.230 A 
ATOM      7  N   LIG    1        2.337   4.051  -0.248  0.00  0.00    -0.480 NA
ATOM      8  C   LIG    1        3.507   3.477  -0.054  0.00  0.00    +0.400 A 
ATOM      9  C   LIG    1        3.614   2.117   0.178  0.00  0.00    -0.120 A 
ATOM     10  C   LIG    1        2.463   1.348   0.204  0.00  0.00    +0.230 A 
ATOM     11  C   LIG    1        1.236   1.989   0.001  0.00  0.00    -0.220 A 
ENDROOT
BRANCH   9  12
ATOM     12  N   LIG    1        4.939   1.494   0.395  0.00  0.00    +0.030 N 
ATOM     13  O   LIG    1        5.023   0.296   0.598  0.00  0.00    -0.150 OA
ATOM     14  O   LIG    1        5.946   2.179   0.370  0.00  0.00    -0.140 OA
ENDBRANCH   9  12
TORSDOF 1
