REMARK  Name = ZINC000012396942
REMARK                            x       y       z     vdW  Elec       q    Type
REMARK                         _______ _______ _______ _____ _____    ______ ____
ROOT
ATOM      1  C   LIG    1       -0.018   1.461   0.010  0.00  0.00    +0.410 C 
ATOM      2  N   LIG    1        0.002  -0.004   0.002  0.00  0.00    -0.300 N 
ATOM      3  N   LIG    1        0.009  -0.822  -1.135  0.00  0.00    -0.170 NA
ATOM      4  C   LIG    1        0.027  -2.070  -0.742  0.00  0.00    +0.120 A 
ATOM      5  C   LIG    1        0.033  -2.086   0.657  0.00  0.00    +0.050 A 
ATOM      6  C   LIG    1        0.023  -0.804   1.089  0.00  0.00    -0.010 A 
ENDROOT
BRANCH   6   7
ATOM      7  C   LIG    1        0.025  -0.350   2.526  0.00  0.00    +0.550 C 
ATOM      8  F   LIG    1       -1.175   0.312   2.808  0.00  0.00    -0.160 F 
ATOM      9  F   LIG    1        1.099   0.521   2.739  0.00  0.00    -0.160 F 
ATOM     10  F   LIG    1        0.153  -1.462   3.366  0.00  0.00    -0.150 F 
ENDBRANCH   6   7
BRANCH   4  11
ATOM     11  N   LIG    1        0.040  -3.258  -1.624  0.00  0.00    +0.050 N 
ATOM     12  O   LIG    1        0.057  -4.376  -1.140  0.00  0.00    -0.120 OA
ATOM     13  O   LIG    1        0.032  -3.118  -2.834  0.00  0.00    -0.110 OA
ENDBRANCH   4  11
TORSDOF 2
