REMARK  Name = ZINC000000160482
REMARK                            x       y       z     vdW  Elec       q    Type
REMARK                         _______ _______ _______ _____ _____    ______ ____
ROOT
ATOM      1  C   LIG    1        0.606  -0.608  -1.056  0.00  0.00    +0.090 A 
ATOM      2  C   LIG    1        1.173   0.161  -2.062  0.00  0.00    +0.050 A 
ATOM      3  C   LIG    1        1.787  -0.452  -3.137  0.00  0.00    -0.050 A 
ATOM      4  C   LIG    1        1.837  -1.836  -3.211  0.00  0.00    +0.170 A 
ATOM      5  C   LIG    1        1.270  -2.605  -2.204  0.00  0.00    -0.020 A 
ATOM      6  C   LIG    1        0.661  -1.992  -1.127  0.00  0.00    -0.020 A 
ATOM      7  C   LIG    1        0.045  -2.827  -0.034  0.00  0.00    +0.130 C 
ENDROOT
BRANCH   3   8
ATOM      8  N   LIG    1        2.392   0.368  -4.210  0.00  0.00    +0.040 N 
ATOM      9  O   LIG    1        2.933  -0.172  -5.158  0.00  0.00    -0.130 OA
ATOM     10  O   LIG    1        2.349   1.584  -4.145  0.00  0.00    -0.180 OA
ENDBRANCH   3   8
BRANCH   1  12
ATOM     11  C   LIG    1       -0.017   1.425   0.010  0.00  0.00    +0.250 C 
ATOM     12  O   LIG    1        0.002  -0.004   0.002  0.00  0.00    -0.300 OA
ENDBRANCH   1  12
BRANCH   4  13
ATOM     13  O   LIG    1        2.442  -2.439  -4.268  0.00  0.00    -0.280 OA
ATOM     14  C   LIG    1        2.456  -3.868  -4.279  0.00  0.00    +0.250 C 
ENDBRANCH   4  13
TORSDOF 3
