REMARK  Name = ZINC000079026002
REMARK                            x       y       z     vdW  Elec       q    Type
REMARK                         _______ _______ _______ _____ _____    ______ ____
ROOT
ATOM      1  C   LIG    1       -1.306   1.936   0.019  0.00  0.00    +0.210 A 
ATOM      2  C   LIG    1       -1.306   3.323   0.021  0.00  0.00    +0.040 A 
ATOM      3  C   LIG    1       -2.510   4.002   0.030  0.00  0.00    +0.140 A 
ATOM      4  C   LIG    1       -3.687   3.251   0.037  0.00  0.00    -0.110 A 
ATOM      5  C   LIG    1       -5.113   3.583   0.048  0.00  0.00    -0.030 A 
ATOM      6  C   LIG    1       -5.784   2.421   0.051  0.00  0.00    +0.290 A 
ATOM      7  N   LIG    1       -4.903   1.373   0.043  0.00  0.00    -0.570 N 
ATOM      8  H   LIG    1       -5.153   0.436   0.044  0.00  0.00    +0.430 HD
ATOM      9  C   LIG    1       -3.612   1.844   0.035  0.00  0.00    +0.300 A 
ATOM     10  N   LIG    1       -2.428   1.247   0.020  0.00  0.00    -0.440 NA
ENDROOT
BRANCH   1  12
ATOM     11  O   LIG    1        0.002  -0.004   0.002  0.00  0.00    -0.120 OA
ATOM     12  N   LIG    1       -0.014   1.214   0.009  0.00  0.00    +0.030 N 
ATOM     13  O   LIG    1        1.032   1.837   0.002  0.00  0.00    -0.150 OA
ENDBRANCH   1  12
TORSDOF 1
