REMARK  Name = ZINC000104571319
REMARK                            x       y       z     vdW  Elec       q    Type
REMARK                         _______ _______ _______ _____ _____    ______ ____
ROOT
ATOM      1  C   LIG    1        0.655  -0.697   1.028  0.00  0.00    +0.300 A 
ATOM      2  C   LIG    1        1.408  -0.002   1.965  0.00  0.00    -0.030 A 
ATOM      3  C   LIG    1        2.136  -0.694   2.916  0.00  0.00    +0.170 A 
ATOM      4  C   LIG    1        2.114  -2.081   2.933  0.00  0.00    +0.020 A 
ATOM      5  C   LIG    1        1.364  -2.774   1.998  0.00  0.00    +0.150 A 
ATOM      6  F   LIG    1        2.825  -2.756   3.862  0.00  0.00    -0.110 F 
ATOM      7  F   LIG    1        2.869  -0.019   3.829  0.00  0.00    -0.110 F 
ATOM      8  C   LIG    1        0.632  -2.086   1.050  0.00  0.00    -0.110 A 
ENDROOT
BRANCH   8   9
ATOM      9  N   LIG    1       -0.170  -2.828   0.052  0.00  0.00    +0.040 N 
ATOM     10  O   LIG    1       -0.246  -2.421  -1.093  0.00  0.00    -0.180 OA
ATOM     11  O   LIG    1       -0.754  -3.847   0.376  0.00  0.00    -0.130 OA
ENDBRANCH   8   9
BRANCH   1  12
ATOM     12  N   LIG    1       -0.082   0.000   0.066  0.00  0.00    -0.560 N 
ATOM     13  H   LIG    1       -0.668  -0.481  -0.538  0.00  0.00    +0.420 HD
BRANCH  12  14
ATOM     14  N   LIG    1        0.024   1.359  -0.022  0.00  0.00    -0.600 NA
ATOM     15  H   LIG    1       -0.564   1.720  -0.759  0.00  0.00    +0.370 HD
ATOM     16  H   LIG    1        0.984   1.639  -0.156  0.00  0.00    +0.350 HD
ENDBRANCH  12  14
ENDBRANCH   1  12
TORSDOF 3
