REMARK  Name = ZINC000002519294
REMARK                            x       y       z     vdW  Elec       q    Type
REMARK                         _______ _______ _______ _____ _____    ______ ____
ROOT
ATOM      1  C   LIG    1       -3.735   1.979   0.030  0.00  0.00    -0.070 A 
ATOM      2  C   LIG    1       -3.757   3.375   0.032  0.00  0.00    +0.060 A 
ATOM      3  C   LIG    1       -4.963   4.045   0.042  0.00  0.00    +0.040 A 
ATOM      4  C   LIG    1       -6.154   3.340   0.049  0.00  0.00    +0.080 A 
ATOM      5  C   LIG    1       -6.147   1.954   0.048  0.00  0.00    +0.030 A 
ATOM      6  O   LIG    1       -7.166   1.045   0.053  0.00  0.00    -0.300 OA
ATOM      7  C   LIG    1       -6.565  -0.200   0.462  0.00  0.00    +0.440 C 
ATOM      8  O   LIG    1       -5.196  -0.073   0.034  0.00  0.00    -0.300 OA
ATOM      9  C   LIG    1       -4.938   1.266   0.032  0.00  0.00    +0.070 A 
ENDROOT
BRANCH   1  11
ATOM     10  C   LIG    1       -1.306   1.937   0.019  0.00  0.00    +0.080 C 
ATOM     11  C   LIG    1       -2.446   1.258   0.021  0.00  0.00    +0.180 C 
BRANCH  10  13
ATOM     12  O   LIG    1        0.002  -0.004   0.002  0.00  0.00    -0.180 OA
ATOM     13  N   LIG    1       -0.014   1.214   0.009  0.00  0.00    +0.020 N 
ATOM     14  O   LIG    1        1.032   1.837   0.002  0.00  0.00    -0.160 OA
ENDBRANCH  10  13
ENDBRANCH   1  11
TORSDOF 2
