REMARK  Name = ZINC000095097350
REMARK                            x       y       z     vdW  Elec       q    Type
REMARK                         _______ _______ _______ _____ _____    ______ ____
ROOT
ATOM      1  C   LIG    1       -1.306   1.935   0.031  0.00  0.00    -0.090 A 
ATOM      2  C   LIG    1       -2.505   1.248  -0.066  0.00  0.00    +0.110 A 
ATOM      3  C   LIG    1       -3.692   1.957  -0.065  0.00  0.00    +0.220 A 
ATOM      4  N   LIG    1       -3.696   3.272   0.026  0.00  0.00    -0.400 NA
ATOM      5  C   LIG    1       -2.579   3.965   0.119  0.00  0.00    +0.220 A 
ATOM      6  C   LIG    1       -1.347   3.324   0.131  0.00  0.00    +0.240 A 
ENDROOT
BRANCH   1   8
ATOM      7  O   LIG    1        0.000  -0.006   0.061  0.00  0.00    -0.140 OA
ATOM      8  N   LIG    1       -0.015   1.212   0.034  0.00  0.00    +0.050 N 
ATOM      9  O   LIG    1        1.031   1.834   0.004  0.00  0.00    -0.190 OA
ENDBRANCH   1   8
BRANCH   6  10
ATOM     10  N   LIG    1       -0.165   4.062   0.231  0.00  0.00    -0.680 N 
ATOM     11  H   LIG    1        0.693   3.616   0.157  0.00  0.00    +0.420 HD
BRANCH  10  12
ATOM     12  C   LIG    1       -0.221   5.510   0.447  0.00  0.00    +0.200 C 
ATOM     13  C   LIG    1        0.741   6.109   1.474  0.00  0.00    +0.020 C 
ATOM     14  C   LIG    1        0.976   6.341  -0.020  0.00  0.00    +0.030 C 
ENDBRANCH  10  12
ENDBRANCH   6  10
TORSDOF 3
