REMARK  Name = ZINC000001759032
REMARK                            x       y       z     vdW  Elec       q    Type
REMARK                         _______ _______ _______ _____ _____    ______ ____
ROOT
ATOM      1  C   LIG    1        0.739  -2.027  -1.265  0.00  0.00    +0.250 C 
ENDROOT
BRANCH   1   2
ATOM      2  O   LIG    1       -0.598  -2.521  -1.373  0.00  0.00    -0.550 OA
ATOM      3  H   LIG    1       -1.059  -2.238  -2.174  0.00  0.00    +0.390 HD
ENDBRANCH   1   2
BRANCH   1   4
ATOM      4  C   LIG    1        0.718  -0.497  -1.257  0.00  0.00    -0.020 C 
BRANCH   4   6
ATOM      5  C   LIG    1       -0.019   1.526   0.010  0.00  0.00    +0.010 C 
ATOM      6  C   LIG    1        0.002  -0.004   0.002  0.00  0.00    +0.020 C 
ENDBRANCH   4   6
ENDBRANCH   1   4
BRANCH   1   7
ATOM      7  C   LIG    1        1.562  -2.520  -2.457  0.00  0.00    +0.120 C 
BRANCH   7   8
ATOM      8  N   LIG    1        1.031  -1.936  -3.692  0.00  0.00    -0.010 N 
ATOM      9  O   LIG    1       -0.122  -2.152  -4.021  0.00  0.00    -0.170 OA
ATOM     10  O   LIG    1        1.742  -1.235  -4.389  0.00  0.00    -0.150 OA
ENDBRANCH   7   8
BRANCH   7  11
ATOM     11  C   LIG    1        1.480  -4.045  -2.538  0.00  0.00    +0.090 C 
ATOM     12  C   LIG    1        2.401  -4.547  -3.652  0.00  0.00    +0.020 C 
ENDBRANCH   7  11
ENDBRANCH   1   7
TORSDOF 6
