REMARK  Name = ZINC000002539091
REMARK                            x       y       z     vdW  Elec       q    Type
REMARK                         _______ _______ _______ _____ _____    ______ ____
ROOT
ATOM      1  C   LIG    1        0.611  -0.706  -0.999  0.00  0.00    +0.150 A 
ATOM      2  C   LIG    1        1.012   0.151  -2.019  0.00  0.00    +0.000 A 
ATOM      3  C   LIG    1        1.617  -0.357  -3.146  0.00  0.00    +0.120 A 
ATOM      4  C   LIG    1        1.827  -1.737  -3.261  0.00  0.00    -0.130 A 
ATOM      5  C   LIG    1        1.419  -2.590  -2.228  0.00  0.00    +0.020 A 
ATOM      6  C   LIG    1        0.825  -2.076  -1.111  0.00  0.00    +0.080 A 
ENDROOT
BRANCH   5   7
ATOM      7  N   LIG    1        1.639  -4.050  -2.344  0.00  0.00    +0.020 N 
ATOM      8  O   LIG    1        2.267  -4.498  -3.287  0.00  0.00    -0.150 OA
ATOM      9  O   LIG    1        1.192  -4.802  -1.497  0.00  0.00    -0.130 OA
ENDBRANCH   5   7
BRANCH   4  10
ATOM     10  C   LIG    1        2.473  -2.287  -4.460  0.00  0.00    +0.410 C 
ATOM     11  O   LIG    1        3.673  -2.184  -4.603  0.00  0.00    -0.430 OA
ATOM     12  C   LIG    1        1.645  -2.978  -5.512  0.00  0.00    +0.090 C 
ENDBRANCH   4  10
BRANCH   1  14
ATOM     13  C   LIG    1       -0.175   1.212   0.161  0.00  0.00    +0.250 C 
ATOM     14  O   LIG    1        0.014  -0.204   0.111  0.00  0.00    -0.300 OA
ENDBRANCH   1  14
TORSDOF 3
