REMARK  Name = ZINC000001680888
REMARK                            x       y       z     vdW  Elec       q    Type
REMARK                         _______ _______ _______ _____ _____    ______ ____
ROOT
ATOM      1  C   LIG    1       -1.199  -0.637   0.010  0.00  0.00    +0.170 A 
ATOM      2  C   LIG    1       -1.805  -0.962   1.223  0.00  0.00    +0.080 A 
ATOM      3  C   LIG    1       -3.026  -1.606   1.234  0.00  0.00    +0.130 A 
ATOM      4  C   LIG    1       -3.654  -1.930   0.025  0.00  0.00    -0.180 A 
ATOM      5  C   LIG    1       -3.039  -1.600  -1.188  0.00  0.00    +0.170 A 
ATOM      6  C   LIG    1       -1.823  -0.953  -1.190  0.00  0.00    -0.070 A 
ENDROOT
BRANCH   6   7
ATOM      7  N   LIG    1       -1.174  -0.604  -2.474  0.00  0.00    +0.030 N 
ATOM      8  O   LIG    1       -0.099  -0.032  -2.477  0.00  0.00    -0.130 OA
ATOM      9  O   LIG    1       -1.716  -0.889  -3.527  0.00  0.00    -0.160 OA
ENDBRANCH   6   7
BRANCH   1  11
ATOM     10  C   LIG    1       -0.017   1.425   0.010  0.00  0.00    +0.250 C 
ATOM     11  O   LIG    1        0.002  -0.004   0.002  0.00  0.00    -0.310 OA
ENDBRANCH   1  11
BRANCH   4  12
ATOM     12  C   LIG    1       -4.953  -2.614   0.030  0.00  0.00    +0.510 C 
ATOM     13  O   LIG    1       -5.485  -2.899   1.082  0.00  0.00    -0.440 OA
ENDBRANCH   4  12
BRANCH   2  14
ATOM     14  O   LIG    1       -1.193  -0.645   2.396  0.00  0.00    -0.470 OA
ATOM     15  H   LIG    1       -1.428   0.228   2.739  0.00  0.00    +0.400 HD
ENDBRANCH   2  14
TORSDOF 4
