REMARK  Name = ZINC000258537708
REMARK                            x       y       z     vdW  Elec       q    Type
REMARK                         _______ _______ _______ _____ _____    ______ ____
ROOT
ATOM      1  C   LIG    1       -2.571   3.809   1.055  0.00  0.00    -0.010 C 
ATOM      2  C   LIG    1       -3.676   2.876   1.559  0.00  0.00    -0.010 C 
ATOM      3  C   LIG    1       -4.992   3.654   1.641  0.00  0.00    +0.210 C 
ATOM      4  O   LIG    1       -4.824   4.784   2.501  0.00  0.00    -0.380 OA
ATOM      5  C   LIG    1       -3.836   5.715   2.054  0.00  0.00    +0.210 C 
ATOM      6  C   LIG    1       -2.474   5.020   1.989  0.00  0.00    +0.010 C 
ENDROOT
BRANCH   1   7
ATOM      7  C   LIG    1       -1.235   3.063   1.045  0.00  0.00    +0.060 C 
BRANCH   7   8
ATOM      8  C   LIG    1       -1.293   1.929   0.019  0.00  0.00    +0.250 C 
BRANCH   8  10
ATOM      9  O   LIG    1        0.002  -0.004   0.002  0.00  0.00    -0.160 OA
ATOM     10  N   LIG    1       -0.014   1.214   0.009  0.00  0.00    -0.020 N 
ATOM     11  O   LIG    1        1.032   1.837   0.002  0.00  0.00    -0.160 OA
ENDBRANCH   8  10
ENDBRANCH   7   8
ENDBRANCH   1   7
TORSDOF 3
