REMARK  Name = ZINC000034514048
REMARK                            x       y       z     vdW  Elec       q    Type
REMARK                         _______ _______ _______ _____ _____    ______ ____
ROOT
ATOM      1  C   LIG    1        0.260  -0.701  -1.525  0.00  0.00    +0.240 A 
ATOM      2  C   LIG    1        0.474  -2.036  -1.204  0.00  0.00    -0.110 A 
ATOM      3  C   LIG    1        1.596  -2.687  -1.677  0.00  0.00    +0.080 A 
ATOM      4  C   LIG    1        2.507  -2.012  -2.468  0.00  0.00    +0.020 A 
ATOM      5  C   LIG    1        2.298  -0.683  -2.789  0.00  0.00    +0.100 A 
ATOM      6  C   LIG    1       -0.519  -2.772  -0.342  0.00  0.00    +0.110 C 
ATOM      7  C   LIG    1        1.175  -0.028  -2.325  0.00  0.00    -0.070 A 
ENDROOT
BRANCH   1   9
ATOM      8  C   LIG    1       -1.038   0.193   0.388  0.00  0.00    +0.280 C 
ATOM      9  N   LIG    1       -0.874  -0.040  -1.049  0.00  0.00    -0.780 N 
ATOM     10  H   LIG    1       -1.554   0.266  -1.670  0.00  0.00    +0.410 HD
ENDBRANCH   1   9
BRANCH   7  11
ATOM     11  N   LIG    1        0.952   1.394  -2.669  0.00  0.00    +0.040 N 
ATOM     12  O   LIG    1       -0.085   1.945  -2.342  0.00  0.00    -0.150 OA
ATOM     13  O   LIG    1        1.804   2.014  -3.279  0.00  0.00    -0.180 OA
ENDBRANCH   7  11
TORSDOF 2
