REMARK  Name = ZINC000044185215
REMARK                            x       y       z     vdW  Elec       q    Type
REMARK                         _______ _______ _______ _____ _____    ______ ____
ROOT
ATOM      1  C   LIG    1        1.248   1.961   0.001  0.00  0.00    -0.260 A 
ATOM      2  C   LIG    1        2.478   1.286  -0.021  0.00  0.00    +0.390 A 
ATOM      3  N   LIG    1        3.615   1.941  -0.028  0.00  0.00    -0.490 NA
ATOM      4  C   LIG    1        3.662   3.269  -0.015  0.00  0.00    +0.320 A 
ATOM      5  N   LIG    1        4.698   4.167  -0.019  0.00  0.00    -0.550 N 
ATOM      6  H   LIG    1        5.638   3.930  -0.032  0.00  0.00    +0.440 HD
ATOM      7  C   LIG    1        4.212   5.447  -0.001  0.00  0.00    +0.400 A 
ATOM      8  C   LIG    1        2.871   5.428   0.015  0.00  0.00    -0.120 A 
ATOM      9  C   LIG    1        2.468   4.019   0.006  0.00  0.00    -0.140 A 
ATOM     10  C   LIG    1        1.241   3.361   0.008  0.00  0.00    +0.200 A 
ENDROOT
BRANCH   8  11
ATOM     11  N   LIG    1        1.971   6.603   0.037  0.00  0.00    +0.060 N 
ATOM     12  O   LIG    1        0.763   6.446   0.049  0.00  0.00    -0.160 OA
ATOM     13  O   LIG    1        2.439   7.728   0.043  0.00  0.00    -0.170 OA
ENDBRANCH   8  11
BRANCH   1  15
ATOM     14  O   LIG    1        0.002  -0.004   0.002  0.00  0.00    -0.450 OA
ATOM     15  C   LIG    1       -0.014   1.209   0.009  0.00  0.00    +0.510 C 
ENDBRANCH   1  15
TORSDOF 2
