REMARK  Name = ZINC000067801361
REMARK                            x       y       z     vdW  Elec       q    Type
REMARK                         _______ _______ _______ _____ _____    ______ ____
ROOT
ATOM      1  N   LIG    1       -2.790  -2.565  -0.111  0.00  0.00    -0.330 N 
ATOM      2  C   LIG    1       -3.353  -3.351  -1.052  0.00  0.00    +0.270 A 
ATOM      3  C   LIG    1       -4.629  -3.596  -0.674  0.00  0.00    -0.030 A 
ATOM      4  C   LIG    1       -4.854  -2.938   0.539  0.00  0.00    +0.120 A 
ATOM      5  N   LIG    1       -3.750  -2.324   0.881  0.00  0.00    -0.210 NA
ENDROOT
BRANCH   4   6
ATOM      6  N   LIG    1       -6.119  -2.941   1.307  0.00  0.00    +0.050 N 
ATOM      7  O   LIG    1       -6.195  -2.328   2.357  0.00  0.00    -0.130 OA
ATOM      8  O   LIG    1       -7.083  -3.557   0.890  0.00  0.00    -0.130 OA
ENDBRANCH   4   6
BRANCH   1   9
ATOM      9  C   LIG    1       -1.416  -2.058  -0.121  0.00  0.00    +0.330 C 
BRANCH   9  10
ATOM     10  C   LIG    1       -1.433  -0.534   0.013  0.00  0.00    +0.020 C 
BRANCH  10  12
ATOM     11  C   LIG    1       -0.019   1.526   0.010  0.00  0.00    +0.030 C 
ATOM     12  C   LIG    1        0.002  -0.004   0.002  0.00  0.00    -0.020 C 
ATOM     13  C   LIG    1        0.742  -0.511   1.242  0.00  0.00    +0.020 C 
ENDBRANCH  10  12
ENDBRANCH   9  10
ENDBRANCH   1   9
TORSDOF 4
