REMARK  Name = ZINC000001733947
REMARK                            x       y       z     vdW  Elec       q    Type
REMARK                         _______ _______ _______ _____ _____    ______ ____
ROOT
ATOM      1  C   LIG    1        0.630  -2.023  -1.329  0.00  0.00    +0.290 C 
ENDROOT
BRANCH   1   2
ATOM      2  C   LIG    1        1.336  -2.509  -2.568  0.00  0.00    -0.150 A 
ATOM      3  C   LIG    1        0.701  -2.444  -3.795  0.00  0.00    +0.010 A 
ATOM      4  C   LIG    1        1.348  -2.890  -4.932  0.00  0.00    +0.020 A 
ATOM      5  C   LIG    1        2.630  -3.401  -4.843  0.00  0.00    +0.020 A 
ATOM      6  C   LIG    1        3.265  -3.465  -3.617  0.00  0.00    +0.020 A 
ATOM      7  C   LIG    1        2.619  -3.015  -2.480  0.00  0.00    +0.030 A 
ENDBRANCH   1   2
BRANCH   1   8
ATOM      8  O   LIG    1       -0.742  -2.420  -1.375  0.00  0.00    -0.530 OA
ATOM      9  H   LIG    1       -1.227  -2.070  -2.135  0.00  0.00    +0.380 HD
ENDBRANCH   1   8
BRANCH   1  10
ATOM     10  C   LIG    1        0.718  -0.497  -1.257  0.00  0.00    +0.120 C 
BRANCH  10  11
ATOM     11  N   LIG    1        2.125  -0.091  -1.209  0.00  0.00    +0.000 N 
ATOM     12  O   LIG    1        2.581   0.626  -2.082  0.00  0.00    -0.150 OA
ATOM     13  O   LIG    1        2.838  -0.470  -0.297  0.00  0.00    -0.160 OA
ENDBRANCH  10  11
BRANCH  10  15
ATOM     14  C   LIG    1       -0.019   1.526   0.010  0.00  0.00    +0.030 C 
ATOM     15  C   LIG    1        0.002  -0.004   0.002  0.00  0.00    +0.070 C 
ENDBRANCH  10  15
ENDBRANCH   1  10
TORSDOF 5
