REMARK  Name = ZINC000085347716
REMARK                            x       y       z     vdW  Elec       q    Type
REMARK                         _______ _______ _______ _____ _____    ______ ____
ROOT
ATOM      1  C   LIG    1       -1.306   1.936   0.019  0.00  0.00    +0.050 A 
ATOM      2  C   LIG    1       -1.463   3.274   0.021  0.00  0.00    +0.270 A 
ATOM      3  N   LIG    1       -2.812   3.515   0.031  0.00  0.00    -0.400 N 
ATOM      4  C   LIG    1       -3.433   2.308   0.034  0.00  0.00    +0.470 A 
ATOM      5  N   LIG    1       -2.523   1.372   0.021  0.00  0.00    -0.430 NA
ENDROOT
BRANCH   3   6
ATOM      6  C   LIG    1       -3.434   4.773   0.036  0.00  0.00    +0.060 A 
ATOM      7  C   LIG    1       -4.822   4.874   0.052  0.00  0.00    +0.070 A 
ATOM      8  C   LIG    1       -5.390   6.138   0.058  0.00  0.00    +0.010 A 
ATOM      9  C   LIG    1       -4.567   7.248   0.047  0.00  0.00    +0.280 A 
ATOM     10  N   LIG    1       -3.255   7.118   0.031  0.00  0.00    -0.460 NA
ATOM     11  C   LIG    1       -2.674   5.934   0.032  0.00  0.00    +0.280 A 
ENDBRANCH   3   6
BRANCH   1  13
ATOM     12  O   LIG    1        0.002  -0.004   0.002  0.00  0.00    -0.120 OA
ATOM     13  N   LIG    1       -0.014   1.214   0.009  0.00  0.00    +0.060 N 
ATOM     14  O   LIG    1        1.032   1.837   0.002  0.00  0.00    -0.150 OA
ENDBRANCH   1  13
TORSDOF 2
