REMARK  Name = ZINC000061700663
REMARK                            x       y       z     vdW  Elec       q    Type
REMARK                         _______ _______ _______ _____ _____    ______ ____
ROOT
ATOM      1  C   LIG    1       -1.248  -0.643  -0.040  0.00  0.00    +0.220 A 
ATOM      2  C   LIG    1       -2.480  -0.063   0.234  0.00  0.00    -0.010 A 
ATOM      3  C   LIG    1       -3.614  -0.848   0.290  0.00  0.00    +0.080 A 
ATOM      4  C   LIG    1       -3.525  -2.211   0.074  0.00  0.00    -0.080 A 
ATOM      5  C   LIG    1       -2.300  -2.792  -0.200  0.00  0.00    +0.010 A 
ATOM      6  C   LIG    1       -4.765  -3.065   0.135  0.00  0.00    +0.120 C 
ATOM      7  C   LIG    1       -1.163  -2.011  -0.263  0.00  0.00    +0.000 A 
ENDROOT
BRANCH   1   9
ATOM      8  C   LIG    1       -0.191   1.592   0.137  0.00  0.00    +0.290 C 
ATOM      9  N   LIG    1       -0.099   0.149  -0.098  0.00  0.00    -0.750 N 
ATOM     10  H   LIG    1        0.760  -0.257  -0.294  0.00  0.00    +0.410 HD
ENDBRANCH   1   9
BRANCH   5  11
ATOM     11  N   LIG    1       -2.209  -4.251  -0.431  0.00  0.00    +0.020 N 
ATOM     12  O   LIG    1       -3.101  -4.830  -1.024  0.00  0.00    -0.140 OA
ATOM     13  O   LIG    1       -1.242  -4.872  -0.029  0.00  0.00    -0.160 OA
ENDBRANCH   5  11
TORSDOF 2
