REMARK  Name = ZINC000004291277
REMARK                            x       y       z     vdW  Elec       q    Type
REMARK                         _______ _______ _______ _____ _____    ______ ____
ROOT
ATOM      1  N   LIG    1        0.738  -1.962  -1.265  0.00  0.00    -0.330 N 
ATOM      2  N   LIG    1        1.732  -2.776  -0.707  0.00  0.00    -0.220 NA
ATOM      3  C   LIG    1        1.402  -4.025  -0.913  0.00  0.00    +0.080 A 
ATOM      4  C   LIG    1        0.188  -4.047  -1.607  0.00  0.00    +0.020 A 
ATOM      5  C   LIG    1        2.192  -5.232  -0.477  0.00  0.00    +0.180 C 
ATOM      6  C   LIG    1       -0.201  -2.766  -1.806  0.00  0.00    +0.120 A 
ENDROOT
BRANCH   6   7
ATOM      7  N   LIG    1       -1.432  -2.325  -2.500  0.00  0.00    +0.050 N 
ATOM      8  O   LIG    1       -1.674  -1.137  -2.616  0.00  0.00    -0.150 OA
ATOM      9  O   LIG    1       -2.203  -3.151  -2.956  0.00  0.00    -0.120 OA
ENDBRANCH   6   7
BRANCH   1  10
ATOM     10  C   LIG    1        0.718  -0.497  -1.257  0.00  0.00    +0.340 C 
BRANCH  10  12
ATOM     11  C   LIG    1       -0.019   1.526   0.010  0.00  0.00    +0.040 C 
ATOM     12  C   LIG    1        0.002  -0.004   0.002  0.00  0.00    +0.000 C 
ENDBRANCH  10  12
ENDBRANCH   1  10
TORSDOF 3
