REMARK  Name = ZINC000100047144
REMARK                            x       y       z     vdW  Elec       q    Type
REMARK                         _______ _______ _______ _____ _____    ______ ____
ROOT
ATOM      1  O   LIG    1        0.002  -0.004   0.002  0.00  0.00    -0.480 OA
ATOM      2  C   LIG    1       -0.015   1.216   0.009  0.00  0.00    +0.420 A 
ATOM      3  C   LIG    1       -1.235   1.930   0.030  0.00  0.00    -0.140 A 
ATOM      4  C   LIG    1       -1.230   3.279   0.038  0.00  0.00    +0.340 A 
ATOM      5  N   LIG    1       -0.085   4.003   0.025  0.00  0.00    -0.600 N 
ATOM      6  H   LIG    1       -0.137   4.972   0.032  0.00  0.00    +0.430 HD
ATOM      7  C   LIG    1        1.152   3.398   0.004  0.00  0.00    +0.240 A 
ATOM      8  C   LIG    1        2.322   4.151  -0.009  0.00  0.00    -0.010 A 
ATOM      9  C   LIG    1        3.544   3.514  -0.029  0.00  0.00    +0.160 A 
ATOM     10  C   LIG    1        3.620   2.128  -0.038  0.00  0.00    -0.080 A 
ATOM     11  C   LIG    1        2.483   1.369  -0.027  0.00  0.00    +0.210 A 
ATOM     12  C   LIG    1        1.236   1.994   0.001  0.00  0.00    -0.210 A 
ENDROOT
BRANCH  10  13
ATOM     13  N   LIG    1        4.944   1.466  -0.061  0.00  0.00    +0.030 N 
ATOM     14  O   LIG    1        5.017   0.250  -0.069  0.00  0.00    -0.160 OA
ATOM     15  O   LIG    1        5.960   2.137  -0.071  0.00  0.00    -0.160 OA
ENDBRANCH  10  13
TORSDOF 1
