REMARK  Name = ZINC000408716548
REMARK                            x       y       z     vdW  Elec       q    Type
REMARK                         _______ _______ _______ _____ _____    ______ ____
ROOT
ATOM      1  N   LIG    1       -1.416  -1.993  -0.116  0.00  0.00    -0.220 N 
ATOM      2  N   LIG    1       -0.852  -2.802   0.707  0.00  0.00    -0.180 NA
ATOM      3  C   LIG    1       -1.008  -4.045   0.325  0.00  0.00    +0.060 A 
ATOM      4  C   LIG    1       -1.745  -4.041  -0.860  0.00  0.00    +0.100 A 
ATOM      5  C   LIG    1       -2.004  -2.703  -1.127  0.00  0.00    -0.080 A 
ENDROOT
BRANCH   3   6
ATOM      6  N   LIG    1       -0.494  -5.243   1.026  0.00  0.00    +0.060 N 
ATOM      7  O   LIG    1       -0.705  -6.352   0.570  0.00  0.00    -0.130 OA
ATOM      8  O   LIG    1        0.140  -5.118   2.058  0.00  0.00    -0.130 OA
ENDBRANCH   3   6
BRANCH   1   9
ATOM      9  C   LIG    1       -1.433  -0.534   0.013  0.00  0.00    +0.260 C 
ATOM     10  C   LIG    1       -2.110  -0.145   1.329  0.00  0.00    +0.080 C 
BRANCH   9  12
ATOM     11  C   LIG    1       -0.019   1.526   0.010  0.00  0.00    +0.050 C 
ATOM     12  C   LIG    1        0.002  -0.004   0.002  0.00  0.00    +0.020 C 
ENDBRANCH   9  12
ENDBRANCH   1   9
BRANCH   5  13
ATOM     13  C   LIG    1       -2.749  -2.161  -2.264  0.00  0.00    +0.530 C 
ATOM     14  O   LIG    1       -3.213  -2.911  -3.097  0.00  0.00    -0.420 OA
ENDBRANCH   5  13
TORSDOF 4
