REMARK  Name = ZINC000000336674
REMARK                            x       y       z     vdW  Elec       q    Type
REMARK                         _______ _______ _______ _____ _____    ______ ____
ROOT
ATOM      1  C   LIG    1        0.606  -0.608  -1.056  0.00  0.00    +0.110 A 
ATOM      2  C   LIG    1        1.173   0.159  -2.062  0.00  0.00    -0.050 A 
ATOM      3  C   LIG    1        1.787  -0.457  -3.137  0.00  0.00    +0.060 A 
ATOM      4  C   LIG    1        1.837  -1.836  -3.212  0.00  0.00    -0.120 A 
ATOM      5  C   LIG    1        1.274  -2.606  -2.212  0.00  0.00    +0.040 A 
ATOM      6  C   LIG    1        0.662  -1.996  -1.129  0.00  0.00    +0.080 A 
ENDROOT
BRANCH   1   8
ATOM      7  C   LIG    1       -0.017   1.425   0.010  0.00  0.00    +0.240 C 
ATOM      8  O   LIG    1        0.002  -0.004   0.002  0.00  0.00    -0.310 OA
ENDBRANCH   1   8
BRANCH   6   9
ATOM      9  O   LIG    1        0.107  -2.753  -0.144  0.00  0.00    -0.480 OA
ATOM     10  H   LIG    1        0.716  -2.970   0.575  0.00  0.00    +0.390 HD
ENDBRANCH   6   9
BRANCH   4  11
ATOM     11  C   LIG    1        2.507  -2.501  -4.386  0.00  0.00    +0.120 C 
BRANCH  11  12
ATOM     12  C   LIG    1        3.989  -2.719  -4.072  0.00  0.00    +0.260 C 
BRANCH  12  13
ATOM     13  N   LIG    1        4.640  -3.366  -5.213  0.00  0.00    -0.020 N 
ATOM     14  O   LIG    1        5.400  -4.300  -5.032  0.00  0.00    -0.160 OA
ATOM     15  O   LIG    1        4.422  -2.969  -6.344  0.00  0.00    -0.160 OA
ENDBRANCH  12  13
ENDBRANCH  11  12
ENDBRANCH   4  11
TORSDOF 5
