REMARK  Name = ZINC000034361381
REMARK                            x       y       z     vdW  Elec       q    Type
REMARK                         _______ _______ _______ _____ _____    ______ ____
ROOT
ATOM      1  C   LIG    1        0.015  -2.688  -2.492  0.00  0.00    +0.140 A 
ATOM      2  C   LIG    1       -0.001  -1.833  -3.577  0.00  0.00    +0.090 A 
ATOM      3  C   LIG    1       -0.006  -2.366  -4.857  0.00  0.00    +0.010 A 
ATOM      4  C   LIG    1        0.006  -3.745  -4.998  0.00  0.00    +0.060 A 
ATOM      5  C   LIG    1        0.022  -4.537  -3.865  0.00  0.00    +0.310 A 
ATOM      6  N   LIG    1        0.031  -3.995  -2.663  0.00  0.00    -0.440 NA
ENDROOT
BRANCH   3   7
ATOM      7  N   LIG    1       -0.022  -1.484  -6.046  0.00  0.00    +0.020 N 
ATOM      8  O   LIG    1       -0.026  -1.967  -7.163  0.00  0.00    -0.140 OA
ATOM      9  O   LIG    1       -0.032  -0.274  -5.906  0.00  0.00    -0.140 OA
ENDBRANCH   3   7
BRANCH   1  10
ATOM     10  C   LIG    1        0.021  -2.119  -1.096  0.00  0.00    +0.340 C 
BRANCH  10  11
ATOM     11  O   LIG    1        0.000  -0.669  -1.164  0.00  0.00    -0.360 OA
BRANCH  11  13
ATOM     12  C   LIG    1       -0.018   1.503   0.010  0.00  0.00    +0.170 C 
ATOM     13  C   LIG    1        0.002  -0.004   0.002  0.00  0.00    +0.470 C 
ATOM     14  O   LIG    1        0.020  -0.614   1.045  0.00  0.00    -0.510 OA
ENDBRANCH  11  13
ENDBRANCH  10  11
ENDBRANCH   1  10
TORSDOF 4
