REMARK  Name = ZINC000002042254
REMARK                            x       y       z     vdW  Elec       q    Type
REMARK                         _______ _______ _______ _____ _____    ______ ____
ROOT
ATOM      1  C   LIG    1        0.742  -0.511   1.242  0.00  0.00    +0.130 C 
ENDROOT
BRANCH   1   2
ATOM      2  C   LIG    1        0.657  -2.014   1.298  0.00  0.00    -0.120 A 
ATOM      3  C   LIG    1       -0.396  -2.623   1.955  0.00  0.00    +0.010 A 
ATOM      4  C   LIG    1       -0.474  -4.002   2.007  0.00  0.00    +0.010 A 
ATOM      5  C   LIG    1        0.500  -4.773   1.401  0.00  0.00    +0.020 A 
ATOM      6  C   LIG    1        1.552  -4.164   0.742  0.00  0.00    +0.020 A 
ATOM      7  C   LIG    1        1.628  -2.785   0.687  0.00  0.00    +0.010 A 
ENDBRANCH   1   2
BRANCH   1   9
ATOM      8  C   LIG    1       -0.019   1.526   0.010  0.00  0.00    +0.110 C 
ATOM      9  C   LIG    1        0.002  -0.004   0.002  0.00  0.00    +0.150 C 
BRANCH   9  10
ATOM     10  N   LIG    1        0.688  -0.476  -1.203  0.00  0.00    -0.010 N 
ATOM     11  O   LIG    1        0.098  -1.180  -2.003  0.00  0.00    -0.160 OA
ATOM     12  O   LIG    1        1.848  -0.165  -1.405  0.00  0.00    -0.160 OA
ENDBRANCH   9  10
ENDBRANCH   1   9
TORSDOF 3
