REMARK  Name = ZINC000238502439
REMARK                            x       y       z     vdW  Elec       q    Type
REMARK                         _______ _______ _______ _____ _____    ______ ____
ROOT
ATOM      1  C   LIG    1       -0.018   1.503   0.010  0.00  0.00    +0.170 C 
ATOM      2  C   LIG    1        0.002  -0.004   0.002  0.00  0.00    +0.120 A 
ATOM      3  C   LIG    1        0.007  -0.769  -1.101  0.00  0.00    -0.020 A 
ATOM      4  C   LIG    1        0.028  -2.162  -0.652  0.00  0.00    -0.100 A 
ATOM      5  C   LIG    1        0.042  -3.397  -1.304  0.00  0.00    +0.040 A 
ATOM      6  C   LIG    1        0.061  -4.541  -0.528  0.00  0.00    +0.050 A 
ATOM      7  C   LIG    1        0.066  -4.427   0.853  0.00  0.00    +0.330 A 
ATOM      8  N   LIG    1        0.053  -3.252   1.448  0.00  0.00    -0.450 NA
ATOM      9  C   LIG    1        0.034  -2.121   0.755  0.00  0.00    +0.300 A 
ATOM     10  N   LIG    1        0.024  -0.796   1.119  0.00  0.00    -0.570 N 
ATOM     11  H   LIG    1        0.029  -0.470   2.032  0.00  0.00    +0.430 HD
ENDROOT
BRANCH   5  12
ATOM     12  N   LIG    1        0.037  -3.478  -2.782  0.00  0.00    +0.030 N 
ATOM     13  O   LIG    1        0.020  -2.459  -3.448  0.00  0.00    -0.140 OA
ATOM     14  O   LIG    1        0.049  -4.565  -3.332  0.00  0.00    -0.160 OA
ENDBRANCH   5  12
TORSDOF 1
