REMARK  Name = ZINC000000343412
REMARK                            x       y       z     vdW  Elec       q    Type
REMARK                         _______ _______ _______ _____ _____    ______ ____
ROOT
ATOM      1  C   LIG    1       -1.306   1.936   0.019  0.00  0.00    -0.040 A 
ATOM      2  C   LIG    1       -1.333   3.334   0.126  0.00  0.00    -0.040 A 
ATOM      3  C   LIG    1       -0.157   4.101   0.227  0.00  0.00    +0.090 A 
ATOM      4  C   LIG    1       -0.294   5.457   0.327  0.00  0.00    +0.230 A 
ATOM      5  N   LIG    1       -1.496   6.018   0.329  0.00  0.00    -0.210 NA
ATOM      6  N   LIG    1       -2.588   5.347   0.238  0.00  0.00    -0.180 NA
ATOM      7  C   LIG    1       -2.578   4.015   0.135  0.00  0.00    +0.060 A 
ATOM      8  C   LIG    1       -3.765   3.271   0.035  0.00  0.00    +0.160 A 
ATOM      9  C   LIG    1       -3.702   1.915  -0.069  0.00  0.00    +0.050 A 
ATOM     10  C   LIG    1       -2.478   1.249  -0.082  0.00  0.00    +0.180 A 
ENDROOT
BRANCH   1  12
ATOM     11  O   LIG    1        0.002  -0.004   0.021  0.00  0.00    -0.140 OA
ATOM     12  N   LIG    1       -0.014   1.214   0.009  0.00  0.00    +0.030 N 
ATOM     13  O   LIG    1        1.032   1.837  -0.017  0.00  0.00    -0.160 OA
ENDBRANCH   1  12
TORSDOF 1
