REMARK  Name = ZINC000033782926
REMARK                            x       y       z     vdW  Elec       q    Type
REMARK                         _______ _______ _______ _____ _____    ______ ____
ROOT
ATOM      1  O   LIG    1        0.002  -0.004   0.004  0.00  0.00    -0.500 OA
ATOM      2  C   LIG    1       -0.015   1.221   0.010  0.00  0.00    +0.420 A 
ATOM      3  C   LIG    1       -1.223   1.922   0.046  0.00  0.00    -0.120 A 
ATOM      4  C   LIG    1       -1.250   3.301   0.053  0.00  0.00    +0.170 A 
ATOM      5  C   LIG    1       -0.102   4.065   0.026  0.00  0.00    -0.170 A 
ATOM      6  C   LIG    1        1.149   3.456  -0.010  0.00  0.00    +0.120 A 
ATOM      7  C   LIG    1        2.357   4.192  -0.039  0.00  0.00    +0.020 A 
ATOM      8  C   LIG    1        3.526   3.517  -0.072  0.00  0.00    +0.300 A 
ATOM      9  N   LIG    1        3.578   2.160  -0.080  0.00  0.00    -0.540 N 
ATOM     10  H   LIG    1        4.446   1.728  -0.105  0.00  0.00    +0.440 HD
ATOM     11  C   LIG    1        2.478   1.394  -0.055  0.00  0.00    +0.420 A 
ATOM     12  C   LIG    1        1.232   1.990  -0.014  0.00  0.00    -0.230 A 
ENDROOT
BRANCH   5  13
ATOM     13  N   LIG    1       -0.201   5.543   0.035  0.00  0.00    +0.060 N 
ATOM     14  O   LIG    1       -1.292   6.080  -0.039  0.00  0.00    -0.180 OA
ATOM     15  O   LIG    1        0.808   6.220   0.117  0.00  0.00    -0.210 OA
ENDBRANCH   5  13
TORSDOF 1
