REMARK  Name = ZINC000195529951
REMARK                            x       y       z     vdW  Elec       q    Type
REMARK                         _______ _______ _______ _____ _____    ______ ____
ROOT
ATOM      1  N   LIG    1        2.248  -0.098  -1.541  0.00  0.00    -0.320 N 
ATOM      2  C   LIG    1        2.660   1.069  -2.080  0.00  0.00    +0.340 A 
ATOM      3  C   LIG    1        3.995   1.167  -1.881  0.00  0.00    -0.200 A 
ATOM      4  C   LIG    1        4.414   0.020  -1.198  0.00  0.00    +0.320 A 
ATOM      5  N   LIG    1        3.366  -0.736  -0.988  0.00  0.00    -0.270 NA
ENDROOT
BRANCH   3   6
ATOM      6  N   LIG    1        4.860   2.289  -2.311  0.00  0.00    +0.070 N 
ATOM      7  O   LIG    1        6.054   2.263  -2.074  0.00  0.00    -0.160 OA
ATOM      8  O   LIG    1        4.377   3.238  -2.901  0.00  0.00    -0.170 OA
ENDBRANCH   3   6
BRANCH   1   9
ATOM      9  C   LIG    1        0.874  -0.605  -1.531  0.00  0.00    +0.040 C 
BRANCH   9  11
ATOM     10  C   LIG    1       -0.023   1.859   0.012  0.00  0.00    -0.240 C 
ATOM     11 SI   LIG    1        0.002  -0.004   0.002  0.00  0.00    +1.030 Si
ATOM     12  C   LIG    1       -1.746  -0.649   0.015  0.00  0.00    -0.230 C 
ATOM     13  C   LIG    1        0.903  -0.621   1.511  0.00  0.00    -0.240 C 
ENDBRANCH   9  11
ENDBRANCH   1   9
TORSDOF 3
