REMARK  Name = ZINC000000039557
REMARK                            x       y       z     vdW  Elec       q    Type
REMARK                         _______ _______ _______ _____ _____    ______ ____
ROOT
ATOM      1  C   LIG    1       -0.108   1.500   0.018  0.00  0.00    +0.150 C 
ATOM      2  C   LIG    1       -0.041  -0.005   0.006  0.00  0.00    +0.060 A 
ATOM      3  C   LIG    1       -0.097  -0.678  -1.170  0.00  0.00    -0.020 A 
ATOM      4  C   LIG    1       -0.036  -2.070  -1.218  0.00  0.00    +0.090 A 
ATOM      5  C   LIG    1        0.081  -2.815  -0.092  0.00  0.00    +0.110 A 
ATOM      6  C   LIG    1        0.144  -2.179   1.173  0.00  0.00    +0.100 A 
ATOM      7  N   LIG    1        0.256  -2.680   2.392  0.00  0.00    -0.600 NA
ATOM      8  S   LIG    1        0.278  -1.520   3.428  0.00  0.00    +0.870 S 
ATOM      9  N   LIG    1        0.153  -0.297   2.475  0.00  0.00    -0.570 NA
ATOM     10  C   LIG    1        0.087  -0.720   1.223  0.00  0.00    +0.060 A 
ENDROOT
BRANCH   3  11
ATOM     11  N   LIG    1       -0.224   0.084  -2.432  0.00  0.00    +0.020 N 
ATOM     12  O   LIG    1        0.356   1.147  -2.563  0.00  0.00    -0.140 OA
ATOM     13  O   LIG    1       -0.909  -0.352  -3.340  0.00  0.00    -0.140 OA
ENDBRANCH   3  11
TORSDOF 1
