REMARK  Name = ZINC000000334303
REMARK                            x       y       z     vdW  Elec       q    Type
REMARK                         _______ _______ _______ _____ _____    ______ ____
ROOT
ATOM      1  C   LIG    1       -0.533   1.448   0.089  0.00  0.00    +0.140 C 
ATOM      2  C   LIG    1       -0.238  -0.029   0.039  0.00  0.00    -0.080 A 
ATOM      3  C   LIG    1        0.097  -0.638  -1.160  0.00  0.00    +0.080 A 
ATOM      4  C   LIG    1        0.360  -2.000  -1.158  0.00  0.00    -0.060 A 
ATOM      5  C   LIG    1        0.279  -2.699   0.030  0.00  0.00    +0.160 A 
ATOM      6  N   LIG    1       -0.043  -2.087   1.153  0.00  0.00    -0.430 NA
ATOM      7  C   LIG    1        0.729  -2.707  -2.437  0.00  0.00    +0.140 C 
ATOM      8  C   LIG    1       -0.294  -0.793   1.190  0.00  0.00    +0.140 A 
ATOM      9  C   LIG    1       -0.657  -0.142   2.500  0.00  0.00    +0.160 C 
ENDROOT
BRANCH   5  10
ATOM     10  N   LIG    1        0.557  -4.153   0.044  0.00  0.00    +0.030 N 
ATOM     11  O   LIG    1        0.174  -4.838   0.975  0.00  0.00    -0.130 OA
ATOM     12  O   LIG    1        1.170  -4.664  -0.876  0.00  0.00    -0.150 OA
ENDBRANCH   5  10
TORSDOF 1
