REMARK  Name = ZINC001548918938
REMARK                            x       y       z     vdW  Elec       q    Type
REMARK                         _______ _______ _______ _____ _____    ______ ____
ROOT
ATOM      1  N   LIG    1       -2.105  -0.148  -1.230  0.00  0.00    -0.330 N 
ATOM      2  C   LIG    1       -2.719  -0.986  -2.093  0.00  0.00    +0.380 A 
ATOM      3  C   LIG    1       -3.213  -0.245  -3.111  0.00  0.00    -0.230 A 
ATOM      4  C   LIG    1       -2.890   1.099  -2.861  0.00  0.00    +0.400 A 
ATOM      5  N   LIG    1       -2.229   1.155  -1.729  0.00  0.00    -0.330 NA
ENDROOT
BRANCH   4   6
ATOM      6  N   LIG    1       -3.220   2.188  -3.676  0.00  0.00    -0.820 N 
ATOM      7  H   LIG    1       -2.952   3.084  -3.419  0.00  0.00    +0.410 HD
ATOM      8  H   LIG    1       -3.717   2.047  -4.497  0.00  0.00    +0.430 HD
ENDBRANCH   4   6
BRANCH   3   9
ATOM      9  N   LIG    1       -3.962  -0.759  -4.279  0.00  0.00    +0.080 N 
ATOM     10  O   LIG    1       -4.359   0.011  -5.135  0.00  0.00    -0.190 OA
ATOM     11  O   LIG    1       -4.183  -1.953  -4.384  0.00  0.00    -0.180 OA
ENDBRANCH   3   9
BRANCH   1  12
ATOM     12  C   LIG    1       -1.433  -0.534   0.013  0.00  0.00    +0.340 C 
BRANCH  12  14
ATOM     13  C   LIG    1       -0.019   1.526   0.010  0.00  0.00    +0.030 C 
ATOM     14  C   LIG    1        0.002  -0.004   0.002  0.00  0.00    -0.030 C 
ATOM     15  C   LIG    1        0.742  -0.511   1.242  0.00  0.00    +0.040 C 
ENDBRANCH  12  14
ENDBRANCH   1  12
TORSDOF 4
