REMARK  Name = ZINC000039262116
REMARK                            x       y       z     vdW  Elec       q    Type
REMARK                         _______ _______ _______ _____ _____    ______ ____
ROOT
ATOM      1  C   LIG    1       -1.306   1.936   0.019  0.00  0.00    -0.020 A 
ATOM      2  C   LIG    1       -1.330   3.341   0.021  0.00  0.00    +0.090 A 
ATOM      3  N   LIG    1       -0.207   4.065   0.013  0.00  0.00    -0.170 NA
ATOM      4  N   LIG    1       -0.240   5.349   0.015  0.00  0.00    -0.200 NA
ATOM      5  C   LIG    1       -1.368   6.048   0.023  0.00  0.00    +0.200 A 
ATOM      6  C   LIG    1       -2.580   5.418   0.031  0.00  0.00    +0.100 A 
ATOM      7  C   LIG    1       -2.582   4.010   0.030  0.00  0.00    -0.070 A 
ATOM      8  C   LIG    1       -3.769   3.264   0.037  0.00  0.00    +0.120 A 
ATOM      9  C   LIG    1       -3.706   1.903   0.035  0.00  0.00    +0.050 A 
ATOM     10  C   LIG    1       -2.478   1.244   0.021  0.00  0.00    +0.170 A 
ENDROOT
BRANCH   1  12
ATOM     11  O   LIG    1        0.002  -0.004   0.002  0.00  0.00    -0.170 OA
ATOM     12  N   LIG    1       -0.014   1.214   0.009  0.00  0.00    +0.020 N 
ATOM     13  O   LIG    1        1.032   1.837   0.002  0.00  0.00    -0.100 OA
ENDBRANCH   1  12
TORSDOF 1
