REMARK  Name = ZINC000012398030
REMARK                            x       y       z     vdW  Elec       q    Type
REMARK                         _______ _______ _______ _____ _____    ______ ____
ROOT
ATOM      1  N   LIG    1        0.738  -1.962  -1.265  0.00  0.00    -0.350 N 
ATOM      2  C   LIG    1        0.283  -2.757  -2.256  0.00  0.00    +0.360 A 
ATOM      3  C   LIG    1        0.482  -4.041  -1.879  0.00  0.00    -0.200 A 
ATOM      4  C   LIG    1        1.079  -4.031  -0.614  0.00  0.00    +0.140 A 
ATOM      5  C   LIG    1        1.475  -5.245   0.185  0.00  0.00    +0.190 C 
ATOM      6  N   LIG    1        1.238  -2.785  -0.247  0.00  0.00    -0.270 NA
ENDROOT
BRANCH   3   7
ATOM      7  N   LIG    1        0.131  -5.244  -2.667  0.00  0.00    +0.070 N 
ATOM      8  O   LIG    1        0.360  -6.354  -2.219  0.00  0.00    -0.160 OA
ATOM      9  O   LIG    1       -0.388  -5.125  -3.762  0.00  0.00    -0.180 OA
ENDBRANCH   3   7
BRANCH   1  10
ATOM     10  C   LIG    1        0.718  -0.497  -1.257  0.00  0.00    +0.340 C 
BRANCH  10  12
ATOM     11  C   LIG    1       -0.019   1.526   0.010  0.00  0.00    +0.040 C 
ATOM     12  C   LIG    1        0.002  -0.004   0.002  0.00  0.00    +0.010 C 
ENDBRANCH  10  12
ENDBRANCH   1  10
TORSDOF 3
