REMARK  Name = ZINC000012395729
REMARK                            x       y       z     vdW  Elec       q    Type
REMARK                         _______ _______ _______ _____ _____    ______ ____
ROOT
ATOM      1  N   LIG    1        1.471  -2.526   2.420  0.00  0.00    -0.330 N 
ATOM      2  N   LIG    1        2.846  -2.777   2.514  0.00  0.00    -0.210 NA
ATOM      3  C   LIG    1        3.103  -3.197   3.726  0.00  0.00    +0.120 A 
ATOM      4  C   LIG    1        1.902  -3.228   4.442  0.00  0.00    -0.040 A 
ATOM      5  C   LIG    1        0.916  -2.805   3.618  0.00  0.00    +0.100 A 
ATOM      6  C   LIG    1       -0.544  -2.678   3.971  0.00  0.00    +0.170 C 
ENDROOT
BRANCH   3   7
ATOM      7  N   LIG    1        4.435  -3.576   4.249  0.00  0.00    +0.050 N 
ATOM      8  O   LIG    1        4.552  -3.954   5.401  0.00  0.00    -0.130 OA
ATOM      9  O   LIG    1        5.415  -3.508   3.528  0.00  0.00    -0.130 OA
ENDBRANCH   3   7
BRANCH   1  10
ATOM     10  C   LIG    1        0.763  -2.041   1.233  0.00  0.00    +0.340 C 
BRANCH  10  11
ATOM     11  C   LIG    1        0.742  -0.511   1.242  0.00  0.00    +0.010 C 
BRANCH  11  13
ATOM     12  C   LIG    1       -0.019   1.526   0.010  0.00  0.00    +0.030 C 
ATOM     13  C   LIG    1        0.002  -0.004   0.002  0.00  0.00    +0.020 C 
ENDBRANCH  11  13
ENDBRANCH  10  11
ENDBRANCH   1  10
TORSDOF 4
