REMARK  Name = ZINC000137559878
REMARK                            x       y       z     vdW  Elec       q    Type
REMARK                         _______ _______ _______ _____ _____    ______ ____
ROOT
ATOM      1  O   LIG    1        0.002  -0.004   0.002  0.00  0.00    -0.440 OA
ATOM      2  C   LIG    1       -0.014   1.203   0.009  0.00  0.00    +0.360 C 
ATOM      3  C   LIG    1       -1.323   1.961   0.032  0.00  0.00    +0.020 C 
ATOM      4  C   LIG    1       -1.306   2.997  -1.097  0.00  0.00    +0.050 C 
ATOM      5  C   LIG    1       -0.065   3.879  -0.959  0.00  0.00    +0.040 C 
ATOM      6  C   LIG    1        1.196   3.031  -1.133  0.00  0.00    +0.020 C 
ATOM      7  C   LIG    1        1.274   1.997   0.001  0.00  0.00    +0.020 C 
ENDROOT
BRANCH   6   8
ATOM      8  C   LIG    1        2.430   3.935  -1.082  0.00  0.00    +0.270 C 
BRANCH   8   9
ATOM      9  N   LIG    1        3.628   3.141  -1.368  0.00  0.00    -0.020 N 
ATOM     10  O   LIG    1        4.625   3.276  -0.681  0.00  0.00    -0.160 OA
ATOM     11  O   LIG    1        3.627   2.347  -2.291  0.00  0.00    -0.160 OA
ENDBRANCH   8   9
ENDBRANCH   6   8
TORSDOF 2
