REMARK  Name = ZINC000008496685
REMARK                            x       y       z     vdW  Elec       q    Type
REMARK                         _______ _______ _______ _____ _____    ______ ____
ROOT
ATOM      1  C   LIG    1       -1.199  -0.637   0.010  0.00  0.00    +0.250 A 
ATOM      2  C   LIG    1       -2.389   0.090   0.019  0.00  0.00    -0.120 A 
ATOM      3  C   LIG    1       -3.590  -0.587   0.027  0.00  0.00    +0.400 A 
ATOM      4  N   LIG    1       -3.625  -1.906   0.026  0.00  0.00    -0.540 NA
ATOM      5  C   LIG    1       -2.518  -2.633   0.017  0.00  0.00    +0.410 A 
ATOM      6  C   LIG    1       -1.273  -2.025   0.003  0.00  0.00    -0.150 A 
ENDROOT
BRANCH   6   7
ATOM      7  N   LIG    1       -0.039  -2.842  -0.007  0.00  0.00    +0.040 N 
ATOM      8  O   LIG    1        0.480  -3.176   1.044  0.00  0.00    -0.130 OA
ATOM      9  O   LIG    1        0.459  -3.181  -1.066  0.00  0.00    -0.130 OA
ENDBRANCH   6   7
BRANCH   1  11
ATOM     10  C   LIG    1       -0.017   1.425   0.010  0.00  0.00    +0.280 C 
ATOM     11  O   LIG    1        0.002  -0.004   0.002  0.00  0.00    -0.300 OA
ENDBRANCH   1  11
BRANCH   5  12
ATOM     12  O   LIG    1       -2.605  -3.987   0.016  0.00  0.00    -0.300 OA
ATOM     13  C   LIG    1       -3.917  -4.554   0.025  0.00  0.00    +0.290 C 
ENDBRANCH   5  12
TORSDOF 3
