REMARK  Name = ZINC000001719104
REMARK                            x       y       z     vdW  Elec       q    Type
REMARK                         _______ _______ _______ _____ _____    ______ ____
ROOT
ATOM      1  C   LIG    1        1.546  -2.103   2.574  0.00  0.00    +0.150 A 
ATOM      2  C   LIG    1        1.947  -1.074   3.414  0.00  0.00    +0.040 A 
ATOM      3  C   LIG    1        2.631  -1.362   4.579  0.00  0.00    +0.100 A 
ATOM      4  C   LIG    1        2.916  -2.674   4.909  0.00  0.00    +0.050 A 
ATOM      5  C   LIG    1        2.517  -3.701   4.074  0.00  0.00    +0.120 A 
ATOM      6  C   LIG    1        1.829  -3.419   2.910  0.00  0.00    -0.050 A 
ENDROOT
BRANCH   6   7
ATOM      7  N   LIG    1        1.402  -4.520   2.017  0.00  0.00    +0.030 N 
ATOM      8  O   LIG    1        0.794  -4.271   0.991  0.00  0.00    -0.150 OA
ATOM      9  O   LIG    1        1.658  -5.674   2.308  0.00  0.00    -0.150 OA
ENDBRANCH   6   7
BRANCH   1  10
ATOM     10  O   LIG    1        0.874  -1.823   1.427  0.00  0.00    -0.290 OA
BRANCH  10  11
ATOM     11  C   LIG    1       -0.468  -1.838   1.488  0.00  0.00    +0.470 C 
ATOM     12  O   LIG    1       -1.022  -2.181   2.505  0.00  0.00    -0.490 OA
BRANCH  11  14
ATOM     13  C   LIG    1       -2.771  -1.532   0.620  0.00  0.00    +0.070 C 
ATOM     14  C   LIG    1       -1.281  -1.426   0.288  0.00  0.00    +0.120 C 
ENDBRANCH  11  14
ENDBRANCH  10  11
ENDBRANCH   1  10
TORSDOF 4
