REMARK  Name = ZINC000039238372
REMARK                            x       y       z     vdW  Elec       q    Type
REMARK                         _______ _______ _______ _____ _____    ______ ____
ROOT
ATOM      1  C   LIG    1        0.019  -0.785  -1.242  0.00  0.00    +0.040 A 
ATOM      2  C   LIG    1       -0.130  -0.036  -2.417  0.00  0.00    +0.013 A 
ATOM      3  C   LIG    1       -0.149  -0.672  -3.638  0.00  0.00    +0.003 A 
ATOM      4  C   LIG    1       -0.024  -2.050  -3.713  0.00  0.00    +0.034 A 
ATOM      5  C   LIG    1        0.123  -2.804  -2.566  0.00  0.00    +0.147 A 
ATOM      6  C   LIG    1        0.152  -2.183  -1.324  0.00  0.00    +0.066 A 
ENDROOT
BRANCH   1   8
ATOM      7  C   LIG    1        0.001   1.389   0.138  0.00  0.00    +0.091 C 
ATOM      8  C   LIG    1        0.041  -0.115   0.062  0.00  0.00    +0.162 C 
ATOM      9  O   LIG    1        0.091  -0.773   1.081  0.00  0.00    -0.292 OA
ENDBRANCH   1   8
BRANCH   5  10
ATOM     10  N   LIG    1        0.256  -4.275  -2.661  0.00  0.00    +0.058 N 
ATOM     11  O   LIG    1        0.274  -4.951  -1.648  0.00  0.00    -0.126 OA
ATOM     12  O   LIG    1        0.347  -4.809  -3.751  0.00  0.00    -0.126 OA
ENDBRANCH   5  10
BRANCH   6  13
ATOM     13  N   LIG    1        0.299  -2.938  -0.170  0.00  0.00    -0.356 N 
ATOM     14  H   LIG    1       -0.151  -2.669   0.646  0.00  0.00    +0.142 HD
ATOM     15  H   LIG    1        0.851  -3.735  -0.179  0.00  0.00    +0.142 HD
ENDBRANCH   6  13
TORSDOF 3
