REMARK  Name = ZINC000037420488
REMARK                            x       y       z     vdW  Elec       q    Type
REMARK                         _______ _______ _______ _____ _____    ______ ____
ROOT
ATOM      1  C   LIG    1       -1.198  -0.719   0.010  0.00  0.00    +0.290 A 
ATOM      2  C   LIG    1       -2.411  -0.042   0.019  0.00  0.00    -0.050 A 
ATOM      3  C   LIG    1       -3.596  -0.751   0.027  0.00  0.00    +0.140 A 
ATOM      4  C   LIG    1       -3.578  -2.133   0.025  0.00  0.00    -0.040 A 
ATOM      5  C   LIG    1       -2.371  -2.812   0.015  0.00  0.00    +0.190 A 
ATOM      6  F   LIG    1       -2.356  -4.163   0.013  0.00  0.00    -0.120 F 
ATOM      7  C   LIG    1       -1.181  -2.108   0.002  0.00  0.00    -0.150 A 
ENDROOT
BRANCH   1   9
ATOM      8  C   LIG    1       -0.018   1.461   0.010  0.00  0.00    +0.320 C 
ATOM      9  N   LIG    1        0.002  -0.004   0.002  0.00  0.00    -0.740 N 
ATOM     10  H   LIG    1        0.849  -0.478  -0.009  0.00  0.00    +0.410 HD
ENDBRANCH   1   9
BRANCH   7  11
ATOM     11  N   LIG    1        0.110  -2.833  -0.008  0.00  0.00    +0.020 N 
ATOM     12  O   LIG    1        0.651  -3.128   1.042  0.00  0.00    -0.130 OA
ATOM     13  O   LIG    1        0.631  -3.134  -1.067  0.00  0.00    -0.130 OA
ENDBRANCH   7  11
TORSDOF 2
