REMARK  Name = ZINC000004115616
REMARK                            x       y       z     vdW  Elec       q    Type
REMARK                         _______ _______ _______ _____ _____    ______ ____
ROOT
ATOM      1  C   LIG    1       -0.018   1.503   0.010  0.00  0.00    +0.120 C 
ATOM      2  C   LIG    1        0.002  -0.004   0.002  0.00  0.00    -0.090 A 
ATOM      3  C   LIG    1        0.006  -0.689  -1.197  0.00  0.00    +0.100 A 
ATOM      4  C   LIG    1        0.025  -2.072  -1.206  0.00  0.00    -0.050 A 
ATOM      5  C   LIG    1        0.041  -2.773  -0.014  0.00  0.00    +0.100 A 
ATOM      6  C   LIG    1        0.037  -2.095   1.189  0.00  0.00    +0.030 A 
ATOM      7  C   LIG    1        0.023  -0.706   1.201  0.00  0.00    +0.220 A 
ENDROOT
BRANCH   4   8
ATOM      8  N   LIG    1        0.029  -2.802  -2.493  0.00  0.00    +0.030 N 
ATOM      9  O   LIG    1        0.046  -4.020  -2.502  0.00  0.00    -0.160 OA
ATOM     10  O   LIG    1        0.015  -2.185  -3.543  0.00  0.00    -0.160 OA
ENDBRANCH   4   8
BRANCH   7  11
ATOM     11  N   LIG    1        0.019  -0.017   2.416  0.00  0.00    -0.690 N 
ATOM     12  C   LIG    1       -1.251   0.332   3.056  0.00  0.00    +0.270 C 
ATOM     13  C   LIG    1        1.286   0.358   3.049  0.00  0.00    +0.280 C 
ENDBRANCH   7  11
TORSDOF 2
