REMARK  Name = ZINC000110768734
REMARK                            x       y       z     vdW  Elec       q    Type
REMARK                         _______ _______ _______ _____ _____    ______ ____
ROOT
ATOM      1  C   LIG    1       -0.019   1.526   0.010  0.00  0.00    +0.090 C 
ATOM      2  C   LIG    1        0.002  -0.004   0.002  0.00  0.00    +0.060 C 
ATOM      3  C   LIG    1        0.776  -0.517  -1.193  0.00  0.00    +0.530 C 
ATOM      4  N   LIG    1        1.817  -1.221  -0.718  0.00  0.00    -0.660 N 
ATOM      5  H   LIG    1        2.475  -1.660  -1.279  0.00  0.00    +0.420 HD
ATOM      6  C   LIG    1        1.844  -1.248   0.677  0.00  0.00    +0.200 A 
ATOM      7  C   LIG    1        2.736  -1.854   1.560  0.00  0.00    +0.010 A 
ATOM      8  C   LIG    1        2.549  -1.737   2.922  0.00  0.00    +0.150 A 
ATOM      9  C   LIG    1        1.478  -1.019   3.422  0.00  0.00    -0.070 A 
ATOM     10  C   LIG    1        0.588  -0.415   2.551  0.00  0.00    +0.160 A 
ATOM     11  O   LIG    1        0.508  -0.329  -2.361  0.00  0.00    -0.480 OA
ATOM     12  C   LIG    1        0.769  -0.530   1.194  0.00  0.00    -0.140 A 
ENDROOT
BRANCH   9  13
ATOM     13  N   LIG    1        1.284  -0.897   4.884  0.00  0.00    +0.030 N 
ATOM     14  O   LIG    1        0.340  -0.265   5.323  0.00  0.00    -0.160 OA
ATOM     15  O   LIG    1        2.069  -1.429   5.649  0.00  0.00    -0.160 OA
ENDBRANCH   9  13
TORSDOF 1
