REMARK  Name = ZINC000002042090
REMARK                            x       y       z     vdW  Elec       q    Type
REMARK                         _______ _______ _______ _____ _____    ______ ____
ROOT
ATOM      1  C   LIG    1       -2.015  -1.583  -0.549  0.00  0.00    +0.240 C 
ENDROOT
BRANCH   1   2
ATOM      2  C   LIG    1       -2.824  -2.594   0.266  0.00  0.00    +0.010 C 
ATOM      3  C   LIG    1       -1.911  -3.741   0.705  0.00  0.00    +0.110 C 
ATOM      4  C   LIG    1       -3.961  -3.148  -0.595  0.00  0.00    +0.110 C 
BRANCH   2   5
ATOM      5  N   LIG    1       -3.383  -1.934   1.448  0.00  0.00    -0.010 N 
ATOM      6  O   LIG    1       -2.640  -1.476   2.298  0.00  0.00    -0.160 OA
ATOM      7  O   LIG    1       -4.590  -1.842   1.581  0.00  0.00    -0.150 OA
ENDBRANCH   2   5
ENDBRANCH   1   2
BRANCH   1   8
ATOM      8  O   LIG    1       -1.525  -2.209  -1.736  0.00  0.00    -0.530 OA
ATOM      9  H   LIG    1       -2.219  -2.552  -2.315  0.00  0.00    +0.380 HD
ENDBRANCH   1   8
BRANCH   1  10
ATOM     10  C   LIG    1       -2.909  -0.401  -0.928  0.00  0.00    -0.020 C 
BRANCH  10  12
ATOM     11  C   LIG    1       -2.965   1.853  -2.005  0.00  0.00    +0.020 C 
ATOM     12  C   LIG    1       -2.070   0.671  -1.625  0.00  0.00    +0.020 C 
ENDBRANCH  10  12
ENDBRANCH   1  10
TORSDOF 5
