REMARK  Name = ZINC000016123601
REMARK                            x       y       z     vdW  Elec       q    Type
REMARK                         _______ _______ _______ _____ _____    ______ ____
ROOT
ATOM      1  C   LIG    1        0.391  -0.729  -1.174  0.00  0.00    +0.500 A 
ATOM      2  N   LIG    1        0.859  -0.051  -2.212  0.00  0.00    -0.580 NA
ATOM      3  C   LIG    1        1.639  -0.622  -3.117  0.00  0.00    +0.420 A 
ATOM      4  C   LIG    1        1.992  -1.959  -3.006  0.00  0.00    -0.080 A 
ATOM      5  C   LIG    1        1.520  -2.698  -1.933  0.00  0.00    +0.230 A 
ATOM      6  C   LIG    1        0.711  -2.070  -1.001  0.00  0.00    -0.200 A 
ENDROOT
BRANCH   1   8
ATOM      7  C   LIG    1       -0.668   1.350  -0.355  0.00  0.00    +0.310 C 
ATOM      8  N   LIG    1       -0.424  -0.090  -0.247  0.00  0.00    -0.700 N 
ATOM      9  H   LIG    1       -0.832  -0.599   0.472  0.00  0.00    +0.420 HD
ENDBRANCH   1   8
BRANCH   6  10
ATOM     10  N   LIG    1        0.184  -2.821   0.161  0.00  0.00    +0.050 N 
ATOM     11  O   LIG    1       -0.150  -3.986   0.032  0.00  0.00    -0.150 OA
ATOM     12  O   LIG    1        0.086  -2.276   1.245  0.00  0.00    -0.180 OA
ENDBRANCH   6  10
BRANCH   3  13
ATOM     13  O   LIG    1        2.097   0.109  -4.164  0.00  0.00    -0.290 OA
ATOM     14  C   LIG    1        1.698   1.480  -4.223  0.00  0.00    +0.280 C 
ENDBRANCH   3  13
TORSDOF 3
