REMARK  Name = ZINC000034216687
REMARK                            x       y       z     vdW  Elec       q    Type
REMARK                         _______ _______ _______ _____ _____    ______ ____
ROOT
ATOM      1  C   LIG    1        0.002  -0.004   0.002  0.00  0.00    +0.410 A 
ATOM      2  N   LIG    1       -1.093  -0.688   0.003  0.00  0.00    -0.510 NA
ATOM      3  S   LIG    1       -0.714  -2.338  -0.008  0.00  0.00    +0.260 S 
ATOM      4  C   LIG    1        1.039  -2.131  -0.015  0.00  0.00    -0.140 A 
ATOM      5  C   LIG    1        2.105  -3.020  -0.025  0.00  0.00    +0.160 A 
ATOM      6  C   LIG    1        3.395  -2.536  -0.028  0.00  0.00    -0.010 A 
ATOM      7  C   LIG    1        3.623  -1.166  -0.021  0.00  0.00    +0.080 A 
ATOM      8  C   LIG    1        2.590  -0.280  -0.012  0.00  0.00    +0.110 A 
ATOM      9  C   LIG    1        1.257  -0.740  -0.014  0.00  0.00    -0.110 A 
ENDROOT
BRANCH   1  10
ATOM     10  N   LIG    1       -0.017   1.391   0.010  0.00  0.00    -0.830 N 
ATOM     11  H   LIG    1       -0.863   1.865   0.016  0.00  0.00    +0.420 HD
ATOM     12  H   LIG    1        0.817   1.888   0.004  0.00  0.00    +0.410 HD
ENDBRANCH   1  10
BRANCH   6  13
ATOM     13  N   LIG    1        4.538  -3.477  -0.039  0.00  0.00    +0.020 N 
ATOM     14  O   LIG    1        5.678  -3.049  -0.042  0.00  0.00    -0.140 OA
ATOM     15  O   LIG    1        4.338  -4.678  -0.045  0.00  0.00    -0.150 OA
ENDBRANCH   6  13
TORSDOF 2
