REMARK  Name = ZINC000082510346
REMARK                            x       y       z     vdW  Elec       q    Type
REMARK                         _______ _______ _______ _____ _____    ______ ____
ROOT
ATOM      1  C   LIG    1        0.814  -0.502   1.170  0.00  0.00    +0.280 A 
ATOM      2  N   LIG    1        0.334  -0.768   2.348  0.00  0.00    -0.460 NA
ATOM      3  C   LIG    1        1.348  -1.193   3.149  0.00  0.00    +0.070 A 
ATOM      4  C   LIG    1        1.420  -1.605   4.480  0.00  0.00    +0.110 A 
ATOM      5  C   LIG    1        2.632  -1.986   5.013  0.00  0.00    +0.110 A 
ATOM      6  C   LIG    1        3.779  -1.962   4.235  0.00  0.00    -0.020 A 
ATOM      7  C   LIG    1        3.723  -1.557   2.917  0.00  0.00    +0.150 A 
ATOM      8  C   LIG    1        2.512  -1.170   2.365  0.00  0.00    +0.000 A 
ATOM      9  O   LIG    1        2.134  -0.740   1.141  0.00  0.00    -0.200 OA
ENDROOT
BRANCH   6  10
ATOM     10  N   LIG    1        5.074  -2.374   4.822  0.00  0.00    +0.030 N 
ATOM     11  O   LIG    1        6.085  -2.355   4.143  0.00  0.00    -0.150 OA
ATOM     12  O   LIG    1        5.128  -2.733   5.985  0.00  0.00    -0.140 OA
ENDBRANCH   6  10
BRANCH   1  13
ATOM     13  C   LIG    1        0.002  -0.004   0.002  0.00  0.00    +0.350 C 
BRANCH  13  14
ATOM     14  N   LIG    1       -0.018   1.465   0.010  0.00  0.00    -0.840 NA
ATOM     15  H   LIG    1       -0.556   1.823  -0.764  0.00  0.00    +0.360 HD
ATOM     16  H   LIG    1        0.919   1.839   0.003  0.00  0.00    +0.350 HD
ENDBRANCH  13  14
ENDBRANCH   1  13
TORSDOF 3
