REMARK  Name = ZINC000001759035
REMARK                            x       y       z     vdW  Elec       q    Type
REMARK                         _______ _______ _______ _____ _____    ______ ____
ROOT
ATOM      1  C   LIG    1        0.718  -0.497  -1.257  0.00  0.00    +0.120 C 
ENDROOT
BRANCH   1   2
ATOM      2  N   LIG    1       -0.055  -0.114  -2.441  0.00  0.00    -0.010 N 
ATOM      3  O   LIG    1       -1.198  -0.512  -2.577  0.00  0.00    -0.160 OA
ATOM      4  O   LIG    1        0.445   0.604  -3.288  0.00  0.00    -0.160 OA
ENDBRANCH   1   2
BRANCH   1   6
ATOM      5  C   LIG    1       -0.019   1.526   0.010  0.00  0.00    +0.030 C 
ATOM      6  C   LIG    1        0.002  -0.004   0.002  0.00  0.00    +0.070 C 
ENDBRANCH   1   6
BRANCH   1   7
ATOM      7  C   LIG    1        0.849  -2.021  -1.205  0.00  0.00    +0.240 C 
BRANCH   7   8
ATOM      8  C   LIG    1        1.565  -2.514  -2.464  0.00  0.00    -0.060 C 
ATOM      9  C   LIG    1        1.586  -4.044  -2.472  0.00  0.00    +0.050 C 
ATOM     10  C   LIG    1        3.001  -1.985  -2.475  0.00  0.00    +0.030 C 
ENDBRANCH   7   8
BRANCH   7  11
ATOM     11  O   LIG    1        1.603  -2.395  -0.050  0.00  0.00    -0.530 OA
ATOM     12  H   LIG    1        2.499  -2.031  -0.030  0.00  0.00    +0.380 HD
ENDBRANCH   7  11
ENDBRANCH   1   7
TORSDOF 5
