REMARK  Name = ZINC000004088202
REMARK                            x       y       z     vdW  Elec       q    Type
REMARK                         _______ _______ _______ _____ _____    ______ ____
ROOT
ATOM      1  C   LIG    1        0.002  -0.004   0.002  0.00  0.00    +0.170 A 
ATOM      2  C   LIG    1       -1.109  -0.793   0.003  0.00  0.00    -0.190 A 
ATOM      3  C   LIG    1       -0.857  -2.137  -0.005  0.00  0.00    +0.220 A 
ATOM      4  C   LIG    1        0.483  -2.442  -0.013  0.00  0.00    -0.360 A 
ATOM      5  S   LIG    1        1.419  -0.954  -0.017  0.00  0.00    +0.320 S 
ENDROOT
BRANCH   1   6
ATOM      6  N   LIG    1       -0.017   1.378   0.010  0.00  0.00    -0.780 N 
ATOM      7  H   LIG    1       -0.863   1.852   0.016  0.00  0.00    +0.430 HD
ATOM      8  H   LIG    1        0.817   1.875   0.004  0.00  0.00    +0.420 HD
ENDBRANCH   1   6
BRANCH   2   9
ATOM      9  N   LIG    1       -2.481  -0.239   0.012  0.00  0.00    +0.070 N 
ATOM     10  O   LIG    1       -2.651   0.967   0.019  0.00  0.00    -0.200 OA
ATOM     11  O   LIG    1       -3.441  -0.989   0.013  0.00  0.00    -0.150 OA
ENDBRANCH   2   9
BRANCH   4  12
ATOM     12  C   LIG    1        1.021  -3.739  -0.023  0.00  0.00    +0.530 C 
ATOM     13  O   LIG    1        2.226  -3.898  -0.030  0.00  0.00    -0.470 OA
ENDBRANCH   4  12
TORSDOF 3
