REMARK  Name = ZINC000203890904
REMARK                            x       y       z     vdW  Elec       q    Type
REMARK                         _______ _______ _______ _____ _____    ______ ____
ROOT
ATOM      1  O   LIG    1        0.002  -0.004   0.002  0.00  0.00    -0.490 OA
ATOM      2  C   LIG    1       -0.014   1.211   0.009  0.00  0.00    +0.660 C 
ATOM      3  N   LIG    1       -1.196   1.861   0.029  0.00  0.00    -0.670 N 
ATOM      4  H   LIG    1       -2.027   1.363   0.059  0.00  0.00    +0.440 HD
ATOM      5  C   LIG    1       -1.214   3.261   0.007  0.00  0.00    +0.170 A 
ATOM      6  C   LIG    1       -2.359   3.966   0.343  0.00  0.00    +0.080 A 
ATOM      7  C   LIG    1       -2.346   5.348   0.313  0.00  0.00    +0.000 A 
ATOM      8  C   LIG    1       -1.197   6.025  -0.050  0.00  0.00    +0.090 A 
ATOM      9  C   LIG    1       -0.052   5.323  -0.387  0.00  0.00    +0.100 A 
ATOM     10  C   LIG    1       -0.060   3.945  -0.359  0.00  0.00    -0.130 A 
ATOM     11  C   LIG    1        1.171   3.155  -0.724  0.00  0.00    +0.350 C 
ATOM     12  O   LIG    1        1.146   1.892   0.001  0.00  0.00    -0.340 OA
ENDROOT
BRANCH   7  13
ATOM     13  N   LIG    1       -3.567   6.104   0.671  0.00  0.00    +0.020 N 
ATOM     14  O   LIG    1       -3.558   7.322   0.646  0.00  0.00    -0.140 OA
ATOM     15  O   LIG    1       -4.580   5.510   0.992  0.00  0.00    -0.150 OA
ENDBRANCH   7  13
TORSDOF 1
