REMARK  Name = ZINC000039017789
REMARK                            x       y       z     vdW  Elec       q    Type
REMARK                         _______ _______ _______ _____ _____    ______ ____
ROOT
ATOM      1  C   LIG    1        0.731  -0.503   1.223  0.00  0.00    +0.240 A 
ATOM      2  C   LIG    1        0.087  -1.299   2.108  0.00  0.00    -0.080 A 
ATOM      3  C   LIG    1        0.759  -1.767   3.246  0.00  0.00    +0.260 A 
ATOM      4  C   LIG    1        2.061  -1.411   3.446  0.00  0.00    -0.200 A 
ATOM      5  C   LIG    1        2.699  -0.583   2.506  0.00  0.00    +0.540 A 
ATOM      6  O   LIG    1        3.863  -0.257   2.672  0.00  0.00    -0.490 OA
ATOM      7  N   LIG    1        2.028  -0.154   1.420  0.00  0.00    -0.590 N 
ATOM      8  H   LIG    1        2.474   0.417   0.775  0.00  0.00    +0.430 HD
ENDROOT
BRANCH   1  10
ATOM      9  C   LIG    1       -0.019   1.526   0.010  0.00  0.00    +0.050 C 
ATOM     10  C   LIG    1        0.002  -0.004   0.002  0.00  0.00    +0.050 C 
ATOM     11  C   LIG    1        0.718  -0.497  -1.257  0.00  0.00    +0.050 C 
ENDBRANCH   1  10
BRANCH   4  12
ATOM     12  N   LIG    1        2.793  -1.892   4.638  0.00  0.00    +0.050 N 
ATOM     13  O   LIG    1        3.955  -1.570   4.810  0.00  0.00    -0.130 OA
ATOM     14  O   LIG    1        2.234  -2.609   5.448  0.00  0.00    -0.180 OA
ENDBRANCH   4  12
TORSDOF 2
