REMARK  Name = ZINC000004777715
REMARK                            x       y       z     vdW  Elec       q    Type
REMARK                         _______ _______ _______ _____ _____    ______ ____
ROOT
ATOM      1  O   LIG    1       -0.134  -0.002   0.081  0.00  0.00    -0.630 OA
ATOM      2  N   LIG    1       -0.155   1.460   0.085  0.00  0.00    -0.100 N 
ATOM      3  C   LIG    1       -0.992   1.935   1.197  0.00  0.00    +0.190 C 
ATOM      4  C   LIG    1       -0.455   1.404   2.525  0.00  0.00    +0.040 C 
ATOM      5  C   LIG    1        0.975   1.918   2.722  0.00  0.00    +0.010 C 
ATOM      6  C   LIG    1        1.827   1.460   1.537  0.00  0.00    +0.050 C 
ATOM      7  C   LIG    1       -0.748   1.946  -1.170  0.00  0.00    +0.160 C 
ATOM      8  C   LIG    1        0.051   1.426  -2.365  0.00  0.00    +0.070 C 
ATOM      9  C   LIG    1        1.490   1.942  -2.260  0.00  0.00    +0.010 C 
ATOM     10  C   LIG    1        2.083   1.472  -0.931  0.00  0.00    +0.050 C 
ATOM     11  C   LIG    1        1.213   1.969   0.229  0.00  0.00    +0.140 C 
ENDROOT
BRANCH   7  12
ATOM     12  C   LIG    1       -0.732   3.475  -1.177  0.00  0.00    +0.170 C 
BRANCH  12  13
ATOM     13  O   LIG    1       -1.245   3.951  -2.423  0.00  0.00    -0.560 OA
ATOM     14  H   LIG    1       -1.265   4.915  -2.498  0.00  0.00    +0.390 HD
ENDBRANCH  12  13
ENDBRANCH   7  12
TORSDOF 2
