REMARK  Name = ZINC000039598012
REMARK                            x       y       z     vdW  Elec       q    Type
REMARK                         _______ _______ _______ _____ _____    ______ ____
ROOT
ATOM      1  C   LIG    1        0.626  -0.700   1.040  0.00  0.00    +0.220 A 
ATOM      2  C   LIG    1        1.224  -0.004   2.083  0.00  0.00    +0.010 A 
ATOM      3  C   LIG    1        1.840  -0.696   3.108  0.00  0.00    +0.000 A 
ATOM      4  C   LIG    1        1.862  -2.078   3.097  0.00  0.00    +0.040 A 
ATOM      5  C   LIG    1        1.268  -2.773   2.059  0.00  0.00    +0.080 A 
ATOM      6  C   LIG    1        0.646  -2.089   1.034  0.00  0.00    -0.110 A 
ATOM      7  C   LIG    1       -0.000  -2.848  -0.097  0.00  0.00    +0.110 C 
ENDROOT
BRANCH   1   9
ATOM      8  C   LIG    1       -0.018   1.461   0.010  0.00  0.00    +0.280 C 
ATOM      9  N   LIG    1        0.002  -0.004   0.002  0.00  0.00    -0.740 N 
ATOM     10  H   LIG    1       -0.418  -0.491  -0.724  0.00  0.00    +0.410 HD
ENDBRANCH   1   9
BRANCH   3  11
ATOM     11  N   LIG    1        2.476   0.044   4.221  0.00  0.00    +0.030 N 
ATOM     12  O   LIG    1        3.019  -0.564   5.125  0.00  0.00    -0.160 OA
ATOM     13  O   LIG    1        2.456   1.262   4.232  0.00  0.00    -0.160 OA
ENDBRANCH   3  11
TORSDOF 2
