REMARK  Name = ZINC000095098545
REMARK                            x       y       z     vdW  Elec       q    Type
REMARK                         _______ _______ _______ _____ _____    ______ ____
ROOT
ATOM      1  N   LIG    1        0.688  -0.476  -1.203  0.00  0.00    -0.330 N 
ATOM      2  C   LIG    1        1.740  -1.321  -1.237  0.00  0.00    +0.380 A 
ATOM      3  C   LIG    1        2.079  -1.510  -2.533  0.00  0.00    -0.230 A 
ATOM      4  C   LIG    1        1.200  -0.751  -3.323  0.00  0.00    +0.400 A 
ATOM      5  N   LIG    1        0.362  -0.135  -2.522  0.00  0.00    -0.330 NA
ENDROOT
BRANCH   3   6
ATOM      6  N   LIG    1        3.180  -2.365  -3.030  0.00  0.00    +0.080 N 
ATOM      7  O   LIG    1        3.389  -2.455  -4.227  0.00  0.00    -0.190 OA
ATOM      8  O   LIG    1        3.878  -2.978  -2.242  0.00  0.00    -0.170 OA
ENDBRANCH   3   6
BRANCH   1  10
ATOM      9  C   LIG    1       -0.019   1.526   0.010  0.00  0.00    +0.040 C 
ATOM     10  C   LIG    1        0.002  -0.004   0.002  0.00  0.00    +0.340 C 
ENDBRANCH   1  10
BRANCH   4  11
ATOM     11  N   LIG    1        1.212  -0.670  -4.720  0.00  0.00    -0.670 N 
ATOM     12  H   LIG    1        1.871  -1.168  -5.229  0.00  0.00    +0.430 HD
BRANCH  11  13
ATOM     13  C   LIG    1        0.230   0.167  -5.414  0.00  0.00    +0.220 C 
ATOM     14  C   LIG    1        0.733   1.040  -6.565  0.00  0.00    +0.010 C 
ATOM     15  C   LIG    1       -0.115  -0.200  -6.859  0.00  0.00    +0.020 C 
ENDBRANCH  11  13
ENDBRANCH   4  11
TORSDOF 4
