REMARK  Name = ZINC000034187738
REMARK                            x       y       z     vdW  Elec       q    Type
REMARK                         _______ _______ _______ _____ _____    ______ ____
ROOT
ATOM      1  C   LIG    1        1.959  -0.093  -1.355  0.00  0.00    +0.470 C 
ATOM      2  O   LIG    1        2.492   0.606  -0.526  0.00  0.00    -0.500 OA
ENDROOT
BRANCH   1   3
ATOM      3  O   LIG    1        0.682  -0.472  -1.193  0.00  0.00    -0.350 OA
BRANCH   3   5
ATOM      4  C   LIG    1       -0.019   1.526   0.010  0.00  0.00    +0.030 C 
ATOM      5  C   LIG    1        0.002  -0.004   0.002  0.00  0.00    +0.120 C 
ATOM      6  C   LIG    1       -1.433  -0.534   0.013  0.00  0.00    +0.080 C 
ATOM      7  C   LIG    1        0.742  -0.511   1.242  0.00  0.00    +0.030 C 
ENDBRANCH   3   5
ENDBRANCH   1   3
BRANCH   1   8
ATOM      8  C   LIG    1        2.729  -0.541  -2.571  0.00  0.00    +0.110 C 
BRANCH   8   9
ATOM      9  C   LIG    1        4.149   0.025  -2.512  0.00  0.00    +0.080 C 
BRANCH   9  10
ATOM     10  C   LIG    1        4.931  -0.429  -3.747  0.00  0.00    +0.270 C 
BRANCH  10  11
ATOM     11  N   LIG    1        6.291   0.113  -3.690  0.00  0.00    -0.020 N 
ATOM     12  O   LIG    1        6.788   0.614  -4.683  0.00  0.00    -0.160 OA
ATOM     13  O   LIG    1        6.924   0.063  -2.651  0.00  0.00    -0.150 OA
ENDBRANCH  10  11
ENDBRANCH   9  10
ENDBRANCH   8   9
ENDBRANCH   1   8
TORSDOF 6
