REMARK  Name = ZINC000098213654
REMARK                            x       y       z     vdW  Elec       q    Type
REMARK                         _______ _______ _______ _____ _____    ______ ____
ROOT
ATOM      1  C   LIG    1       -1.198  -0.719   0.010  0.00  0.00    +0.320 A 
ATOM      2  C   LIG    1       -2.410  -0.042   0.019  0.00  0.00    -0.080 A 
ATOM      3  C   LIG    1       -3.598  -0.752   0.026  0.00  0.00    +0.220 A 
ATOM      4  C   LIG    1       -3.578  -2.136   0.024  0.00  0.00    -0.070 A 
ATOM      5  C   LIG    1       -2.370  -2.813   0.014  0.00  0.00    +0.230 A 
ATOM      6  F   LIG    1       -2.353  -4.164   0.012  0.00  0.00    -0.110 F 
ATOM      7  F   LIG    1       -4.778  -0.094   0.035  0.00  0.00    -0.110 F 
ATOM      8  C   LIG    1       -1.180  -2.108   0.002  0.00  0.00    -0.160 A 
ENDROOT
BRANCH   1  10
ATOM      9  C   LIG    1       -0.018   1.461   0.010  0.00  0.00    +0.310 C 
ATOM     10  N   LIG    1        0.002  -0.004   0.002  0.00  0.00    -0.730 N 
ATOM     11  H   LIG    1        0.849  -0.478  -0.009  0.00  0.00    +0.410 HD
ENDBRANCH   1  10
BRANCH   8  12
ATOM     12  N   LIG    1        0.111  -2.832  -0.008  0.00  0.00    +0.020 N 
ATOM     13  O   LIG    1        0.651  -3.127   1.043  0.00  0.00    -0.130 OA
ATOM     14  O   LIG    1        0.632  -3.132  -1.067  0.00  0.00    -0.130 OA
ENDBRANCH   8  12
TORSDOF 2
