REMARK  Name = ZINC000043220571
REMARK                            x       y       z     vdW  Elec       q    Type
REMARK                         _______ _______ _______ _____ _____    ______ ____
ROOT
ATOM      1  C   LIG    1        0.084   1.498  -0.168  0.00  0.00    +0.120 C 
ATOM      2  C   LIG    1        0.051  -0.007  -0.083  0.00  0.00    -0.070 A 
ATOM      3  C   LIG    1       -0.206  -0.756  -1.215  0.00  0.00    +0.050 A 
ATOM      4  C   LIG    1       -0.237  -2.141  -1.136  0.00  0.00    +0.120 A 
ATOM      5  C   LIG    1       -0.009  -2.769   0.079  0.00  0.00    -0.060 A 
ATOM      6  C   LIG    1        0.248  -2.015   1.208  0.00  0.00    -0.020 A 
ATOM      7  C   LIG    1       -0.040  -4.274   0.168  0.00  0.00    +0.130 C 
ATOM      8  C   LIG    1        0.283  -0.636   1.126  0.00  0.00    +0.080 A 
ENDROOT
BRANCH   6   9
ATOM      9  N   LIG    1        0.492  -2.686   2.505  0.00  0.00    +0.020 N 
ATOM     10  O   LIG    1        1.106  -3.737   2.541  0.00  0.00    -0.140 OA
ATOM     11  O   LIG    1        0.080  -2.185   3.536  0.00  0.00    -0.150 OA
ENDBRANCH   6   9
BRANCH   4  12
ATOM     12  O   LIG    1       -0.489  -2.880  -2.248  0.00  0.00    -0.480 OA
ATOM     13  H   LIG    1        0.303  -3.123  -2.747  0.00  0.00    +0.400 HD
ENDBRANCH   4  12
TORSDOF 2
