REMARK  Name = ZINC000307125537
REMARK                            x       y       z     vdW  Elec       q    Type
REMARK                         _______ _______ _______ _____ _____    ______ ____
ROOT
ATOM      1  C   LIG    1        0.100   1.499  -0.135  0.00  0.00    +0.130 C 
ATOM      2  C   LIG    1        0.059  -0.006  -0.068  0.00  0.00    -0.040 A 
ATOM      3  C   LIG    1       -0.143  -0.743  -1.218  0.00  0.00    +0.050 A 
ATOM      4  C   LIG    1       -0.181  -2.126  -1.156  0.00  0.00    +0.130 A 
ATOM      5  C   LIG    1       -0.017  -2.768   0.059  0.00  0.00    -0.080 A 
ATOM      6  C   LIG    1        0.185  -2.028   1.209  0.00  0.00    +0.010 A 
ATOM      7  F   LIG    1       -0.378  -2.848  -2.281  0.00  0.00    -0.120 F 
ATOM      8  C   LIG    1        0.228  -0.648   1.145  0.00  0.00    +0.080 A 
ENDROOT
BRANCH   6   9
ATOM      9  N   LIG    1        0.360  -2.714   2.509  0.00  0.00    +0.020 N 
ATOM     10  O   LIG    1        0.975  -3.764   2.565  0.00  0.00    -0.120 OA
ATOM     11  O   LIG    1       -0.110  -2.229   3.522  0.00  0.00    -0.150 OA
ENDBRANCH   6   9
BRANCH   5  12
ATOM     12  C   LIG    1       -0.058  -4.273   0.129  0.00  0.00    +0.240 C 
BRANCH  12  13
ATOM     13  O   LIG    1        1.268  -4.792   0.005  0.00  0.00    -0.550 OA
ATOM     14  H   LIG    1        1.318  -5.757   0.042  0.00  0.00    +0.390 HD
ENDBRANCH  12  13
ENDBRANCH   5  12
TORSDOF 3
