REMARK  Name = ZINC000066325766
REMARK                            x       y       z     vdW  Elec       q    Type
REMARK                         _______ _______ _______ _____ _____    ______ ____
ROOT
ATOM      1  C   LIG    1       -0.027  -0.005  -0.004  0.00  0.00    +0.300 A 
ATOM      2  C   LIG    1       -1.173  -0.741   0.272  0.00  0.00    -0.100 A 
ATOM      3  C   LIG    1       -1.126  -2.122   0.270  0.00  0.00    +0.180 A 
ATOM      4  C   LIG    1        0.059  -2.775  -0.006  0.00  0.00    -0.170 A 
ATOM      5  C   LIG    1        1.209  -2.045  -0.284  0.00  0.00    +0.320 A 
ATOM      6  C   LIG    1        1.164  -0.658  -0.288  0.00  0.00    -0.140 A 
ENDROOT
BRANCH   1   7
ATOM      7  N   LIG    1       -0.075   1.391  -0.002  0.00  0.00    -0.860 N 
ATOM      8  H   LIG    1       -0.909   1.847   0.192  0.00  0.00    +0.410 HD
ATOM      9  H   LIG    1        0.724   1.905  -0.199  0.00  0.00    +0.410 HD
ENDBRANCH   1   7
BRANCH   4  10
ATOM     10  N   LIG    1        0.105  -4.255  -0.006  0.00  0.00    +0.050 N 
ATOM     11  O   LIG    1        1.086  -4.834   0.425  0.00  0.00    -0.190 OA
ATOM     12  O   LIG    1       -0.838  -4.893  -0.438  0.00  0.00    -0.160 OA
ENDBRANCH   4  10
BRANCH   5  13
ATOM     13  N   LIG    1        2.407  -2.707  -0.563  0.00  0.00    -0.700 N 
ATOM     14  H   LIG    1        2.420  -3.673  -0.646  0.00  0.00    +0.410 HD
BRANCH  13  15
ATOM     15  C   LIG    1        3.645  -1.941  -0.731  0.00  0.00    +0.200 C 
ATOM     16  C   LIG    1        4.907  -2.482  -0.057  0.00  0.00    +0.020 C 
ATOM     17  C   LIG    1        4.754  -2.569  -1.577  0.00  0.00    +0.020 C 
ENDBRANCH  13  15
ENDBRANCH   5  13
TORSDOF 4
