REMARK  Name = ZINC000066352334
REMARK                            x       y       z     vdW  Elec       q    Type
REMARK                         _______ _______ _______ _____ _____    ______ ____
ROOT
ATOM      1  C   LIG    1        0.605  -0.606  -1.054  0.00  0.00    +0.400 A 
ATOM      2  C   LIG    1        0.650  -1.990  -1.120  0.00  0.00    -0.120 A 
ATOM      3  C   LIG    1        1.271  -2.594  -2.208  0.00  0.00    +0.260 A 
ATOM      4  C   LIG    1        1.825  -1.777  -3.192  0.00  0.00    -0.170 A 
ATOM      5  C   LIG    1        1.740  -0.407  -3.056  0.00  0.00    +0.460 A 
ATOM      6  N   LIG    1        1.139   0.134  -2.013  0.00  0.00    -0.550 NA
ENDROOT
BRANCH   4   7
ATOM      7  N   LIG    1        2.496  -2.372  -4.370  0.00  0.00    +0.050 N 
ATOM      8  O   LIG    1        2.567  -3.583  -4.483  0.00  0.00    -0.140 OA
ATOM      9  O   LIG    1        2.978  -1.651  -5.225  0.00  0.00    -0.170 OA
ENDBRANCH   4   7
BRANCH   1  11
ATOM     10  C   LIG    1       -0.017   1.425   0.010  0.00  0.00    +0.280 C 
ATOM     11  O   LIG    1        0.002  -0.004   0.002  0.00  0.00    -0.290 OA
ENDBRANCH   1  11
BRANCH   3  12
ATOM     12  O   LIG    1        1.336  -3.946  -2.310  0.00  0.00    -0.270 OA
ATOM     13  C   LIG    1        0.741  -4.705  -1.255  0.00  0.00    +0.270 C 
ENDBRANCH   3  12
TORSDOF 3
