REMARK  Name = ZINC000082046750
REMARK                            x       y       z     vdW  Elec       q    Type
REMARK                         _______ _______ _______ _____ _____    ______ ____
ROOT
ATOM      1  C   LIG    1        0.002  -0.004   0.002  0.00  0.00    +0.450 A 
ATOM      2  C   LIG    1       -1.212  -0.705   0.004  0.00  0.00    -0.070 A 
ATOM      3  C   LIG    1       -1.209  -2.068  -0.004  0.00  0.00    +0.140 A 
ATOM      4  C   LIG    1        0.034  -2.733  -0.014  0.00  0.00    -0.160 A 
ATOM      5  C   LIG    1        0.109  -4.134  -0.023  0.00  0.00    +0.140 A 
ATOM      6  C   LIG    1        1.328  -4.743  -0.033  0.00  0.00    -0.010 A 
ATOM      7  C   LIG    1        2.501  -3.993  -0.034  0.00  0.00    +0.160 A 
ATOM      8  C   LIG    1        2.464  -2.632  -0.025  0.00  0.00    -0.060 A 
ATOM      9  C   LIG    1        1.225  -1.968  -0.015  0.00  0.00    +0.230 A 
ATOM     10  N   LIG    1        1.160  -0.632  -0.012  0.00  0.00    -0.530 NA
ENDROOT
BRANCH   1  11
ATOM     11  N   LIG    1       -0.017   1.383   0.010  0.00  0.00    -0.830 N 
ATOM     12  H   LIG    1       -0.863   1.856   0.016  0.00  0.00    +0.410 HD
ATOM     13  H   LIG    1        0.817   1.879   0.004  0.00  0.00    +0.410 HD
ENDBRANCH   1  11
BRANCH   8  14
ATOM     14  N   LIG    1        3.724  -1.854  -0.027  0.00  0.00    +0.030 N 
ATOM     15  O   LIG    1        3.688  -0.637  -0.019  0.00  0.00    -0.110 OA
ATOM     16  O   LIG    1        4.796  -2.432  -0.036  0.00  0.00    -0.200 OA
ENDBRANCH   8  14
TORSDOF 2
