REMARK  Name = ZINC000004720903
REMARK                            x       y       z     vdW  Elec       q    Type
REMARK                         _______ _______ _______ _____ _____    ______ ____
ROOT
ATOM      1  N   LIG    1        0.688  -0.476  -1.203  0.00  0.00    -0.400 N 
ATOM      2  C   LIG    1        0.084  -0.829  -2.374  0.00  0.00    +0.380 A 
ATOM      3  C   LIG    1        1.042  -1.209  -3.244  0.00  0.00    -0.130 A 
ATOM      4  C   LIG    1        2.282  -1.087  -2.587  0.00  0.00    +0.170 A 
ATOM      5  C   LIG    1        2.035  -0.631  -1.342  0.00  0.00    +0.060 A 
ENDROOT
BRANCH   3   6
ATOM      6  N   LIG    1        0.829  -1.669  -4.635  0.00  0.00    +0.060 N 
ATOM      7  O   LIG    1        1.782  -1.986  -5.324  0.00  0.00    -0.140 OA
ATOM      8  O   LIG    1       -0.299  -1.730  -5.090  0.00  0.00    -0.150 OA
ENDBRANCH   3   6
BRANCH   5   9
ATOM      9  N   LIG    1        3.052  -0.356  -0.301  0.00  0.00    +0.060 N 
ATOM     10  O   LIG    1        2.708   0.055   0.793  0.00  0.00    -0.150 OA
ATOM     11  O   LIG    1        4.232  -0.542  -0.538  0.00  0.00    -0.120 OA
ENDBRANCH   5   9
BRANCH   1  13
ATOM     12  C   LIG    1       -0.019   1.526   0.010  0.00  0.00    +0.070 C 
ATOM     13  C   LIG    1        0.002  -0.004   0.002  0.00  0.00    +0.320 C 
ENDBRANCH   1  13
TORSDOF 3
