REMARK  Name = ZINC000089197249
REMARK                            x       y       z     vdW  Elec       q    Type
REMARK                         _______ _______ _______ _____ _____    ______ ____
ROOT
ATOM      1  C   LIG    1       -1.306   1.936   0.019  0.00  0.00    -0.060 A 
ATOM      2  C   LIG    1       -1.304   3.293   0.021  0.00  0.00    +0.230 A 
ATOM      3  C   LIG    1       -2.531   3.992   0.030  0.00  0.00    -0.210 A 
ATOM      4  C   LIG    1       -2.891   5.326   0.034  0.00  0.00    +0.350 A 
ATOM      5  N   LIG    1       -4.230   5.391   0.043  0.00  0.00    -0.410 N 
ATOM      6  H   LIG    1       -4.748   6.211   0.048  0.00  0.00    +0.460 HD
ATOM      7  N   LIG    1       -4.771   4.100   0.045  0.00  0.00    -0.270 NA
ATOM      8  C   LIG    1       -3.784   3.222   0.037  0.00  0.00    +0.090 A 
ATOM      9  C   LIG    1       -3.710   1.811   0.035  0.00  0.00    +0.140 A 
ATOM     10  F   LIG    1       -4.840   1.071   0.041  0.00  0.00    -0.110 F 
ATOM     11  C   LIG    1       -2.495   1.203   0.020  0.00  0.00    +0.080 A 
ENDROOT
BRANCH   1  13
ATOM     12  O   LIG    1        0.002  -0.004   0.002  0.00  0.00    -0.150 OA
ATOM     13  N   LIG    1       -0.014   1.214   0.009  0.00  0.00    +0.030 N 
ATOM     14  O   LIG    1        1.032   1.837   0.002  0.00  0.00    -0.160 OA
ENDBRANCH   1  13
TORSDOF 1
