REMARK  Name = ZINC000307266922
REMARK                            x       y       z     vdW  Elec       q    Type
REMARK                         _______ _______ _______ _____ _____    ______ ____
ROOT
ATOM      1  C   LIG    1        0.207   1.509  -0.055  0.00  0.00    +0.280 C 
ATOM      2  N   LIG    1        0.121   0.043  -0.055  0.00  0.00    -0.150 NA
ATOM      3  C   LIG    1        0.719  -0.458  -1.218  0.00  0.00    +0.490 C 
ATOM      4  C   LIG    1        1.878  -1.356  -0.824  0.00  0.00    +0.090 C 
ATOM      5  C   LIG    1        2.229  -0.866   0.607  0.00  0.00    +0.080 C 
ATOM      6  O   LIG    1        0.370  -0.217  -2.348  0.00  0.00    -0.390 OA
ATOM      7  O   LIG    1       -1.284  -0.363  -0.018  0.00  0.00    -0.620 OA
ATOM      8  C   LIG    1        0.819  -0.491   1.133  0.00  0.00    +0.240 C 
ENDROOT
BRANCH   8   9
ATOM      9  C   LIG    1        0.919   0.562   2.207  0.00  0.00    -0.160 A 
ATOM     10  C   LIG    1        1.809   1.617   2.075  0.00  0.00    +0.070 A 
ATOM     11  C   LIG    1        1.867   2.563   3.087  0.00  0.00    -0.030 A 
ATOM     12  C   LIG    1        1.042   2.423   4.187  0.00  0.00    +0.280 A 
ATOM     13  N   LIG    1        0.207   1.406   4.279  0.00  0.00    -0.480 NA
ATOM     14  C   LIG    1        0.122   0.491   3.334  0.00  0.00    +0.300 A 
ENDBRANCH   8   9
TORSDOF 1
