REMARK  Name = ZINC000022610958
REMARK                            x       y       z     vdW  Elec       q    Type
REMARK                         _______ _______ _______ _____ _____    ______ ____
ROOT
ATOM      1  C   LIG    1       -0.018   1.503   0.010  0.00  0.00    +0.120 C 
ATOM      2  C   LIG    1        0.002  -0.004   0.002  0.00  0.00    -0.090 A 
ATOM      3  C   LIG    1        0.006  -0.687  -1.200  0.00  0.00    +0.080 A 
ATOM      4  C   LIG    1        0.024  -2.068  -1.211  0.00  0.00    -0.010 A 
ATOM      5  C   LIG    1        0.040  -2.771  -0.013  0.00  0.00    +0.150 A 
ATOM      6  C   LIG    1        0.036  -2.081   1.193  0.00  0.00    -0.020 A 
ATOM      7  C   LIG    1        0.023  -0.700   1.197  0.00  0.00    +0.110 A 
ENDROOT
BRANCH   6   8
ATOM      8  N   LIG    1        0.052  -2.826   2.472  0.00  0.00    +0.030 N 
ATOM      9  O   LIG    1        0.069  -4.043   2.468  0.00  0.00    -0.100 OA
ATOM     10  O   LIG    1        0.049  -2.220   3.529  0.00  0.00    -0.190 OA
ENDBRANCH   6   8
BRANCH   5  11
ATOM     11  N   LIG    1        0.059  -4.167  -0.021  0.00  0.00    -0.500 N 
ATOM     12  C   LIG    1        1.296  -4.673  -0.631  0.00  0.00    +0.220 C 
ATOM     13  C   LIG    1       -1.124  -4.707  -0.704  0.00  0.00    +0.220 C 
ENDBRANCH   5  11
TORSDOF 2
