REMARK  Name = ZINC000008579998
REMARK                            x       y       z     vdW  Elec       q    Type
REMARK                         _______ _______ _______ _____ _____    ______ ____
ROOT
ATOM      1  C   LIG    1       -1.775   1.937  -0.996  0.00  0.00    +0.200 C 
ATOM      2  C   LIG    1       -2.430   1.270  -0.078  0.00  0.00    +0.080 C 
ENDROOT
BRANCH   2   3
ATOM      3  C   LIG    1       -2.415  -0.236  -0.087  0.00  0.00    +0.490 C 
ATOM      4  F   LIG    1       -2.867  -0.701  -1.327  0.00  0.00    -0.160 F 
ATOM      5  F   LIG    1       -3.253  -0.717   0.925  0.00  0.00    -0.170 F 
ATOM      6  F   LIG    1       -1.110  -0.691   0.133  0.00  0.00    -0.160 F 
ENDBRANCH   2   3
BRANCH   1   8
ATOM      7  O   LIG    1       -0.786   0.010  -1.883  0.00  0.00    -0.150 OA
ATOM      8  N   LIG    1       -0.940   1.214  -1.982  0.00  0.00    -0.010 N 
ATOM      9  O   LIG    1       -0.412   1.823  -2.895  0.00  0.00    -0.120 OA
ENDBRANCH   1   8
TORSDOF 2
