REMARK  Name = ZINC000575726873
REMARK                            x       y       z     vdW  Elec       q    Type
REMARK                         _______ _______ _______ _____ _____    ______ ____
ROOT
ATOM      1  C   LIG    1        0.606  -0.607  -1.056  0.00  0.00    +0.180 A 
ATOM      2  C   LIG    1       -0.130  -0.921  -2.189  0.00  0.00    -0.110 A 
ATOM      3  C   LIG    1        0.482  -1.535  -3.266  0.00  0.00    +0.170 A 
ATOM      4  C   LIG    1        1.829  -1.838  -3.218  0.00  0.00    -0.020 A 
ATOM      5  C   LIG    1        2.572  -1.527  -2.087  0.00  0.00    +0.250 A 
ATOM      6  C   LIG    1        1.960  -0.904  -1.006  0.00  0.00    -0.010 A 
ATOM      7  F   LIG    1        2.680  -0.600   0.097  0.00  0.00    -0.120 F 
ENDROOT
BRANCH   5   8
ATOM      8  N   LIG    1        3.936  -1.833  -2.038  0.00  0.00    -0.850 N 
ATOM      9  H   LIG    1        4.454  -1.616  -1.248  0.00  0.00    +0.410 HD
ATOM     10  H   LIG    1        4.364  -2.263  -2.795  0.00  0.00    +0.410 HD
ENDBRANCH   5   8
BRANCH   2  11
ATOM     11  N   LIG    1       -1.574  -0.598  -2.246  0.00  0.00    +0.040 N 
ATOM     12  O   LIG    1       -2.114  -0.057  -1.298  0.00  0.00    -0.150 OA
ATOM     13  O   LIG    1       -2.221  -0.873  -3.240  0.00  0.00    -0.170 OA
ENDBRANCH   2  11
BRANCH   1  15
ATOM     14  C   LIG    1       -0.017   1.425   0.010  0.00  0.00    +0.250 C 
ATOM     15  O   LIG    1        0.002  -0.004   0.002  0.00  0.00    -0.310 OA
ENDBRANCH   1  15
TORSDOF 3
