REMARK  Name = ZINC000001718298
REMARK                            x       y       z     vdW  Elec       q    Type
REMARK                         _______ _______ _______ _____ _____    ______ ____
ROOT
ATOM      1  C   LIG    1       -1.251  -0.787  -0.004  0.00  0.00    -0.070 A 
ATOM      2  C   LIG    1       -2.483  -0.140   0.105  0.00  0.00    +0.050 A 
ATOM      3  C   LIG    1       -3.649  -0.877   0.098  0.00  0.00    +0.010 A 
ATOM      4  C   LIG    1       -3.599  -2.255  -0.015  0.00  0.00    +0.030 A 
ATOM      5  C   LIG    1       -2.382  -2.903  -0.123  0.00  0.00    +0.010 A 
ATOM      6  C   LIG    1       -1.209  -2.177  -0.125  0.00  0.00    +0.040 A 
ENDROOT
BRANCH   1   8
ATOM      7  C   LIG    1        0.938  -0.243  -0.906  0.00  0.00    +0.250 C 
ATOM      8  C   LIG    1        0.002  -0.004   0.002  0.00  0.00    -0.030 C 
BRANCH   8   9
ATOM      9  N   LIG    1        0.213   1.047   1.022  0.00  0.00    +0.020 N 
ATOM     10  O   LIG    1       -0.606   1.207   1.910  0.00  0.00    -0.150 OA
ATOM     11  O   LIG    1        1.204   1.753   0.974  0.00  0.00    -0.170 OA
ENDBRANCH   8   9
ENDBRANCH   1   8
TORSDOF 2
