REMARK  Name = ZINC000200790779
REMARK                            x       y       z     vdW  Elec       q    Type
REMARK                         _______ _______ _______ _____ _____    ______ ____
ROOT
ATOM      1  C   LIG    1       -0.018   1.503   0.010  0.00  0.00    +0.140 C 
ATOM      2  C   LIG    1        0.002  -0.004   0.002  0.00  0.00    -0.130 A 
ATOM      3  C   LIG    1        0.006  -0.697  -1.193  0.00  0.00    +0.350 A 
ATOM      4  N   LIG    1        0.023  -2.016  -1.208  0.00  0.00    -0.460 NA
ATOM      5  C   LIG    1        0.038  -2.723  -0.095  0.00  0.00    +0.370 A 
ATOM      6  C   LIG    1        0.035  -2.100   1.138  0.00  0.00    -0.100 A 
ATOM      7  C   LIG    1        0.023  -0.714   1.195  0.00  0.00    +0.050 A 
ATOM      8 CL   LIG    1        0.020   0.114   2.721  0.00  0.00    +0.020 Cl
ENDROOT
BRANCH   6   9
ATOM      9  N   LIG    1        0.051  -2.901   2.383  0.00  0.00    +0.030 N 
ATOM     10  O   LIG    1        0.049  -2.344   3.466  0.00  0.00    -0.130 OA
ATOM     11  O   LIG    1        0.067  -4.118   2.324  0.00  0.00    -0.150 OA
ENDBRANCH   6   9
TORSDOF 1
