REMARK  Name = ZINC000001656039
REMARK                            x       y       z     vdW  Elec       q    Type
REMARK                         _______ _______ _______ _____ _____    ______ ____
ROOT
ATOM      1  C   LIG    1        0.229   1.888   0.284  0.00  0.00    +0.020 C 
ATOM      2  C   LIG    1        0.267   0.377   0.045  0.00  0.00    +0.020 C 
ATOM      3  C   LIG    1        1.117   0.077  -1.191  0.00  0.00    +0.040 C 
ATOM      4  C   LIG    1        1.155  -1.434  -1.430  0.00  0.00    +0.010 C 
ATOM      5  C   LIG    1        1.764  -2.128  -0.211  0.00  0.00    +0.030 C 
ATOM      6  C   LIG    1        0.914  -1.828   1.025  0.00  0.00    +0.010 C 
ATOM      7  C   LIG    1        0.876  -0.317   1.264  0.00  0.00    +0.140 C 
ENDROOT
BRANCH   7   8
ATOM      8  O   LIG    1        2.205   0.165   1.472  0.00  0.00    -0.540 OA
ATOM      9  H   LIG    1        2.654  -0.233   2.231  0.00  0.00    +0.380 HD
ENDBRANCH   7   8
BRANCH   7  10
ATOM     10  C   LIG    1        0.026  -0.018   2.500  0.00  0.00    +0.230 C 
BRANCH  10  11
ATOM     11  N   LIG    1        0.663  -0.600   3.684  0.00  0.00    -0.020 N 
ATOM     12  O   LIG    1        1.030  -1.761   3.669  0.00  0.00    -0.160 OA
ATOM     13  O   LIG    1        0.825   0.078   4.684  0.00  0.00    -0.150 OA
ENDBRANCH  10  11
ENDBRANCH   7  10
TORSDOF 3
