REMARK  Name = ZINC000049588563
REMARK                            x       y       z     vdW  Elec       q    Type
REMARK                         _______ _______ _______ _____ _____    ______ ____
ROOT
ATOM      1  O   LIG    1        0.002  -0.004   0.002  0.00  0.00    -0.430 OA
ATOM      2  C   LIG    1       -0.014   1.209   0.009  0.00  0.00    +0.400 C 
ATOM      3  C   LIG    1       -1.316   1.990   0.032  0.00  0.00    +0.030 C 
ATOM      4  C   LIG    1       -1.141   3.191  -0.910  0.00  0.00    +0.280 C 
ATOM      5  O   LIG    1       -0.040   3.984  -0.464  0.00  0.00    -0.280 OA
ATOM      6  C   LIG    1        1.153   3.381  -0.253  0.00  0.00    +0.240 A 
ATOM      7  C   LIG    1        2.322   4.129  -0.278  0.00  0.00    -0.090 A 
ATOM      8  C   LIG    1        3.540   3.516  -0.062  0.00  0.00    +0.180 A 
ATOM      9  C   LIG    1        3.613   2.155   0.194  0.00  0.00    +0.000 A 
ATOM     10  C   LIG    1        2.465   1.394   0.227  0.00  0.00    +0.180 A 
ATOM     11  C   LIG    1        1.228   2.001   0.001  0.00  0.00    -0.260 A 
ENDROOT
BRANCH   7  12
ATOM     12  N   LIG    1        2.265   5.583  -0.550  0.00  0.00    +0.030 N 
ATOM     13  O   LIG    1        1.191   6.124  -0.741  0.00  0.00    -0.130 OA
ATOM     14  O   LIG    1        3.291   6.237  -0.582  0.00  0.00    -0.170 OA
ENDBRANCH   7  12
TORSDOF 1
