REMARK  Name = ZINC000156940736
REMARK                            x       y       z     vdW  Elec       q    Type
REMARK                         _______ _______ _______ _____ _____    ______ ____
ROOT
ATOM      1  C   LIG    1       -1.230   1.857   0.252  0.00  0.00    +0.060 A 
ATOM      2  N   LIG    1       -1.242   3.171   0.355  0.00  0.00    -0.390 NA
ATOM      3  C   LIG    1       -2.338   3.874   0.148  0.00  0.00    +0.240 A 
ATOM      4  C   LIG    1       -3.528   3.254  -0.186  0.00  0.00    +0.100 A 
ATOM      5  C   LIG    1       -3.562   1.874  -0.304  0.00  0.00    +0.000 A 
ATOM      6  C   LIG    1       -2.385   1.162  -0.086  0.00  0.00    +0.250 A 
ENDROOT
BRANCH   1   8
ATOM      7  O   LIG    1        0.989   1.667   0.151  0.00  0.00    -0.140 OA
ATOM      8  N   LIG    1       -0.079   1.177   0.473  0.00  0.00    +0.080 N 
ATOM      9  O   LIG    1       -0.111   0.079   0.999  0.00  0.00    -0.210 OA
ENDBRANCH   1   8
BRANCH   6  10
ATOM     10  N   LIG    1       -2.368  -0.231  -0.193  0.00  0.00    -0.710 N 
ATOM     11  H   LIG    1       -1.528  -0.712  -0.131  0.00  0.00    +0.420 HD
BRANCH  10  12
ATOM     12  C   LIG    1       -3.619  -0.964  -0.400  0.00  0.00    +0.300 C 
BRANCH  12  13
ATOM     13  C   LIG    1       -3.324  -2.463  -0.483  0.00  0.00    -0.070 C 
ATOM     14  C   LIG    1       -3.918  -3.361   0.604  0.00  0.00    +0.030 C 
ATOM     15  C   LIG    1       -4.491  -3.396  -0.815  0.00  0.00    +0.030 C 
ENDBRANCH  12  13
ENDBRANCH  10  12
ENDBRANCH   6  10
TORSDOF 4
