REMARK  Name = ZINC000034599390
REMARK                            x       y       z     vdW  Elec       q    Type
REMARK                         _______ _______ _______ _____ _____    ______ ____
ROOT
ATOM      1  C   LIG    1       -0.159   1.314   0.424  0.00  0.00    +0.130 C 
ATOM      2  C   LIG    1       -0.088  -0.180   0.238  0.00  0.00    -0.050 A 
ATOM      3  C   LIG    1       -0.136  -0.724  -1.039  0.00  0.00    +0.150 A 
ATOM      4  C   LIG    1       -0.070  -2.101  -1.206  0.00  0.00    +0.080 A 
ATOM      5  C   LIG    1        0.042  -2.925  -0.104  0.00  0.00    +0.050 A 
ATOM      6  C   LIG    1        0.089  -2.380   1.167  0.00  0.00    +0.080 A 
ATOM      7  C   LIG    1        0.029  -1.009   1.336  0.00  0.00    -0.020 A 
ENDROOT
BRANCH   3   8
ATOM      8  N   LIG    1       -0.249   0.113  -2.154  0.00  0.00    -0.680 N 
ATOM      9  H   LIG    1        0.177   0.985  -2.151  0.00  0.00    +0.420 HD
ATOM     10  C   LIG    1       -0.949  -0.291  -3.232  0.00  0.00    +0.650 C 
ATOM     11  O   LIG    1       -1.565  -1.336  -3.198  0.00  0.00    -0.530 OA
ENDBRANCH   3   8
BRANCH   7  12
ATOM     12  N   LIG    1        0.080  -0.430   2.697  0.00  0.00    +0.020 N 
ATOM     13  O   LIG    1       -0.453  -1.010   3.627  0.00  0.00    -0.150 OA
ATOM     14  O   LIG    1        0.653   0.627   2.889  0.00  0.00    -0.150 OA
ENDBRANCH   7  12
TORSDOF 2
