REMARK  Name = ZINC000006527286
REMARK                            x       y       z     vdW  Elec       q    Type
REMARK                         _______ _______ _______ _____ _____    ______ ____
ROOT
ATOM      1  C   LIG    1       -2.503  -2.899   0.264  0.00  0.00    -0.010 A 
ATOM      2  C   LIG    1       -3.722  -2.224   0.377  0.00  0.00    +0.050 A 
ATOM      3  C   LIG    1       -4.903  -2.893   0.132  0.00  0.00    +0.080 A 
ATOM      4  C   LIG    1       -4.883  -4.230  -0.225  0.00  0.00    +0.040 A 
ATOM      5  C   LIG    1       -3.680  -4.906  -0.338  0.00  0.00    +0.090 A 
ATOM      6  C   LIG    1       -2.491  -4.249  -0.102  0.00  0.00    -0.020 A 
ENDROOT
BRANCH   6   7
ATOM      7  N   LIG    1       -1.206  -4.973  -0.225  0.00  0.00    +0.020 N 
ATOM      8  O   LIG    1       -1.124  -6.134   0.134  0.00  0.00    -0.150 OA
ATOM      9  O   LIG    1       -0.230  -4.407  -0.685  0.00  0.00    -0.140 OA
ENDBRANCH   6   7
BRANCH   1  11
ATOM     10  C   LIG    1       -1.215  -0.844   0.556  0.00  0.00    -0.040 C 
ATOM     11  C   LIG    1       -1.239  -2.191   0.523  0.00  0.00    +0.100 C 
BRANCH  10  15
ATOM     12  N   LIG    1        0.067   1.207   0.848  0.00  0.00    -0.850 N 
ATOM     13  H   LIG    1       -0.749   1.711   0.696  0.00  0.00    +0.400 HD
ATOM     14  H   LIG    1        0.900   1.674   1.019  0.00  0.00    +0.410 HD
ATOM     15  C   LIG    1        0.043  -0.140   0.815  0.00  0.00    +0.550 C 
ATOM     16  O   LIG    1        1.067  -0.771   0.999  0.00  0.00    -0.530 OA
ENDBRANCH  10  15
ENDBRANCH   1  11
TORSDOF 3
