REMARK  Name = ZINC000256050748
REMARK                            x       y       z     vdW  Elec       q    Type
REMARK                         _______ _______ _______ _____ _____    ______ ____
ROOT
ATOM      1  C   LIG    1       -1.293   1.929   0.019  0.00  0.00    +0.160 C 
ATOM      2  C   LIG    1       -1.384   2.866  -1.204  0.00  0.00    +0.080 C 
ATOM      3  C   LIG    1       -2.116   4.121  -0.667  0.00  0.00    +0.080 C 
ATOM      4  C   LIG    1       -1.531   4.274   0.759  0.00  0.00    +0.000 C 
ATOM      5  C   LIG    1       -1.387   2.824   1.267  0.00  0.00    +0.090 C 
ENDROOT
BRANCH   4   6
ATOM      6  C   LIG    1       -2.492   5.063   1.650  0.00  0.00    +0.460 C 
ATOM      7  F   LIG    1       -2.671   6.346   1.122  0.00  0.00    -0.180 F 
ATOM      8  F   LIG    1       -1.958   5.160   2.940  0.00  0.00    -0.180 F 
ATOM      9  F   LIG    1       -3.725   4.404   1.704  0.00  0.00    -0.180 F 
ENDBRANCH   4   6
BRANCH   1  11
ATOM     10  O   LIG    1        0.002  -0.004   0.002  0.00  0.00    -0.160 OA
ATOM     11  N   LIG    1       -0.014   1.214   0.009  0.00  0.00    -0.020 N 
ATOM     12  O   LIG    1        1.032   1.837   0.002  0.00  0.00    -0.150 OA
ENDBRANCH   1  11
TORSDOF 2
