REMARK  Name = ZINC000034087577
REMARK                            x       y       z     vdW  Elec       q    Type
REMARK                         _______ _______ _______ _____ _____    ______ ____
ROOT
ATOM      1  C   LIG    1       -1.311   1.977  -0.221  0.00  0.00    -0.020 A 
ATOM      2  C   LIG    1       -2.496   1.276  -0.316  0.00  0.00    +0.090 A 
ATOM      3  C   LIG    1       -3.700   1.911  -0.068  0.00  0.00    +0.030 A 
ATOM      4  C   LIG    1       -3.724   3.250   0.276  0.00  0.00    +0.070 A 
ATOM      5  C   LIG    1       -2.544   3.961   0.374  0.00  0.00    +0.030 A 
ATOM      6  C   LIG    1       -1.328   3.325   0.132  0.00  0.00    +0.060 A 
ENDROOT
BRANCH   6   7
ATOM      7  C   LIG    1       -0.058   4.084   0.236  0.00  0.00    +0.000 A 
ATOM      8  C   LIG    1        0.062   5.422   0.440  0.00  0.00    +0.170 A 
ATOM      9  N   LIG    1        1.401   5.696   0.470  0.00  0.00    -0.570 N 
ATOM     10  H   LIG    1        1.806   6.568   0.600  0.00  0.00    +0.430 HD
ATOM     11  C   LIG    1        2.057   4.529   0.285  0.00  0.00    +0.420 A 
ATOM     12  N   LIG    1        1.186   3.569   0.151  0.00  0.00    -0.460 NA
ENDBRANCH   6   7
BRANCH   1  14
ATOM     13  O   LIG    1        0.800   1.815  -1.219  0.00  0.00    -0.080 OA
ATOM     14  N   LIG    1       -0.023   1.297  -0.486  0.00  0.00    +0.020 N 
ATOM     15  O   LIG    1        0.215   0.221   0.032  0.00  0.00    -0.200 OA
ENDBRANCH   1  14
TORSDOF 2
