REMARK  Name = ZINC000012368618
REMARK                            x       y       z     vdW  Elec       q    Type
REMARK                         _______ _______ _______ _____ _____    ______ ____
ROOT
ATOM      1  C   LIG    1       -2.478  -0.216  -0.073  0.00  0.00    -0.050 A 
ATOM      2  C   LIG    1       -1.282  -0.905   0.134  0.00  0.00    +0.080 A 
ATOM      3  C   LIG    1       -1.274  -2.285   0.127  0.00  0.00    +0.110 A 
ATOM      4  C   LIG    1       -2.449  -2.985  -0.084  0.00  0.00    -0.020 A 
ATOM      5  C   LIG    1       -3.638  -2.308  -0.290  0.00  0.00    +0.100 A 
ATOM      6  C   LIG    1       -3.660  -0.929  -0.280  0.00  0.00    +0.060 A 
ENDROOT
BRANCH   4   7
ATOM      7  N   LIG    1       -2.433  -4.465  -0.091  0.00  0.00    +0.020 N 
ATOM      8  O   LIG    1       -3.465  -5.085  -0.277  0.00  0.00    -0.150 OA
ATOM      9  O   LIG    1       -1.387  -5.064   0.090  0.00  0.00    -0.150 OA
ENDBRANCH   4   7
BRANCH   1  11
ATOM     10  C   LIG    1       -1.574   1.937  -0.742  0.00  0.00    +0.110 C 
ATOM     11  C   LIG    1       -2.494   1.262  -0.067  0.00  0.00    +0.190 C 
BRANCH  10  13
ATOM     12  O   LIG    1       -0.901   0.061  -1.970  0.00  0.00    -0.170 OA
ATOM     13  N   LIG    1       -0.702   1.235  -1.710  0.00  0.00    +0.010 N 
ATOM     14  O   LIG    1        0.211   1.832  -2.252  0.00  0.00    -0.150 OA
ENDBRANCH  10  13
ENDBRANCH   1  11
TORSDOF 3
