REMARK  Name = ZINC000097463351
REMARK                            x       y       z     vdW  Elec       q    Type
REMARK                         _______ _______ _______ _____ _____    ______ ____
ROOT
ATOM      1  C   LIG    1       -0.018   1.461   0.010  0.00  0.00    +0.350 C 
ATOM      2  N   LIG    1        0.002  -0.004   0.002  0.00  0.00    -0.480 N 
ATOM      3  N   LIG    1        0.008  -0.763  -1.129  0.00  0.00    -0.430 NA
ATOM      4  H   LIG    1       -0.800  -0.566  -1.701  0.00  0.00    +0.340 HD
ATOM      5  C   LIG    1        0.029  -2.179  -0.715  0.00  0.00    +0.300 C 
ATOM      6  C   LIG    1        0.034  -2.136   0.794  0.00  0.00    -0.140 A 
ATOM      7  C   LIG    1        0.052  -3.118   1.760  0.00  0.00    +0.030 A 
ATOM      8  C   LIG    1        0.050  -2.770   3.099  0.00  0.00    +0.050 A 
ATOM      9  C   LIG    1        0.039  -1.436   3.464  0.00  0.00    +0.090 A 
ATOM     10  C   LIG    1        0.026  -0.449   2.500  0.00  0.00    +0.010 A 
ATOM     11  C   LIG    1        0.024  -0.793   1.150  0.00  0.00    +0.190 A 
ENDROOT
BRANCH   7  12
ATOM     12  N   LIG    1        0.063  -4.545   1.365  0.00  0.00    +0.030 N 
ATOM     13  O   LIG    1        0.065  -4.850   0.186  0.00  0.00    -0.160 OA
ATOM     14  O   LIG    1        0.070  -5.413   2.220  0.00  0.00    -0.160 OA
ENDBRANCH   7  12
TORSDOF 1
