REMARK  Name = ZINC000307266923
REMARK                            x       y       z     vdW  Elec       q    Type
REMARK                         _______ _______ _______ _____ _____    ______ ____
ROOT
ATOM      1  C   LIG    1       -0.010   1.480   0.030  0.00  0.00    +0.290 C 
ATOM      2  N   LIG    1        0.006   0.011   0.006  0.00  0.00    -0.150 NA
ATOM      3  C   LIG    1       -1.309  -0.469   0.001  0.00  0.00    +0.490 C 
ATOM      4  C   LIG    1       -1.512  -1.347   1.224  0.00  0.00    +0.090 C 
ATOM      5  C   LIG    1       -0.066  -1.772   1.594  0.00  0.00    +0.080 C 
ATOM      6  O   LIG    1       -2.144  -0.225  -0.836  0.00  0.00    -0.390 OA
ATOM      7  O   LIG    1        0.695  -0.449  -1.200  0.00  0.00    -0.610 OA
ATOM      8  C   LIG    1        0.717  -0.493   1.200  0.00  0.00    +0.210 C 
ENDROOT
BRANCH   8   9
ATOM      9  C   LIG    1        2.147  -0.831   0.863  0.00  0.00    -0.150 A 
ATOM     10  C   LIG    1        3.191  -0.187   1.509  0.00  0.00    +0.070 A 
ATOM     11  C   LIG    1        4.490  -0.532   1.167  0.00  0.00    -0.050 A 
ATOM     12  C   LIG    1        4.699  -1.498   0.202  0.00  0.00    +0.270 A 
ATOM     13  N   LIG    1        3.681  -2.090  -0.392  0.00  0.00    -0.500 NA
ATOM     14  C   LIG    1        2.433  -1.792  -0.089  0.00  0.00    +0.340 A 
ENDBRANCH   8   9
TORSDOF 1
