REMARK  Name = ZINC000104570086
REMARK                            x       y       z     vdW  Elec       q    Type
REMARK                         _______ _______ _______ _____ _____    ______ ____
ROOT
ATOM      1  C   LIG    1        0.053   1.465   0.117  0.00  0.00    +0.120 C 
ATOM      2  C   LIG    1        0.092  -0.041   0.080  0.00  0.00    -0.030 A 
ATOM      3  C   LIG    1        0.178  -0.701  -1.132  0.00  0.00    +0.030 A 
ATOM      4  C   LIG    1        0.214  -2.083  -1.170  0.00  0.00    +0.110 A 
ATOM      5  C   LIG    1        0.164  -2.809   0.004  0.00  0.00    -0.020 A 
ATOM      6  C   LIG    1        0.078  -2.149   1.224  0.00  0.00    +0.160 A 
ATOM      7  C   LIG    1        0.048  -0.761   1.258  0.00  0.00    -0.120 A 
ATOM      8  C   LIG    1       -0.046  -0.041   2.579  0.00  0.00    +0.110 C 
ENDROOT
BRANCH   5   9
ATOM      9  N   LIG    1        0.204  -4.288  -0.037  0.00  0.00    +0.030 N 
ATOM     10  O   LIG    1        0.265  -4.925   0.999  0.00  0.00    -0.090 OA
ATOM     11  O   LIG    1        0.175  -4.868  -1.108  0.00  0.00    -0.200 OA
ENDBRANCH   5   9
BRANCH   6  12
ATOM     12  N   LIG    1        0.028  -2.880   2.413  0.00  0.00    -0.460 N 
ATOM     13  H   LIG    1       -0.810  -2.667   2.933  0.00  0.00    +0.330 HD
BRANCH  12  14
ATOM     14  N   LIG    1        1.215  -2.646   3.219  0.00  0.00    -0.660 NA
ATOM     15  H   LIG    1        1.227  -3.248   4.029  0.00  0.00    +0.370 HD
ATOM     16  H   LIG    1        1.284  -1.677   3.489  0.00  0.00    +0.320 HD
ENDBRANCH  12  14
ENDBRANCH   6  12
TORSDOF 3
