REMARK  Name = ZINC000238359034
REMARK                            x       y       z     vdW  Elec       q    Type
REMARK                         _______ _______ _______ _____ _____    ______ ____
ROOT
ATOM      1  C   LIG    1        0.606  -0.607  -1.056  0.00  0.00    +0.190 A 
ATOM      2  C   LIG    1        1.177   0.154  -2.070  0.00  0.00    -0.030 A 
ATOM      3  C   LIG    1        1.783  -0.507  -3.129  0.00  0.00    +0.150 A 
ATOM      4  C   LIG    1        1.797  -1.891  -3.141  0.00  0.00    +0.260 A 
ATOM      5  N   LIG    1        1.245  -2.582  -2.162  0.00  0.00    -0.360 NA
ATOM      6  F   LIG    1        2.351   0.192  -4.136  0.00  0.00    -0.100 F 
ATOM      7  C   LIG    1        0.666  -1.991  -1.136  0.00  0.00    +0.120 A 
ENDROOT
BRANCH   7   8
ATOM      8  N   LIG    1        0.061  -2.813  -0.065  0.00  0.00    +0.030 N 
ATOM      9  O   LIG    1       -0.476  -2.275   0.887  0.00  0.00    -0.130 OA
ATOM     10  O   LIG    1        0.101  -4.029  -0.134  0.00  0.00    -0.130 OA
ENDBRANCH   7   8
BRANCH   1  12
ATOM     11  C   LIG    1       -0.017   1.425   0.010  0.00  0.00    +0.270 C 
ATOM     12  O   LIG    1        0.002  -0.004   0.002  0.00  0.00    -0.270 OA
ENDBRANCH   1  12
TORSDOF 2
