REMARK  Name = ZINC000062711157
REMARK                            x       y       z     vdW  Elec       q    Type
REMARK                         _______ _______ _______ _____ _____    ______ ____
ROOT
ATOM      1  O   LIG    1        0.002  -0.004   0.002  0.00  0.00    -0.470 OA
ATOM      2  C   LIG    1       -0.014   1.214   0.009  0.00  0.00    +0.560 A 
ATOM      3  C   LIG    1       -1.278   1.953   0.031  0.00  0.00    -0.200 A 
ATOM      4  C   LIG    1       -2.513   1.303   0.046  0.00  0.00    +0.100 A 
ATOM      5  C   LIG    1       -3.663   2.042   0.067  0.00  0.00    +0.000 A 
ATOM      6  C   LIG    1       -3.615   3.432   0.073  0.00  0.00    +0.070 A 
ATOM      7  C   LIG    1       -2.423   4.096   0.059  0.00  0.00    +0.030 A 
ATOM      8  C   LIG    1       -1.225   3.369   0.038  0.00  0.00    +0.170 A 
ATOM      9  N   LIG    1       -0.032   3.980   0.024  0.00  0.00    -0.510 NA
ATOM     10  C   LIG    1        1.103   3.298   0.004  0.00  0.00    +0.370 A 
ATOM     11  C   LIG    1        2.328   4.008  -0.009  0.00  0.00    +0.110 A 
ATOM     12  C   LIG    1        3.497   3.317  -0.029  0.00  0.00    +0.060 A 
ATOM     13  C   LIG    1        3.487   1.913  -0.036  0.00  0.00    +0.320 A 
ATOM     14  N   LIG    1        2.362   1.254  -0.024  0.00  0.00    -0.220 NA
ATOM     15  N   LIG    1        1.134   1.928   0.002  0.00  0.00    -0.380 N 
ENDROOT
TORSDOF 0
