REMARK  Name = ZINC000005104768
REMARK                            x       y       z     vdW  Elec       q    Type
REMARK                         _______ _______ _______ _____ _____    ______ ____
ROOT
ATOM      1  O   LIG    1        0.003  -0.004   0.051  0.00  0.00    -0.480 OA
ATOM      2  C   LIG    1       -0.013   1.216   0.057  0.00  0.00    +0.420 A 
ATOM      3  C   LIG    1       -1.234   1.930   0.101  0.00  0.00    -0.140 A 
ATOM      4  C   LIG    1       -1.228   3.279   0.107  0.00  0.00    +0.350 A 
ATOM      5  N   LIG    1       -0.083   4.003   0.072  0.00  0.00    -0.600 N 
ATOM      6  H   LIG    1       -0.136   4.972   0.079  0.00  0.00    +0.430 HD
ATOM      7  C   LIG    1        1.153   3.398   0.027  0.00  0.00    +0.260 A 
ATOM      8  C   LIG    1        2.322   4.151  -0.009  0.00  0.00    -0.110 A 
ATOM      9  C   LIG    1        3.543   3.514  -0.054  0.00  0.00    +0.170 A 
ATOM     10  C   LIG    1        3.620   2.128  -0.063  0.00  0.00    +0.000 A 
ATOM     11  C   LIG    1        2.483   1.369  -0.028  0.00  0.00    +0.190 A 
ATOM     12  C   LIG    1        1.237   1.994   0.024  0.00  0.00    -0.210 A 
ENDROOT
BRANCH   8  13
ATOM     13  N   LIG    1        2.255   5.630   0.001  0.00  0.00    +0.040 N 
ATOM     14  O   LIG    1        1.176   6.191  -0.072  0.00  0.00    -0.200 OA
ATOM     15  O   LIG    1        3.278   6.285   0.082  0.00  0.00    -0.130 OA
ENDBRANCH   8  13
TORSDOF 1
