REMARK  Name = ZINC000087418666
REMARK                            x       y       z     vdW  Elec       q    Type
REMARK                         _______ _______ _______ _____ _____    ______ ____
ROOT
ATOM      1  C   LIG    1        0.707  -0.490  -1.238  0.00  0.00    +0.200 A 
ATOM      2  C   LIG    1        1.819  -1.260  -1.272  0.00  0.00    -0.220 A 
ATOM      3  C   LIG    1        2.146  -1.485  -2.619  0.00  0.00    +0.390 A 
ATOM      4  N   LIG    1        1.258  -0.868  -3.361  0.00  0.00    -0.320 NA
ATOM      5  N   LIG    1        0.339  -0.239  -2.512  0.00  0.00    -0.440 N 
ATOM      6  H   LIG    1       -0.425   0.289  -2.790  0.00  0.00    +0.460 HD
ENDROOT
BRANCH   1   8
ATOM      7  C   LIG    1       -0.019   1.526   0.010  0.00  0.00    +0.060 C 
ATOM      8  C   LIG    1        0.002  -0.004   0.002  0.00  0.00    +0.050 C 
ATOM      9  C   LIG    1       -1.433  -0.534   0.013  0.00  0.00    +0.060 C 
ENDBRANCH   1   8
BRANCH   3  10
ATOM     10  N   LIG    1        3.231  -2.236  -3.087  0.00  0.00    -0.830 N 
ATOM     11  H   LIG    1        3.376  -2.336  -4.041  0.00  0.00    +0.420 HD
ATOM     12  H   LIG    1        3.837  -2.658  -2.457  0.00  0.00    +0.410 HD
ENDBRANCH   3  10
BRANCH   2  13
ATOM     13  N   LIG    1        2.559  -1.774  -0.097  0.00  0.00    +0.050 N 
ATOM     14  O   LIG    1        3.464  -1.119   0.387  0.00  0.00    -0.140 OA
ATOM     15  O   LIG    1        2.262  -2.853   0.385  0.00  0.00    -0.140 OA
ENDBRANCH   2  13
TORSDOF 3
