REMARK  Name = ZINC000001749777
REMARK                            x       y       z     vdW  Elec       q    Type
REMARK                         _______ _______ _______ _____ _____    ______ ____
ROOT
ATOM      1  C   LIG    1        0.022  -2.979  -2.136  0.00  0.00    +0.130 A 
ATOM      2  C   LIG    1        0.009  -2.443  -3.415  0.00  0.00    -0.010 A 
ATOM      3  C   LIG    1        0.010  -3.281  -4.514  0.00  0.00    +0.080 A 
ATOM      4  C   LIG    1        0.025  -4.652  -4.339  0.00  0.00    +0.070 A 
ATOM      5  C   LIG    1        0.038  -5.189  -3.065  0.00  0.00    +0.000 A 
ATOM      6  C   LIG    1        0.043  -4.355  -1.963  0.00  0.00    +0.070 A 
ENDROOT
BRANCH   5   7
ATOM      7  N   LIG    1        0.054  -6.657  -2.881  0.00  0.00    +0.020 N 
ATOM      8  O   LIG    1        0.066  -7.130  -1.759  0.00  0.00    -0.150 OA
ATOM      9  O   LIG    1        0.055  -7.392  -3.852  0.00  0.00    -0.150 OA
ENDBRANCH   5   7
BRANCH   1  10
ATOM     10  O   LIG    1        0.021  -2.157  -1.054  0.00  0.00    -0.290 OA
BRANCH  10  11
ATOM     11  C   LIG    1       -0.000  -0.750  -1.307  0.00  0.00    +0.200 C 
BRANCH  11  13
ATOM     12  C   LIG    1       -0.018   1.503   0.010  0.00  0.00    +0.090 C 
ATOM     13  C   LIG    1        0.002  -0.004   0.002  0.00  0.00    +0.350 C 
ATOM     14  O   LIG    1        0.020  -0.613   1.044  0.00  0.00    -0.430 OA
ENDBRANCH  11  13
ENDBRANCH  10  11
ENDBRANCH   1  10
TORSDOF 4
