REMARK  Name = ZINC000039251175
REMARK                            x       y       z     vdW  Elec       q    Type
REMARK                         _______ _______ _______ _____ _____    ______ ____
ROOT
ATOM      1  O   LIG    1        0.002  -0.004   0.002  0.00  0.00    -0.470 OA
ATOM      2  C   LIG    1       -0.015   1.214   0.009  0.00  0.00    +0.550 A 
ATOM      3  N   LIG    1       -1.197   1.855   0.029  0.00  0.00    -0.610 N 
ATOM      4  H   LIG    1       -2.019   1.341   0.038  0.00  0.00    +0.430 HD
ATOM      5  C   LIG    1       -1.256   3.231   0.037  0.00  0.00    +0.160 A 
ATOM      6  C   LIG    1       -2.480   3.898   0.058  0.00  0.00    +0.040 A 
ATOM      7  C   LIG    1       -2.471   5.280   0.065  0.00  0.00    +0.070 A 
ATOM      8  C   LIG    1       -1.260   5.960   0.051  0.00  0.00    +0.270 A 
ATOM      9  N   LIG    1       -0.115   5.314   0.031  0.00  0.00    -0.410 NA
ATOM     10  C   LIG    1       -0.068   3.985   0.024  0.00  0.00    +0.050 A 
ATOM     11  C   LIG    1        1.216   3.276   0.002  0.00  0.00    +0.300 A 
ATOM     12  C   LIG    1        1.209   1.922   0.001  0.00  0.00    -0.140 A 
ENDROOT
BRANCH  12  13
ATOM     13  N   LIG    1        2.489   1.179  -0.021  0.00  0.00    +0.040 N 
ATOM     14  O   LIG    1        2.487  -0.039  -0.021  0.00  0.00    -0.100 OA
ATOM     15  O   LIG    1        3.545   1.786  -0.038  0.00  0.00    -0.160 OA
ENDBRANCH  12  13
TORSDOF 1
