REMARK  Name = ZINC000014983161
REMARK                            x       y       z     vdW  Elec       q    Type
REMARK                         _______ _______ _______ _____ _____    ______ ____
ROOT
ATOM      1  C   LIG    1        0.625  -0.617   1.040  0.00  0.00    +0.380 A 
ATOM      2  N   LIG    1        1.171   0.112   1.997  0.00  0.00    -0.500 NA
ATOM      3  C   LIG    1        1.788  -0.434   3.027  0.00  0.00    +0.210 A 
ATOM      4  C   LIG    1        1.889  -1.804   3.150  0.00  0.00    +0.020 A 
ATOM      5  C   LIG    1        1.326  -2.621   2.160  0.00  0.00    -0.060 A 
ATOM      6  C   LIG    1        2.391   0.453   4.086  0.00  0.00    +0.170 C 
ATOM      7  C   LIG    1        0.676  -2.004   1.087  0.00  0.00    -0.080 A 
ENDROOT
BRANCH   7   8
ATOM      8  N   LIG    1        0.062  -2.816   0.012  0.00  0.00    +0.020 N 
ATOM      9  O   LIG    1        0.718  -3.127  -0.966  0.00  0.00    -0.120 OA
ATOM     10  O   LIG    1       -1.099  -3.174   0.106  0.00  0.00    -0.120 OA
ENDBRANCH   7   8
BRANCH   1  12
ATOM     11  C   LIG    1       -0.017   1.425   0.010  0.00  0.00    +0.290 C 
ATOM     12  O   LIG    1        0.002  -0.004   0.002  0.00  0.00    -0.300 OA
ENDBRANCH   1  12
BRANCH   5  13
ATOM     13  C   LIG    1        1.410  -4.091   2.252  0.00  0.00    +0.500 C 
ATOM     14  O   LIG    1        1.971  -4.607   3.190  0.00  0.00    -0.410 OA
ENDBRANCH   5  13
TORSDOF 3
