REMARK  Name = ZINC000089195915
REMARK                            x       y       z     vdW  Elec       q    Type
REMARK                         _______ _______ _______ _____ _____    ______ ____
ROOT
ATOM      1  C   LIG    1       -1.306   1.936   0.019  0.00  0.00    +0.140 A 
ATOM      2  N   LIG    1       -1.462   3.229   0.021  0.00  0.00    -0.140 NA
ATOM      3  N   LIG    1       -2.824   3.549   0.031  0.00  0.00    -0.450 N 
ATOM      4  H   LIG    1       -3.191   4.447   0.035  0.00  0.00    +0.460 HD
ATOM      5  C   LIG    1       -3.556   2.390   0.036  0.00  0.00    +0.120 A 
ATOM      6  C   LIG    1       -4.920   2.111   0.045  0.00  0.00    +0.050 A 
ATOM      7  C   LIG    1       -5.350   0.815   0.047  0.00  0.00    +0.070 A 
ATOM      8  C   LIG    1       -4.440  -0.237   0.040  0.00  0.00    +0.090 A 
ATOM      9  C   LIG    1       -3.095   0.007   0.031  0.00  0.00    +0.080 A 
ATOM     10  F   LIG    1       -4.889  -1.512   0.042  0.00  0.00    -0.130 F 
ATOM     11  C   LIG    1       -2.632   1.327   0.022  0.00  0.00    -0.110 A 
ENDROOT
BRANCH   1  13
ATOM     12  O   LIG    1        0.002  -0.004   0.002  0.00  0.00    -0.120 OA
ATOM     13  N   LIG    1       -0.014   1.214   0.009  0.00  0.00    +0.060 N 
ATOM     14  O   LIG    1        1.032   1.837   0.002  0.00  0.00    -0.120 OA
ENDBRANCH   1  13
TORSDOF 1
