REMARK  Name = ZINC000016678080
REMARK                            x       y       z     vdW  Elec       q    Type
REMARK                         _______ _______ _______ _____ _____    ______ ____
ROOT
ATOM      1  C   LIG    1        1.256   1.918   0.737  0.00  0.00    -0.330 A 
ATOM      2  C   LIG    1        1.439   3.302   0.844  0.00  0.00    +0.390 A 
ATOM      3  N   LIG    1        2.705   3.596   0.623  0.00  0.00    -0.540 NA
ATOM      4  C   LIG    1        3.439   2.518   0.365  0.00  0.00    +0.310 A 
ATOM      5  N   LIG    1        4.766   2.337   0.083  0.00  0.00    -0.470 N 
ATOM      6  H   LIG    1        5.357   3.105   0.045  0.00  0.00    +0.440 HD
ATOM      7  C   LIG    1        5.260   1.109  -0.143  0.00  0.00    +0.370 A 
ATOM      8  C   LIG    1        4.470   0.000  -0.102  0.00  0.00    +0.030 A 
ATOM      9  C   LIG    1        3.112   0.121   0.181  0.00  0.00    +0.100 A 
ATOM     10  C   LIG    1        2.592   1.386   0.422  0.00  0.00    -0.080 A 
ENDROOT
BRANCH   9  11
ATOM     11  N   LIG    1        2.242  -1.075   0.230  0.00  0.00    +0.020 N 
ATOM     12  O   LIG    1        2.730  -2.176   0.410  0.00  0.00    -0.130 OA
ATOM     13  O   LIG    1        1.038  -0.958   0.091  0.00  0.00    -0.140 OA
ENDBRANCH   9  11
BRANCH   1  15
ATOM     14  O   LIG    1       -0.996   1.784   1.024  0.00  0.00    -0.480 OA
ATOM     15  C   LIG    1        0.059   1.194   0.901  0.00  0.00    +0.510 C 
ENDBRANCH   1  15
TORSDOF 2
