REMARK  Name = ZINC000001670566
REMARK                            x       y       z     vdW  Elec       q    Type
REMARK                         _______ _______ _______ _____ _____    ______ ____
ROOT
ATOM      1  N   LIG    1        1.519  -2.369  -2.826  0.00  0.00    -0.570 N 
ENDROOT
BRANCH   1   2
ATOM      2  C   LIG    1        2.810  -2.322  -3.236  0.00  0.00    +0.410 C 
ATOM      3  N   LIG    1        3.892  -2.283  -3.580  0.00  0.00    -0.440 NA
ENDBRANCH   1   2
BRANCH   1   4
ATOM      4  C   LIG    1        1.192  -2.164  -1.413  0.00  0.00    +0.310 C 
BRANCH   4   5
ATOM      5  C   LIG    1        1.158  -0.665  -1.109  0.00  0.00    -0.010 C 
BRANCH   5   7
ATOM      6  C   LIG    1        0.667   1.052   0.638  0.00  0.00    +0.010 C 
ATOM      7  C   LIG    1        0.701  -0.447   0.334  0.00  0.00    +0.010 C 
ENDBRANCH   5   7
ENDBRANCH   4   5
ENDBRANCH   1   4
BRANCH   1   8
ATOM      8  C   LIG    1        0.451  -2.625  -3.796  0.00  0.00    +0.370 C 
BRANCH   8   9
ATOM      9  C   LIG    1        0.390  -4.122  -4.104  0.00  0.00    +0.020 C 
ATOM     10  C   LIG    1        1.774  -4.612  -4.533  0.00  0.00    +0.100 C 
ATOM     11  C   LIG    1       -0.612  -4.370  -5.233  0.00  0.00    +0.110 C 
BRANCH   9  12
ATOM     12  N   LIG    1       -0.036  -4.850  -2.905  0.00  0.00    -0.010 N 
ATOM     13  O   LIG    1       -0.149  -6.063  -2.938  0.00  0.00    -0.160 OA
ATOM     14  O   LIG    1       -0.276  -4.243  -1.877  0.00  0.00    -0.160 OA
ENDBRANCH   9  12
ENDBRANCH   8   9
ENDBRANCH   1   8
TORSDOF 7
