REMARK  Name = ZINC000044712612
REMARK                            x       y       z     vdW  Elec       q    Type
REMARK                         _______ _______ _______ _____ _____    ______ ____
ROOT
ATOM      1  C   LIG    1        1.257   1.970  -0.442  0.00  0.00    -0.100 A 
ATOM      2  C   LIG    1        1.262   3.374  -0.291  0.00  0.00    -0.080 A 
ATOM      3  C   LIG    1        0.250   4.356  -0.189  0.00  0.00    -0.130 A 
ATOM      4  C   LIG    1        0.851   5.553  -0.058  0.00  0.00    +0.390 A 
ATOM      5  N   LIG    1        2.209   5.389  -0.071  0.00  0.00    -0.550 N 
ATOM      6  H   LIG    1        2.863   6.101   0.008  0.00  0.00    +0.440 HD
ATOM      7  C   LIG    1        2.497   4.050  -0.214  0.00  0.00    +0.280 A 
ATOM      8  N   LIG    1        3.631   3.371  -0.283  0.00  0.00    -0.460 NA
ATOM      9  C   LIG    1        3.655   2.062  -0.424  0.00  0.00    +0.320 A 
ATOM     10  C   LIG    1        2.493   1.317  -0.502  0.00  0.00    +0.040 A 
ENDROOT
BRANCH   3  11
ATOM     11  N   LIG    1       -1.210   4.112  -0.220  0.00  0.00    +0.050 N 
ATOM     12  O   LIG    1       -1.937   4.663   0.586  0.00  0.00    -0.130 OA
ATOM     13  O   LIG    1       -1.683   3.359  -1.053  0.00  0.00    -0.160 OA
ENDBRANCH   3  11
BRANCH   1  15
ATOM     14  O   LIG    1        0.012   0.029  -0.758  0.00  0.00    -0.430 OA
ATOM     15  C   LIG    1       -0.005   1.220  -0.528  0.00  0.00    +0.490 C 
ENDBRANCH   1  15
TORSDOF 2
