REMARK  Name = ZINC000001565878
REMARK                            x       y       z     vdW  Elec       q    Type
REMARK                         _______ _______ _______ _____ _____    ______ ____
ROOT
ATOM      1  N   LIG    1        1.475  -3.990  -2.532  0.00  0.00    -0.120 N 
ATOM      2  C   LIG    1        0.097  -4.498  -2.523  0.00  0.00    +0.190 C 
ATOM      3  C   LIG    1        0.120  -6.029  -2.531  0.00  0.00    +0.250 C 
ATOM      4  O   LIG    1        0.840  -6.483  -3.680  0.00  0.00    -0.380 OA
ATOM      5  C   LIG    1        2.182  -5.994  -3.747  0.00  0.00    +0.250 C 
ATOM      6  O   LIG    1        2.182  -4.474  -1.347  0.00  0.00    -0.640 OA
ATOM      7  C   LIG    1        2.163  -4.464  -3.741  0.00  0.00    +0.180 C 
ENDROOT
BRANCH   1   8
ATOM      8  C   LIG    1        1.455  -2.521  -2.524  0.00  0.00    +0.210 C 
BRANCH   8   9
ATOM      9  C   LIG    1        0.739  -2.027  -1.265  0.00  0.00    +0.030 C 
BRANCH   9  10
ATOM     10  C   LIG    1        0.718  -0.497  -1.257  0.00  0.00    +0.010 C 
BRANCH  10  12
ATOM     11  C   LIG    1       -0.019   1.526   0.010  0.00  0.00    +0.010 C 
ATOM     12  C   LIG    1        0.002  -0.004   0.002  0.00  0.00    +0.000 C 
ENDBRANCH  10  12
ENDBRANCH   9  10
ENDBRANCH   8   9
ENDBRANCH   1   8
TORSDOF 4
