REMARK  Name = ZINC000095761013
REMARK                            x       y       z     vdW  Elec       q    Type
REMARK                         _______ _______ _______ _____ _____    ______ ____
ROOT
ATOM      1  C   LIG    1        0.690  -0.595  -1.213  0.00  0.00    +0.250 A 
ATOM      2  C   LIG    1        1.992  -0.177  -1.400  0.00  0.00    -0.070 A 
ATOM      3  C   LIG    1        2.658  -0.526  -2.568  0.00  0.00    +0.200 A 
ATOM      4  C   LIG    1        1.986  -1.285  -3.509  0.00  0.00    -0.200 A 
ATOM      5  C   LIG    1        0.674  -1.672  -3.254  0.00  0.00    +0.480 A 
ATOM      6  N   LIG    1        0.076  -1.324  -2.125  0.00  0.00    -0.530 NA
ENDROOT
BRANCH   1   8
ATOM      7  C   LIG    1       -0.448   1.252  -0.013  0.00  0.00    +0.050 C 
ATOM      8  C   LIG    1       -0.037  -0.220   0.053  0.00  0.00    -0.030 C 
ATOM      9  C   LIG    1       -1.285  -1.092   0.201  0.00  0.00    +0.060 C 
ATOM     10  C   LIG    1        0.884  -0.440   1.254  0.00  0.00    +0.050 C 
ENDBRANCH   1   8
BRANCH   5  11
ATOM     11  N   LIG    1       -0.013  -2.436  -4.191  0.00  0.00    -0.820 N 
ATOM     12  H   LIG    1       -0.963  -2.599  -4.080  0.00  0.00    +0.420 HD
ATOM     13  H   LIG    1        0.457  -2.805  -4.954  0.00  0.00    +0.420 HD
ENDBRANCH   5  11
BRANCH   4  14
ATOM     14  N   LIG    1        2.598  -1.648  -4.662  0.00  0.00    +0.090 N 
ATOM     15  O   LIG    1        1.970  -1.660  -5.706  0.00  0.00    -0.200 OA
ATOM     16  O   LIG    1        3.774  -1.962  -4.655  0.00  0.00    -0.180 OA
ENDBRANCH   4  14
TORSDOF 3
