REMARK  Name = ZINC000100502800
REMARK                            x       y       z     vdW  Elec       q    Type
REMARK                         _______ _______ _______ _____ _____    ______ ____
ROOT
ATOM      1  C   LIG    1       -0.018   1.503   0.010  0.00  0.00    +0.130 C 
ATOM      2  C   LIG    1        0.002  -0.004   0.002  0.00  0.00    -0.120 A 
ATOM      3  C   LIG    1        0.008  -0.796  -1.089  0.00  0.00    +0.270 A 
ATOM      4  N   LIG    1        0.028  -2.095  -0.673  0.00  0.00    -0.510 N 
ATOM      5  H   LIG    1        0.036  -2.873  -1.252  0.00  0.00    +0.440 HD
ATOM      6  C   LIG    1        0.034  -2.118   0.690  0.00  0.00    -0.030 A 
ATOM      7  C   LIG    1        0.024  -0.844   1.133  0.00  0.00    -0.040 A 
ENDROOT
BRANCH   6   8
ATOM      8  C   LIG    1        0.055  -3.353   1.552  0.00  0.00    +0.530 C 
ATOM      9  F   LIG    1       -1.084  -3.374   2.365  0.00  0.00    -0.150 F 
ATOM     10  F   LIG    1        1.200  -3.342   2.355  0.00  0.00    -0.150 F 
ATOM     11  F   LIG    1        0.067  -4.490   0.738  0.00  0.00    -0.170 F 
ENDBRANCH   6   8
BRANCH   7  12
ATOM     12  N   LIG    1        0.026  -0.409   2.548  0.00  0.00    +0.030 N 
ATOM     13  O   LIG    1       -1.028  -0.239   3.134  0.00  0.00    -0.120 OA
ATOM     14  O   LIG    1        1.082  -0.220   3.126  0.00  0.00    -0.120 OA
ENDBRANCH   7  12
TORSDOF 2
