REMARK  Name = ZINC000026507293
REMARK                            x       y       z     vdW  Elec       q    Type
REMARK                         _______ _______ _______ _____ _____    ______ ____
ROOT
ATOM      1  C   LIG    1       -0.018   1.503   0.010  0.00  0.00    +0.140 C 
ATOM      2  C   LIG    1        0.002  -0.004   0.002  0.00  0.00    -0.040 A 
ATOM      3  C   LIG    1        0.006  -0.728  -1.205  0.00  0.00    -0.080 A 
ATOM      4  C   LIG    1       -0.007  -0.094  -2.456  0.00  0.00    +0.120 A 
ATOM      5  C   LIG    1       -0.002  -0.848  -3.590  0.00  0.00    +0.050 A 
ATOM      6  C   LIG    1        0.017  -2.240  -3.524  0.00  0.00    +0.170 A 
ATOM      7  C   LIG    1        0.030  -2.888  -2.327  0.00  0.00    -0.020 A 
ATOM      8  C   LIG    1        0.026  -2.145  -1.135  0.00  0.00    +0.090 A 
ATOM      9  N   LIG    1        0.039  -2.735   0.064  0.00  0.00    -0.180 NA
ATOM     10  N   LIG    1        0.035  -2.045   1.148  0.00  0.00    -0.190 NA
ATOM     11  C   LIG    1        0.023  -0.719   1.167  0.00  0.00    +0.190 A 
ENDROOT
BRANCH   7  12
ATOM     12  N   LIG    1        0.050  -4.368  -2.281  0.00  0.00    +0.020 N 
ATOM     13  O   LIG    1        0.063  -4.944  -1.208  0.00  0.00    -0.100 OA
ATOM     14  O   LIG    1        0.055  -5.009  -3.317  0.00  0.00    -0.170 OA
ENDBRANCH   7  12
TORSDOF 1
