REMARK  Name = ZINC000032299840
REMARK                            x       y       z     vdW  Elec       q    Type
REMARK                         _______ _______ _______ _____ _____    ______ ____
ROOT
ATOM      1  C   LIG    1       -1.306   1.936   0.019  0.00  0.00    +0.140 A 
ATOM      2  N   LIG    1       -1.453   3.231   0.021  0.00  0.00    -0.130 NA
ATOM      3  N   LIG    1       -2.816   3.554   0.031  0.00  0.00    -0.430 N 
ATOM      4  H   LIG    1       -3.188   4.449   0.035  0.00  0.00    +0.470 HD
ATOM      5  C   LIG    1       -3.531   2.385   0.035  0.00  0.00    +0.070 A 
ATOM      6  C   LIG    1       -4.883   2.065   0.045  0.00  0.00    +0.340 A 
ATOM      7  N   LIG    1       -5.267   0.806   0.048  0.00  0.00    -0.430 NA
ATOM      8  C   LIG    1       -4.405  -0.200   0.041  0.00  0.00    +0.140 A 
ATOM      9  C   LIG    1       -3.056   0.017   0.031  0.00  0.00    +0.100 A 
ATOM     10 CL   LIG    1       -5.003  -1.829   0.045  0.00  0.00    +0.000 Cl
ATOM     11  C   LIG    1       -2.585   1.337   0.022  0.00  0.00    -0.100 A 
ENDROOT
BRANCH   1  13
ATOM     12  O   LIG    1        0.002  -0.004   0.002  0.00  0.00    -0.120 OA
ATOM     13  N   LIG    1       -0.014   1.214   0.009  0.00  0.00    +0.050 N 
ATOM     14  O   LIG    1        1.032   1.837   0.002  0.00  0.00    -0.110 OA
ENDBRANCH   1  13
TORSDOF 1
