REMARK  Name = ZINC000685936596
REMARK                            x       y       z     vdW  Elec       q    Type
REMARK                         _______ _______ _______ _____ _____    ______ ____
ROOT
ATOM      1  C   LIG    1       -0.018   1.503   0.010  0.00  0.00    +0.160 C 
ATOM      2  C   LIG    1        0.002  -0.004   0.002  0.00  0.00    -0.170 A 
ATOM      3  C   LIG    1        0.008  -0.794  -1.097  0.00  0.00    +0.290 A 
ATOM      4  N   LIG    1        0.028  -2.078  -0.680  0.00  0.00    -0.400 N 
ATOM      5  N   LIG    1        0.034  -2.076   0.721  0.00  0.00    -0.190 NA
ATOM      6  C   LIG    1        0.024  -0.833   1.128  0.00  0.00    +0.130 A 
ENDROOT
BRANCH   4   7
ATOM      7  C   LIG    1        0.041  -3.263  -1.541  0.00  0.00    +0.680 C 
ATOM      8  F   LIG    1       -0.627  -2.978  -2.736  0.00  0.00    -0.170 F 
ATOM      9  F   LIG    1       -0.601  -4.321  -0.888  0.00  0.00    -0.160 F 
ENDBRANCH   4   7
BRANCH   6  10
ATOM     10  N   LIG    1        0.026  -0.382   2.538  0.00  0.00    +0.050 N 
ATOM     11  O   LIG    1        0.016   0.808   2.797  0.00  0.00    -0.120 OA
ATOM     12  O   LIG    1        0.037  -1.201   3.440  0.00  0.00    -0.120 OA
ENDBRANCH   6  10
TORSDOF 2
