REMARK  Name = ZINC000033358722
REMARK                            x       y       z     vdW  Elec       q    Type
REMARK                         _______ _______ _______ _____ _____    ______ ____
ROOT
ATOM      1  C   LIG    1       -2.659  -2.595   0.331  0.00  0.00    +0.060 A 
ATOM      2  C   LIG    1       -3.848  -1.886   0.291  0.00  0.00    +0.030 A 
ATOM      3  C   LIG    1       -5.030  -2.535  -0.017  0.00  0.00    +0.020 A 
ATOM      4  C   LIG    1       -5.029  -3.891  -0.286  0.00  0.00    +0.100 A 
ATOM      5  C   LIG    1       -3.846  -4.606  -0.248  0.00  0.00    -0.090 A 
ATOM      6  C   LIG    1       -2.656  -3.961   0.054  0.00  0.00    +0.260 A 
ENDROOT
BRANCH   5   7
ATOM      7  N   LIG    1       -3.849  -6.057  -0.537  0.00  0.00    +0.040 N 
ATOM      8  O   LIG    1       -4.774  -6.752  -0.155  0.00  0.00    -0.150 OA
ATOM      9  O   LIG    1       -2.927  -6.557  -1.156  0.00  0.00    -0.180 OA
ENDBRANCH   5   7
BRANCH   6  10
ATOM     10  N   LIG    1       -1.457  -4.682   0.093  0.00  0.00    -0.850 N 
ATOM     11  H   LIG    1       -0.613  -4.215   0.192  0.00  0.00    +0.410 HD
ATOM     12  H   LIG    1       -1.471  -5.649   0.021  0.00  0.00    +0.410 HD
ENDBRANCH   6  10
BRANCH   1  13
ATOM     13  O   LIG    1       -1.496  -1.958   0.633  0.00  0.00    -0.310 OA
BRANCH  13  14
ATOM     14  C   LIG    1       -1.575  -0.558   0.906  0.00  0.00    +0.200 C 
BRANCH  14  16
ATOM     15  C   LIG    1       -0.262   1.479   1.515  0.00  0.00    +0.040 C 
ATOM     16  C   LIG    1       -0.178  -0.020   1.224  0.00  0.00    +0.030 C 
ENDBRANCH  14  16
ENDBRANCH  13  14
ENDBRANCH   1  13
TORSDOF 5
