REMARK  Name = ZINC000096031941
REMARK                            x       y       z     vdW  Elec       q    Type
REMARK                         _______ _______ _______ _____ _____    ______ ____
ROOT
ATOM      1  O   LIG    1       -2.158   0.032  -1.081  0.00  0.00    -0.350 OA
ENDROOT
BRANCH   1   2
ATOM      2  C   LIG    1       -3.518  -0.400  -1.163  0.00  0.00    +0.320 C 
ATOM      3  C   LIG    1       -4.121   0.062  -2.492  0.00  0.00    +0.030 C 
ATOM      4  C   LIG    1       -5.595  -0.352  -2.546  0.00  0.00    +0.030 C 
ATOM      5  C   LIG    1       -6.326   0.243  -1.338  0.00  0.00    +0.000 C 
ATOM      6  C   LIG    1       -5.637  -0.226  -0.053  0.00  0.00    +0.220 C 
ATOM      7  O   LIG    1       -4.263   0.164  -0.081  0.00  0.00    -0.410 OA
ENDBRANCH   1   2
BRANCH   1   8
ATOM      8  C   LIG    1       -1.433  -0.534   0.013  0.00  0.00    +0.230 C 
BRANCH   8  10
ATOM      9  C   LIG    1       -0.019   1.526   0.010  0.00  0.00    +0.100 C 
ATOM     10  C   LIG    1        0.002  -0.004   0.002  0.00  0.00    +0.170 C 
BRANCH  10  11
ATOM     11  N   LIG    1        0.688  -0.476  -1.203  0.00  0.00    -0.020 N 
ATOM     12  O   LIG    1        0.257  -0.182  -2.304  0.00  0.00    -0.130 OA
ATOM     13  O   LIG    1        1.688  -1.164  -1.105  0.00  0.00    -0.180 OA
ENDBRANCH  10  11
ENDBRANCH   8  10
ENDBRANCH   1   8
TORSDOF 4
