REMARK  Name = ZINC000006401146
REMARK                            x       y       z     vdW  Elec       q    Type
REMARK                         _______ _______ _______ _____ _____    ______ ____
ROOT
ATOM      1  C   LIG    1       -0.537   1.446   0.087  0.00  0.00    +0.120 C 
ATOM      2  C   LIG    1       -0.246  -0.032   0.039  0.00  0.00    -0.080 A 
ATOM      3  C   LIG    1       -0.348  -0.716  -1.158  0.00  0.00    +0.080 A 
ATOM      4  C   LIG    1       -0.082  -2.071  -1.205  0.00  0.00    -0.010 A 
ATOM      5  C   LIG    1        0.288  -2.745  -0.049  0.00  0.00    +0.220 A 
ATOM      6  C   LIG    1        0.389  -2.054   1.152  0.00  0.00    +0.010 A 
ATOM      7  C   LIG    1        0.127  -0.699   1.191  0.00  0.00    +0.010 A 
ENDROOT
BRANCH   5   8
ATOM      8  N   LIG    1        0.558  -4.115  -0.093  0.00  0.00    -0.630 N 
ATOM      9  C   LIG    1        0.948  -4.824   1.128  0.00  0.00    +0.290 C 
ATOM     10  C   LIG    1        0.451  -4.842  -1.361  0.00  0.00    +0.290 C 
ENDBRANCH   5   8
BRANCH   7  11
ATOM     11  N   LIG    1        0.235   0.038   2.470  0.00  0.00    +0.020 N 
ATOM     12  O   LIG    1       -0.114  -0.492   3.510  0.00  0.00    -0.160 OA
ATOM     13  O   LIG    1        0.672   1.175   2.483  0.00  0.00    -0.140 OA
ENDBRANCH   7  11
TORSDOF 2
