REMARK  Name = ZINC000238563019
REMARK                            x       y       z     vdW  Elec       q    Type
REMARK                         _______ _______ _______ _____ _____    ______ ____
ROOT
ATOM      1  C   LIG    1       -1.306   1.936   0.019  0.00  0.00    -0.110 A 
ATOM      2  C   LIG    1       -2.499   1.232   0.026  0.00  0.00    +0.430 A 
ATOM      3  N   LIG    1       -3.661   1.852   0.035  0.00  0.00    -0.460 NA
ATOM      4  C   LIG    1       -3.743   3.174   0.037  0.00  0.00    +0.290 A 
ATOM      5  N   LIG    1       -4.794   4.064   0.045  0.00  0.00    -0.580 N 
ATOM      6  H   LIG    1       -5.738   3.838   0.050  0.00  0.00    +0.440 HD
ATOM      7  C   LIG    1       -4.266   5.319   0.043  0.00  0.00    +0.540 A 
ATOM      8  N   LIG    1       -2.967   5.257   0.034  0.00  0.00    -0.460 NA
ATOM      9  C   LIG    1       -2.576   3.958   0.030  0.00  0.00    +0.000 A 
ATOM     10  C   LIG    1       -1.331   3.320   0.026  0.00  0.00    +0.120 A 
ATOM     11 CL   LIG    1        0.143   4.238   0.027  0.00  0.00    +0.040 Cl
ENDROOT
BRANCH   1  13
ATOM     12  O   LIG    1        0.002  -0.004   0.002  0.00  0.00    -0.150 OA
ATOM     13  N   LIG    1       -0.014   1.214   0.009  0.00  0.00    +0.040 N 
ATOM     14  O   LIG    1        1.032   1.837   0.002  0.00  0.00    -0.130 OA
ENDBRANCH   1  13
TORSDOF 1
