REMARK  Name = ZINC000043669777
REMARK                            x       y       z     vdW  Elec       q    Type
REMARK                         _______ _______ _______ _____ _____    ______ ____
ROOT
ATOM      1  N   LIG    1       -1.414  -1.994   0.125  0.00  0.00    -0.380 N 
ATOM      2  N   LIG    1       -0.812  -2.882  -0.775  0.00  0.00    -0.270 NA
ATOM      3  C   LIG    1       -1.002  -4.102  -0.341  0.00  0.00    +0.350 A 
ATOM      4  C   LIG    1       -1.731  -4.036   0.849  0.00  0.00    -0.260 A 
ATOM      5  C   LIG    1       -1.970  -2.723   1.120  0.00  0.00    +0.450 A 
ENDROOT
BRANCH   4   6
ATOM      6  N   LIG    1       -2.163  -5.189   1.672  0.00  0.00    +0.090 N 
ATOM      7  O   LIG    1       -2.797  -5.003   2.695  0.00  0.00    -0.210 OA
ATOM      8  O   LIG    1       -1.884  -6.323   1.326  0.00  0.00    -0.170 OA
ENDBRANCH   4   6
BRANCH   5   9
ATOM      9  N   LIG    1       -2.666  -2.223   2.216  0.00  0.00    -0.820 N 
ATOM     10  H   LIG    1       -2.783  -1.265   2.321  0.00  0.00    +0.410 HD
ATOM     11  H   LIG    1       -3.035  -2.831   2.876  0.00  0.00    +0.430 HD
ENDBRANCH   5   9
BRANCH   1  12
ATOM     12  C   LIG    1       -1.433  -0.534   0.013  0.00  0.00    +0.260 C 
ATOM     13  C   LIG    1       -2.135  -0.131  -1.286  0.00  0.00    +0.060 C 
BRANCH  12  15
ATOM     14  C   LIG    1       -0.019   1.526   0.010  0.00  0.00    +0.040 C 
ATOM     15  C   LIG    1        0.002  -0.004   0.002  0.00  0.00    +0.020 C 
ENDBRANCH  12  15
ENDBRANCH   1  12
TORSDOF 4
