REMARK  Name = ZINC000011582517
REMARK                            x       y       z     vdW  Elec       q    Type
REMARK                         _______ _______ _______ _____ _____    ______ ____
ROOT
ATOM      1  O   LIG    1        0.002  -0.004   0.002  0.00  0.00    -0.450 OA
ATOM      2  C   LIG    1       -0.014   1.214   0.009  0.00  0.00    +0.370 C 
ATOM      3  C   LIG    1       -1.334   1.940   0.032  0.00  0.00    +0.050 C 
ATOM      4  C   LIG    1       -1.295   3.178  -0.858  0.00  0.00    +0.010 C 
ATOM      5  C   LIG    1       -0.020   3.982  -0.666  0.00  0.00    +0.000 C 
ATOM      6  C   LIG    1        0.137   4.558   0.729  0.00  0.00    +0.020 C 
ATOM      7  C   LIG    1        0.414   3.501   1.789  0.00  0.00    +0.010 C 
ATOM      8  C   LIG    1        1.552   2.573   1.378  0.00  0.00    +0.040 C 
ATOM      9  C   LIG    1        1.192   3.117  -1.024  0.00  0.00    +0.060 C 
ATOM     10  C   LIG    1        1.288   1.977   0.000  0.00  0.00    -0.030 C 
ENDROOT
BRANCH   4  11
ATOM     11  C   LIG    1       -2.524   4.049  -0.593  0.00  0.00    +0.270 C 
BRANCH  11  12
ATOM     12  N   LIG    1       -3.732   3.326  -0.998  0.00  0.00    -0.020 N 
ATOM     13  O   LIG    1       -4.595   3.895  -1.642  0.00  0.00    -0.160 OA
ATOM     14  O   LIG    1       -3.873   2.156  -0.690  0.00  0.00    -0.160 OA
ENDBRANCH  11  12
ENDBRANCH   4  11
TORSDOF 2
