REMARK  Name = ZINC000096527758
REMARK                            x       y       z     vdW  Elec       q    Type
REMARK                         _______ _______ _______ _____ _____    ______ ____
ROOT
ATOM      1  C   LIG    1       -2.826  -2.585   0.015  0.00  0.00    +0.190 A 
ATOM      2  C   LIG    1       -3.615  -2.771  -1.068  0.00  0.00    -0.220 A 
ATOM      3  C   LIG    1       -4.849  -3.269  -0.622  0.00  0.00    +0.390 A 
ATOM      4  N   LIG    1       -4.796  -3.377   0.685  0.00  0.00    -0.320 NA
ATOM      5  N   LIG    1       -3.528  -2.956   1.107  0.00  0.00    -0.440 N 
ATOM      6  H   LIG    1       -3.212  -2.930   2.023  0.00  0.00    +0.460 HD
ENDROOT
BRANCH   3   7
ATOM      7  N   LIG    1       -5.945  -3.595  -1.429  0.00  0.00    -0.830 N 
ATOM      8  H   LIG    1       -6.760  -3.935  -1.028  0.00  0.00    +0.420 HD
ATOM      9  H   LIG    1       -5.890  -3.482  -2.391  0.00  0.00    +0.410 HD
ENDBRANCH   3   7
BRANCH   2  10
ATOM     10  N   LIG    1       -3.243  -2.497  -2.474  0.00  0.00    +0.050 N 
ATOM     11  O   LIG    1       -3.453  -1.398  -2.957  0.00  0.00    -0.140 OA
ATOM     12  O   LIG    1       -2.726  -3.369  -3.148  0.00  0.00    -0.140 OA
ENDBRANCH   2  10
BRANCH   1  13
ATOM     13  C   LIG    1       -1.413  -2.063   0.004  0.00  0.00    +0.120 C 
BRANCH  13  14
ATOM     14  C   LIG    1       -1.433  -0.534   0.013  0.00  0.00    +0.030 C 
BRANCH  14  16
ATOM     15  C   LIG    1       -0.019   1.526   0.010  0.00  0.00    +0.020 C 
ATOM     16  C   LIG    1        0.002  -0.004   0.002  0.00  0.00    +0.020 C 
ENDBRANCH  14  16
ENDBRANCH  13  14
ENDBRANCH   1  13
TORSDOF 5
