REMARK  Name = ZINC000034076233
REMARK                            x       y       z     vdW  Elec       q    Type
REMARK                         _______ _______ _______ _____ _____    ______ ____
ROOT
ATOM      1  O   LIG    1        0.002  -0.004   0.002  0.00  0.00    -0.420 OA
ATOM      2  C   LIG    1       -0.014   1.212   0.009  0.00  0.00    +0.530 A 
ATOM      3  O   LIG    1       -1.176   1.907   0.029  0.00  0.00    -0.280 OA
ATOM      4  C   LIG    1       -1.254   3.029  -0.712  0.00  0.00    +0.310 A 
ATOM      5  C   LIG    1       -0.169   3.763  -1.010  0.00  0.00    -0.050 A 
ATOM      6  C   LIG    1        1.141   3.316  -0.526  0.00  0.00    +0.060 A 
ATOM      7  C   LIG    1        2.277   4.119  -0.562  0.00  0.00    -0.050 A 
ATOM      8  C   LIG    1        3.473   3.619  -0.092  0.00  0.00    +0.150 A 
ATOM      9  C   LIG    1        3.557   2.329   0.415  0.00  0.00    +0.030 A 
ATOM     10  C   LIG    1        2.443   1.516   0.462  0.00  0.00    +0.170 A 
ATOM     11  C   LIG    1        1.228   2.001   0.001  0.00  0.00    -0.190 A 
ENDROOT
BRANCH   7  12
ATOM     12  N   LIG    1        2.202   5.496  -1.100  0.00  0.00    +0.040 N 
ATOM     13  O   LIG    1        1.143   5.932  -1.514  0.00  0.00    -0.150 OA
ATOM     14  O   LIG    1        3.200   6.194  -1.129  0.00  0.00    -0.150 OA
ENDBRANCH   7  12
TORSDOF 1
