REMARK  Name = ZINC000001656043
REMARK                            x       y       z     vdW  Elec       q    Type
REMARK                         _______ _______ _______ _____ _____    ______ ____
ROOT
ATOM      1  C   LIG    1       -0.384   0.755  -0.006  0.00  0.00    +0.040 C 
ATOM      2  C   LIG    1        0.032  -0.715  -0.079  0.00  0.00    -0.010 C 
ATOM      3  C   LIG    1        0.771  -0.972  -1.393  0.00  0.00    +0.010 C 
ATOM      4  C   LIG    1        2.017  -0.086  -1.460  0.00  0.00    +0.030 C 
ATOM      5  C   LIG    1        2.939  -0.413  -0.283  0.00  0.00    +0.010 C 
ATOM      6  C   LIG    1        2.200  -0.156   1.031  0.00  0.00    +0.130 C 
ATOM      7  C   LIG    1        0.954  -1.043   1.097  0.00  0.00    +0.040 C 
ENDROOT
BRANCH   6   8
ATOM      8  O   LIG    1        1.811   1.217   1.099  0.00  0.00    -0.520 OA
ATOM      9  H   LIG    1        2.551   1.838   1.062  0.00  0.00    +0.370 HD
ENDBRANCH   6   8
BRANCH   6  10
ATOM     10  C   LIG    1        3.122  -0.484   2.207  0.00  0.00    +0.230 C 
BRANCH  10  11
ATOM     11  N   LIG    1        2.421  -0.218   3.466  0.00  0.00    -0.020 N 
ATOM     12  O   LIG    1        1.824   0.832   3.620  0.00  0.00    -0.130 OA
ATOM     13  O   LIG    1        2.436  -1.046   4.359  0.00  0.00    -0.180 OA
ENDBRANCH  10  11
ENDBRANCH   6  10
TORSDOF 3
