REMARK  Name = ZINC001548918881
REMARK                            x       y       z     vdW  Elec       q    Type
REMARK                         _______ _______ _______ _____ _____    ______ ____
ROOT
ATOM      1  C   LIG    1        0.002  -0.004   0.002  0.00  0.00    +0.130 A 
ATOM      2  C   LIG    1       -1.084  -0.818   0.003  0.00  0.00    +0.170 A 
ATOM      3  N   LIG    1       -0.635  -2.101  -0.006  0.00  0.00    -0.300 N 
ATOM      4  N   LIG    1        0.766  -2.066  -0.013  0.00  0.00    -0.200 NA
ATOM      5  C   LIG    1        1.147  -0.814  -0.014  0.00  0.00    +0.060 A 
ENDROOT
BRANCH   3   6
ATOM      6  C   LIG    1       -1.467  -3.307  -0.010  0.00  0.00    +0.270 C 
ATOM      7  C   LIG    1       -2.774  -3.048   0.769  0.00  0.00    +0.050 C 
ATOM      8  C   LIG    1       -3.799  -2.665  -0.327  0.00  0.00    +0.020 C 
ATOM      9  C   LIG    1       -3.418  -3.605  -1.496  0.00  0.00    +0.030 C 
ATOM     10  C   LIG    1       -1.877  -3.661  -1.450  0.00  0.00    +0.030 C 
ENDBRANCH   3   6
BRANCH   1  11
ATOM     11  N   LIG    1       -0.017   1.404   0.010  0.00  0.00    -0.860 N 
ATOM     12  H   LIG    1       -0.864   1.877   0.016  0.00  0.00    +0.410 HD
ATOM     13  H   LIG    1        0.816   1.900   0.004  0.00  0.00    +0.410 HD
ENDBRANCH   1  11
BRANCH   5  14
ATOM     14  N   LIG    1        2.547  -0.335  -0.020  0.00  0.00    +0.070 N 
ATOM     15  O   LIG    1        2.782   0.860  -0.021  0.00  0.00    -0.160 OA
ATOM     16  O   LIG    1        3.465  -1.136  -0.025  0.00  0.00    -0.130 OA
ENDBRANCH   5  14
TORSDOF 3
