REMARK  Name = ZINC000005117430
REMARK                            x       y       z     vdW  Elec       q    Type
REMARK                         _______ _______ _______ _____ _____    ______ ____
ROOT
ATOM      1  C   LIG    1       -1.306   1.937   0.019  0.00  0.00    +0.050 A 
ATOM      2  C   LIG    1       -1.468   3.288   0.021  0.00  0.00    +0.140 A 
ATOM      3  N   LIG    1       -2.825   3.518   0.031  0.00  0.00    -0.550 N 
ATOM      4  H   LIG    1       -3.263   4.384   0.035  0.00  0.00    +0.440 HD
ATOM      5  C   LIG    1       -3.433   2.312   0.034  0.00  0.00    +0.470 A 
ATOM      6  N   LIG    1       -2.522   1.377   0.021  0.00  0.00    -0.440 NA
ENDROOT
BRANCH   2   7
ATOM      7  C   LIG    1       -0.397   4.307   0.014  0.00  0.00    -0.070 A 
ATOM      8  C   LIG    1        0.708   4.168   0.855  0.00  0.00    +0.080 A 
ATOM      9  C   LIG    1        1.704   5.123   0.844  0.00  0.00    +0.010 A 
ATOM     10  C   LIG    1        1.609   6.216   0.001  0.00  0.00    +0.040 A 
ATOM     11  C   LIG    1        0.516   6.360  -0.835  0.00  0.00    +0.010 A 
ATOM     12  C   LIG    1       -0.484   5.409  -0.837  0.00  0.00    +0.030 A 
ENDBRANCH   2   7
BRANCH   1  14
ATOM     13  O   LIG    1        0.002  -0.004   0.002  0.00  0.00    -0.130 OA
ATOM     14  N   LIG    1       -0.014   1.214   0.009  0.00  0.00    +0.060 N 
ATOM     15  O   LIG    1        1.032   1.837   0.002  0.00  0.00    -0.150 OA
ENDBRANCH   1  14
TORSDOF 2
