REMARK  Name = ZINC000196911866
REMARK                            x       y       z     vdW  Elec       q    Type
REMARK                         _______ _______ _______ _____ _____    ______ ____
ROOT
ATOM      1  C   LIG    1        0.630  -2.023  -1.329  0.00  0.00    -0.050 C 
ATOM      2  C   LIG    1        1.444  -2.530  -2.524  0.00  0.00    +0.040 C 
ATOM      3  C   LIG    1        1.239  -4.038  -2.676  0.00  0.00    +0.020 C 
ATOM      4  C   LIG    1       -0.228  -4.333  -2.995  0.00  0.00    +0.030 C 
ATOM      5  C   LIG    1       -1.104  -3.894  -1.817  0.00  0.00    +0.020 C 
ATOM      6  C   LIG    1       -0.812  -2.441  -1.511  0.00  0.00    +0.370 C 
ATOM      7  O   LIG    1       -1.707  -1.635  -1.420  0.00  0.00    -0.450 OA
ENDROOT
BRANCH   1   8
ATOM      8  C   LIG    1        0.718  -0.497  -1.257  0.00  0.00    +0.100 C 
BRANCH   8  10
ATOM      9  C   LIG    1       -0.019   1.526   0.010  0.00  0.00    +0.090 C 
ATOM     10  C   LIG    1        0.002  -0.004   0.002  0.00  0.00    +0.150 C 
BRANCH  10  11
ATOM     11  N   LIG    1        0.711  -0.489   1.189  0.00  0.00    -0.020 N 
ATOM     12  O   LIG    1        1.874  -0.180   1.372  0.00  0.00    -0.160 OA
ATOM     13  O   LIG    1        0.136  -1.202   1.992  0.00  0.00    -0.170 OA
ENDBRANCH  10  11
ENDBRANCH   8  10
ENDBRANCH   1   8
TORSDOF 3
