REMARK  Name = ZINC000025724713
REMARK                            x       y       z     vdW  Elec       q    Type
REMARK                         _______ _______ _______ _____ _____    ______ ____
ROOT
ATOM      1  C   LIG    1       -2.477  -0.216  -0.078  0.00  0.00    -0.030 A 
ATOM      2  C   LIG    1       -1.281  -0.905   0.129  0.00  0.00    +0.080 A 
ATOM      3  C   LIG    1       -1.274  -2.285   0.127  0.00  0.00    +0.090 A 
ATOM      4  C   LIG    1       -2.449  -2.985  -0.080  0.00  0.00    +0.060 A 
ATOM      5  C   LIG    1       -3.638  -2.308  -0.286  0.00  0.00    +0.100 A 
ATOM      6  C   LIG    1       -3.660  -0.929  -0.280  0.00  0.00    -0.020 A 
ENDROOT
BRANCH   6   7
ATOM      7  N   LIG    1       -4.933  -0.206  -0.500  0.00  0.00    +0.030 N 
ATOM      8  O   LIG    1       -4.969   1.007  -0.400  0.00  0.00    -0.170 OA
ATOM      9  O   LIG    1       -5.944  -0.825  -0.781  0.00  0.00    -0.140 OA
ENDBRANCH   6   7
BRANCH   1  11
ATOM     10  C   LIG    1       -1.610   1.934  -0.805  0.00  0.00    +0.110 C 
ATOM     11  C   LIG    1       -2.492   1.262  -0.078  0.00  0.00    +0.200 C 
BRANCH  10  13
ATOM     12  O   LIG    1       -0.945   0.035  -2.001  0.00  0.00    -0.170 OA
ATOM     13  N   LIG    1       -0.761   1.220  -1.785  0.00  0.00    +0.010 N 
ATOM     14  O   LIG    1        0.117   1.818  -2.380  0.00  0.00    -0.140 OA
ENDBRANCH  10  13
ENDBRANCH   1  11
TORSDOF 3
