REMARK  Name = ZINC000258839895
REMARK                            x       y       z     vdW  Elec       q    Type
REMARK                         _______ _______ _______ _____ _____    ______ ____
ROOT
ATOM      1  C   LIG    1       -1.306   1.936   0.019  0.00  0.00    -0.080 A 
ATOM      2  C   LIG    1       -1.320   3.325   0.021  0.00  0.00    +0.190 A 
ATOM      3  C   LIG    1       -2.519   4.013   0.030  0.00  0.00    +0.060 A 
ATOM      4  C   LIG    1       -3.715   3.313   0.037  0.00  0.00    +0.080 A 
ATOM      5  O   LIG    1       -5.016   3.680   0.047  0.00  0.00    -0.200 OA
ATOM      6  C   LIG    1       -5.765   2.567   0.051  0.00  0.00    +0.530 A 
ATOM      7  N   LIG    1       -5.006   1.513   0.045  0.00  0.00    -0.470 NA
ATOM      8  C   LIG    1       -3.704   1.910   0.036  0.00  0.00    +0.010 A 
ATOM      9  F   LIG    1       -0.155   4.008   0.013  0.00  0.00    -0.090 F 
ATOM     10  C   LIG    1       -2.487   1.228   0.021  0.00  0.00    +0.220 A 
ENDROOT
BRANCH   1  12
ATOM     11  O   LIG    1        0.002  -0.004   0.002  0.00  0.00    -0.140 OA
ATOM     12  N   LIG    1       -0.014   1.214   0.009  0.00  0.00    +0.030 N 
ATOM     13  O   LIG    1        1.032   1.837   0.002  0.00  0.00    -0.130 OA
ENDBRANCH   1  12
TORSDOF 1
