REMARK  Name = ZINC000005113159
REMARK                            x       y       z     vdW  Elec       q    Type
REMARK                         _______ _______ _______ _____ _____    ______ ____
ROOT
ATOM      1  C   LIG    1       -2.571   3.809   1.055  0.00  0.00    +0.020 C 
ENDROOT
BRANCH   1   2
ATOM      2  C   LIG    1       -1.235   3.063   1.045  0.00  0.00    +0.050 C 
BRANCH   2   3
ATOM      3  C   LIG    1       -1.293   1.929   0.019  0.00  0.00    +0.250 C 
BRANCH   3   5
ATOM      4  O   LIG    1        0.002  -0.004   0.002  0.00  0.00    -0.160 OA
ATOM      5  N   LIG    1       -0.014   1.214   0.009  0.00  0.00    -0.020 N 
ATOM      6  O   LIG    1        1.032   1.837   0.002  0.00  0.00    -0.160 OA
ENDBRANCH   3   5
ENDBRANCH   2   3
ENDBRANCH   1   2
BRANCH   1   7
ATOM      7  C   LIG    1       -2.513   4.943   2.081  0.00  0.00    +0.020 C 
BRANCH   7   8
ATOM      8  C   LIG    1       -3.848   5.690   2.091  0.00  0.00    +0.020 C 
BRANCH   8   9
ATOM      9  C   LIG    1       -3.790   6.824   3.117  0.00  0.00    +0.020 C 
BRANCH   9  10
ATOM     10  C   LIG    1       -5.126   7.571   3.128  0.00  0.00    +0.170 C 
BRANCH  10  11
ATOM     11  O   LIG    1       -5.072   8.629   4.086  0.00  0.00    -0.580 OA
ATOM     12  H   LIG    1       -5.886   9.147   4.146  0.00  0.00    +0.380 HD
ENDBRANCH  10  11
ENDBRANCH   9  10
ENDBRANCH   8   9
ENDBRANCH   7   8
ENDBRANCH   1   7
TORSDOF 8
