REMARK  Name = ZINC000218431769
REMARK                            x       y       z     vdW  Elec       q    Type
REMARK                         _______ _______ _______ _____ _____    ______ ____
ROOT
ATOM      1  C   LIG    1       -0.538   1.446   0.087  0.00  0.00    +0.150 C 
ATOM      2  C   LIG    1       -0.247  -0.032   0.039  0.00  0.00    +0.030 A 
ATOM      3  C   LIG    1       -0.350  -0.714  -1.158  0.00  0.00    +0.010 A 
ATOM      4  C   LIG    1       -0.085  -2.071  -1.209  0.00  0.00    +0.220 A 
ATOM      5  C   LIG    1        0.289  -2.749  -0.045  0.00  0.00    -0.180 A 
ATOM      6  C   LIG    1        0.390  -2.051   1.160  0.00  0.00    +0.170 A 
ATOM      7  F   LIG    1       -0.185  -2.738  -2.380  0.00  0.00    -0.090 F 
ATOM      8  C   LIG    1        0.128  -0.698   1.194  0.00  0.00    -0.060 A 
ENDROOT
BRANCH   5   9
ATOM      9  C   LIG    1        0.575  -4.198  -0.089  0.00  0.00    +0.570 C 
ATOM     10  O   LIG    1        0.486  -4.803  -1.140  0.00  0.00    -0.510 OA
ATOM     11  N   LIG    1        0.935  -4.848   1.035  0.00  0.00    -0.840 N 
ATOM     12  H   LIG    1        1.123  -5.800   1.005  0.00  0.00    +0.410 HD
ATOM     13  H   LIG    1        1.005  -4.365   1.873  0.00  0.00    +0.400 HD
ENDBRANCH   5   9
BRANCH   8  14
ATOM     14  N   LIG    1        0.235   0.043   2.471  0.00  0.00    +0.020 N 
ATOM     15  O   LIG    1       -0.113  -0.484   3.512  0.00  0.00    -0.150 OA
ATOM     16  O   LIG    1        0.673   1.180   2.480  0.00  0.00    -0.140 OA
ENDBRANCH   8  14
TORSDOF 2
