REMARK  Name = ZINC000229315345
REMARK                            x       y       z     vdW  Elec       q    Type
REMARK                         _______ _______ _______ _____ _____    ______ ____
ROOT
ATOM      1  C   LIG    1        0.351  -2.124  -1.262  0.00  0.00    -0.170 A 
ATOM      2  C   LIG    1       -0.051  -2.631  -0.041  0.00  0.00    +0.150 A 
ATOM      3  C   LIG    1        0.176  -3.960   0.265  0.00  0.00    -0.020 A 
ATOM      4  C   LIG    1        0.805  -4.786  -0.648  0.00  0.00    +0.130 A 
ATOM      5  C   LIG    1        1.210  -4.285  -1.870  0.00  0.00    -0.120 A 
ATOM      6  C   LIG    1        0.978  -2.952  -2.184  0.00  0.00    +0.290 A 
ENDROOT
BRANCH   5   7
ATOM      7  N   LIG    1        1.883  -5.170  -2.846  0.00  0.00    +0.040 N 
ATOM      8  O   LIG    1        2.796  -4.740  -3.529  0.00  0.00    -0.180 OA
ATOM      9  O   LIG    1        1.526  -6.328  -2.967  0.00  0.00    -0.150 OA
ENDBRANCH   5   7
BRANCH   6  10
ATOM     10  N   LIG    1        1.385  -2.443  -3.419  0.00  0.00    -0.850 N 
ATOM     11  H   LIG    1        1.338  -1.490  -3.590  0.00  0.00    +0.410 HD
ATOM     12  H   LIG    1        1.716  -3.043  -4.106  0.00  0.00    +0.410 HD
ENDBRANCH   6  10
BRANCH   1  13
ATOM     13  C   LIG    1        0.103  -0.675  -1.595  0.00  0.00    +0.230 C 
BRANCH  13  15
ATOM     14  C   LIG    1       -0.832   1.346  -0.710  0.00  0.00    +0.220 C 
ATOM     15  O   LIG    1       -0.550  -0.038  -0.495  0.00  0.00    -0.380 OA
ENDBRANCH  13  15
ENDBRANCH   1  13
TORSDOF 4
