REMARK  Name = ZINC000307266924
REMARK                            x       y       z     vdW  Elec       q    Type
REMARK                         _______ _______ _______ _____ _____    ______ ____
ROOT
ATOM      1  C   LIG    1       -0.007   1.499   0.062  0.00  0.00    +0.290 C 
ATOM      2  N   LIG    1       -0.013   0.031   0.026  0.00  0.00    -0.160 NA
ATOM      3  C   LIG    1        0.613  -0.411  -1.152  0.00  0.00    +0.480 C 
ATOM      4  C   LIG    1        2.068  -0.676  -0.783  0.00  0.00    +0.080 C 
ATOM      5  C   LIG    1        1.925  -1.278   0.641  0.00  0.00    +0.090 C 
ATOM      6  O   LIG    1        0.102  -0.551  -2.237  0.00  0.00    -0.370 OA
ATOM      7  O   LIG    1       -1.393  -0.453   0.054  0.00  0.00    -0.620 OA
ATOM      8  C   LIG    1        0.715  -0.492   1.197  0.00  0.00    +0.220 C 
ENDROOT
BRANCH   8   9
ATOM      9  C   LIG    1       -0.176  -1.409   1.994  0.00  0.00    -0.130 A 
ATOM     10  C   LIG    1       -0.807  -2.481   1.382  0.00  0.00    +0.130 A 
ATOM     11  C   LIG    1       -1.617  -3.299   2.156  0.00  0.00    -0.050 A 
ATOM     12  C   LIG    1       -1.768  -3.020   3.501  0.00  0.00    +0.270 A 
ATOM     13  N   LIG    1       -1.151  -1.991   4.049  0.00  0.00    -0.490 NA
ATOM     14  C   LIG    1       -0.369  -1.196   3.346  0.00  0.00    +0.260 A 
ENDBRANCH   8   9
TORSDOF 1
