REMARK  Name = ZINC000001561732
REMARK                            x       y       z     vdW  Elec       q    Type
REMARK                         _______ _______ _______ _____ _____    ______ ____
ROOT
ATOM      1  C   LIG    1       -1.212  -0.727   0.010  0.00  0.00    -0.010 A 
ATOM      2  C   LIG    1       -2.487  -0.188   0.019  0.00  0.00    +0.060 A 
ATOM      3  C   LIG    1       -3.382  -1.260   0.023  0.00  0.00    +0.080 A 
ATOM      4  C   LIG    1       -2.658  -2.407   0.017  0.00  0.00    +0.080 A 
ATOM      5  N   LIG    1       -1.345  -2.100   0.004  0.00  0.00    -0.490 N 
ATOM      6  H   LIG    1       -0.615  -2.738  -0.003  0.00  0.00    +0.440 HD
ENDROOT
BRANCH   1   8
ATOM      7  C   LIG    1       -0.018   1.503   0.010  0.00  0.00    +0.100 C 
ATOM      8  C   LIG    1        0.002  -0.004   0.002  0.00  0.00    +0.410 C 
ATOM      9  O   LIG    1        1.062  -0.597  -0.011  0.00  0.00    -0.450 OA
ENDBRANCH   1   8
BRANCH   4  10
ATOM     10  N   LIG    1       -3.220  -3.777   0.019  0.00  0.00    +0.050 N 
ATOM     11  O   LIG    1       -4.427  -3.940   0.027  0.00  0.00    -0.120 OA
ATOM     12  O   LIG    1       -2.475  -4.740   0.012  0.00  0.00    -0.170 OA
ENDBRANCH   4  10
TORSDOF 2
