REMARK  Name = ZINC001548918973
REMARK                            x       y       z     vdW  Elec       q    Type
REMARK                         _______ _______ _______ _____ _____    ______ ____
ROOT
ATOM      1  C   LIG    1        0.002  -0.004   0.002  0.00  0.00    +0.400 A 
ATOM      2  N   LIG    1       -1.049  -0.789   0.002  0.00  0.00    -0.340 NA
ATOM      3  N   LIG    1       -0.603  -2.117  -0.007  0.00  0.00    -0.330 N 
ATOM      4  C   LIG    1        0.747  -2.104  -0.013  0.00  0.00    +0.370 A 
ATOM      5  C   LIG    1        1.149  -0.814  -0.013  0.00  0.00    -0.230 A 
ENDROOT
BRANCH   3   6
ATOM      6  C   LIG    1       -1.453  -3.310  -0.011  0.00  0.00    +0.270 C 
ATOM      7  C   LIG    1       -0.763  -4.448  -0.792  0.00  0.00    +0.040 C 
ATOM      8  C   LIG    1       -0.055  -5.285   0.301  0.00  0.00    +0.020 C 
ATOM      9  C   LIG    1       -1.072  -5.252   1.469  0.00  0.00    +0.030 C 
ATOM     10  C   LIG    1       -1.649  -3.821   1.427  0.00  0.00    +0.030 C 
ENDBRANCH   3   6
BRANCH   1  11
ATOM     11  N   LIG    1       -0.017   1.396   0.010  0.00  0.00    -0.820 N 
ATOM     12  H   LIG    1       -0.863   1.869   0.016  0.00  0.00    +0.410 HD
ATOM     13  H   LIG    1        0.816   1.892   0.004  0.00  0.00    +0.430 HD
ENDBRANCH   1  11
BRANCH   5  14
ATOM     14  N   LIG    1        2.551  -0.338  -0.019  0.00  0.00    +0.080 N 
ATOM     15  O   LIG    1        2.789   0.857  -0.018  0.00  0.00    -0.180 OA
ATOM     16  O   LIG    1        3.467  -1.141  -0.025  0.00  0.00    -0.180 OA
ENDBRANCH   5  14
TORSDOF 3
