REMARK  Name = ZINC000043669421
REMARK                            x       y       z     vdW  Elec       q    Type
REMARK                         _______ _______ _______ _____ _____    ______ ____
ROOT
ATOM      1  C   LIG    1        0.002  -0.004   0.002  0.00  0.00    +0.450 A 
ATOM      2  C   LIG    1       -1.085  -0.824   0.002  0.00  0.00    -0.260 A 
ATOM      3  C   LIG    1       -0.626  -2.144  -0.007  0.00  0.00    +0.350 A 
ATOM      4  N   LIG    1        0.682  -2.124  -0.012  0.00  0.00    -0.260 NA
ATOM      5  N   LIG    1        1.104  -0.788  -0.013  0.00  0.00    -0.380 N 
ENDROOT
BRANCH   5   6
ATOM      6  C   LIG    1        2.493  -0.323  -0.018  0.00  0.00    +0.260 C 
ATOM      7  C   LIG    1        3.248  -0.901   1.197  0.00  0.00    +0.040 C 
ATOM      8  C   LIG    1        3.953  -2.163   0.640  0.00  0.00    +0.030 C 
ATOM      9  C   LIG    1        4.388  -1.715  -0.777  0.00  0.00    +0.020 C 
ATOM     10  C   LIG    1        3.217  -0.840  -1.273  0.00  0.00    +0.030 C 
ENDBRANCH   5   6
BRANCH   1  11
ATOM     11  N   LIG    1       -0.017   1.388   0.010  0.00  0.00    -0.820 N 
ATOM     12  H   LIG    1       -0.863   1.861   0.016  0.00  0.00    +0.430 HD
ATOM     13  H   LIG    1        0.817   1.884   0.004  0.00  0.00    +0.410 HD
ENDBRANCH   1  11
BRANCH   2  14
ATOM     14  N   LIG    1       -2.502  -0.393   0.009  0.00  0.00    +0.090 N 
ATOM     15  O   LIG    1       -2.778   0.793   0.016  0.00  0.00    -0.210 OA
ATOM     16  O   LIG    1       -3.391  -1.225   0.009  0.00  0.00    -0.170 OA
ENDBRANCH   2  14
TORSDOF 3
