REMARK  Name = ZINC000006442867
REMARK                            x       y       z     vdW  Elec       q    Type
REMARK                         _______ _______ _______ _____ _____    ______ ____
ROOT
ATOM      1  C   LIG    1        0.657  -2.014   1.298  0.00  0.00    +0.390 C 
ATOM      2  O   LIG    1        0.063  -2.621   0.432  0.00  0.00    -0.440 OA
ENDROOT
BRANCH   1   3
ATOM      3  C   LIG    1        1.294  -2.747   2.404  0.00  0.00    -0.170 A 
ATOM      4  C   LIG    1        1.976  -2.051   3.407  0.00  0.00    +0.060 A 
ATOM      5  C   LIG    1        2.570  -2.744   4.440  0.00  0.00    +0.000 A 
ATOM      6  C   LIG    1        2.495  -4.125   4.485  0.00  0.00    +0.050 A 
ATOM      7  C   LIG    1        1.823  -4.822   3.495  0.00  0.00    +0.000 A 
ATOM      8  C   LIG    1        1.217  -4.142   2.459  0.00  0.00    +0.080 A 
ENDBRANCH   1   3
BRANCH   1   9
ATOM      9  C   LIG    1        0.742  -0.511   1.242  0.00  0.00    +0.090 C 
BRANCH   9  11
ATOM     10  C   LIG    1       -0.019   1.526   0.010  0.00  0.00    +0.110 C 
ATOM     11  C   LIG    1        0.002  -0.004   0.002  0.00  0.00    +0.160 C 
BRANCH  11  12
ATOM     12  N   LIG    1        0.688  -0.476  -1.203  0.00  0.00    -0.020 N 
ATOM     13  O   LIG    1        0.098  -1.180  -2.003  0.00  0.00    -0.140 OA
ATOM     14  O   LIG    1        1.848  -0.165  -1.405  0.00  0.00    -0.170 OA
ENDBRANCH  11  12
ENDBRANCH   9  11
ENDBRANCH   1   9
TORSDOF 4
