REMARK  Name = ZINC000001733946
REMARK                            x       y       z     vdW  Elec       q    Type
REMARK                         _______ _______ _______ _____ _____    ______ ____
ROOT
ATOM      1  C   LIG    1        0.849  -2.021  -1.205  0.00  0.00    +0.300 C 
ENDROOT
BRANCH   1   2
ATOM      2  C   LIG    1        1.555  -2.507  -2.445  0.00  0.00    -0.150 A 
ATOM      3  C   LIG    1        0.857  -2.637  -3.631  0.00  0.00    +0.010 A 
ATOM      4  C   LIG    1        1.504  -3.082  -4.768  0.00  0.00    +0.020 A 
ATOM      5  C   LIG    1        2.849  -3.398  -4.720  0.00  0.00    +0.020 A 
ATOM      6  C   LIG    1        3.547  -3.268  -3.534  0.00  0.00    +0.010 A 
ATOM      7  C   LIG    1        2.901  -2.818  -2.397  0.00  0.00    +0.030 A 
ENDBRANCH   1   2
BRANCH   1   8
ATOM      8  O   LIG    1       -0.451  -2.609  -1.135  0.00  0.00    -0.540 OA
ATOM      9  H   LIG    1       -1.020  -2.397  -1.889  0.00  0.00    +0.390 HD
ENDBRANCH   1   8
BRANCH   1  10
ATOM     10  C   LIG    1        0.718  -0.497  -1.257  0.00  0.00    +0.120 C 
BRANCH  10  11
ATOM     11  N   LIG    1       -0.055  -0.114  -2.441  0.00  0.00    -0.010 N 
ATOM     12  O   LIG    1       -1.198  -0.512  -2.577  0.00  0.00    -0.180 OA
ATOM     13  O   LIG    1        0.445   0.604  -3.288  0.00  0.00    -0.140 OA
ENDBRANCH  10  11
BRANCH  10  15
ATOM     14  C   LIG    1       -0.019   1.526   0.010  0.00  0.00    +0.030 C 
ATOM     15  C   LIG    1        0.002  -0.004   0.002  0.00  0.00    +0.080 C 
ENDBRANCH  10  15
ENDBRANCH   1  10
TORSDOF 5
