REMARK  Name = ZINC000034559485
REMARK                            x       y       z     vdW  Elec       q    Type
REMARK                         _______ _______ _______ _____ _____    ______ ____
ROOT
ATOM      1  O   LIG    1        0.002  -0.004   0.002  0.00  0.00    -0.480 OA
ATOM      2  C   LIG    1       -0.014   1.214   0.009  0.00  0.00    +0.560 A 
ATOM      3  N   LIG    1       -1.109   2.007   0.029  0.00  0.00    -0.560 N 
ATOM      4  H   LIG    1       -2.029   1.700   0.041  0.00  0.00    +0.470 HD
ATOM      5  O   LIG    1       -0.692   3.358   0.031  0.00  0.00    -0.020 OA
ATOM      6  C   LIG    1        0.655   3.421   0.011  0.00  0.00    +0.170 A 
ATOM      7  C   LIG    1        1.546   4.490   0.003  0.00  0.00    -0.060 A 
ATOM      8  C   LIG    1        2.904   4.254  -0.021  0.00  0.00    +0.200 A 
ATOM      9  C   LIG    1        3.395   2.957  -0.030  0.00  0.00    +0.020 A 
ATOM     10  C   LIG    1        2.530   1.886  -0.018  0.00  0.00    +0.200 A 
ATOM     11  C   LIG    1        1.153   2.109   0.002  0.00  0.00    -0.240 A 
ENDROOT
BRANCH   7  12
ATOM     12  N   LIG    1        1.037   5.879   0.012  0.00  0.00    +0.030 N 
ATOM     13  O   LIG    1       -0.163   6.088   0.034  0.00  0.00    -0.150 OA
ATOM     14  O   LIG    1        1.817   6.814  -0.002  0.00  0.00    -0.150 OA
ENDBRANCH   7  12
TORSDOF 1
