REMARK  Name = ZINC000044712791
REMARK                            x       y       z     vdW  Elec       q    Type
REMARK                         _______ _______ _______ _____ _____    ______ ____
ROOT
ATOM      1  C   LIG    1        1.203   1.935   0.001  0.00  0.00    -0.270 A 
ATOM      2  C   LIG    1        2.479   1.413  -0.020  0.00  0.00    +0.390 A 
ATOM      3  N   LIG    1        3.381   2.421  -0.021  0.00  0.00    -0.550 N 
ATOM      4  H   LIG    1        4.343   2.300  -0.034  0.00  0.00    +0.440 HD
ATOM      5  C   LIG    1        2.746   3.644  -0.001  0.00  0.00    +0.310 A 
ATOM      6  N   LIG    1        3.195   4.892   0.006  0.00  0.00    -0.470 NA
ATOM      7  C   LIG    1        2.376   5.922   0.027  0.00  0.00    +0.390 A 
ATOM      8  C   LIG    1        1.001   5.755   0.042  0.00  0.00    -0.110 A 
ATOM      9  C   LIG    1        0.475   4.475   0.035  0.00  0.00    +0.210 A 
ATOM     10  C   LIG    1        1.362   3.402   0.007  0.00  0.00    -0.120 A 
ENDROOT
BRANCH   8  11
ATOM     11  N   LIG    1        0.104   6.932   0.064  0.00  0.00    +0.040 N 
ATOM     12  O   LIG    1       -1.104   6.777   0.078  0.00  0.00    -0.150 OA
ATOM     13  O   LIG    1        0.574   8.056   0.070  0.00  0.00    -0.150 OA
ENDBRANCH   8  11
BRANCH   1  15
ATOM     14  O   LIG    1        0.002  -0.004   0.002  0.00  0.00    -0.470 OA
ATOM     15  C   LIG    1       -0.014   1.210   0.009  0.00  0.00    +0.510 C 
ENDBRANCH   1  15
TORSDOF 2
