REMARK  Name = ZINC000039384901
REMARK                            x       y       z     vdW  Elec       q    Type
REMARK                         _______ _______ _______ _____ _____    ______ ____
ROOT
ATOM      1  C   LIG    1       -1.306   1.936   0.019  0.00  0.00    -0.110 A 
ATOM      2  C   LIG    1       -1.325   3.329   0.021  0.00  0.00    +0.400 A 
ATOM      3  N   LIG    1       -2.450   4.005   0.030  0.00  0.00    -0.450 NA
ATOM      4  C   LIG    1       -3.628   3.383   0.037  0.00  0.00    +0.180 A 
ATOM      5  C   LIG    1       -4.846   4.089   0.047  0.00  0.00    +0.010 A 
ATOM      6  C   LIG    1       -6.012   3.386   0.054  0.00  0.00    +0.290 A 
ATOM      7  N   LIG    1       -6.032   2.060   0.052  0.00  0.00    -0.480 NA
ATOM      8  C   LIG    1       -4.937   1.335   0.044  0.00  0.00    +0.370 A 
ATOM      9  C   LIG    1       -3.683   1.965   0.036  0.00  0.00    -0.180 A 
ATOM     10  C   LIG    1       -2.481   1.237   0.021  0.00  0.00    +0.240 A 
ENDROOT
BRANCH   1  12
ATOM     11  O   LIG    1        0.002  -0.004   0.002  0.00  0.00    -0.150 OA
ATOM     12  N   LIG    1       -0.014   1.214   0.009  0.00  0.00    +0.030 N 
ATOM     13  O   LIG    1        1.032   1.837   0.002  0.00  0.00    -0.140 OA
ENDBRANCH   1  12
TORSDOF 1
