REMARK  Name = ZINC000575726546
REMARK                            x       y       z     vdW  Elec       q    Type
REMARK                         _______ _______ _______ _____ _____    ______ ____
ROOT
ATOM      1  C   LIG    1       -0.002  -0.005  -0.048  0.00  0.00    +0.250 A 
ATOM      2  C   LIG    1       -1.193  -0.719   0.059  0.00  0.00    +0.060 A 
ATOM      3  C   LIG    1       -1.165  -2.103   0.101  0.00  0.00    +0.080 A 
ATOM      4  C   LIG    1        0.044  -2.774   0.037  0.00  0.00    +0.070 A 
ATOM      5  C   LIG    1        1.228  -2.063  -0.069  0.00  0.00    +0.100 A 
ATOM      6  F   LIG    1        0.070  -4.124   0.078  0.00  0.00    -0.120 F 
ATOM      7  C   LIG    1        1.206  -0.682  -0.118  0.00  0.00    -0.090 A 
ENDROOT
BRANCH   1   8
ATOM      8  N   LIG    1       -0.025   1.396  -0.091  0.00  0.00    -0.840 N 
ATOM      9  H   LIG    1       -0.855   1.872   0.067  0.00  0.00    +0.420 HD
ATOM     10  H   LIG    1        0.788   1.889  -0.284  0.00  0.00    +0.410 HD
ENDBRANCH   1   8
BRANCH   7  11
ATOM     11  N   LIG    1        2.473   0.075  -0.232  0.00  0.00    +0.040 N 
ATOM     12  O   LIG    1        2.609   1.129   0.364  0.00  0.00    -0.170 OA
ATOM     13  O   LIG    1        3.380  -0.357  -0.920  0.00  0.00    -0.140 OA
ENDBRANCH   7  11
BRANCH   2  14
ATOM     14  O   LIG    1       -2.381  -0.059   0.121  0.00  0.00    -0.480 OA
ATOM     15  H   LIG    1       -2.786   0.103  -0.742  0.00  0.00    +0.400 HD
ENDBRANCH   2  14
TORSDOF 3
