REMARK  Name = ZINC000235550415
REMARK                            x       y       z     vdW  Elec       q    Type
REMARK                         _______ _______ _______ _____ _____    ______ ____
ROOT
ATOM      1  C   LIG    1       -0.019   1.526   0.010  0.00  0.00    +0.090 C 
ATOM      2  C   LIG    1        0.002  -0.004   0.002  0.00  0.00    +0.060 C 
ATOM      3  C   LIG    1        0.776  -0.517  -1.193  0.00  0.00    +0.530 C 
ATOM      4  N   LIG    1        1.817  -1.221  -0.717  0.00  0.00    -0.650 N 
ATOM      5  H   LIG    1        2.475  -1.660  -1.279  0.00  0.00    +0.430 HD
ATOM      6  C   LIG    1        1.844  -1.248   0.677  0.00  0.00    +0.220 A 
ATOM      7  C   LIG    1        2.736  -1.854   1.560  0.00  0.00    -0.070 A 
ATOM      8  C   LIG    1        2.547  -1.736   2.923  0.00  0.00    +0.140 A 
ATOM      9  C   LIG    1        1.476  -1.020   3.423  0.00  0.00    +0.020 A 
ATOM     10  C   LIG    1        0.585  -0.416   2.553  0.00  0.00    +0.140 A 
ATOM     11  O   LIG    1        0.508  -0.329  -2.361  0.00  0.00    -0.470 OA
ATOM     12  C   LIG    1        0.769  -0.530   1.194  0.00  0.00    -0.140 A 
ENDROOT
BRANCH   7  13
ATOM     13  N   LIG    1        3.887  -2.623   1.038  0.00  0.00    +0.040 N 
ATOM     14  O   LIG    1        4.054  -2.727  -0.164  0.00  0.00    -0.180 OA
ATOM     15  O   LIG    1        4.668  -3.151   1.809  0.00  0.00    -0.140 OA
ENDBRANCH   7  13
TORSDOF 1
