REMARK  Name = ZINC000004683075
REMARK                            x       y       z     vdW  Elec       q    Type
REMARK                         _______ _______ _______ _____ _____    ______ ____
ROOT
ATOM      1  C   LIG    1       -1.293   1.929   0.019  0.00  0.00    +0.150 C 
ATOM      2  C   LIG    1       -1.383   2.899  -1.185  0.00  0.00    +0.070 C 
ATOM      3  C   LIG    1       -1.519   4.305  -0.517  0.00  0.00    +0.040 C 
ATOM      4  C   LIG    1       -2.897   4.267   0.154  0.00  0.00    -0.010 C 
ATOM      5  C   LIG    1       -2.840   3.440   1.178  0.00  0.00    -0.030 C 
ATOM      6  C   LIG    1       -0.583   4.116   0.733  0.00  0.00    +0.060 C 
ATOM      7  C   LIG    1       -1.387   2.868   1.263  0.00  0.00    +0.050 C 
ENDROOT
BRANCH   1   9
ATOM      8  O   LIG    1        0.002  -0.004   0.002  0.00  0.00    -0.170 OA
ATOM      9  N   LIG    1       -0.014   1.214   0.009  0.00  0.00    -0.010 N 
ATOM     10  O   LIG    1        1.032   1.837   0.002  0.00  0.00    -0.160 OA
ENDBRANCH   1   9
TORSDOF 1
