REMARK  Name = ZINC000095935341
REMARK                            x       y       z     vdW  Elec       q    Type
REMARK                         _______ _______ _______ _____ _____    ______ ____
ROOT
ATOM      1  C   LIG    1       -1.198  -0.719   0.010  0.00  0.00    +0.300 A 
ATOM      2  C   LIG    1       -2.411  -0.042   0.019  0.00  0.00    -0.040 A 
ATOM      3  C   LIG    1       -3.596  -0.751   0.027  0.00  0.00    +0.180 A 
ATOM      4  C   LIG    1       -3.578  -2.133   0.025  0.00  0.00    -0.150 A 
ATOM      5  C   LIG    1       -2.371  -2.812   0.015  0.00  0.00    +0.220 A 
ATOM      6  F   LIG    1       -2.356  -4.163   0.013  0.00  0.00    -0.100 F 
ATOM      7  C   LIG    1       -1.181  -2.108   0.002  0.00  0.00    -0.080 A 
ENDROOT
BRANCH   4   8
ATOM      8  N   LIG    1       -4.851  -2.889   0.033  0.00  0.00    +0.040 N 
ATOM      9  O   LIG    1       -4.836  -4.106   0.031  0.00  0.00    -0.160 OA
ATOM     10  O   LIG    1       -5.913  -2.293   0.040  0.00  0.00    -0.170 OA
ENDBRANCH   4   8
BRANCH   1  11
ATOM     11  N   LIG    1        0.002  -0.004   0.002  0.00  0.00    -0.570 N 
ATOM     12  H   LIG    1        0.849  -0.478  -0.009  0.00  0.00    +0.410 HD
BRANCH  11  13
ATOM     13  N   LIG    1       -0.016   1.362   0.009  0.00  0.00    -0.600 NA
ATOM     14  H   LIG    1       -0.555   1.720  -0.765  0.00  0.00    +0.350 HD
ATOM     15  H   LIG    1        0.920   1.736   0.003  0.00  0.00    +0.370 HD
ENDBRANCH  11  13
ENDBRANCH   1  11
TORSDOF 3
