REMARK  Name = ZINC000085224960
REMARK                            x       y       z     vdW  Elec       q    Type
REMARK                         _______ _______ _______ _____ _____    ______ ____
ROOT
ATOM      1  O   LIG    1        0.002  -0.004   0.002  0.00  0.00    -0.400 OA
ATOM      2  C   LIG    1       -0.014   1.209   0.009  0.00  0.00    +0.390 C 
ATOM      3  C   LIG    1       -1.224   2.119   0.032  0.00  0.00    +0.280 C 
ATOM      4  O   LIG    1       -0.709   3.451   0.032  0.00  0.00    -0.260 OA
ATOM      5  C   LIG    1        0.645   3.439   0.011  0.00  0.00    +0.160 A 
ATOM      6  C   LIG    1        1.550   4.497   0.004  0.00  0.00    +0.080 A 
ATOM      7  C   LIG    1        2.907   4.252  -0.018  0.00  0.00    +0.030 A 
ATOM      8  C   LIG    1        3.391   2.954  -0.032  0.00  0.00    +0.070 A 
ATOM      9  C   LIG    1        2.515   1.891  -0.025  0.00  0.00    +0.160 A 
ATOM     10  C   LIG    1        1.137   2.126   0.003  0.00  0.00    -0.240 A 
ENDROOT
BRANCH   7  11
ATOM     11  N   LIG    1        3.856   5.388  -0.026  0.00  0.00    +0.020 N 
ATOM     12  O   LIG    1        5.056   5.180  -0.046  0.00  0.00    -0.140 OA
ATOM     13  O   LIG    1        3.437   6.532  -0.014  0.00  0.00    -0.140 OA
ENDBRANCH   7  11
TORSDOF 1
