REMARK  Name = ZINC000038761733
REMARK                            x       y       z     vdW  Elec       q    Type
REMARK                         _______ _______ _______ _____ _____    ______ ____
ROOT
ATOM      1  C   LIG    1        1.963  -0.962  -0.862  0.00  0.00    +0.090 A 
ATOM      2  C   LIG    1        2.738  -0.533   0.205  0.00  0.00    +0.100 A 
ATOM      3  C   LIG    1        4.115  -0.614   0.136  0.00  0.00    -0.010 A 
ATOM      4  C   LIG    1        4.723  -1.125  -1.003  0.00  0.00    +0.250 A 
ATOM      5  C   LIG    1        3.946  -1.554  -2.071  0.00  0.00    -0.080 A 
ATOM      6  C   LIG    1        2.569  -1.478  -1.998  0.00  0.00    +0.030 A 
ENDROOT
BRANCH   5   7
ATOM      7  N   LIG    1        4.593  -2.099  -3.286  0.00  0.00    +0.040 N 
ATOM      8  O   LIG    1        5.587  -2.796  -3.186  0.00  0.00    -0.170 OA
ATOM      9  O   LIG    1        4.132  -1.850  -4.385  0.00  0.00    -0.150 OA
ENDBRANCH   5   7
BRANCH   4  10
ATOM     10  N   LIG    1        6.118  -1.208  -1.075  0.00  0.00    -0.860 N 
ATOM     11  H   LIG    1        6.547  -1.454  -1.909  0.00  0.00    +0.410 HD
ATOM     12  H   LIG    1        6.656  -1.018  -0.290  0.00  0.00    +0.410 HD
ENDBRANCH   4  10
BRANCH   1  13
ATOM     13  O   LIG    1        0.607  -0.882  -0.792  0.00  0.00    -0.300 OA
BRANCH  13  15
ATOM     14  C   LIG    1       -0.291  -2.751  -2.033  0.00  0.00    +0.030 C 
ATOM     15  C   LIG    1       -0.125  -1.232  -1.969  0.00  0.00    +0.140 C 
ATOM     16  C   LIG    1       -1.503  -0.569  -1.928  0.00  0.00    +0.070 C 
ENDBRANCH  13  15
ENDBRANCH   1  13
TORSDOF 4
