REMARK  Name = ZINC000004972255
REMARK                            x       y       z     vdW  Elec       q    Type
REMARK                         _______ _______ _______ _____ _____    ______ ____
ROOT
ATOM      1  C   LIG    1        1.504  -2.380   2.480  0.00  0.00    -0.040 A 
ATOM      2  C   LIG    1        2.051  -1.531   3.442  0.00  0.00    +0.090 A 
ATOM      3  C   LIG    1        2.704  -2.062   4.535  0.00  0.00    +0.100 A 
ATOM      4  C   LIG    1        2.818  -3.433   4.678  0.00  0.00    -0.030 A 
ATOM      5  C   LIG    1        2.278  -4.281   3.727  0.00  0.00    +0.110 A 
ATOM      6  C   LIG    1        1.617  -3.762   2.632  0.00  0.00    +0.060 A 
ENDROOT
BRANCH   1   7
ATOM      7  C   LIG    1        0.801  -1.818   1.305  0.00  0.00    +0.390 C 
ATOM      8  N   LIG    1        0.288  -2.612   0.413  0.00  0.00    -0.730 NA
ATOM      9  H   LIG    1        0.366  -3.573   0.517  0.00  0.00    +0.360 HD
BRANCH   7  10
ATOM     10  O   LIG    1        0.693  -0.477   1.160  0.00  0.00    -0.310 OA
BRANCH  10  12
ATOM     11  C   LIG    1       -0.019   1.526   0.010  0.00  0.00    +0.060 C 
ATOM     12  C   LIG    1        0.002  -0.004   0.002  0.00  0.00    +0.210 C 
ENDBRANCH  10  12
ENDBRANCH   7  10
ENDBRANCH   1   7
BRANCH   4  13
ATOM     13  N   LIG    1        3.521  -3.996   5.853  0.00  0.00    +0.020 N 
ATOM     14  O   LIG    1        3.623  -5.203   5.981  0.00  0.00    -0.150 OA
ATOM     15  O   LIG    1        3.998  -3.252   6.691  0.00  0.00    -0.150 OA
ENDBRANCH   4  13
TORSDOF 4
