REMARK  Name = ZINC000080640336
REMARK                            x       y       z     vdW  Elec       q    Type
REMARK                         _______ _______ _______ _____ _____    ______ ____
ROOT
ATOM      1  C   LIG    1       -1.307   1.960  -0.148  0.00  0.00    -0.050 A 
ATOM      2  C   LIG    1       -2.493   1.257  -0.245  0.00  0.00    +0.100 A 
ATOM      3  C   LIG    1       -3.699   1.909  -0.069  0.00  0.00    +0.030 A 
ATOM      4  C   LIG    1       -3.719   3.263   0.205  0.00  0.00    +0.080 A 
ATOM      5  C   LIG    1       -2.533   3.967   0.302  0.00  0.00    +0.030 A 
ATOM      6  C   LIG    1       -1.327   3.314   0.131  0.00  0.00    -0.010 A 
ENDROOT
BRANCH   1   8
ATOM      7  O   LIG    1        0.010   0.052  -0.471  0.00  0.00    -0.170 OA
ATOM      8  N   LIG    1       -0.015   1.262  -0.336  0.00  0.00    +0.030 N 
ATOM      9  O   LIG    1        1.023   1.899  -0.362  0.00  0.00    -0.150 OA
ENDBRANCH   1   8
BRANCH   6  10
ATOM     10  C   LIG    1       -0.034   4.081   0.237  0.00  0.00    +0.080 C 
BRANCH  10  11
ATOM     11  C   LIG    1        0.458   4.448  -1.164  0.00  0.00    +0.030 C 
BRANCH  11  12
ATOM     12  C   LIG    1        1.771   5.227  -1.056  0.00  0.00    +0.030 C 
BRANCH  12  13
ATOM     13  C   LIG    1        2.263   5.594  -2.457  0.00  0.00    +0.160 C 
BRANCH  13  14
ATOM     14  O   LIG    1        3.489   6.321  -2.356  0.00  0.00    -0.580 OA
ATOM     15  H   LIG    1        3.860   6.587  -3.209  0.00  0.00    +0.380 HD
ENDBRANCH  13  14
ENDBRANCH  12  13
ENDBRANCH  11  12
ENDBRANCH  10  11
ENDBRANCH   6  10
TORSDOF 6
