REMARK  Name = ZINC000045221369
REMARK                            x       y       z     vdW  Elec       q    Type
REMARK                         _______ _______ _______ _____ _____    ______ ____
ROOT
ATOM      1  N   LIG    1       -4.918   0.718   0.029  0.00  0.00    -0.260 N 
ATOM      2  C   LIG    1       -4.799  -0.119   1.226  0.00  0.00    +0.250 C 
ATOM      3  C   LIG    1       -5.930  -1.149   1.258  0.00  0.00    +0.060 C 
ATOM      4  C   LIG    1       -6.812  -0.956   0.018  0.00  0.00    +0.010 C 
ATOM      5  C   LIG    1       -5.936  -1.126  -1.230  0.00  0.00    +0.060 C 
ATOM      6  C   LIG    1       -7.360   0.478   0.033  0.00  0.00    +0.060 C 
ATOM      7  C   LIG    1       -4.811  -0.106  -1.177  0.00  0.00    +0.250 C 
ATOM      8  C   LIG    1       -6.183   1.456   0.039  0.00  0.00    +0.240 C 
ENDROOT
BRANCH   1   9
ATOM      9  C   LIG    1       -3.814   1.688   0.029  0.00  0.00    +0.230 C 
BRANCH   9  10
ATOM     10  C   LIG    1       -2.479   0.941   0.019  0.00  0.00    +0.040 C 
BRANCH  10  11
ATOM     11  C   LIG    1       -1.330   1.951   0.019  0.00  0.00    -0.040 C 
BRANCH  11  13
ATOM     12  O   LIG    1        0.002  -0.004   0.002  0.00  0.00    -0.700 OA
ATOM     13  C   LIG    1       -0.015   1.215   0.009  0.00  0.00    +0.490 C 
ATOM     14  O   LIG    1        1.033   1.839   0.002  0.00  0.00    -0.690 OA
ENDBRANCH  11  13
ENDBRANCH  10  11
ENDBRANCH   9  10
ENDBRANCH   1   9
TORSDOF 4
