REMARK  Name = ZINC000001746862
REMARK                            x       y       z     vdW  Elec       q    Type
REMARK                         _______ _______ _______ _____ _____    ______ ____
ROOT
ATOM      1  C   LIG    1       -2.502  -2.855   0.011  0.00  0.00    -0.020 A 
ATOM      2  C   LIG    1       -3.725  -2.176   0.020  0.00  0.00    +0.040 A 
ATOM      3  C   LIG    1       -4.905  -2.888   0.027  0.00  0.00    +0.110 A 
ATOM      4  C   LIG    1       -4.882  -4.272   0.025  0.00  0.00    -0.040 A 
ATOM      5  C   LIG    1       -3.676  -4.951   0.015  0.00  0.00    +0.110 A 
ATOM      6  C   LIG    1       -2.487  -4.253   0.003  0.00  0.00    +0.060 A 
ENDROOT
BRANCH   4   7
ATOM      7  N   LIG    1       -6.154  -5.030   0.033  0.00  0.00    +0.020 N 
ATOM      8  O   LIG    1       -6.137  -6.247   0.032  0.00  0.00    -0.160 OA
ATOM      9  O   LIG    1       -7.217  -4.435   0.042  0.00  0.00    -0.160 OA
ENDBRANCH   4   7
BRANCH   1  11
ATOM     10  C   LIG    1       -1.256  -0.753   0.010  0.00  0.00    -0.050 C 
ATOM     11  C   LIG    1       -1.238  -2.101   0.003  0.00  0.00    +0.110 C 
BRANCH  10  15
ATOM     12  N   LIG    1       -0.016   1.344   0.009  0.00  0.00    -0.850 N 
ATOM     13  H   LIG    1       -0.863   1.817   0.016  0.00  0.00    +0.400 HD
ATOM     14  H   LIG    1        0.817   1.840   0.004  0.00  0.00    +0.410 HD
ATOM     15  C   LIG    1        0.002  -0.004   0.002  0.00  0.00    +0.550 C 
ATOM     16  O   LIG    1        1.064  -0.598  -0.011  0.00  0.00    -0.540 OA
ENDBRANCH  10  15
ENDBRANCH   1  11
TORSDOF 3
