REMARK  Name = ZINC000031629107
REMARK                            x       y       z     vdW  Elec       q    Type
REMARK                         _______ _______ _______ _____ _____    ______ ____
ROOT
ATOM      1  C   LIG    1       -1.306   1.936   0.019  0.00  0.00    -0.050 A 
ATOM      2  C   LIG    1       -1.325   3.318   0.021  0.00  0.00    +0.110 A 
ATOM      3  C   LIG    1       -2.532   3.993   0.030  0.00  0.00    +0.030 A 
ATOM      4  C   LIG    1       -3.719   3.286   0.037  0.00  0.00    +0.130 A 
ATOM      5  C   LIG    1       -3.700   1.904   0.034  0.00  0.00    -0.090 A 
ATOM      6  C   LIG    1       -2.494   1.229   0.021  0.00  0.00    +0.110 A 
ENDROOT
BRANCH   5   7
ATOM      7  C   LIG    1       -4.995   1.133   0.043  0.00  0.00    +0.340 C 
ATOM      8  N   LIG    1       -6.055   1.917   0.726  0.00  0.00    -0.670 NA
ATOM      9  H   LIG    1       -6.014   1.786   1.726  0.00  0.00    +0.360 HD
ATOM     10  C   LIG    1       -7.301   1.328   0.160  0.00  0.00    +0.170 C 
ATOM     11  C   LIG    1       -6.896   1.015  -1.296  0.00  0.00    +0.210 C 
ATOM     12  O   LIG    1       -5.461   0.931  -1.302  0.00  0.00    -0.360 OA
ENDBRANCH   5   7
BRANCH   1  14
ATOM     13  O   LIG    1        0.002  -0.004   0.002  0.00  0.00    -0.160 OA
ATOM     14  N   LIG    1       -0.014   1.214   0.009  0.00  0.00    +0.030 N 
ATOM     15  O   LIG    1        1.032   1.837   0.002  0.00  0.00    -0.160 OA
ENDBRANCH   1  14
TORSDOF 2
