REMARK  Name = ZINC000001688642
REMARK                            x       y       z     vdW  Elec       q    Type
REMARK                         _______ _______ _______ _____ _____    ______ ____
ROOT
ATOM      1  C   LIG    1        1.463  -2.353  -2.541  0.00  0.00    +0.102 A 
ATOM      2  C   LIG    1        1.647  -3.669  -2.854  0.00  0.00    +0.119 A 
ATOM      3  O   LIG    1        2.306  -3.739  -4.014  0.00  0.00    -0.438 OA
ATOM      4  C   LIG    1        2.570  -2.512  -4.490  0.00  0.00    +0.281 A 
ATOM      5  C   LIG    1        1.185  -4.844  -2.030  0.00  0.00    +0.087 C 
ATOM      6  C   LIG    1        2.077  -1.596  -3.643  0.00  0.00    +0.090 A 
ENDROOT
BRANCH   4   7
ATOM      7  N   LIG    1        3.284  -2.217  -5.752  0.00  0.00    +0.093 N 
ATOM      8  O   LIG    1        3.686  -3.129  -6.452  0.00  0.00    -0.123 OA
ATOM      9  O   LIG    1        3.470  -1.062  -6.091  0.00  0.00    -0.123 OA
ENDBRANCH   4   7
BRANCH   1  10
ATOM     10  C   LIG    1        0.787  -1.806  -1.354  0.00  0.00    +0.343 C 
ATOM     11  O   LIG    1        0.323  -2.558  -0.519  0.00  0.00    -0.245 OA
BRANCH  10  12
ATOM     12  O   LIG    1        0.682  -0.472  -1.193  0.00  0.00    -0.461 OA
BRANCH  12  14
ATOM     13  C   LIG    1       -0.019   1.526   0.010  0.00  0.00    +0.048 C 
ATOM     14  C   LIG    1        0.002  -0.004   0.002  0.00  0.00    +0.229 C 
ENDBRANCH  12  14
ENDBRANCH  10  12
ENDBRANCH   1  10
TORSDOF 4
