REMARK  Name = ZINC000001682090
REMARK                            x       y       z     vdW  Elec       q    Type
REMARK                         _______ _______ _______ _____ _____    ______ ____
ROOT
ATOM      1  C   LIG    1        1.256   1.968   0.001  0.00  0.00    -0.080 A 
ATOM      2  C   LIG    1        1.240   3.364   0.014  0.00  0.00    +0.070 A 
ATOM      3  C   LIG    1        2.429   4.064   0.006  0.00  0.00    +0.100 A 
ATOM      4  C   LIG    1        3.635   3.385  -0.015  0.00  0.00    -0.020 A 
ATOM      5  C   LIG    1        3.657   2.002  -0.028  0.00  0.00    +0.100 A 
ATOM      6  C   LIG    1        2.475   1.290  -0.015  0.00  0.00    +0.100 A 
ENDROOT
BRANCH   1   8
ATOM      7  O   LIG    1        0.002  -0.004   0.002  0.00  0.00    -0.520 OA
ATOM      8  C   LIG    1       -0.014   1.211   0.009  0.00  0.00    +0.610 C 
ATOM      9  N   LIG    1       -1.191   1.869   0.018  0.00  0.00    -0.700 N 
ATOM     10  C   LIG    1       -1.908   3.147   0.022  0.00  0.00    +0.280 C 
ATOM     11  C   LIG    1       -2.655   1.812   0.025  0.00  0.00    +0.310 C 
ENDBRANCH   1   8
BRANCH   4  12
ATOM     12  N   LIG    1        4.906   4.142  -0.023  0.00  0.00    +0.020 N 
ATOM     13  O   LIG    1        5.969   3.548  -0.042  0.00  0.00    -0.150 OA
ATOM     14  O   LIG    1        4.890   5.360  -0.011  0.00  0.00    -0.150 OA
ENDBRANCH   4  12
TORSDOF 2
