REMARK  Name = ZINC000039645350
REMARK                            x       y       z     vdW  Elec       q    Type
REMARK                         _______ _______ _______ _____ _____    ______ ____
ROOT
ATOM      1  C   LIG    1       -1.306   1.936   0.019  0.00  0.00    -0.050 A 
ATOM      2  C   LIG    1       -1.325   3.319   0.021  0.00  0.00    +0.100 A 
ATOM      3  C   LIG    1       -2.531   3.993   0.030  0.00  0.00    +0.030 A 
ATOM      4  C   LIG    1       -3.719   3.286   0.037  0.00  0.00    -0.030 A 
ATOM      5  C   LIG    1       -3.700   1.904   0.034  0.00  0.00    +0.030 A 
ATOM      6  C   LIG    1       -2.494   1.229   0.021  0.00  0.00    +0.100 A 
ENDROOT
BRANCH   1   8
ATOM      7  O   LIG    1        0.002  -0.004   0.002  0.00  0.00    -0.160 OA
ATOM      8  N   LIG    1       -0.014   1.214   0.009  0.00  0.00    +0.030 N 
ATOM      9  O   LIG    1        1.032   1.837   0.002  0.00  0.00    -0.160 OA
ENDBRANCH   1   8
BRANCH   4  10
ATOM     10  C   LIG    1       -5.034   4.022   0.048  0.00  0.00    +0.090 C 
BRANCH  10  11
ATOM     11  C   LIG    1       -5.489   4.274  -1.391  0.00  0.00    +0.020 C 
BRANCH  11  12
ATOM     12  C   LIG    1       -6.825   5.020  -1.380  0.00  0.00    +0.170 C 
BRANCH  12  13
ATOM     13  O   LIG    1       -7.250   5.256  -2.724  0.00  0.00    -0.580 OA
ATOM     14  H   LIG    1       -8.092   5.726  -2.793  0.00  0.00    +0.380 HD
ENDBRANCH  12  13
ENDBRANCH  11  12
ENDBRANCH  10  11
ENDBRANCH   4  10
TORSDOF 5
