REMARK  Name = ZINC000018205609
REMARK                            x       y       z     vdW  Elec       q    Type
REMARK                         _______ _______ _______ _____ _____    ______ ____
ROOT
ATOM      1  C   LIG    1       -1.306   1.936   0.019  0.00  0.00    -0.060 A 
ATOM      2  C   LIG    1       -2.534   1.387   0.028  0.00  0.00    +0.360 A 
ATOM      3  N   LIG    1       -3.481   2.376   0.036  0.00  0.00    -0.520 N 
ATOM      4  H   LIG    1       -4.439   2.228   0.043  0.00  0.00    +0.440 HD
ATOM      5  C   LIG    1       -2.880   3.600   0.033  0.00  0.00    +0.330 A 
ATOM      6  N   LIG    1       -3.343   4.862   0.038  0.00  0.00    -0.510 NA
ATOM      7  C   LIG    1       -2.531   5.881   0.030  0.00  0.00    +0.620 A 
ATOM      8  N   LIG    1       -1.181   5.736   0.025  0.00  0.00    -0.580 N 
ATOM      9  H   LIG    1       -0.611   6.520   0.023  0.00  0.00    +0.440 HD
ATOM     10  C   LIG    1       -0.629   4.501   0.024  0.00  0.00    +0.320 A 
ATOM     11  S   LIG    1        1.071   4.297   0.016  0.00  0.00    -0.450 S 
ATOM     12  C   LIG    1       -1.495   3.384   0.028  0.00  0.00    -0.170 A 
ENDROOT
BRANCH   1  14
ATOM     13  O   LIG    1        0.002  -0.004   0.002  0.00  0.00    -0.210 OA
ATOM     14  N   LIG    1       -0.014   1.214   0.009  0.00  0.00    +0.040 N 
ATOM     15  O   LIG    1        1.032   1.837   0.002  0.00  0.00    -0.060 OA
ENDBRANCH   1  14
TORSDOF 1
