REMARK  Name = ZINC000144758074
REMARK                            x       y       z     vdW  Elec       q    Type
REMARK                         _______ _______ _______ _____ _____    ______ ____
ROOT
ATOM      1  C   LIG    1       -1.306   1.936   0.019  0.00  0.00    -0.020 A 
ATOM      2  C   LIG    1       -1.327   3.322   0.021  0.00  0.00    +0.060 A 
ATOM      3  O   LIG    1       -0.368   4.274   0.016  0.00  0.00    -0.190 OA
ATOM      4  C   LIG    1       -0.969   5.474   0.021  0.00  0.00    +0.520 A 
ATOM      5  N   LIG    1       -2.260   5.331   0.030  0.00  0.00    -0.480 NA
ATOM      6  C   LIG    1       -2.554   4.003   0.030  0.00  0.00    +0.020 A 
ATOM      7  C   LIG    1       -3.746   3.277   0.037  0.00  0.00    +0.160 A 
ATOM      8  C   LIG    1       -3.707   1.900   0.035  0.00  0.00    +0.050 A 
ATOM      9  C   LIG    1       -2.492   1.232   0.021  0.00  0.00    +0.150 A 
ENDROOT
BRANCH   1  11
ATOM     10  O   LIG    1        0.002  -0.004   0.002  0.00  0.00    -0.150 OA
ATOM     11  N   LIG    1       -0.014   1.214   0.009  0.00  0.00    +0.030 N 
ATOM     12  O   LIG    1        1.032   1.837   0.002  0.00  0.00    -0.150 OA
ENDBRANCH   1  11
TORSDOF 1
