REMARK  Name = ZINC000000337648
REMARK                            x       y       z     vdW  Elec       q    Type
REMARK                         _______ _______ _______ _____ _____    ______ ____
ROOT
ATOM      1  C   LIG    1       -1.306   1.936   0.019  0.00  0.00    -0.040 A 
ATOM      2  C   LIG    1       -1.323   3.319   0.021  0.00  0.00    +0.090 A 
ATOM      3  C   LIG    1       -2.527   4.001   0.030  0.00  0.00    +0.040 A 
ATOM      4  C   LIG    1       -3.718   3.304   0.037  0.00  0.00    +0.080 A 
ATOM      5  C   LIG    1       -3.707   1.910   0.035  0.00  0.00    +0.010 A 
ATOM      6  C   LIG    1       -2.491   1.229   0.021  0.00  0.00    +0.120 A 
ENDROOT
BRANCH   5   7
ATOM      7  C   LIG    1       -4.984   1.155   0.042  0.00  0.00    +0.020 A 
ATOM      8  C   LIG    1       -6.230   1.688  -0.050  0.00  0.00    +0.160 A 
ATOM      9  N   LIG    1       -7.109   0.641  -0.005  0.00  0.00    -0.570 N 
ATOM     10  H   LIG    1       -8.076   0.702  -0.049  0.00  0.00    +0.430 HD
ATOM     11  C   LIG    1       -6.382  -0.492   0.113  0.00  0.00    +0.420 A 
ATOM     12  N   LIG    1       -5.116  -0.184   0.135  0.00  0.00    -0.480 NA
ENDBRANCH   5   7
BRANCH   1  14
ATOM     13  O   LIG    1        0.002  -0.004   0.002  0.00  0.00    -0.150 OA
ATOM     14  N   LIG    1       -0.014   1.214   0.009  0.00  0.00    +0.030 N 
ATOM     15  O   LIG    1        1.032   1.837   0.002  0.00  0.00    -0.160 OA
ENDBRANCH   1  14
TORSDOF 2
