REMARK  Name = ZINC000095933289
REMARK                            x       y       z     vdW  Elec       q    Type
REMARK                         _______ _______ _______ _____ _____    ______ ____
ROOT
ATOM      1  C   LIG    1       -1.306   1.936   0.019  0.00  0.00    +0.130 A 
ATOM      2  N   LIG    1       -1.458   3.236   0.021  0.00  0.00    -0.180 NA
ATOM      3  N   LIG    1       -2.831   3.517   0.031  0.00  0.00    -0.410 N 
ATOM      4  H   LIG    1       -3.232   4.399   0.035  0.00  0.00    +0.460 HD
ATOM      5  C   LIG    1       -3.495   2.342   0.035  0.00  0.00    +0.080 A 
ATOM      6 BR   LIG    1       -5.373   2.123   0.048  0.00  0.00    +0.070 Br
ATOM      7  C   LIG    1       -2.575   1.348   0.022  0.00  0.00    +0.020 A 
ENDROOT
BRANCH   1   9
ATOM      8  O   LIG    1        0.002  -0.004   0.002  0.00  0.00    -0.120 OA
ATOM      9  N   LIG    1       -0.014   1.214   0.009  0.00  0.00    +0.050 N 
ATOM     10  O   LIG    1        1.032   1.837   0.002  0.00  0.00    -0.110 OA
ENDBRANCH   1   9
TORSDOF 1
