REMARK  Name = ZINC000021981820
REMARK                            x       y       z     vdW  Elec       q    Type
REMARK                         _______ _______ _______ _____ _____    ______ ____
ROOT
ATOM      1  C   LIG    1       -0.089   1.501   0.016  0.00  0.00    +0.160 C 
ATOM      2  C   LIG    1       -0.031  -0.005   0.005  0.00  0.00    +0.070 A 
ATOM      3  C   LIG    1       -0.098  -0.709  -1.190  0.00  0.00    -0.150 A 
ATOM      4  C   LIG    1       -0.043  -2.088  -1.167  0.00  0.00    +0.430 A 
ATOM      5  N   LIG    1        0.072  -2.742  -0.026  0.00  0.00    -0.520 NA
ATOM      6  C   LIG    1        0.138  -2.108   1.134  0.00  0.00    +0.460 A 
ATOM      7  C   LIG    1        0.094  -0.717   1.185  0.00  0.00    -0.170 A 
ATOM      8 CL   LIG    1        0.182   0.111   2.708  0.00  0.00    -0.030 Cl
ENDROOT
BRANCH   6   9
ATOM      9  N   LIG    1        0.259  -2.837   2.312  0.00  0.00    -0.820 N 
ATOM     10  H   LIG    1        0.308  -2.377   3.165  0.00  0.00    +0.420 HD
ATOM     11  H   LIG    1        0.294  -3.806   2.282  0.00  0.00    +0.420 HD
ENDBRANCH   6   9
BRANCH   3  12
ATOM     12  N   LIG    1       -0.226   0.012  -2.476  0.00  0.00    +0.040 N 
ATOM     13  O   LIG    1        0.352   1.072  -2.640  0.00  0.00    -0.150 OA
ATOM     14  O   LIG    1       -0.909  -0.454  -3.370  0.00  0.00    -0.150 OA
ENDBRANCH   3  12
TORSDOF 2
