REMARK  Name = ZINC000242620169
REMARK                            x       y       z     vdW  Elec       q    Type
REMARK                         _______ _______ _______ _____ _____    ______ ____
ROOT
ATOM      1  O   LIG    1        0.002  -0.004   0.002  0.00  0.00    -0.480 OA
ATOM      2  C   LIG    1       -0.015   1.216   0.009  0.00  0.00    +0.550 A 
ATOM      3  C   LIG    1       -1.241   1.902   0.030  0.00  0.00    -0.180 A 
ATOM      4  C   LIG    1       -1.243   3.266   0.038  0.00  0.00    +0.270 A 
ATOM      5  C   LIG    1       -0.022   3.954   0.024  0.00  0.00    -0.050 A 
ATOM      6  C   LIG    1        1.142   3.263   0.004  0.00  0.00    +0.380 A 
ATOM      7  N   LIG    1        1.143   1.905   0.001  0.00  0.00    -0.550 N 
ENDROOT
BRANCH   3   8
ATOM      8  N   LIG    1       -2.517   1.152   0.044  0.00  0.00    +0.050 N 
ATOM      9  O   LIG    1       -2.507  -0.066   0.038  0.00  0.00    -0.120 OA
ATOM     10  O   LIG    1       -3.576   1.753   0.063  0.00  0.00    -0.170 OA
ENDBRANCH   3   8
BRANCH   7  11
ATOM     11  C   LIG    1        2.416   1.181  -0.021  0.00  0.00    +0.640 C 
ATOM     12  F   LIG    1        2.674   0.652   1.248  0.00  0.00    -0.170 F 
ATOM     13  F   LIG    1        3.445   2.059  -0.378  0.00  0.00    -0.170 F 
ENDBRANCH   7  11
TORSDOF 2
