REMARK  Name = ZINC000003876129
REMARK                            x       y       z     vdW  Elec       q    Type
REMARK                         _______ _______ _______ _____ _____    ______ ____
ROOT
ATOM      1  C   LIG    1       -2.361   1.105   0.110  0.00  0.00    +0.200 A 
ATOM      2  C   LIG    1       -2.285  -0.278   0.203  0.00  0.00    +0.010 A 
ATOM      3  C   LIG    1       -3.442  -1.027   0.294  0.00  0.00    +0.130 A 
ATOM      4  C   LIG    1       -4.675  -0.401   0.292  0.00  0.00    -0.060 A 
ATOM      5  C   LIG    1       -4.754   0.977   0.199  0.00  0.00    +0.130 A 
ATOM      6  C   LIG    1       -3.600   1.732   0.113  0.00  0.00    +0.040 A 
ENDROOT
BRANCH   1   9
ATOM      7  O   LIG    1       -2.107   3.541   1.149  0.00  0.00    -0.490 OA
ATOM      8  C   LIG    1       -1.126   3.076   0.609  0.00  0.00    +0.480 C 
ATOM      9  N   LIG    1       -1.191   1.867   0.018  0.00  0.00    -0.670 N 
ATOM     10  H   LIG    1       -0.426   1.524  -0.471  0.00  0.00    +0.420 HD
BRANCH   8  11
ATOM     11  C   LIG    1        0.169   3.848   0.605  0.00  0.00    +0.290 C 
ATOM     12  F   LIG    1       -0.010   5.061   1.279  0.00  0.00    -0.180 F 
ENDBRANCH   8  11
ENDBRANCH   1   9
BRANCH   4  13
ATOM     13  N   LIG    1       -5.913  -1.206   0.390  0.00  0.00    +0.030 N 
ATOM     14  O   LIG    1       -6.999  -0.656   0.388  0.00  0.00    -0.160 OA
ATOM     15  O   LIG    1       -5.845  -2.420   0.472  0.00  0.00    -0.160 OA
ENDBRANCH   4  13
TORSDOF 3
