REMARK  Name = ZINC000408715990
REMARK                            x       y       z     vdW  Elec       q    Type
REMARK                         _______ _______ _______ _____ _____    ______ ____
ROOT
ATOM      1  N   LIG    1        0.711  -0.489   1.189  0.00  0.00    -0.220 N 
ATOM      2  N   LIG    1        1.932  -0.222   1.483  0.00  0.00    -0.180 NA
ATOM      3  C   LIG    1        2.281  -0.799   2.606  0.00  0.00    +0.060 A 
ATOM      4  C   LIG    1        1.180  -1.509   3.085  0.00  0.00    +0.100 A 
ATOM      5  C   LIG    1        0.171  -1.292   2.157  0.00  0.00    -0.080 A 
ENDROOT
BRANCH   1   7
ATOM      6  C   LIG    1       -0.019   1.526   0.010  0.00  0.00    +0.070 C 
ATOM      7  C   LIG    1        0.002  -0.004   0.002  0.00  0.00    +0.250 C 
ATOM      8  C   LIG    1        0.718  -0.497  -1.257  0.00  0.00    +0.070 C 
ENDBRANCH   1   7
BRANCH   3   9
ATOM      9  N   LIG    1        3.611  -0.713   3.252  0.00  0.00    +0.060 N 
ATOM     10  O   LIG    1        3.817  -1.296   4.301  0.00  0.00    -0.130 OA
ATOM     11  O   LIG    1        4.498  -0.059   2.734  0.00  0.00    -0.130 OA
ENDBRANCH   3   9
BRANCH   5  12
ATOM     12  C   LIG    1       -1.192  -1.822   2.200  0.00  0.00    +0.540 C 
ATOM     13  O   LIG    1       -1.537  -2.533   3.121  0.00  0.00    -0.420 OA
ENDBRANCH   5  12
TORSDOF 3
