REMARK  Name = ZINC000000029107
REMARK                            x       y       z     vdW  Elec       q    Type
REMARK                         _______ _______ _______ _____ _____    ______ ____
ROOT
ATOM      1  C   LIG    1       -0.018   1.503   0.010  0.00  0.00    +0.140 C 
ATOM      2  C   LIG    1        0.002  -0.004   0.002  0.00  0.00    +0.030 A 
ATOM      3  C   LIG    1        0.005  -0.655  -1.187  0.00  0.00    +0.000 A 
ATOM      4  C   LIG    1        0.025  -2.064  -1.204  0.00  0.00    +0.030 A 
ATOM      5  N   LIG    1        0.034  -3.036  -2.082  0.00  0.00    -0.330 NA
ATOM      6  O   LIG    1        0.051  -4.100  -1.497  0.00  0.00    +0.400 OA
ATOM      7  N   LIG    1        0.057  -4.047  -0.284  0.00  0.00    -0.320 NA
ATOM      8  C   LIG    1        0.041  -2.791   0.090  0.00  0.00    +0.020 A 
ATOM      9  C   LIG    1        0.036  -2.045   1.284  0.00  0.00    +0.160 A 
ATOM     10  C   LIG    1        0.023  -0.690   1.223  0.00  0.00    +0.080 A 
ENDROOT
BRANCH   3  11
ATOM     11  N   LIG    1       -0.011   0.106  -2.456  0.00  0.00    +0.020 N 
ATOM     12  O   LIG    1       -1.073   0.405  -2.973  0.00  0.00    -0.120 OA
ATOM     13  O   LIG    1        1.037   0.434  -2.983  0.00  0.00    -0.120 OA
ENDBRANCH   3  11
TORSDOF 1
