REMARK  Name = ZINC000022113241
REMARK                            x       y       z     vdW  Elec       q    Type
REMARK                         _______ _______ _______ _____ _____    ______ ____
ROOT
ATOM      1  C   LIG    1       -1.306   1.936   0.019  0.00  0.00    +0.000 A 
ATOM      2  C   LIG    1       -2.526   1.364   0.027  0.00  0.00    +0.110 A 
ATOM      3  C   LIG    1       -3.472   2.407   0.035  0.00  0.00    -0.020 A 
ATOM      4  C   LIG    1       -2.769   3.574   0.031  0.00  0.00    +0.100 A 
ATOM      5  O   LIG    1       -1.456   3.271   0.027  0.00  0.00    -0.150 OA
ENDROOT
BRANCH   1   7
ATOM      6  O   LIG    1        0.002  -0.004   0.002  0.00  0.00    -0.130 OA
ATOM      7  N   LIG    1       -0.014   1.214   0.009  0.00  0.00    +0.070 N 
ATOM      8  O   LIG    1        1.032   1.837   0.002  0.00  0.00    -0.130 OA
ENDBRANCH   1   7
BRANCH   4   9
ATOM      9  C   LIG    1       -3.343   4.928   0.037  0.00  0.00    +0.050 C 
ATOM     10  C   LIG    1       -2.542   5.989   0.032  0.00  0.00    +0.040 C 
BRANCH  10  11
ATOM     11  C   LIG    1       -3.131   7.377   0.038  0.00  0.00    +0.230 C 
BRANCH  11  12
ATOM     12  O   LIG    1       -2.433   8.186   0.987  0.00  0.00    -0.570 OA
ATOM     13  H   LIG    1       -2.759   9.095   1.044  0.00  0.00    +0.390 HD
ENDBRANCH  11  12
ENDBRANCH  10  11
ENDBRANCH   4   9
TORSDOF 4
