REMARK  Name = ZINC000038522886
REMARK                            x       y       z     vdW  Elec       q    Type
REMARK                         _______ _______ _______ _____ _____    ______ ____
ROOT
ATOM      1  C   LIG    1       -0.018   1.503   0.010  0.00  0.00    +0.140 C 
ATOM      2  C   LIG    1        0.002  -0.004   0.002  0.00  0.00    +0.000 A 
ATOM      3  C   LIG    1        0.006  -0.706  -1.193  0.00  0.00    +0.040 A 
ATOM      4  C   LIG    1        0.025  -2.093  -1.168  0.00  0.00    +0.330 A 
ATOM      5  N   LIG    1        0.039  -2.747  -0.028  0.00  0.00    -0.420 NA
ATOM      6  CA  LIG    1        0.035  -2.113   1.140  0.00  0.00    +0.090 A 
ATOM      7  C   LIG    1        0.023  -0.719   1.189  0.00  0.00    -0.040 A 
ENDROOT
BRANCH   7   8
ATOM      8  N   LIG    1        0.020  -0.014   2.490  0.00  0.00    +0.010 N 
ATOM      9  O   LIG    1       -1.036   0.267   3.029  0.00  0.00    -0.120 OA
ATOM     10  O   LIG    1        1.073   0.286   3.023  0.00  0.00    -0.120 OA
ENDBRANCH   7   8
BRANCH   6  11
ATOM     11  C   LIG    1        0.052  -2.890   2.394  0.00  0.00    +0.500 C 
ATOM     12  O   LIG    1        0.068  -4.101   2.357  0.00  0.00    -0.390 OA
ENDBRANCH   6  11
TORSDOF 2
