REMARK  Name = ZINC000005186390
REMARK                            x       y       z     vdW  Elec       q    Type
REMARK                         _______ _______ _______ _____ _____    ______ ____
ROOT
ATOM      1  C   LIG    1        0.099  -2.068  -1.232  0.00  0.00    +0.160 A 
ATOM      2  C   LIG    1        0.109  -2.817  -0.063  0.00  0.00    +0.080 A 
ATOM      3  C   LIG    1        0.227  -4.191  -0.125  0.00  0.00    +0.030 A 
ATOM      4  C   LIG    1        0.336  -4.825  -1.356  0.00  0.00    +0.210 A 
ATOM      5  C   LIG    1        0.325  -4.075  -2.525  0.00  0.00    +0.030 A 
ATOM      6  C   LIG    1        0.202  -2.702  -2.464  0.00  0.00    -0.030 A 
ENDROOT
BRANCH   1   9
ATOM      7  C   LIG    1        0.511   1.514  -0.144  0.00  0.00    +0.120 C 
ATOM      8  C   LIG    1        0.554   0.008  -0.159  0.00  0.00    +0.520 C 
ATOM      9  N   LIG    1       -0.021  -0.673  -1.170  0.00  0.00    -0.670 N 
ATOM     10  H   LIG    1       -0.517  -0.198  -1.854  0.00  0.00    +0.420 HD
ATOM     11  O   LIG    1        1.107  -0.592   0.739  0.00  0.00    -0.530 OA
ENDBRANCH   1   9
BRANCH   4  12
ATOM     12  N   LIG    1        0.455  -6.217  -1.418  0.00  0.00    -0.870 N 
ATOM     13  H   LIG    1        0.531  -6.659  -2.278  0.00  0.00    +0.400 HD
ATOM     14  H   LIG    1        0.462  -6.740  -0.602  0.00  0.00    +0.410 HD
ENDBRANCH   4  12
BRANCH   6  15
ATOM     15  N   LIG    1        0.191  -1.903  -3.710  0.00  0.00    +0.040 N 
ATOM     16  O   LIG    1        0.183  -0.686  -3.654  0.00  0.00    -0.180 OA
ATOM     17  O   LIG    1        0.189  -2.463  -4.792  0.00  0.00    -0.150 OA
ENDBRANCH   6  15
TORSDOF 3
