REMARK  Name = ZINC000095098497
REMARK                            x       y       z     vdW  Elec       q    Type
REMARK                         _______ _______ _______ _____ _____    ______ ____
ROOT
ATOM      1  C   LIG    1       -1.498  -1.849   0.006  0.00  0.00    +0.330 A 
ATOM      2  N   LIG    1       -0.535  -2.738  -0.002  0.00  0.00    -0.320 NA
ATOM      3  N   LIG    1       -1.116  -4.013  -0.005  0.00  0.00    -0.330 N 
ATOM      4  C   LIG    1       -2.457  -3.860   0.001  0.00  0.00    +0.380 A 
ATOM      5  C   LIG    1       -2.723  -2.534   0.015  0.00  0.00    -0.200 A 
ENDROOT
BRANCH   3   6
ATOM      6  C   LIG    1       -0.395  -5.288  -0.014  0.00  0.00    +0.270 C 
ATOM      7  C   LIG    1       -1.176  -6.310  -0.842  0.00  0.00    +0.070 C 
ATOM      8  C   LIG    1       -0.248  -5.800   1.421  0.00  0.00    +0.060 C 
ENDBRANCH   3   6
BRANCH   5   9
ATOM      9  N   LIG    1       -4.067  -1.914   0.025  0.00  0.00    +0.070 N 
ATOM     10  O   LIG    1       -4.179  -0.702   0.038  0.00  0.00    -0.150 OA
ATOM     11  O   LIG    1       -5.062  -2.618   0.022  0.00  0.00    -0.180 OA
ENDBRANCH   5   9
BRANCH   1  12
ATOM     12  O   LIG    1       -1.339  -0.499   0.012  0.00  0.00    -0.270 OA
BRANCH  12  14
ATOM     13  C   LIG    1       -0.019   1.526   0.010  0.00  0.00    +0.070 C 
ATOM     14  C   LIG    1        0.002  -0.004   0.002  0.00  0.00    +0.200 C 
ENDBRANCH  12  14
ENDBRANCH   1  12
TORSDOF 4
