REMARK  Name = ZINC000000345504
REMARK                            x       y       z     vdW  Elec       q    Type
REMARK                         _______ _______ _______ _____ _____    ______ ____
ROOT
ATOM      1  C   LIG    1       -0.032  -0.600   2.304  0.00  0.00    +0.110 A 
ATOM      2  C   LIG    1       -1.398  -0.377   2.287  0.00  0.00    -0.020 A 
ATOM      3  C   LIG    1       -2.134  -0.501   3.452  0.00  0.00    +0.080 A 
ATOM      4  C   LIG    1       -1.509  -0.848   4.635  0.00  0.00    -0.030 A 
ATOM      5  C   LIG    1       -0.145  -1.073   4.660  0.00  0.00    +0.050 A 
ATOM      6  C   LIG    1        0.598  -0.955   3.495  0.00  0.00    +0.200 A 
ENDROOT
BRANCH   4   7
ATOM      7  N   LIG    1       -2.302  -0.979   5.878  0.00  0.00    +0.030 N 
ATOM      8  O   LIG    1       -1.753  -1.285   6.921  0.00  0.00    -0.160 OA
ATOM      9  O   LIG    1       -3.504  -0.781   5.857  0.00  0.00    -0.160 OA
ENDBRANCH   4   7
BRANCH   6  10
ATOM     10  N   LIG    1        1.979  -1.183   3.518  0.00  0.00    -0.860 N 
ATOM     11  H   LIG    1        2.498  -1.100   2.703  0.00  0.00    +0.410 HD
ATOM     12  H   LIG    1        2.417  -1.423   4.349  0.00  0.00    +0.410 HD
ENDBRANCH   6  10
BRANCH   1  13
ATOM     13  O   LIG    1        0.693  -0.477   1.160  0.00  0.00    -0.300 OA
BRANCH  13  15
ATOM     14  C   LIG    1       -0.294   1.265  -0.193  0.00  0.00    +0.030 C 
ATOM     15  C   LIG    1       -0.034  -0.235  -0.046  0.00  0.00    +0.160 C 
ATOM     16  C   LIG    1        0.782  -0.731  -1.242  0.00  0.00    +0.070 C 
ENDBRANCH  13  15
ENDBRANCH   1  13
TORSDOF 4
