REMARK  Name = ZINC000204796262
REMARK                            x       y       z     vdW  Elec       q    Type
REMARK                         _______ _______ _______ _____ _____    ______ ____
ROOT
ATOM      1  C   LIG    1       -1.306   1.936   0.019  0.00  0.00    -0.080 A 
ATOM      2  C   LIG    1       -1.919   2.276  -1.176  0.00  0.00    +0.190 A 
ATOM      3  C   LIG    1       -3.127   2.951  -1.166  0.00  0.00    +0.000 A 
ATOM      4  C   LIG    1       -3.721   3.287   0.038  0.00  0.00    +0.180 A 
ATOM      5  C   LIG    1       -3.107   2.947   1.232  0.00  0.00    +0.050 A 
ATOM      6  F   LIG    1       -4.900   3.946   0.049  0.00  0.00    -0.110 F 
ATOM      7  F   LIG    1       -1.337   1.947  -2.350  0.00  0.00    -0.110 F 
ATOM      8  C   LIG    1       -1.903   2.267   1.221  0.00  0.00    +0.010 A 
ENDROOT
BRANCH   1  10
ATOM      9  O   LIG    1        0.002  -0.004   0.002  0.00  0.00    -0.120 OA
ATOM     10  N   LIG    1       -0.014   1.214   0.009  0.00  0.00    +0.010 N 
ATOM     11  O   LIG    1        1.032   1.837   0.002  0.00  0.00    -0.120 OA
ENDBRANCH   1  10
BRANCH   8  12
ATOM     12  C   LIG    1       -1.236   1.897   2.520  0.00  0.00    +0.260 C 
BRANCH  12  13
ATOM     13  O   LIG    1       -2.035   2.354   3.613  0.00  0.00    -0.560 OA
ATOM     14  H   LIG    1       -1.665   2.149   4.483  0.00  0.00    +0.400 HD
ENDBRANCH  12  13
ENDBRANCH   8  12
TORSDOF 3
