REMARK  Name = ZINC000096029578
REMARK                            x       y       z     vdW  Elec       q    Type
REMARK                         _______ _______ _______ _____ _____    ______ ____
ROOT
ATOM      1  N   LIG    1        0.738  -1.962  -1.265  0.00  0.00    -0.340 N 
ATOM      2  N   LIG    1        1.732  -2.776  -0.707  0.00  0.00    -0.230 NA
ATOM      3  C   LIG    1        1.402  -4.025  -0.913  0.00  0.00    +0.270 A 
ATOM      4  C   LIG    1        0.188  -4.047  -1.607  0.00  0.00    -0.160 A 
ATOM      5  C   LIG    1       -0.559  -5.279  -2.050  0.00  0.00    +0.150 C 
ATOM      6  C   LIG    1       -0.201  -2.766  -1.806  0.00  0.00    +0.130 A 
ENDROOT
BRANCH   6   7
ATOM      7  N   LIG    1       -1.432  -2.325  -2.500  0.00  0.00    +0.030 N 
ATOM      8  O   LIG    1       -2.461  -2.162  -1.870  0.00  0.00    -0.110 OA
ATOM      9  O   LIG    1       -1.415  -2.127  -3.702  0.00  0.00    -0.110 OA
ENDBRANCH   6   7
BRANCH   1  10
ATOM     10  C   LIG    1        0.718  -0.497  -1.257  0.00  0.00    +0.330 C 
BRANCH  10  12
ATOM     11  C   LIG    1       -0.019   1.526   0.010  0.00  0.00    +0.040 C 
ATOM     12  C   LIG    1        0.002  -0.004   0.002  0.00  0.00    +0.010 C 
ENDBRANCH  10  12
ENDBRANCH   1  10
TORSDOF 3
