REMARK  Name = ZINC000258830394
REMARK                            x       y       z     vdW  Elec       q    Type
REMARK                         _______ _______ _______ _____ _____    ______ ____
ROOT
ATOM      1  C   LIG    1        0.002  -0.004   0.002  0.00  0.00    +0.190 A 
ATOM      2  C   LIG    1       -1.188  -0.715   0.004  0.00  0.00    +0.070 A 
ATOM      3  C   LIG    1       -1.168  -2.098  -0.004  0.00  0.00    -0.040 A 
ATOM      4  C   LIG    1        0.039  -2.775  -0.014  0.00  0.00    +0.130 A 
ATOM      5  C   LIG    1        1.231  -2.070  -0.016  0.00  0.00    +0.040 A 
ATOM      6  F   LIG    1        0.054  -4.126  -0.022  0.00  0.00    -0.100 F 
ATOM      7  C   LIG    1        1.217  -0.686  -0.013  0.00  0.00    +0.110 A 
ENDROOT
BRANCH   1   8
ATOM      8  N   LIG    1       -0.017   1.397   0.010  0.00  0.00    -0.860 N 
ATOM      9  H   LIG    1       -0.864   1.870   0.016  0.00  0.00    +0.410 HD
ATOM     10  H   LIG    1        0.816   1.893   0.004  0.00  0.00    +0.410 HD
ENDBRANCH   1   8
BRANCH   3  11
ATOM     11  N   LIG    1       -2.440  -2.855  -0.002  0.00  0.00    +0.030 N 
ATOM     12  O   LIG    1       -2.424  -4.073  -0.008  0.00  0.00    -0.140 OA
ATOM     13  O   LIG    1       -3.503  -2.260   0.007  0.00  0.00    -0.150 OA
ENDBRANCH   3  11
BRANCH   7  14
ATOM     14  O   LIG    1        2.387   0.008  -0.015  0.00  0.00    -0.480 OA
ATOM     15  H   LIG    1        2.723   0.210  -0.899  0.00  0.00    +0.400 HD
ENDBRANCH   7  14
TORSDOF 3
