REMARK  Name = ZINC000039340991
REMARK                            x       y       z     vdW  Elec       q    Type
REMARK                         _______ _______ _______ _____ _____    ______ ____
ROOT
ATOM      1  C   LIG    1        1.218   1.920   0.001  0.00  0.00    +0.140 A 
ATOM      2  C   LIG    1        2.352   1.121  -0.020  0.00  0.00    -0.030 A 
ATOM      3  C   LIG    1        3.605   1.703  -0.029  0.00  0.00    +0.160 A 
ATOM      4  C   LIG    1        3.729   3.080  -0.017  0.00  0.00    -0.060 A 
ATOM      5  C   LIG    1        2.601   3.878   0.004  0.00  0.00    +0.160 A 
ATOM      6  C   LIG    1        1.345   3.302   0.007  0.00  0.00    +0.050 A 
ENDROOT
BRANCH   4   7
ATOM      7  N   LIG    1        5.073   3.700  -0.025  0.00  0.00    +0.030 N 
ATOM      8  O   LIG    1        5.184   4.913  -0.015  0.00  0.00    -0.150 OA
ATOM      9  O   LIG    1        6.068   2.998  -0.044  0.00  0.00    -0.150 OA
ENDBRANCH   4   7
BRANCH   1  10
ATOM     10  O   LIG    1       -0.016   1.351   0.009  0.00  0.00    -0.150 OA
BRANCH  10  12
ATOM     11  N   LIG    1        0.018  -1.140  -0.004  0.00  0.00    -0.340 NA
ATOM     12  C   LIG    1        0.002  -0.004   0.002  0.00  0.00    +0.350 C 
ENDBRANCH  10  12
ENDBRANCH   1  10
TORSDOF 3
