REMARK  Name = ZINC000001582750
REMARK                            x       y       z     vdW  Elec       q    Type
REMARK                         _______ _______ _______ _____ _____    ______ ____
ROOT
ATOM      1  C   LIG    1       -1.306   1.936   0.019  0.00  0.00    +0.030 A 
ATOM      2  N   LIG    1       -1.434   3.220   0.021  0.00  0.00    -0.400 NA
ATOM      3  C   LIG    1       -2.661   3.702   0.030  0.00  0.00    +0.250 A 
ATOM      4  C   LIG    1       -3.621   2.772   0.036  0.00  0.00    -0.010 A 
ATOM      5  S   LIG    1       -2.845   1.191   0.022  0.00  0.00    +0.320 S 
ENDROOT
BRANCH   1   7
ATOM      6  O   LIG    1        0.002  -0.004   0.002  0.00  0.00    -0.140 OA
ATOM      7  N   LIG    1       -0.014   1.214   0.009  0.00  0.00    +0.050 N 
ATOM      8  O   LIG    1        1.032   1.837   0.002  0.00  0.00    -0.100 OA
ENDBRANCH   1   7
TORSDOF 1
