REMARK  Name = ZINC000095098525
REMARK                            x       y       z     vdW  Elec       q    Type
REMARK                         _______ _______ _______ _____ _____    ______ ____
ROOT
ATOM      1  C   LIG    1        1.569  -3.873  -2.701  0.00  0.00    +0.400 A 
ATOM      2  N   LIG    1        1.133  -4.835  -1.923  0.00  0.00    -0.340 NA
ATOM      3  N   LIG    1        1.478  -6.060  -2.507  0.00  0.00    -0.340 N 
ATOM      4  C   LIG    1        2.134  -5.804  -3.659  0.00  0.00    +0.380 A 
ATOM      5  C   LIG    1        1.179  -7.388  -1.964  0.00  0.00    +0.390 C 
ATOM      6  C   LIG    1        2.201  -4.462  -3.808  0.00  0.00    -0.230 A 
ENDROOT
BRANCH   6   7
ATOM      7  N   LIG    1        2.835  -3.741  -4.935  0.00  0.00    +0.080 N 
ATOM      8  O   LIG    1        2.831  -2.523  -4.958  0.00  0.00    -0.190 OA
ATOM      9  O   LIG    1        3.361  -4.366  -5.838  0.00  0.00    -0.170 OA
ENDBRANCH   6   7
BRANCH   1  10
ATOM     10  N   LIG    1        1.425  -2.500  -2.470  0.00  0.00    -0.700 N 
ATOM     11  H   LIG    1        1.779  -1.861  -3.109  0.00  0.00    +0.420 HD
BRANCH  10  12
ATOM     12  C   LIG    1        0.739  -2.027  -1.265  0.00  0.00    +0.270 C 
BRANCH  12  13
ATOM     13  C   LIG    1        0.718  -0.497  -1.257  0.00  0.00    +0.010 C 
BRANCH  13  15
ATOM     14  C   LIG    1       -0.019   1.526   0.010  0.00  0.00    +0.030 C 
ATOM     15  C   LIG    1        0.002  -0.004   0.002  0.00  0.00    +0.000 C 
ENDBRANCH  13  15
ENDBRANCH  12  13
ENDBRANCH  10  12
ENDBRANCH   1  10
TORSDOF 5
