REMARK  Name = ZINC000096527802
REMARK                            x       y       z     vdW  Elec       q    Type
REMARK                         _______ _______ _______ _____ _____    ______ ____
ROOT
ATOM      1  C   LIG    1        1.444  -2.513  -2.505  0.00  0.00    +0.160 A 
ATOM      2  N   LIG    1        0.880  -2.765  -3.659  0.00  0.00    -0.270 NA
ATOM      3  N   LIG    1        1.871  -3.194  -4.551  0.00  0.00    -0.390 N 
ATOM      4  C   LIG    1        3.053  -3.192  -3.893  0.00  0.00    +0.430 A 
ATOM      5  C   LIG    1        1.664  -3.577  -5.949  0.00  0.00    +0.370 C 
ATOM      6  C   LIG    1        2.814  -2.767  -2.621  0.00  0.00    -0.260 A 
ENDROOT
BRANCH   4   7
ATOM      7  N   LIG    1        4.289  -3.553  -4.421  0.00  0.00    -0.840 N 
ATOM      8  H   LIG    1        5.083  -3.518  -3.865  0.00  0.00    +0.420 HD
ATOM      9  H   LIG    1        4.356  -3.840  -5.345  0.00  0.00    +0.410 HD
ENDBRANCH   4   7
BRANCH   6  10
ATOM     10  N   LIG    1        3.824  -2.610  -1.550  0.00  0.00    +0.060 N 
ATOM     11  O   LIG    1        4.073  -3.543  -0.807  0.00  0.00    -0.140 OA
ATOM     12  O   LIG    1        4.405  -1.549  -1.412  0.00  0.00    -0.140 OA
ENDBRANCH   6  10
BRANCH   1  13
ATOM     13  C   LIG    1        0.739  -2.027  -1.265  0.00  0.00    +0.140 C 
BRANCH  13  14
ATOM     14  C   LIG    1        0.718  -0.497  -1.257  0.00  0.00    +0.030 C 
BRANCH  14  16
ATOM     15  C   LIG    1       -0.019   1.526   0.010  0.00  0.00    +0.020 C 
ATOM     16  C   LIG    1        0.002  -0.004   0.002  0.00  0.00    +0.000 C 
ENDBRANCH  14  16
ENDBRANCH  13  14
ENDBRANCH   1  13
TORSDOF 5
