REMARK  Name = ZINC000004353372
REMARK                            x       y       z     vdW  Elec       q    Type
REMARK                         _______ _______ _______ _____ _____    ______ ____
ROOT
ATOM      1  C   LIG    1       -1.306   1.936   0.019  0.00  0.00    +0.130 A 
ATOM      2  N   LIG    1       -1.454   3.237   0.021  0.00  0.00    -0.190 NA
ATOM      3  N   LIG    1       -2.824   3.529   0.030  0.00  0.00    -0.430 N 
ATOM      4  H   LIG    1       -3.220   4.414   0.034  0.00  0.00    +0.460 HD
ATOM      5  C   LIG    1       -3.500   2.345   0.034  0.00  0.00    +0.160 A 
ATOM      6  C   LIG    1       -2.570   1.345   0.021  0.00  0.00    -0.020 A 
ENDROOT
BRANCH   5   7
ATOM      7  C   LIG    1       -4.970   2.176   0.043  0.00  0.00    -0.100 A 
ATOM      8  C   LIG    1       -5.815   3.291   0.044  0.00  0.00    +0.080 A 
ATOM      9  C   LIG    1       -7.183   3.078   0.053  0.00  0.00    -0.010 A 
ATOM     10  C   LIG    1       -7.666   1.782   0.061  0.00  0.00    +0.290 A 
ATOM     11  N   LIG    1       -6.845   0.749   0.060  0.00  0.00    -0.470 NA
ATOM     12  C   LIG    1       -5.537   0.901   0.045  0.00  0.00    +0.310 A 
ENDBRANCH   5   7
BRANCH   1  14
ATOM     13  O   LIG    1        0.002  -0.004   0.002  0.00  0.00    -0.120 OA
ATOM     14  N   LIG    1       -0.014   1.214   0.009  0.00  0.00    +0.050 N 
ATOM     15  O   LIG    1        1.032   1.837   0.002  0.00  0.00    -0.120 OA
ENDBRANCH   1  14
TORSDOF 2
