REMARK  Name = ZINC000012395727
REMARK                            x       y       z     vdW  Elec       q    Type
REMARK                         _______ _______ _______ _____ _____    ______ ____
ROOT
ATOM      1  N   LIG    1       -2.787  -2.571   0.015  0.00  0.00    -0.330 N 
ATOM      2  N   LIG    1       -3.551  -2.856   1.153  0.00  0.00    -0.220 NA
ATOM      3  C   LIG    1       -4.723  -3.287   0.762  0.00  0.00    +0.080 A 
ATOM      4  C   LIG    1       -4.742  -3.290  -0.637  0.00  0.00    +0.020 A 
ATOM      5  C   LIG    1       -5.856  -3.708   1.662  0.00  0.00    +0.180 C 
ATOM      6  C   LIG    1       -3.542  -2.840  -1.071  0.00  0.00    +0.120 A 
ENDROOT
BRANCH   6   7
ATOM      7  N   LIG    1       -3.129  -2.679  -2.483  0.00  0.00    +0.050 N 
ATOM      8  O   LIG    1       -2.016  -2.262  -2.748  0.00  0.00    -0.150 OA
ATOM      9  O   LIG    1       -3.901  -2.965  -3.380  0.00  0.00    -0.120 OA
ENDBRANCH   6   7
BRANCH   1  10
ATOM     10  C   LIG    1       -1.413  -2.063   0.004  0.00  0.00    +0.340 C 
BRANCH  10  11
ATOM     11  C   LIG    1       -1.433  -0.534   0.013  0.00  0.00    +0.010 C 
BRANCH  11  13
ATOM     12  C   LIG    1       -0.019   1.526   0.010  0.00  0.00    +0.020 C 
ATOM     13  C   LIG    1        0.002  -0.004   0.002  0.00  0.00    +0.020 C 
ENDBRANCH  11  13
ENDBRANCH  10  11
ENDBRANCH   1  10
TORSDOF 4
