REMARK  Name = ZINC000044469642
REMARK                            x       y       z     vdW  Elec       q    Type
REMARK                         _______ _______ _______ _____ _____    ______ ____
ROOT
ATOM      1  C   LIG    1        1.336  -2.509  -2.568  0.00  0.00    -0.030 A 
ATOM      2  C   LIG    1        0.638  -2.639  -3.755  0.00  0.00    +0.030 A 
ATOM      3  C   LIG    1        1.285  -3.085  -4.892  0.00  0.00    +0.100 A 
ATOM      4  C   LIG    1        2.630  -3.400  -4.843  0.00  0.00    -0.050 A 
ATOM      5  C   LIG    1        3.328  -3.269  -3.657  0.00  0.00    +0.100 A 
ATOM      6  C   LIG    1        2.682  -2.820  -2.521  0.00  0.00    +0.030 A 
ENDROOT
BRANCH   4   7
ATOM      7  N   LIG    1        3.323  -3.878  -6.061  0.00  0.00    +0.030 N 
ATOM      8  O   LIG    1        4.508  -4.157  -6.018  0.00  0.00    -0.160 OA
ATOM      9  O   LIG    1        2.708  -3.993  -7.106  0.00  0.00    -0.160 OA
ENDBRANCH   4   7
BRANCH   1  10
ATOM     10  C   LIG    1        0.630  -2.023  -1.329  0.00  0.00    +0.080 C 
BRANCH  10  11
ATOM     11  C   LIG    1        0.718  -0.497  -1.257  0.00  0.00    +0.000 C 
BRANCH  11  13
ATOM     12  C   LIG    1       -0.019   1.526   0.010  0.00  0.00    +0.010 C 
ATOM     13  C   LIG    1        0.002  -0.004   0.002  0.00  0.00    +0.200 C 
BRANCH  13  14
ATOM     14  O   LIG    1        0.693  -0.477   1.160  0.00  0.00    -0.560 OA
ATOM     15  H   LIG    1        1.611  -0.180   1.219  0.00  0.00    +0.380 HD
ENDBRANCH  13  14
ENDBRANCH  11  13
ENDBRANCH  10  11
ENDBRANCH   1  10
TORSDOF 5
