REMARK  Name = ZINC000008699795
REMARK                            x       y       z     vdW  Elec       q    Type
REMARK                         _______ _______ _______ _____ _____    ______ ____
ROOT
ATOM      1  C   LIG    1       -1.306   1.936   0.019  0.00  0.00    -0.040 A 
ATOM      2  C   LIG    1       -2.494   1.228   0.026  0.00  0.00    +0.080 A 
ATOM      3  C   LIG    1       -3.704   1.897   0.035  0.00  0.00    +0.050 A 
ATOM      4  C   LIG    1       -3.732   3.279   0.035  0.00  0.00    +0.030 A 
ATOM      5  C   LIG    1       -2.545   3.994   0.027  0.00  0.00    +0.140 A 
ATOM      6  N   LIG    1       -2.568   5.397   0.023  0.00  0.00    -0.750 N 
ATOM      7  H   LIG    1       -3.383   5.884  -0.175  0.00  0.00    +0.410 HD
ATOM      8  C   LIG    1       -1.312   6.105   0.320  0.00  0.00    +0.260 C 
ATOM      9  C   LIG    1       -0.178   5.372  -0.411  0.00  0.00    +0.240 C 
ATOM     10  O   LIG    1       -0.152   4.011   0.027  0.00  0.00    -0.280 OA
ATOM     11  C   LIG    1       -1.324   3.323   0.026  0.00  0.00    +0.120 A 
ENDROOT
BRANCH   1  13
ATOM     12  O   LIG    1        0.002  -0.004   0.002  0.00  0.00    -0.170 OA
ATOM     13  N   LIG    1       -0.014   1.214   0.009  0.00  0.00    +0.030 N 
ATOM     14  O   LIG    1        1.032   1.837   0.002  0.00  0.00    -0.140 OA
ENDBRANCH   1  13
TORSDOF 1
