REMARK  Name = ZINC000095098532
REMARK                            x       y       z     vdW  Elec       q    Type
REMARK                         _______ _______ _______ _____ _____    ______ ____
ROOT
ATOM      1  C   LIG    1        0.026  -0.639   2.401  0.00  0.00    +0.400 A 
ATOM      2  N   LIG    1       -1.246  -0.386   2.604  0.00  0.00    -0.340 NA
ATOM      3  N   LIG    1       -1.538  -0.664   3.945  0.00  0.00    -0.340 N 
ATOM      4  C   LIG    1       -0.404  -1.091   4.540  0.00  0.00    +0.380 A 
ATOM      5  C   LIG    1       -2.845  -0.518   4.590  0.00  0.00    +0.390 C 
ATOM      6  C   LIG    1        0.578  -1.092   3.610  0.00  0.00    -0.230 A 
ENDROOT
BRANCH   6   7
ATOM      7  N   LIG    1        1.986  -1.490   3.830  0.00  0.00    +0.080 N 
ATOM      8  O   LIG    1        2.782  -1.448   2.908  0.00  0.00    -0.190 OA
ATOM      9  O   LIG    1        2.350  -1.860   4.932  0.00  0.00    -0.180 OA
ENDBRANCH   6   7
BRANCH   1  10
ATOM     10  N   LIG    1        0.711  -0.489   1.189  0.00  0.00    -0.700 N 
ATOM     11  H   LIG    1        1.654  -0.707   1.135  0.00  0.00    +0.420 HD
BRANCH  10  13
ATOM     12  C   LIG    1       -0.019   1.526   0.010  0.00  0.00    +0.020 C 
ATOM     13  C   LIG    1        0.002  -0.004   0.002  0.00  0.00    +0.230 C 
ATOM     14  C   LIG    1        0.718  -0.497  -1.257  0.00  0.00    +0.050 C 
ENDBRANCH  10  13
ENDBRANCH   1  10
TORSDOF 3
