REMARK  Name = ZINC000087418660
REMARK                            x       y       z     vdW  Elec       q    Type
REMARK                         _______ _______ _______ _____ _____    ______ ____
ROOT
ATOM      1  C   LIG    1        0.707  -0.490  -1.238  0.00  0.00    +0.200 A 
ATOM      2  C   LIG    1        0.910  -1.782  -1.584  0.00  0.00    -0.220 A 
ATOM      3  C   LIG    1        1.602  -1.797  -2.806  0.00  0.00    +0.390 A 
ATOM      4  N   LIG    1        1.804  -0.553  -3.174  0.00  0.00    -0.320 NA
ATOM      5  N   LIG    1        1.244   0.286  -2.203  0.00  0.00    -0.440 N 
ATOM      6  H   LIG    1        1.246   1.256  -2.218  0.00  0.00    +0.460 HD
ENDROOT
BRANCH   1   8
ATOM      7  C   LIG    1       -0.019   1.526   0.010  0.00  0.00    +0.040 C 
ATOM      8  C   LIG    1        0.002  -0.004   0.002  0.00  0.00    -0.020 C 
ATOM      9  C   LIG    1       -1.433  -0.534   0.013  0.00  0.00    +0.070 C 
ATOM     10  C   LIG    1        0.742  -0.511   1.242  0.00  0.00    +0.070 C 
ENDBRANCH   1   8
BRANCH   3  11
ATOM     11  N   LIG    1        2.005  -2.938  -3.509  0.00  0.00    -0.830 N 
ATOM     12  H   LIG    1        2.481  -2.847  -4.349  0.00  0.00    +0.420 HD
ATOM     13  H   LIG    1        1.810  -3.820  -3.155  0.00  0.00    +0.410 HD
ENDBRANCH   3  11
BRANCH   2  14
ATOM     14  N   LIG    1        0.479  -2.969  -0.812  0.00  0.00    +0.050 N 
ATOM     15  O   LIG    1        1.220  -3.452   0.025  0.00  0.00    -0.140 OA
ATOM     16  O   LIG    1       -0.616  -3.462  -1.014  0.00  0.00    -0.140 OA
ENDBRANCH   2  14
TORSDOF 3
