REMARK  Name = ZINC000039215324
REMARK                            x       y       z     vdW  Elec       q    Type
REMARK                         _______ _______ _______ _____ _____    ______ ____
ROOT
ATOM      1  C   LIG    1       -0.018   1.465   0.010  0.00  0.00    +0.220 C 
ATOM      2  N   LIG    1        0.002  -0.004   0.002  0.00  0.00    -0.470 N 
ATOM      3  C   LIG    1        0.689  -0.518  -1.203  0.00  0.00    +0.220 C 
ATOM      4  C   LIG    1        1.308  -1.843  -0.700  0.00  0.00    +0.110 C 
ATOM      5  C   LIG    1        1.458  -1.600   0.789  0.00  0.00    -0.090 A 
ATOM      6  C   LIG    1        2.193  -2.256   1.753  0.00  0.00    +0.070 A 
ATOM      7  C   LIG    1        2.159  -1.822   3.066  0.00  0.00    +0.080 A 
ATOM      8  C   LIG    1        1.387  -0.728   3.410  0.00  0.00    -0.020 A 
ATOM      9  C   LIG    1        0.647  -0.070   2.449  0.00  0.00    +0.070 A 
ATOM     10  C   LIG    1        0.673  -0.503   1.125  0.00  0.00    +0.100 A 
ENDROOT
BRANCH   8  11
ATOM     11  N   LIG    1        1.353  -0.262   4.814  0.00  0.00    +0.030 N 
ATOM     12  O   LIG    1        0.673   0.701   5.120  0.00  0.00    -0.160 OA
ATOM     13  O   LIG    1        2.005  -0.841   5.664  0.00  0.00    -0.150 OA
ENDBRANCH   8  11
TORSDOF 1
