REMARK  Name = ZINC000002519371
REMARK                            x       y       z     vdW  Elec       q    Type
REMARK                         _______ _______ _______ _____ _____    ______ ____
ROOT
ATOM      1  C   LIG    1        0.606  -0.607  -1.056  0.00  0.00    +0.140 A 
ATOM      2  C   LIG    1        1.173   0.161  -2.062  0.00  0.00    -0.080 A 
ATOM      3  C   LIG    1        1.786  -0.455  -3.136  0.00  0.00    +0.060 A 
ATOM      4  C   LIG    1        1.835  -1.835  -3.209  0.00  0.00    -0.160 A 
ATOM      5  C   LIG    1        1.271  -2.602  -2.206  0.00  0.00    +0.060 A 
ATOM      6  C   LIG    1        0.661  -1.992  -1.128  0.00  0.00    +0.000 A 
ENDROOT
BRANCH   1   8
ATOM      7  C   LIG    1       -0.017   1.425   0.010  0.00  0.00    +0.250 C 
ATOM      8  O   LIG    1        0.002  -0.004   0.002  0.00  0.00    -0.310 OA
ENDBRANCH   1   8
BRANCH   4   9
ATOM      9  C   LIG    1        2.505  -2.503  -4.381  0.00  0.00    +0.130 C 
BRANCH   9  10
ATOM     10  C   LIG    1        3.986  -2.723  -4.066  0.00  0.00    +0.150 C 
ATOM     11  C   LIG    1        4.692  -3.287  -5.301  0.00  0.00    +0.110 C 
BRANCH  10  12
ATOM     12  N   LIG    1        4.114  -3.669  -2.956  0.00  0.00    -0.010 N 
ATOM     13  O   LIG    1        4.668  -3.329  -1.926  0.00  0.00    -0.160 OA
ATOM     14  O   LIG    1        3.665  -4.797  -3.062  0.00  0.00    -0.160 OA
ENDBRANCH  10  12
ENDBRANCH   9  10
ENDBRANCH   4   9
TORSDOF 4
