REMARK  Name = ZINC000072209491
REMARK                            x       y       z     vdW  Elec       q    Type
REMARK                         _______ _______ _______ _____ _____    ______ ____
ROOT
ATOM      1  N   LIG    1        0.688  -0.476  -1.203  0.00  0.00    -0.330 N 
ATOM      2  C   LIG    1        1.740  -1.321  -1.239  0.00  0.00    +0.260 A 
ATOM      3  C   LIG    1        2.076  -1.506  -2.536  0.00  0.00    -0.180 A 
ATOM      4  C   LIG    1        1.200  -0.749  -3.321  0.00  0.00    +0.120 A 
ATOM      5  C   LIG    1        3.197  -2.376  -3.046  0.00  0.00    +0.150 C 
ATOM      6  N   LIG    1        0.363  -0.136  -2.523  0.00  0.00    -0.210 NA
ENDROOT
BRANCH   4   7
ATOM      7  N   LIG    1        1.213  -0.662  -4.798  0.00  0.00    +0.060 N 
ATOM      8  O   LIG    1        0.396   0.034  -5.374  0.00  0.00    -0.130 OA
ATOM      9  O   LIG    1        2.040  -1.286  -5.438  0.00  0.00    -0.130 OA
ENDBRANCH   4   7
BRANCH   1  11
ATOM     10  C   LIG    1       -0.019   1.526   0.010  0.00  0.00    +0.050 C 
ATOM     11  C   LIG    1        0.002  -0.004   0.002  0.00  0.00    +0.330 C 
ENDBRANCH   1  11
TORSDOF 2
