REMARK  Name = ZINC000045238454
REMARK                            x       y       z     vdW  Elec       q    Type
REMARK                         _______ _______ _______ _____ _____    ______ ____
ROOT
ATOM      1  C   LIG    1       -1.306   1.936   0.019  0.00  0.00    -0.020 A 
ATOM      2  C   LIG    1       -1.927   2.280  -1.185  0.00  0.00    +0.110 A 
ATOM      3  N   LIG    1       -1.603   2.096  -2.491  0.00  0.00    -0.500 NA
ATOM      4  C   LIG    1       -2.527   2.611  -3.248  0.00  0.00    +0.530 A 
ATOM      5  N   LIG    1       -3.507   3.161  -2.482  0.00  0.00    -0.590 N 
ATOM      6  H   LIG    1       -4.306   3.607  -2.803  0.00  0.00    +0.440 HD
ATOM      7  C   LIG    1       -3.153   2.966  -1.160  0.00  0.00    +0.040 A 
ATOM      8  C   LIG    1       -3.738   3.297   0.054  0.00  0.00    +0.130 A 
ATOM      9  C   LIG    1       -3.114   2.951   1.233  0.00  0.00    +0.040 A 
ATOM     10  C   LIG    1       -1.904   2.268   1.216  0.00  0.00    +0.160 A 
ATOM     11  F   LIG    1       -1.304   1.935   2.380  0.00  0.00    -0.110 F 
ENDROOT
BRANCH   1  13
ATOM     12  O   LIG    1        0.002  -0.004   0.002  0.00  0.00    -0.130 OA
ATOM     13  N   LIG    1       -0.014   1.214   0.009  0.00  0.00    +0.020 N 
ATOM     14  O   LIG    1        1.032   1.837   0.002  0.00  0.00    -0.130 OA
ENDBRANCH   1  13
TORSDOF 1
