REMARK  Name = ZINC000100041714
REMARK                            x       y       z     vdW  Elec       q    Type
REMARK                         _______ _______ _______ _____ _____    ______ ____
ROOT
ATOM      1  C   LIG    1       -2.385   1.392  -0.112  0.00  0.00    +0.070 A 
ATOM      2  C   LIG    1       -1.201   2.134  -0.227  0.00  0.00    +0.000 A 
ATOM      3  C   LIG    1       -1.282   3.498  -0.399  0.00  0.00    +0.310 A 
ATOM      4  N   LIG    1       -2.452   4.107  -0.454  0.00  0.00    -0.480 NA
ATOM      5  C   LIG    1       -3.591   3.447  -0.350  0.00  0.00    +0.360 A 
ATOM      6  C   LIG    1       -3.605   2.080  -0.183  0.00  0.00    -0.110 A 
ENDROOT
BRANCH   6   7
ATOM      7  N   LIG    1       -4.887   1.350  -0.067  0.00  0.00    +0.040 N 
ATOM      8  O   LIG    1       -4.889   0.161   0.195  0.00  0.00    -0.160 OA
ATOM      9  O   LIG    1       -5.940   1.938  -0.234  0.00  0.00    -0.150 OA
ENDBRANCH   6   7
BRANCH   1  11
ATOM     10  C   LIG    1       -1.213  -0.668   0.451  0.00  0.00    +0.280 C 
ATOM     11  C   LIG    1       -2.349  -0.069   0.072  0.00  0.00    -0.010 C 
BRANCH  10  13
ATOM     12  C   LIG    1        0.367   0.796   1.648  0.00  0.00    +0.260 C 
ATOM     13  N   LIG    1       -0.029   0.040   0.457  0.00  0.00    -0.700 N 
ATOM     14  C   LIG    1        0.833   0.035  -0.727  0.00  0.00    +0.280 C 
ENDBRANCH  10  13
ENDBRANCH   1  11
TORSDOF 3
