REMARK  Name = ZINC000070461182
REMARK                            x       y       z     vdW  Elec       q    Type
REMARK                         _______ _______ _______ _____ _____    ______ ____
ROOT
ATOM      1  C   LIG    1        0.720  -1.816  -1.344  0.00  0.00    +0.080 A 
ATOM      2  C   LIG    1        0.435  -2.674  -0.292  0.00  0.00    +0.040 A 
ATOM      3  C   LIG    1        0.599  -4.037  -0.449  0.00  0.00    +0.010 A 
ATOM      4  C   LIG    1        1.049  -4.547  -1.660  0.00  0.00    +0.250 A 
ATOM      5  C   LIG    1        1.334  -3.686  -2.712  0.00  0.00    -0.080 A 
ATOM      6  C   LIG    1        1.165  -2.325  -2.555  0.00  0.00    +0.110 A 
ENDROOT
BRANCH   5   7
ATOM      7  N   LIG    1        1.814  -4.229  -4.003  0.00  0.00    +0.040 N 
ATOM      8  O   LIG    1        1.367  -5.280  -4.426  0.00  0.00    -0.180 OA
ATOM      9  O   LIG    1        2.656  -3.624  -4.642  0.00  0.00    -0.140 OA
ENDBRANCH   5   7
BRANCH   4  10
ATOM     10  N   LIG    1        1.215  -5.927  -1.820  0.00  0.00    -0.580 N 
ATOM     11  H   LIG    1        1.602  -6.278  -2.637  0.00  0.00    +0.410 HD
BRANCH  10  12
ATOM     12  N   LIG    1        0.832  -6.781  -0.825  0.00  0.00    -0.600 NA
ATOM     13  H   LIG    1        1.286  -6.549   0.046  0.00  0.00    +0.340 HD
ATOM     14  H   LIG    1        1.012  -7.740  -1.082  0.00  0.00    +0.370 HD
ENDBRANCH  10  12
ENDBRANCH   4  10
BRANCH   1  15
ATOM     15  O   LIG    1        0.559  -0.474  -1.188  0.00  0.00    -0.310 OA
BRANCH  15  17
ATOM     16  C   LIG    1       -0.021   1.506   0.070  0.00  0.00    +0.070 C 
ATOM     17  C   LIG    1        0.099  -0.019   0.086  0.00  0.00    +0.170 C 
ENDBRANCH  15  17
ENDBRANCH   1  15
TORSDOF 5
