REMARK  Name = ZINC000000055277
REMARK                            x       y       z     vdW  Elec       q    Type
REMARK                         _______ _______ _______ _____ _____    ______ ____
ROOT
ATOM      1  C   LIG    1       -2.231   1.282   1.040  0.00  0.00    +0.310 C 
ENDROOT
BRANCH   1   2
ATOM      2  C   LIG    1       -3.546   2.018   1.050  0.00  0.00    -0.240 A 
ATOM      3  C   LIG    1       -3.869   3.004   1.888  0.00  0.00    +0.040 A 
ATOM      4  C   LIG    1       -5.137   3.531   1.708  0.00  0.00    +0.010 A 
ATOM      5  C   LIG    1       -5.843   2.973   0.724  0.00  0.00    -0.020 A 
ATOM      6  S   LIG    1       -4.887   1.713  -0.047  0.00  0.00    +0.120 S 
ENDBRANCH   1   2
BRANCH   1   7
ATOM      7  O   LIG    1       -2.453  -0.084   0.684  0.00  0.00    -0.520 OA
ATOM      8  H   LIG    1       -2.853  -0.204  -0.187  0.00  0.00    +0.380 HD
ENDBRANCH   1   7
BRANCH   1   9
ATOM      9  C   LIG    1       -1.293   1.929   0.019  0.00  0.00    +0.230 C 
BRANCH   9  11
ATOM     10  O   LIG    1        0.002  -0.004   0.002  0.00  0.00    -0.130 OA
ATOM     11  N   LIG    1       -0.014   1.214   0.009  0.00  0.00    -0.020 N 
ATOM     12  O   LIG    1        1.032   1.837   0.002  0.00  0.00    -0.170 OA
ENDBRANCH   9  11
ENDBRANCH   1   9
TORSDOF 4
