REMARK  Name = ZINC000067175977
REMARK                            x       y       z     vdW  Elec       q    Type
REMARK                         _______ _______ _______ _____ _____    ______ ____
ROOT
ATOM      1  C   LIG    1        1.260   2.002   0.259  0.00  0.00    -0.070 A 
ATOM      2  C   LIG    1        2.491   1.339   0.330  0.00  0.00    +0.080 A 
ATOM      3  C   LIG    1        3.648   2.045   0.054  0.00  0.00    +0.210 A 
ATOM      4  N   LIG    1        3.601   3.322  -0.272  0.00  0.00    -0.440 NA
ATOM      5  C   LIG    1        2.462   3.983  -0.350  0.00  0.00    +0.390 A 
ATOM      6 CL   LIG    1        5.184   1.240   0.138  0.00  0.00    +0.020 Cl
ATOM      7  C   LIG    1        1.259   3.357  -0.097  0.00  0.00    -0.060 A 
ENDROOT
BRANCH   7   8
ATOM      8  N   LIG    1       -0.013   4.108  -0.188  0.00  0.00    +0.020 N 
ATOM      9  O   LIG    1       -0.064   5.267   0.185  0.00  0.00    -0.120 OA
ATOM     10  O   LIG    1       -1.009   3.568  -0.637  0.00  0.00    -0.140 OA
ENDBRANCH   7   8
BRANCH   1  12
ATOM     11  O   LIG    1        0.009   0.100   0.747  0.00  0.00    -0.410 OA
ATOM     12  C   LIG    1       -0.001   1.291   0.544  0.00  0.00    +0.520 C 
ENDBRANCH   1  12
TORSDOF 2
