REMARK  Name = ZINC000004823771
REMARK                            x       y       z     vdW  Elec       q    Type
REMARK                         _______ _______ _______ _____ _____    ______ ____
ROOT
ATOM      1  C   LIG    1        0.002  -0.004   0.002  0.00  0.00    +0.290 A 
ATOM      2  C   LIG    1       -1.204  -0.715   0.004  0.00  0.00    +0.000 A 
ATOM      3  C   LIG    1       -1.216  -2.074  -0.003  0.00  0.00    +0.160 A 
ATOM      4  C   LIG    1       -0.004  -2.787  -0.013  0.00  0.00    +0.090 A 
ATOM      5  N   LIG    1        0.006  -4.124  -0.020  0.00  0.00    -0.450 NA
ATOM      6  C   LIG    1        1.130  -4.798  -0.030  0.00  0.00    +0.290 A 
ATOM      7  C   LIG    1        2.369  -4.158  -0.032  0.00  0.00    +0.020 A 
ATOM      8  C   LIG    1        2.431  -2.794  -0.025  0.00  0.00    +0.040 A 
ATOM      9  C   LIG    1        1.221  -2.074  -0.015  0.00  0.00    -0.020 A 
ATOM     10  C   LIG    1        1.208  -0.671  -0.013  0.00  0.00    -0.130 A 
ENDROOT
BRANCH   1  11
ATOM     11  N   LIG    1       -0.017   1.392   0.010  0.00  0.00    -0.860 N 
ATOM     12  H   LIG    1       -0.863   1.866   0.016  0.00  0.00    +0.420 HD
ATOM     13  H   LIG    1        0.817   1.889   0.004  0.00  0.00    +0.410 HD
ENDBRANCH   1  11
BRANCH  10  14
ATOM     14  N   LIG    1        2.480   0.087  -0.021  0.00  0.00    +0.020 N 
ATOM     15  O   LIG    1        3.010   0.397   1.030  0.00  0.00    -0.140 OA
ATOM     16  O   LIG    1        2.995   0.400  -1.079  0.00  0.00    -0.140 OA
ENDBRANCH  10  14
TORSDOF 2
