REMARK  Name = ZINC000000083338
REMARK                            x       y       z     vdW  Elec       q    Type
REMARK                         _______ _______ _______ _____ _____    ______ ____
ROOT
ATOM      1  C   LIG    1       -1.162  -2.050  -0.032  0.00  0.00    +0.090 A 
ATOM      2  C   LIG    1        0.032  -2.755  -0.003  0.00  0.00    +0.080 A 
ATOM      3  C   LIG    1        0.018  -4.136  -0.045  0.00  0.00    +0.060 A 
ATOM      4  C   LIG    1       -1.184  -4.815  -0.116  0.00  0.00    +0.110 A 
ATOM      5  C   LIG    1       -2.376  -4.114  -0.145  0.00  0.00    -0.030 A 
ATOM      6  C   LIG    1       -2.368  -2.733  -0.098  0.00  0.00    +0.100 A 
ENDROOT
BRANCH   5   7
ATOM      7  N   LIG    1       -3.661  -4.844  -0.222  0.00  0.00    +0.030 N 
ATOM      8  O   LIG    1       -4.711  -4.227  -0.247  0.00  0.00    -0.150 OA
ATOM      9  O   LIG    1       -3.669  -6.061  -0.259  0.00  0.00    -0.150 OA
ENDBRANCH   5   7
BRANCH   1  10
ATOM     10  O   LIG    1       -1.151  -0.691   0.009  0.00  0.00    -0.290 OA
BRANCH  10  12
ATOM     11  C   LIG    1       -0.911   1.455  -1.188  0.00  0.00    +0.190 C 
ATOM     12  C   LIG    1       -0.835  -0.049  -1.127  0.00  0.00    +0.460 C 
ATOM     13  O   LIG    1       -0.490  -0.677  -2.100  0.00  0.00    -0.490 OA
ENDBRANCH  10  12
ENDBRANCH   1  10
TORSDOF 3
