REMARK  Name = ZINC000031429966
REMARK                            x       y       z     vdW  Elec       q    Type
REMARK                         _______ _______ _______ _____ _____    ______ ____
ROOT
ATOM      1  C   LIG    1        0.385  -0.735  -1.185  0.00  0.00    +0.290 A 
ATOM      2  C   LIG    1        0.880  -0.033  -2.275  0.00  0.00    -0.080 A 
ATOM      3  C   LIG    1        1.701  -0.670  -3.192  0.00  0.00    +0.210 A 
ATOM      4  C   LIG    1        2.026  -2.008  -3.019  0.00  0.00    -0.050 A 
ATOM      5  C   LIG    1        1.531  -2.706  -1.933  0.00  0.00    +0.150 A 
ATOM      6  C   LIG    1        0.718  -2.073  -1.014  0.00  0.00    -0.130 A 
ENDROOT
BRANCH   1   8
ATOM      7  C   LIG    1       -0.683   1.345  -0.364  0.00  0.00    +0.290 C 
ATOM      8  N   LIG    1       -0.442  -0.096  -0.259  0.00  0.00    -0.730 N 
ATOM      9  H   LIG    1       -0.856  -0.606   0.455  0.00  0.00    +0.410 HD
ENDBRANCH   1   8
BRANCH   6  10
ATOM     10  N   LIG    1        0.191  -2.824   0.147  0.00  0.00    +0.040 N 
ATOM     11  O   LIG    1       -0.145  -3.987   0.019  0.00  0.00    -0.150 OA
ATOM     12  O   LIG    1        0.092  -2.278   1.232  0.00  0.00    -0.180 OA
ENDBRANCH   6  10
BRANCH   3  13
ATOM     13  O   LIG    1        2.188   0.015  -4.261  0.00  0.00    -0.490 OA
ATOM     14  H   LIG    1        3.038   0.446  -4.097  0.00  0.00    +0.410 HD
ENDBRANCH   3  13
TORSDOF 3
