REMARK  Name = ZINC000095098530
REMARK                            x       y       z     vdW  Elec       q    Type
REMARK                         _______ _______ _______ _____ _____    ______ ____
ROOT
ATOM      1  C   LIG    1        1.344  -2.648  -2.324  0.00  0.00    +0.400 A 
ATOM      2  N   LIG    1        1.931  -2.100  -3.362  0.00  0.00    -0.340 NA
ATOM      3  N   LIG    1        2.406  -3.127  -4.188  0.00  0.00    -0.340 N 
ATOM      4  C   LIG    1        2.086  -4.306  -3.615  0.00  0.00    +0.380 A 
ATOM      5  C   LIG    1        3.124  -2.952  -5.453  0.00  0.00    +0.390 C 
ATOM      6  C   LIG    1        1.434  -4.043  -2.459  0.00  0.00    -0.230 A 
ENDROOT
BRANCH   6   7
ATOM      7  N   LIG    1        0.903  -5.047  -1.510  0.00  0.00    +0.080 N 
ATOM      8  O   LIG    1        0.332  -4.685  -0.497  0.00  0.00    -0.190 OA
ATOM      9  O   LIG    1        1.037  -6.235  -1.742  0.00  0.00    -0.170 OA
ENDBRANCH   6   7
BRANCH   1  10
ATOM     10  N   LIG    1        0.738  -1.962  -1.265  0.00  0.00    -0.700 N 
ATOM     11  H   LIG    1        0.332  -2.457  -0.536  0.00  0.00    +0.420 HD
BRANCH  10  12
ATOM     12  C   LIG    1        0.718  -0.497  -1.257  0.00  0.00    +0.270 C 
BRANCH  12  14
ATOM     13  C   LIG    1       -0.019   1.526   0.010  0.00  0.00    +0.030 C 
ATOM     14  C   LIG    1        0.002  -0.004   0.002  0.00  0.00    +0.000 C 
ENDBRANCH  12  14
ENDBRANCH  10  12
ENDBRANCH   1  10
TORSDOF 4
