REMARK  Name = ZINC000012398036
REMARK                            x       y       z     vdW  Elec       q    Type
REMARK                         _______ _______ _______ _____ _____    ______ ____
ROOT
ATOM      1  N   LIG    1       -1.413  -1.998   0.005  0.00  0.00    -0.350 N 
ATOM      2  N   LIG    1       -1.407  -2.816  -1.133  0.00  0.00    -0.270 NA
ATOM      3  C   LIG    1       -1.388  -4.064  -0.739  0.00  0.00    +0.330 A 
ATOM      4  C   LIG    1       -1.383  -4.081   0.660  0.00  0.00    -0.200 A 
ATOM      5  C   LIG    1       -1.392  -2.798   1.092  0.00  0.00    +0.180 A 
ATOM      6  C   LIG    1       -1.390  -2.344   2.529  0.00  0.00    +0.180 C 
ENDROOT
BRANCH   4   7
ATOM      7  N   LIG    1       -1.362  -5.288   1.516  0.00  0.00    +0.070 N 
ATOM      8  O   LIG    1       -1.358  -5.174   2.729  0.00  0.00    -0.170 OA
ATOM      9  O   LIG    1       -1.349  -6.395   1.008  0.00  0.00    -0.160 OA
ENDBRANCH   4   7
BRANCH   1  10
ATOM     10  C   LIG    1       -1.433  -0.534   0.013  0.00  0.00    +0.340 C 
BRANCH  10  12
ATOM     11  C   LIG    1       -0.019   1.526   0.010  0.00  0.00    +0.040 C 
ATOM     12  C   LIG    1        0.002  -0.004   0.002  0.00  0.00    +0.010 C 
ENDBRANCH  10  12
ENDBRANCH   1  10
TORSDOF 3
