REMARK  Name = ZINC000054613876
REMARK                            x       y       z     vdW  Elec       q    Type
REMARK                         _______ _______ _______ _____ _____    ______ ____
ROOT
ATOM      1  C   LIG    1       -1.609  -1.888   0.007  0.00  0.00    +0.210 A 
ATOM      2  C   LIG    1       -2.911  -2.381   0.011  0.00  0.00    +0.000 A 
ATOM      3  C   LIG    1       -3.095  -3.754   0.005  0.00  0.00    +0.120 A 
ATOM      4  C   LIG    1       -1.989  -4.584  -0.004  0.00  0.00    +0.100 A 
ATOM      5  N   LIG    1       -0.768  -4.085  -0.008  0.00  0.00    -0.390 NA
ATOM      6  C   LIG    1       -0.548  -2.785  -0.008  0.00  0.00    +0.230 A 
ENDROOT
BRANCH   4   7
ATOM      7  N   LIG    1       -2.178  -6.051  -0.010  0.00  0.00    +0.040 N 
ATOM      8  O   LIG    1       -1.209  -6.790  -0.019  0.00  0.00    -0.130 OA
ATOM      9  O   LIG    1       -3.302  -6.521  -0.007  0.00  0.00    -0.170 OA
ENDBRANCH   4   7
BRANCH   1  10
ATOM     10  N   LIG    1       -1.372  -0.511   0.012  0.00  0.00    -0.720 N 
ATOM     11  H   LIG    1       -2.118   0.109   0.023  0.00  0.00    +0.410 HD
BRANCH  10  13
ATOM     12  C   LIG    1       -0.019   1.526   0.010  0.00  0.00    +0.040 C 
ATOM     13  C   LIG    1        0.002  -0.004   0.002  0.00  0.00    +0.240 C 
ENDBRANCH  10  13
ENDBRANCH   1  10
TORSDOF 3
