REMARK  Name = ZINC000001759044
REMARK                            x       y       z     vdW  Elec       q    Type
REMARK                         _______ _______ _______ _____ _____    ______ ____
ROOT
ATOM      1  C   LIG    1        0.956  -0.539  -1.137  0.00  0.00    +0.120 C 
ENDROOT
BRANCH   1   2
ATOM      2  N   LIG    1        2.406  -0.342  -1.217  0.00  0.00    -0.010 N 
ATOM      3  O   LIG    1        2.869   0.446  -2.022  0.00  0.00    -0.160 OA
ATOM      4  O   LIG    1        3.147  -0.967  -0.480  0.00  0.00    -0.160 OA
ENDBRANCH   1   2
BRANCH   1   6
ATOM      5  C   LIG    1        0.674   1.392   0.422  0.00  0.00    +0.030 C 
ATOM      6  C   LIG    1        0.460  -0.112   0.246  0.00  0.00    +0.070 C 
ENDBRANCH   1   6
BRANCH   1   7
ATOM      7  C   LIG    1        0.629  -2.017  -1.362  0.00  0.00    +0.240 C 
BRANCH   7   8
ATOM      8  C   LIG    1        1.187  -2.462  -2.716  0.00  0.00    -0.060 C 
ATOM      9  C   LIG    1        0.474  -1.702  -3.836  0.00  0.00    +0.030 C 
ATOM     10  C   LIG    1        0.957  -3.965  -2.893  0.00  0.00    +0.050 C 
ENDBRANCH   7   8
BRANCH   7  11
ATOM     11  O   LIG    1       -0.788  -2.199  -1.348  0.00  0.00    -0.530 OA
ATOM     12  H   LIG    1       -1.256  -1.696  -2.029  0.00  0.00    +0.380 HD
ENDBRANCH   7  11
ENDBRANCH   1   7
TORSDOF 5
