REMARK  Name = ZINC000045820974
REMARK                            x       y       z     vdW  Elec       q    Type
REMARK                         _______ _______ _______ _____ _____    ______ ____
ROOT
ATOM      1  C   LIG    1       -0.018   1.503   0.010  0.00  0.00    +0.110 C 
ATOM      2  C   LIG    1        0.002  -0.004   0.002  0.00  0.00    -0.060 A 
ATOM      3  C   LIG    1        0.006  -0.695  -1.202  0.00  0.00    +0.080 A 
ATOM      4  N   LIG    1       -0.006  -0.314  -2.529  0.00  0.00    -0.590 N 
ATOM      5  H   LIG    1       -0.020   0.596  -2.866  0.00  0.00    +0.430 HD
ATOM      6  C   LIG    1        0.006  -1.451  -3.276  0.00  0.00    +0.510 A 
ATOM      7  N   LIG    1        0.025  -2.495  -2.501  0.00  0.00    -0.480 NA
ATOM      8  C   LIG    1        0.025  -2.100  -1.202  0.00  0.00    +0.050 A 
ATOM      9  C   LIG    1        0.041  -2.787   0.015  0.00  0.00    +0.170 A 
ATOM     10  C   LIG    1        0.037  -2.090   1.190  0.00  0.00    -0.040 A 
ATOM     11  C   LIG    1        0.023  -0.703   1.190  0.00  0.00    +0.100 A 
ENDROOT
BRANCH  10  12
ATOM     12  N   LIG    1        0.053  -2.823   2.476  0.00  0.00    +0.030 N 
ATOM     13  O   LIG    1        0.050  -2.208   3.527  0.00  0.00    -0.150 OA
ATOM     14  O   LIG    1        0.070  -4.041   2.483  0.00  0.00    -0.160 OA
ENDBRANCH  10  12
TORSDOF 1
