REMARK  Name = ZINC000019868631
REMARK                            x       y       z     vdW  Elec       q    Type
REMARK                         _______ _______ _______ _____ _____    ______ ____
ROOT
ATOM      1  C   LIG    1        0.904  -0.737   0.858  0.00  0.00    +0.280 A 
ATOM      2  C   LIG    1        1.656  -0.042   1.796  0.00  0.00    +0.000 A 
ATOM      3  C   LIG    1        2.136  -0.694   2.916  0.00  0.00    +0.110 A 
ATOM      4  C   LIG    1        1.868  -2.039   3.103  0.00  0.00    +0.050 A 
ATOM      5  C   LIG    1        1.118  -2.735   2.168  0.00  0.00    +0.110 A 
ATOM      6  F   LIG    1        2.338  -2.675   4.198  0.00  0.00    -0.130 F 
ATOM      7  C   LIG    1        0.632  -2.086   1.051  0.00  0.00    -0.100 A 
ENDROOT
BRANCH   7   8
ATOM      8  N   LIG    1       -0.170  -2.829   0.053  0.00  0.00    +0.040 N 
ATOM      9  O   LIG    1        0.110  -3.984  -0.215  0.00  0.00    -0.140 OA
ATOM     10  O   LIG    1       -1.109  -2.286  -0.500  0.00  0.00    -0.180 OA
ENDBRANCH   7   8
BRANCH   1  11
ATOM     11  N   LIG    1        0.417  -0.079  -0.275  0.00  0.00    -0.570 N 
ATOM     12  H   LIG    1       -0.039  -0.581  -0.969  0.00  0.00    +0.420 HD
BRANCH  11  13
ATOM     13  N   LIG    1        0.584   1.270  -0.406  0.00  0.00    -0.600 NA
ATOM     14  H   LIG    1        0.183   1.602  -1.271  0.00  0.00    +0.370 HD
ATOM     15  H   LIG    1        1.559   1.522  -0.340  0.00  0.00    +0.340 HD
ENDBRANCH  11  13
ENDBRANCH   1  11
TORSDOF 3
