REMARK  Name = ZINC000001759040
REMARK                            x       y       z     vdW  Elec       q    Type
REMARK                         _______ _______ _______ _____ _____    ______ ____
ROOT
ATOM      1  C   LIG    1        0.928  -0.614  -1.174  0.00  0.00    +0.120 C 
ENDROOT
BRANCH   1   2
ATOM      2  N   LIG    1        2.392  -0.552  -1.194  0.00  0.00    -0.010 N 
ATOM      3  O   LIG    1        2.958   0.195  -1.972  0.00  0.00    -0.150 OA
ATOM      4  O   LIG    1        3.041  -1.246  -0.434  0.00  0.00    -0.170 OA
ENDBRANCH   1   2
BRANCH   1   6
ATOM      5  C   LIG    1        0.775   1.074   0.661  0.00  0.00    +0.020 C 
ATOM      6  C   LIG    1        0.426  -0.357   0.248  0.00  0.00    +0.070 C 
ENDBRANCH   1   6
BRANCH   1   7
ATOM      7  C   LIG    1        0.471  -2.000  -1.634  0.00  0.00    +0.250 C 
BRANCH   7   8
ATOM      8  C   LIG    1        1.040  -2.290  -3.024  0.00  0.00    -0.070 C 
ATOM      9  C   LIG    1        0.437  -1.314  -4.036  0.00  0.00    +0.040 C 
ATOM     10  C   LIG    1        0.693  -3.724  -3.429  0.00  0.00    +0.040 C 
ENDBRANCH   7   8
BRANCH   7  11
ATOM     11  O   LIG    1        0.939  -2.986  -0.712  0.00  0.00    -0.540 OA
ATOM     12  H   LIG    1        1.902  -3.018  -0.625  0.00  0.00    +0.390 HD
ENDBRANCH   7  11
ENDBRANCH   1   7
TORSDOF 5
