REMARK  Name = ZINC000001656042
REMARK                            x       y       z     vdW  Elec       q    Type
REMARK                         _______ _______ _______ _____ _____    ______ ____
ROOT
ATOM      1  C   LIG    1       -0.019   1.526   0.010  0.00  0.00    +0.030 C 
ATOM      2  C   LIG    1        0.002  -0.004   0.002  0.00  0.00    -0.020 C 
ATOM      3  C   LIG    1       -1.427  -0.534   0.139  0.00  0.00    +0.010 C 
ATOM      4  C   LIG    1       -2.031  -0.040   1.454  0.00  0.00    +0.040 C 
ATOM      5  C   LIG    1       -1.185  -0.545   2.625  0.00  0.00    -0.010 C 
ATOM      6  C   LIG    1        0.244  -0.015   2.489  0.00  0.00    +0.140 C 
ATOM      7  C   LIG    1        0.848  -0.509   1.173  0.00  0.00    +0.060 C 
ENDROOT
BRANCH   6   8
ATOM      8  O   LIG    1        0.224   1.414   2.497  0.00  0.00    -0.540 OA
ATOM      9  H   LIG    1       -0.147   1.798   3.303  0.00  0.00    +0.380 HD
ENDBRANCH   6   8
BRANCH   6  10
ATOM     10  C   LIG    1        1.089  -0.519   3.660  0.00  0.00    +0.240 C 
BRANCH  10  11
ATOM     11  N   LIG    1        0.446  -0.148   4.922  0.00  0.00    -0.010 N 
ATOM     12  O   LIG    1        0.005   0.978   5.073  0.00  0.00    -0.170 OA
ATOM     13  O   LIG    1        0.353  -0.964   5.822  0.00  0.00    -0.150 OA
ENDBRANCH  10  11
ENDBRANCH   6  10
TORSDOF 3
