REMARK  Name = ZINC000257198349
REMARK                            x       y       z     vdW  Elec       q    Type
REMARK                         _______ _______ _______ _____ _____    ______ ____
ROOT
ATOM      1  O   LIG    1        0.002  -0.004   0.002  0.00  0.00    -0.460 OA
ATOM      2  C   LIG    1       -0.014   1.209   0.009  0.00  0.00    +0.520 C 
ATOM      3  N   LIG    1       -1.106   1.992   0.029  0.00  0.00    -0.650 N 
ATOM      4  H   LIG    1       -2.015   1.653   0.040  0.00  0.00    +0.430 HD
ATOM      5  C   LIG    1       -0.782   3.349   0.032  0.00  0.00    +0.170 A 
ATOM      6  C   LIG    1       -1.596   4.480   0.050  0.00  0.00    +0.080 A 
ATOM      7  C   LIG    1       -1.033   5.739   0.048  0.00  0.00    +0.000 A 
ATOM      8  C   LIG    1        0.341   5.890   0.029  0.00  0.00    +0.090 A 
ATOM      9  C   LIG    1        1.157   4.771   0.011  0.00  0.00    +0.120 A 
ATOM     10  C   LIG    1        0.597   3.514   0.013  0.00  0.00    -0.140 A 
ATOM     11  C   LIG    1        1.191   2.124   0.002  0.00  0.00    +0.260 C 
ATOM     12  F   LIG    1        1.953   1.926  -1.155  0.00  0.00    -0.160 F 
ENDROOT
BRANCH   7  13
ATOM     13  N   LIG    1       -1.904   6.935   0.068  0.00  0.00    +0.020 N 
ATOM     14  O   LIG    1       -1.410   8.049   0.066  0.00  0.00    -0.140 OA
ATOM     15  O   LIG    1       -3.115   6.806   0.085  0.00  0.00    -0.150 OA
ENDBRANCH   7  13
TORSDOF 1
