REMARK  Name = ZINC000000394362
REMARK                            x       y       z     vdW  Elec       q    Type
REMARK                         _______ _______ _______ _____ _____    ______ ____
ROOT
ATOM      1  C   LIG    1       -0.025   1.470   0.019  0.00  0.00    +0.250 C 
ATOM      2  N   LIG    1        0.005   0.004   0.103  0.00  0.00    -0.110 N 
ATOM      3  O   LIG    1        0.705  -0.401   1.323  0.00  0.00    -0.620 OA
ENDROOT
BRANCH   2   4
ATOM      4  C   LIG    1        0.707  -0.540  -1.067  0.00  0.00    +0.260 C 
BRANCH   4   5
ATOM      5  C   LIG    1        2.117  -0.009  -1.098  0.00  0.00    -0.100 A 
ATOM      6  C   LIG    1        2.398   1.171  -1.761  0.00  0.00    +0.010 A 
ATOM      7  C   LIG    1        3.691   1.657  -1.789  0.00  0.00    -0.010 A 
ATOM      8  C   LIG    1        4.705   0.964  -1.154  0.00  0.00    +0.010 A 
ATOM      9  C   LIG    1        4.424  -0.216  -0.491  0.00  0.00    -0.010 A 
ATOM     10  C   LIG    1        3.130  -0.701  -0.459  0.00  0.00    +0.070 A 
ENDBRANCH   4   5
ENDBRANCH   2   4
BRANCH   2  11
ATOM     11  C   LIG    1       -1.370  -0.513   0.133  0.00  0.00    +0.230 C 
BRANCH  11  12
ATOM     12  C   LIG    1       -1.339  -2.038   0.250  0.00  0.00    +0.180 C 
BRANCH  12  13
ATOM     13  O   LIG    1       -0.785  -2.408   1.515  0.00  0.00    -0.530 OA
ATOM     14  H   LIG    1       -0.735  -3.363   1.658  0.00  0.00    +0.370 HD
ENDBRANCH  12  13
ENDBRANCH  11  12
ENDBRANCH   2  11
TORSDOF 5
