REMARK  Name = ZINC000031483806
REMARK                            x       y       z     vdW  Elec       q    Type
REMARK                         _______ _______ _______ _____ _____    ______ ____
ROOT
ATOM      1  C   LIG    1       -2.433  -0.210  -0.088  0.00  0.00    +0.040 A 
ATOM      2  C   LIG    1       -3.510  -1.020  -0.284  0.00  0.00    +0.020 A 
ATOM      3  C   LIG    1       -3.040  -2.345  -0.212  0.00  0.00    +0.100 A 
ATOM      4  C   LIG    1       -1.714  -2.282   0.022  0.00  0.00    +0.050 A 
ATOM      5  O   LIG    1       -1.350  -0.991   0.091  0.00  0.00    -0.120 OA
ENDROOT
BRANCH   4   6
ATOM      6  N   LIG    1       -0.808  -3.444   0.173  0.00  0.00    +0.060 N 
ATOM      7  O   LIG    1        0.379  -3.267   0.383  0.00  0.00    -0.120 OA
ATOM      8  O   LIG    1       -1.249  -4.575   0.086  0.00  0.00    -0.120 OA
ENDBRANCH   4   6
BRANCH   1  10
ATOM      9  C   LIG    1       -1.445   1.939  -0.630  0.00  0.00    +0.140 C 
ATOM     10  C   LIG    1       -2.448   1.261  -0.080  0.00  0.00    +0.230 C 
BRANCH   9  12
ATOM     11  O   LIG    1       -0.544   0.039  -1.659  0.00  0.00    -0.160 OA
ATOM     12  N   LIG    1       -0.416   1.227  -1.422  0.00  0.00    +0.010 N 
ATOM     13  O   LIG    1        0.556   1.830  -1.841  0.00  0.00    -0.130 OA
ENDBRANCH   9  12
ENDBRANCH   1  10
TORSDOF 3
