REMARK  Name = ZINC001548918739
REMARK                            x       y       z     vdW  Elec       q    Type
REMARK                         _______ _______ _______ _____ _____    ______ ____
ROOT
ATOM      1  N   LIG    1        0.866  -1.969   1.174  0.00  0.00    -0.330 N 
ATOM      2  C   LIG    1       -0.063  -2.863   1.572  0.00  0.00    +0.370 A 
ATOM      3  C   LIG    1        0.430  -4.102   1.345  0.00  0.00    -0.230 A 
ATOM      4  C   LIG    1        1.710  -3.961   0.785  0.00  0.00    +0.400 A 
ATOM      5  N   LIG    1        1.968  -2.679   0.679  0.00  0.00    -0.340 NA
ENDROOT
BRANCH   4   6
ATOM      6  N   LIG    1        2.560  -5.005   0.403  0.00  0.00    -0.820 N 
ATOM      7  H   LIG    1        3.431  -4.808   0.023  0.00  0.00    +0.410 HD
ATOM      8  H   LIG    1        2.278  -5.926   0.517  0.00  0.00    +0.430 HD
ENDBRANCH   4   6
BRANCH   3   9
ATOM      9  N   LIG    1       -0.259  -5.380   1.633  0.00  0.00    +0.080 N 
ATOM     10  O   LIG    1        0.290  -6.438   1.382  0.00  0.00    -0.180 OA
ATOM     11  O   LIG    1       -1.375  -5.374   2.121  0.00  0.00    -0.180 OA
ENDBRANCH   3   9
BRANCH   1  12
ATOM     12  C   LIG    1        0.742  -0.511   1.242  0.00  0.00    +0.280 C 
ATOM     13  C   LIG    1       -0.042  -0.124   2.497  0.00  0.00    +0.070 C 
BRANCH  12  15
ATOM     14  C   LIG    1       -0.019   1.526   0.010  0.00  0.00    +0.040 C 
ATOM     15  C   LIG    1        0.002  -0.004   0.002  0.00  0.00    +0.010 C 
ENDBRANCH  12  15
ENDBRANCH   1  12
TORSDOF 4
