REMARK  Name = ZINC000033610080
REMARK                            x       y       z     vdW  Elec       q    Type
REMARK                         _______ _______ _______ _____ _____    ______ ____
ROOT
ATOM      1  C   LIG    1       -0.018   1.503   0.010  0.00  0.00    +0.120 C 
ATOM      2  C   LIG    1        0.002  -0.004   0.002  0.00  0.00    -0.140 A 
ATOM      3  C   LIG    1        0.006  -0.699  -1.197  0.00  0.00    +0.160 A 
ATOM      4  C   LIG    1        0.025  -2.085  -1.157  0.00  0.00    -0.100 A 
ATOM      5  C   LIG    1        0.039  -2.723   0.069  0.00  0.00    +0.370 A 
ATOM      6  N   LIG    1        0.035  -2.029   1.191  0.00  0.00    -0.470 NA
ATOM      7  C   LIG    1        0.023  -0.710   1.190  0.00  0.00    +0.180 A 
ATOM      8  C   LIG    1        0.019   0.035   2.500  0.00  0.00    +0.150 C 
ENDROOT
BRANCH   4   9
ATOM      9  N   LIG    1        0.030  -2.872  -2.410  0.00  0.00    +0.030 N 
ATOM     10  O   LIG    1        0.047  -4.089  -2.366  0.00  0.00    -0.150 OA
ATOM     11  O   LIG    1        0.018  -2.302  -3.487  0.00  0.00    -0.150 OA
ENDBRANCH   4   9
TORSDOF 1
