REMARK  Name = ZINC000034493041
REMARK                            x       y       z     vdW  Elec       q    Type
REMARK                         _______ _______ _______ _____ _____    ______ ____
ROOT
ATOM      1  C   LIG    1        0.109  -2.065  -1.232  0.00  0.00    +0.200 A 
ATOM      2  C   LIG    1        0.119  -2.816  -0.064  0.00  0.00    +0.040 A 
ATOM      3  C   LIG    1        0.227  -4.191  -0.129  0.00  0.00    +0.090 A 
ATOM      4  C   LIG    1        0.325  -4.821  -1.356  0.00  0.00    +0.030 A 
ATOM      5  C   LIG    1        0.316  -4.076  -2.521  0.00  0.00    -0.020 A 
ATOM      6  C   LIG    1        0.424  -4.766  -3.857  0.00  0.00    +0.120 C 
ATOM      7  C   LIG    1        0.202  -2.701  -2.463  0.00  0.00    -0.060 A 
ENDROOT
BRANCH   1  10
ATOM      8  C   LIG    1        0.543   1.511  -0.139  0.00  0.00    +0.130 C 
ATOM      9  C   LIG    1        0.574   0.004  -0.153  0.00  0.00    +0.520 C 
ATOM     10  N   LIG    1        0.000  -0.672  -1.169  0.00  0.00    -0.680 N 
ATOM     11  H   LIG    1       -0.488  -0.192  -1.856  0.00  0.00    +0.420 HD
ATOM     12  O   LIG    1        1.114  -0.601   0.748  0.00  0.00    -0.510 OA
ENDBRANCH   1  10
BRANCH   7  13
ATOM     13  N   LIG    1        0.192  -1.905  -3.711  0.00  0.00    +0.020 N 
ATOM     14  O   LIG    1        1.238  -1.492  -4.178  0.00  0.00    -0.130 OA
ATOM     15  O   LIG    1       -0.863  -1.663  -4.270  0.00  0.00    -0.140 OA
ENDBRANCH   7  13
TORSDOF 2
