REMARK  Name = ZINC000137559826
REMARK                            x       y       z     vdW  Elec       q    Type
REMARK                         _______ _______ _______ _____ _____    ______ ____
ROOT
ATOM      1  O   LIG    1        0.002  -0.004   0.002  0.00  0.00    -0.450 OA
ATOM      2  C   LIG    1       -0.014   1.203   0.009  0.00  0.00    +0.360 C 
ATOM      3  C   LIG    1       -1.323   1.961   0.032  0.00  0.00    +0.020 C 
ATOM      4  C   LIG    1       -1.274   2.984   1.171  0.00  0.00    +0.040 C 
ATOM      5  C   LIG    1       -0.036   3.868   1.008  0.00  0.00    +0.040 C 
ATOM      6  C   LIG    1        1.229   3.018   1.136  0.00  0.00    +0.000 C 
ATOM      7  C   LIG    1        1.274   1.997   0.001  0.00  0.00    +0.030 C 
ENDROOT
BRANCH   6   8
ATOM      8  C   LIG    1        2.461   3.923   1.060  0.00  0.00    +0.270 C 
BRANCH   8   9
ATOM      9  N   LIG    1        3.666   3.126   1.302  0.00  0.00    -0.020 N 
ATOM     10  O   LIG    1        4.532   3.543   2.051  0.00  0.00    -0.160 OA
ATOM     11  O   LIG    1        3.804   2.047   0.754  0.00  0.00    -0.160 OA
ENDBRANCH   8   9
ENDBRANCH   6   8
TORSDOF 2
