REMARK  Name = ZINC000001691700
REMARK                            x       y       z     vdW  Elec       q    Type
REMARK                         _______ _______ _______ _____ _____    ______ ____
ROOT
ATOM      1  C   LIG    1        1.673  -2.439   2.577  0.00  0.00    +0.100 C 
ENDROOT
BRANCH   1   2
ATOM      2  C   LIG    1        1.496  -3.959   2.563  0.00  0.00    +0.040 C 
ATOM      3  C   LIG    1        2.058  -4.525   1.258  0.00  0.00    +0.100 C 
ATOM      4  C   LIG    1        0.009  -4.300   2.668  0.00  0.00    +0.100 C 
BRANCH   2   5
ATOM      5  N   LIG    1        2.213  -4.544   3.698  0.00  0.00    -0.010 N 
ATOM      6  O   LIG    1        3.214  -4.002   4.132  0.00  0.00    -0.160 OA
ATOM      7  O   LIG    1        1.809  -5.574   4.208  0.00  0.00    -0.160 OA
ENDBRANCH   2   5
ENDBRANCH   1   2
BRANCH   1   8
ATOM      8  C   LIG    1        1.057  -1.842   1.310  0.00  0.00    +0.030 C 
ATOM      9  C   LIG    1        1.379  -0.348   1.242  0.00  0.00    +0.080 C 
BRANCH   8  10
ATOM     10  C   LIG    1       -0.437  -2.033   1.340  0.00  0.00    +0.460 C 
ATOM     11  O   LIG    1       -1.042  -1.912   2.379  0.00  0.00    -0.500 OA
BRANCH  10  13
ATOM     12  C   LIG    1       -2.536  -2.508   0.315  0.00  0.00    +0.280 C 
ATOM     13  O   LIG    1       -1.097  -2.338   0.212  0.00  0.00    -0.360 OA
ENDBRANCH  10  13
ENDBRANCH   8  10
ENDBRANCH   1   8
TORSDOF 5
