REMARK  Name = ZINC000001571171
REMARK                            x       y       z     vdW  Elec       q    Type
REMARK                         _______ _______ _______ _____ _____    ______ ____
ROOT
ATOM      1  C   LIG    1       -1.416  -2.058  -0.121  0.00  0.00    +0.060 C 
ENDROOT
BRANCH   1   2
ATOM      2  C   LIG    1       -2.851  -2.587  -0.110  0.00  0.00    +0.040 C 
ATOM      3  C   LIG    1       -3.627  -1.981  -1.281  0.00  0.00    +0.100 C 
ATOM      4  C   LIG    1       -3.528  -2.199   1.206  0.00  0.00    +0.100 C 
BRANCH   2   5
ATOM      5  N   LIG    1       -2.834  -4.046  -0.239  0.00  0.00    -0.010 N 
ATOM      6  O   LIG    1       -1.935  -4.593  -0.852  0.00  0.00    -0.160 OA
ATOM      7  O   LIG    1       -3.719  -4.713   0.268  0.00  0.00    -0.160 OA
ENDBRANCH   2   5
ENDBRANCH   1   2
BRANCH   1   8
ATOM      8  C   LIG    1       -1.433  -0.534   0.013  0.00  0.00    +0.050 C 
BRANCH   8  10
ATOM      9  C   LIG    1       -0.019   1.526   0.010  0.00  0.00    +0.010 C 
ATOM     10  C   LIG    1        0.002  -0.004   0.002  0.00  0.00    +0.160 C 
BRANCH  10  11
ATOM     11  O   LIG    1        0.693  -0.477   1.160  0.00  0.00    -0.570 OA
ATOM     12  H   LIG    1        1.611  -0.180   1.219  0.00  0.00    +0.380 HD
ENDBRANCH  10  11
ENDBRANCH   8  10
ENDBRANCH   1   8
TORSDOF 5
