REMARK  Name = ZINC000019926712
REMARK                            x       y       z     vdW  Elec       q    Type
REMARK                         _______ _______ _______ _____ _____    ______ ____
ROOT
ATOM      1  C   LIG    1        0.815  -0.567   0.979  0.00  0.00    +0.150 A 
ATOM      2  C   LIG    1        1.376   0.133   2.037  0.00  0.00    -0.020 A 
ATOM      3  C   LIG    1        1.820  -0.545   3.155  0.00  0.00    +0.080 A 
ATOM      4  C   LIG    1        1.706  -1.921   3.221  0.00  0.00    +0.050 A 
ATOM      5  C   LIG    1        1.148  -2.622   2.168  0.00  0.00    +0.020 A 
ATOM      6  C   LIG    1        0.697  -1.948   1.050  0.00  0.00    -0.070 A 
ENDROOT
BRANCH   5   7
ATOM      7  N   LIG    1        1.027  -4.096   2.241  0.00  0.00    +0.020 N 
ATOM      8  O   LIG    1        1.907  -4.753   2.768  0.00  0.00    -0.160 OA
ATOM      9  O   LIG    1        0.048  -4.651   1.776  0.00  0.00    -0.120 OA
ENDBRANCH   5   7
BRANCH   1  11
ATOM     10  C   LIG    1        0.531   1.519  -0.126  0.00  0.00    +0.250 C 
ATOM     11  O   LIG    1        0.377   0.098  -0.122  0.00  0.00    -0.300 OA
ENDBRANCH   1  11
BRANCH   6  12
ATOM     12  C   LIG    1        0.088  -2.712  -0.097  0.00  0.00    +0.250 C 
BRANCH  12  13
ATOM     13  O   LIG    1       -1.314  -2.873   0.129  0.00  0.00    -0.550 OA
ATOM     14  H   LIG    1       -1.772  -3.358  -0.572  0.00  0.00    +0.390 HD
ENDBRANCH  12  13
ENDBRANCH   6  12
TORSDOF 4
