REMARK  Name = ZINC000027061973
REMARK                            x       y       z     vdW  Elec       q    Type
REMARK                         _______ _______ _______ _____ _____    ______ ____
ROOT
ATOM      1  C   LIG    1       -0.032  -0.711  -2.362  0.00  0.00    +0.590 A 
ATOM      2  N   LIG    1       -1.339  -0.497  -2.366  0.00  0.00    -0.550 NA
ATOM      3  C   LIG    1       -2.057  -0.711  -3.456  0.00  0.00    +0.470 A 
ATOM      4  C   LIG    1       -1.424  -1.163  -4.604  0.00  0.00    -0.230 A 
ATOM      5  C   LIG    1       -0.055  -1.375  -4.565  0.00  0.00    +0.470 A 
ATOM      6  N   LIG    1        0.604  -1.138  -3.443  0.00  0.00    -0.550 NA
ENDROOT
BRANCH   4   7
ATOM      7  N   LIG    1       -2.193  -1.412  -5.843  0.00  0.00    +0.050 N 
ATOM      8  O   LIG    1       -1.624  -1.809  -6.844  0.00  0.00    -0.160 OA
ATOM      9  O   LIG    1       -3.396  -1.220  -5.862  0.00  0.00    -0.160 OA
ENDBRANCH   4   7
BRANCH   1  10
ATOM     10  N   LIG    1        0.688  -0.476  -1.203  0.00  0.00    -0.560 N 
BRANCH  10  12
ATOM     11  C   LIG    1       -0.019   1.526   0.010  0.00  0.00    +0.020 C 
ATOM     12  C   LIG    1        0.002  -0.004   0.002  0.00  0.00    +0.300 C 
ENDBRANCH  10  12
BRANCH  10  13
ATOM     13  C   LIG    1        2.135  -0.701  -1.182  0.00  0.00    +0.300 C 
ATOM     14  C   LIG    1        2.421  -2.145  -0.763  0.00  0.00    +0.020 C 
ENDBRANCH  10  13
ENDBRANCH   1  10
TORSDOF 4
