REMARK  Name = ZINC000075629580
REMARK                            x       y       z     vdW  Elec       q    Type
REMARK                         _______ _______ _______ _____ _____    ______ ____
ROOT
ATOM      1  O   LIG    1        0.002  -0.004   0.002  0.00  0.00    -0.440 OA
ATOM      2  C   LIG    1       -0.014   1.203   0.009  0.00  0.00    +0.360 C 
ATOM      3  C   LIG    1       -1.316   1.980   0.032  0.00  0.00    +0.030 C 
ATOM      4  C   LIG    1       -1.348   2.791   1.325  0.00  0.00    +0.120 C 
ATOM      5  C   LIG    1       -0.053   3.526   1.545  0.00  0.00    -0.080 A 
ATOM      6  C   LIG    1       -0.089   4.626   2.396  0.00  0.00    +0.090 A 
ATOM      7  C   LIG    1        1.055   5.348   2.663  0.00  0.00    +0.030 A 
ATOM      8  C   LIG    1        2.253   4.977   2.082  0.00  0.00    +0.110 A 
ATOM      9  C   LIG    1        2.291   3.890   1.234  0.00  0.00    -0.040 A 
ATOM     10  C   LIG    1        1.138   3.166   0.959  0.00  0.00    -0.010 A 
ATOM     11  C   LIG    1        1.261   2.012   0.001  0.00  0.00    +0.120 C 
ENDROOT
BRANCH   9  12
ATOM     12  N   LIG    1        3.574   3.490   0.613  0.00  0.00    +0.030 N 
ATOM     13  O   LIG    1        3.614   2.531  -0.137  0.00  0.00    -0.160 OA
ATOM     14  O   LIG    1        4.588   4.120   0.851  0.00  0.00    -0.160 OA
ENDBRANCH   9  12
TORSDOF 1
