REMARK  Name = ZINC000001666918
REMARK                            x       y       z     vdW  Elec       q    Type
REMARK                         _______ _______ _______ _____ _____    ______ ____
ROOT
ATOM      1  C   LIG    1        0.739  -2.027  -1.265  0.00  0.00    +0.120 C 
ENDROOT
BRANCH   1   2
ATOM      2  N   LIG    1        1.548  -2.511  -0.144  0.00  0.00    -0.010 N 
ATOM      3  O   LIG    1        2.724  -2.201  -0.063  0.00  0.00    -0.170 OA
ATOM      4  O   LIG    1        1.046  -3.223   0.707  0.00  0.00    -0.150 OA
ENDBRANCH   1   2
BRANCH   1   5
ATOM      5  C   LIG    1        0.718  -0.497  -1.257  0.00  0.00    +0.080 C 
BRANCH   5   7
ATOM      6  C   LIG    1       -0.019   1.526   0.010  0.00  0.00    +0.030 C 
ATOM      7  C   LIG    1        0.002  -0.004   0.002  0.00  0.00    -0.010 C 
ENDBRANCH   5   7
ENDBRANCH   1   5
BRANCH   1   8
ATOM      8  C   LIG    1        1.343  -2.522  -2.581  0.00  0.00    +0.250 C 
BRANCH   8   9
ATOM      9  C   LIG    1        1.364  -4.052  -2.590  0.00  0.00    -0.020 C 
ATOM     10  C   LIG    1        1.851  -4.548  -3.952  0.00  0.00    +0.040 C 
ENDBRANCH   8   9
BRANCH   8  11
ATOM     11  O   LIG    1        2.677  -2.027  -2.709  0.00  0.00    -0.550 OA
ATOM     12  H   LIG    1        3.271  -2.308  -1.999  0.00  0.00    +0.390 HD
ENDBRANCH   8  11
ENDBRANCH   1   8
TORSDOF 6
