REMARK  Name = ZINC000008614535
REMARK                            x       y       z     vdW  Elec       q    Type
REMARK                         _______ _______ _______ _____ _____    ______ ____
ROOT
ATOM      1  C   LIG    1       -1.293   1.929   0.019  0.00  0.00    +0.160 C 
ATOM      2  C   LIG    1       -2.096   1.556  -1.230  0.00  0.00    +0.070 C 
ATOM      3  C   LIG    1       -3.427   0.917  -0.812  0.00  0.00    +0.040 C 
ATOM      4  C   LIG    1       -3.113  -0.266   0.092  0.00  0.00    -0.020 C 
ATOM      5  C   LIG    1       -2.415   0.059   1.177  0.00  0.00    -0.030 C 
ATOM      6  C   LIG    1       -4.221   1.948   0.002  0.00  0.00    +0.030 C 
ATOM      7  C   LIG    1       -3.411   2.315   1.265  0.00  0.00    +0.040 C 
ATOM      8  C   LIG    1       -2.086   1.541   1.273  0.00  0.00    +0.040 C 
ENDROOT
BRANCH   1  10
ATOM      9  O   LIG    1        0.002  -0.004   0.002  0.00  0.00    -0.140 OA
ATOM     10  N   LIG    1       -0.014   1.214   0.009  0.00  0.00    -0.020 N 
ATOM     11  O   LIG    1        1.032   1.837   0.002  0.00  0.00    -0.170 OA
ENDBRANCH   1  10
TORSDOF 1
