REMARK  Name = ZINC000085021909
REMARK                            x       y       z     vdW  Elec       q    Type
REMARK                         _______ _______ _______ _____ _____    ______ ____
ROOT
ATOM      1  C   LIG    1       -1.412  -0.526   0.013  0.00  0.00    +0.170 A 
ATOM      2  N   LIG    1       -2.307  -0.294   0.938  0.00  0.00    -0.270 NA
ATOM      3  N   LIG    1       -3.491  -0.953   0.583  0.00  0.00    -0.390 N 
ATOM      4  C   LIG    1       -3.276  -1.591  -0.590  0.00  0.00    +0.430 A 
ATOM      5  C   LIG    1       -4.740  -0.952   1.348  0.00  0.00    +0.370 C 
ATOM      6  C   LIG    1       -1.993  -1.335  -0.967  0.00  0.00    -0.260 A 
ENDROOT
BRANCH   1   8
ATOM      7  C   LIG    1       -0.019   1.526   0.010  0.00  0.00    +0.060 C 
ATOM      8  C   LIG    1        0.002  -0.004   0.002  0.00  0.00    +0.060 C 
ATOM      9  C   LIG    1        0.742  -0.511   1.242  0.00  0.00    +0.060 C 
ENDBRANCH   1   8
BRANCH   4  10
ATOM     10  N   LIG    1       -4.200  -2.363  -1.287  0.00  0.00    -0.840 N 
ATOM     11  H   LIG    1       -3.949  -2.782  -2.125  0.00  0.00    +0.420 HD
ATOM     12  H   LIG    1       -5.096  -2.483  -0.935  0.00  0.00    +0.410 HD
ENDBRANCH   4  10
BRANCH   6  13
ATOM     13  N   LIG    1       -1.329  -1.834  -2.193  0.00  0.00    +0.050 N 
ATOM     14  O   LIG    1       -0.730  -2.894  -2.173  0.00  0.00    -0.140 OA
ATOM     15  O   LIG    1       -1.381  -1.183  -3.221  0.00  0.00    -0.140 OA
ENDBRANCH   6  13
TORSDOF 3
