REMARK  Name = ZINC000037291003
REMARK                            x       y       z     vdW  Elec       q    Type
REMARK                         _______ _______ _______ _____ _____    ______ ____
ROOT
ATOM      1  C   LIG    1       -0.103   1.520   0.112  0.00  0.00    +0.120 C 
ATOM      2  C   LIG    1        0.012   0.018   0.078  0.00  0.00    -0.120 A 
ATOM      3  C   LIG    1        0.075  -0.644  -1.132  0.00  0.00    +0.080 A 
ATOM      4  C   LIG    1        0.180  -2.022  -1.164  0.00  0.00    +0.040 A 
ATOM      5  C   LIG    1        0.222  -2.743   0.015  0.00  0.00    +0.100 A 
ATOM      6  C   LIG    1        0.160  -2.088   1.229  0.00  0.00    -0.010 A 
ATOM      7  C   LIG    1        0.060  -0.703   1.265  0.00  0.00    +0.160 A 
ENDROOT
BRANCH   6   8
ATOM      8  N   LIG    1        0.204  -2.861   2.491  0.00  0.00    +0.030 N 
ATOM      9  O   LIG    1        0.253  -2.279   3.560  0.00  0.00    -0.090 OA
ATOM     10  O   LIG    1        0.193  -4.078   2.460  0.00  0.00    -0.200 OA
ENDBRANCH   6   8
BRANCH   7  11
ATOM     11  N   LIG    1       -0.004  -0.037   2.491  0.00  0.00    -0.460 N 
ATOM     12  H   LIG    1       -0.847   0.511   2.562  0.00  0.00    +0.330 HD
BRANCH  11  13
ATOM     13  N   LIG    1        1.175   0.790   2.696  0.00  0.00    -0.660 NA
ATOM     14  H   LIG    1        1.176   1.193   3.621  0.00  0.00    +0.370 HD
ATOM     15  H   LIG    1        1.241   1.506   1.989  0.00  0.00    +0.320 HD
ENDBRANCH  11  13
ENDBRANCH   7  11
TORSDOF 3
