REMARK  Name = ZINC000021986284
REMARK                            x       y       z     vdW  Elec       q    Type
REMARK                         _______ _______ _______ _____ _____    ______ ____
ROOT
ATOM      1  C   LIG    1       -0.537   1.446   0.087  0.00  0.00    +0.120 C 
ATOM      2  C   LIG    1       -0.246  -0.032   0.039  0.00  0.00    -0.080 A 
ATOM      3  C   LIG    1       -0.348  -0.716  -1.158  0.00  0.00    +0.080 A 
ATOM      4  C   LIG    1       -0.082  -2.071  -1.205  0.00  0.00    -0.010 A 
ATOM      5  C   LIG    1        0.288  -2.745  -0.049  0.00  0.00    +0.220 A 
ATOM      6  C   LIG    1        0.389  -2.054   1.152  0.00  0.00    +0.000 A 
ATOM      7  C   LIG    1        0.127  -0.699   1.191  0.00  0.00    +0.010 A 
ENDROOT
BRANCH   7   8
ATOM      8  N   LIG    1        0.235   0.038   2.470  0.00  0.00    +0.020 N 
ATOM      9  O   LIG    1       -0.114  -0.492   3.510  0.00  0.00    -0.160 OA
ATOM     10  O   LIG    1        0.672   1.175   2.483  0.00  0.00    -0.150 OA
ENDBRANCH   7   8
BRANCH   5  11
ATOM     11  N   LIG    1        0.558  -4.115  -0.093  0.00  0.00    -0.730 N 
ATOM     12  H   LIG    1        0.817  -4.585   0.715  0.00  0.00    +0.410 HD
BRANCH  11  13
ATOM     13  C   LIG    1        0.451  -4.842  -1.361  0.00  0.00    +0.270 C 
BRANCH  13  14
ATOM     14  C   LIG    1        0.797  -6.315  -1.134  0.00  0.00    +0.190 C 
BRANCH  14  15
ATOM     15  O   LIG    1       -0.180  -6.907  -0.275  0.00  0.00    -0.570 OA
ATOM     16  H   LIG    1       -0.023  -7.843  -0.088  0.00  0.00    +0.390 HD
ENDBRANCH  14  15
ENDBRANCH  13  14
ENDBRANCH  11  13
ENDBRANCH   5  11
TORSDOF 5
