REMARK  Name = ZINC000071498614
REMARK                            x       y       z     vdW  Elec       q    Type
REMARK                         _______ _______ _______ _____ _____    ______ ____
ROOT
ATOM      1  C   LIG    1        0.000  -0.698  -1.214  0.00  0.00    +0.180 A 
ATOM      2  C   LIG    1        1.201  -1.030  -1.826  0.00  0.00    +0.070 A 
ATOM      3  C   LIG    1        1.199  -1.714  -3.025  0.00  0.00    +0.000 A 
ATOM      4  C   LIG    1       -0.004  -2.070  -3.620  0.00  0.00    +0.220 A 
ATOM      5  C   LIG    1       -1.206  -1.738  -3.008  0.00  0.00    +0.010 A 
ATOM      6  C   LIG    1       -1.204  -1.058  -1.806  0.00  0.00    -0.010 A 
ENDROOT
BRANCH   1   8
ATOM      7  C   LIG    1       -0.018   1.461   0.010  0.00  0.00    +0.280 C 
ATOM      8  N   LIG    1        0.002  -0.004   0.002  0.00  0.00    -0.680 N 
ATOM      9  C   LIG    1        0.024  -0.743   1.267  0.00  0.00    +0.270 C 
ENDBRANCH   1   8
BRANCH   4  10
ATOM     10  N   LIG    1       -0.006  -2.764  -4.836  0.00  0.00    -0.870 N 
ATOM     11  H   LIG    1       -0.847  -3.012  -5.251  0.00  0.00    +0.400 HD
ATOM     12  H   LIG    1        0.833  -2.996  -5.263  0.00  0.00    +0.410 HD
ENDBRANCH   4  10
BRANCH   6  13
ATOM     13  N   LIG    1       -2.484  -0.704  -1.154  0.00  0.00    +0.030 N 
ATOM     14  O   LIG    1       -2.482  -0.104  -0.094  0.00  0.00    -0.130 OA
ATOM     15  O   LIG    1       -3.540  -1.012  -1.677  0.00  0.00    -0.180 OA
ENDBRANCH   6  13
TORSDOF 3
