REMARK  Name = ZINC000016399933
REMARK                            x       y       z     vdW  Elec       q    Type
REMARK                         _______ _______ _______ _____ _____    ______ ____
ROOT
ATOM      1  C   LIG    1       -1.306   1.936   0.019  0.00  0.00    -0.040 A 
ATOM      2  C   LIG    1       -1.324   3.319   0.021  0.00  0.00    +0.110 A 
ATOM      3  C   LIG    1       -2.527   4.001   0.030  0.00  0.00    +0.050 A 
ATOM      4  C   LIG    1       -3.718   3.303   0.038  0.00  0.00    +0.100 A 
ATOM      5  C   LIG    1       -3.706   1.910   0.036  0.00  0.00    +0.000 A 
ATOM      6  C   LIG    1       -2.492   1.229   0.021  0.00  0.00    +0.130 A 
ENDROOT
BRANCH   5   7
ATOM      7  C   LIG    1       -4.984   1.154   0.044  0.00  0.00    +0.030 A 
ATOM      8  N   LIG    1       -5.138  -0.155   0.141  0.00  0.00    -0.260 NA
ATOM      9  N   LIG    1       -6.395  -0.424   0.112  0.00  0.00    -0.240 N 
ATOM     10  H   LIG    1       -6.766  -1.318   0.167  0.00  0.00    +0.470 HD
ATOM     11  N   LIG    1       -7.094   0.649  -0.000  0.00  0.00    -0.280 NA
ATOM     12  C   LIG    1       -6.285   1.682  -0.043  0.00  0.00    +0.210 A 
ENDBRANCH   5   7
BRANCH   1  14
ATOM     13  O   LIG    1        0.002  -0.004   0.002  0.00  0.00    -0.150 OA
ATOM     14  N   LIG    1       -0.014   1.214   0.009  0.00  0.00    +0.030 N 
ATOM     15  O   LIG    1        1.032   1.837   0.002  0.00  0.00    -0.150 OA
ENDBRANCH   1  14
TORSDOF 2
