REMARK  Name = ZINC000038301717
REMARK                            x       y       z     vdW  Elec       q    Type
REMARK                         _______ _______ _______ _____ _____    ______ ____
ROOT
ATOM      1  C   LIG    1        0.707  -0.490  -1.238  0.00  0.00    -0.210 A 
ATOM      2  C   LIG    1        2.051  -0.806  -1.190  0.00  0.00    +0.170 A 
ATOM      3  C   LIG    1        2.699  -1.253  -2.327  0.00  0.00    -0.110 A 
ATOM      4  C   LIG    1        2.004  -1.385  -3.515  0.00  0.00    +0.150 A 
ATOM      5  C   LIG    1        0.661  -1.070  -3.571  0.00  0.00    -0.050 A 
ATOM      6  C   LIG    1        0.006  -0.626  -2.429  0.00  0.00    +0.280 A 
ENDROOT
BRANCH   3   7
ATOM      7  N   LIG    1        4.139  -1.591  -2.272  0.00  0.00    +0.040 N 
ATOM      8  O   LIG    1        4.711  -1.984  -3.273  0.00  0.00    -0.170 OA
ATOM      9  O   LIG    1        4.752  -1.475  -1.226  0.00  0.00    -0.170 OA
ENDBRANCH   3   7
BRANCH   6  10
ATOM     10  N   LIG    1       -1.353  -0.307  -2.481  0.00  0.00    -0.860 N 
ATOM     11  H   LIG    1       -1.810   0.003  -1.683  0.00  0.00    +0.410 HD
ATOM     12  H   LIG    1       -1.841  -0.396  -3.315  0.00  0.00    +0.410 HD
ENDBRANCH   6  10
BRANCH   1  14
ATOM     13  C   LIG    1       -0.019   1.526   0.010  0.00  0.00    +0.060 C 
ATOM     14  C   LIG    1        0.002  -0.004   0.002  0.00  0.00    +0.220 C 
BRANCH  14  15
ATOM     15  O   LIG    1        0.693  -0.477   1.160  0.00  0.00    -0.550 OA
ATOM     16  H   LIG    1        0.745  -1.441   1.220  0.00  0.00    +0.380 HD
ENDBRANCH  14  15
ENDBRANCH   1  14
TORSDOF 4
