REMARK  Name = ZINC000002565748
REMARK                            x       y       z     vdW  Elec       q    Type
REMARK                         _______ _______ _______ _____ _____    ______ ____
ROOT
ATOM      1  C   LIG    1       -3.546   2.018   1.050  0.00  0.00    -0.040 A 
ATOM      2  C   LIG    1       -3.730   3.093   1.899  0.00  0.00    +0.040 A 
ATOM      3  C   LIG    1       -4.937   3.768   1.909  0.00  0.00    +0.110 A 
ATOM      4  C   LIG    1       -5.959   3.368   1.068  0.00  0.00    -0.040 A 
ATOM      5  C   LIG    1       -5.775   2.294   0.218  0.00  0.00    +0.110 A 
ATOM      6  C   LIG    1       -4.567   1.621   0.206  0.00  0.00    +0.040 A 
ENDROOT
BRANCH   4   7
ATOM      7  N   LIG    1       -7.251   4.090   1.079  0.00  0.00    +0.020 N 
ATOM      8  O   LIG    1       -8.152   3.738   0.339  0.00  0.00    -0.150 OA
ATOM      9  O   LIG    1       -7.413   5.037   1.828  0.00  0.00    -0.150 OA
ENDBRANCH   4   7
BRANCH   1  10
ATOM     10  C   LIG    1       -2.231   1.282   1.040  0.00  0.00    +0.110 C 
BRANCH  10  11
ATOM     11  C   LIG    1       -1.293   1.929   0.019  0.00  0.00    +0.270 C 
BRANCH  11  13
ATOM     12  O   LIG    1        0.002  -0.004   0.002  0.00  0.00    -0.150 OA
ATOM     13  N   LIG    1       -0.014   1.214   0.009  0.00  0.00    -0.020 N 
ATOM     14  O   LIG    1        1.032   1.837   0.002  0.00  0.00    -0.160 OA
ENDBRANCH  11  13
ENDBRANCH  10  11
ENDBRANCH   1  10
TORSDOF 4
