REMARK  Name = ZINC000095098554
REMARK                            x       y       z     vdW  Elec       q    Type
REMARK                         _______ _______ _______ _____ _____    ______ ____
ROOT
ATOM      1  C   LIG    1       -3.436  -0.522  -1.452  0.00  0.00    +0.400 A 
ATOM      2  N   LIG    1       -4.191  -1.209  -0.627  0.00  0.00    -0.340 NA
ATOM      3  N   LIG    1       -5.450  -1.371  -1.219  0.00  0.00    -0.340 N 
ATOM      4  C   LIG    1       -5.428  -0.760  -2.423  0.00  0.00    +0.380 A 
ATOM      5  C   LIG    1       -6.592  -2.078  -0.634  0.00  0.00    +0.390 C 
ATOM      6  C   LIG    1       -4.199  -0.222  -2.592  0.00  0.00    -0.230 A 
ENDROOT
BRANCH   6   7
ATOM      7  N   LIG    1       -3.736   0.540  -3.774  0.00  0.00    +0.080 N 
ATOM      8  O   LIG    1       -2.600   0.978  -3.810  0.00  0.00    -0.190 OA
ATOM      9  O   LIG    1       -4.492   0.730  -4.710  0.00  0.00    -0.170 OA
ENDBRANCH   6   7
BRANCH   1  10
ATOM     10  N   LIG    1       -2.105  -0.148  -1.230  0.00  0.00    -0.700 N 
ATOM     11  H   LIG    1       -1.628   0.366  -1.901  0.00  0.00    +0.420 HD
BRANCH  10  12
ATOM     12  C   LIG    1       -1.433  -0.534   0.013  0.00  0.00    +0.270 C 
BRANCH  12  14
ATOM     13  C   LIG    1       -0.019   1.526   0.010  0.00  0.00    +0.030 C 
ATOM     14  C   LIG    1        0.002  -0.004   0.002  0.00  0.00    -0.030 C 
ATOM     15  C   LIG    1        0.742  -0.511   1.242  0.00  0.00    +0.030 C 
ENDBRANCH  12  14
ENDBRANCH  10  12
ENDBRANCH   1  10
TORSDOF 4
