REMARK  Name = ZINC000001759033
REMARK                            x       y       z     vdW  Elec       q    Type
REMARK                         _______ _______ _______ _____ _____    ______ ____
ROOT
ATOM      1  C   LIG    1        0.739  -2.027  -1.265  0.00  0.00    +0.250 C 
ENDROOT
BRANCH   1   2
ATOM      2  O   LIG    1        1.529  -2.499  -0.172  0.00  0.00    -0.550 OA
ATOM      3  H   LIG    1        2.448  -2.201  -0.193  0.00  0.00    +0.390 HD
ENDBRANCH   1   2
BRANCH   1   4
ATOM      4  C   LIG    1        0.718  -0.497  -1.257  0.00  0.00    -0.020 C 
BRANCH   4   6
ATOM      5  C   LIG    1       -0.019   1.526   0.010  0.00  0.00    +0.010 C 
ATOM      6  C   LIG    1        0.002  -0.004   0.002  0.00  0.00    +0.020 C 
ENDBRANCH   4   6
ENDBRANCH   1   4
BRANCH   1   7
ATOM      7  C   LIG    1        1.343  -2.522  -2.581  0.00  0.00    +0.120 C 
BRANCH   7   8
ATOM      8  N   LIG    1        2.711  -2.014  -2.712  0.00  0.00    -0.010 N 
ATOM      9  O   LIG    1        3.010  -1.305  -3.656  0.00  0.00    -0.150 OA
ATOM     10  O   LIG    1        3.550  -2.302  -1.877  0.00  0.00    -0.170 OA
ENDBRANCH   7   8
BRANCH   7  11
ATOM     11  C   LIG    1        1.364  -4.052  -2.590  0.00  0.00    +0.080 C 
ATOM     12  C   LIG    1        1.851  -4.548  -3.952  0.00  0.00    +0.020 C 
ENDBRANCH   7  11
ENDBRANCH   1   7
TORSDOF 6
