REMARK  Name = ZINC000004404088
REMARK                            x       y       z     vdW  Elec       q    Type
REMARK                         _______ _______ _______ _____ _____    ______ ____
ROOT
ATOM      1  C   LIG    1       -1.306   1.936   0.019  0.00  0.00    -0.060 A 
ATOM      2  C   LIG    1       -1.383   3.268   0.021  0.00  0.00    +0.100 A 
ATOM      3  S   LIG    1       -3.072   3.761   0.034  0.00  0.00    +0.380 S 
ATOM      4  C   LIG    1       -3.593   2.081   0.035  0.00  0.00    -0.180 A 
ATOM      5  C   LIG    1       -2.526   1.281   0.021  0.00  0.00    +0.200 A 
ENDROOT
BRANCH   1   7
ATOM      6  O   LIG    1        0.002  -0.004   0.002  0.00  0.00    -0.130 OA
ATOM      7  N   LIG    1       -0.014   1.214   0.009  0.00  0.00    +0.040 N 
ATOM      8  O   LIG    1        1.032   1.837   0.002  0.00  0.00    -0.140 OA
ENDBRANCH   1   7
BRANCH   4   9
ATOM      9  N   LIG    1       -5.001   1.625   0.045  0.00  0.00    +0.060 N 
ATOM     10  O   LIG    1       -5.906   2.440   0.052  0.00  0.00    -0.140 OA
ATOM     11  O   LIG    1       -5.255   0.434   0.045  0.00  0.00    -0.120 OA
ENDBRANCH   4   9
TORSDOF 2
