REMARK  Name = ZINC000005542382
REMARK                            x       y       z     vdW  Elec       q    Type
REMARK                         _______ _______ _______ _____ _____    ______ ____
ROOT
ATOM      1  C   LIG    1        0.000  -0.697  -1.214  0.00  0.00    +0.220 A 
ATOM      2  C   LIG    1       -0.015   0.002  -2.413  0.00  0.00    -0.010 A 
ATOM      3  C   LIG    1       -0.017  -0.685  -3.611  0.00  0.00    +0.150 A 
ATOM      4  C   LIG    1       -0.004  -2.067  -3.617  0.00  0.00    -0.080 A 
ATOM      5  C   LIG    1        0.011  -2.767  -2.424  0.00  0.00    +0.150 A 
ATOM      6  C   LIG    1        0.019  -2.086  -1.223  0.00  0.00    -0.020 A 
ENDROOT
BRANCH   1   8
ATOM      7  C   LIG    1       -0.018   1.461   0.010  0.00  0.00    +0.300 C 
ATOM      8  N   LIG    1        0.002  -0.004   0.002  0.00  0.00    -0.560 N 
ATOM      9  C   LIG    1        0.022  -0.684   1.165  0.00  0.00    +0.640 C 
ATOM     10  O   LIG    1        0.024  -0.083   2.219  0.00  0.00    -0.510 OA
ENDBRANCH   1   8
BRANCH   4  11
ATOM     11  N   LIG    1       -0.006  -2.801  -4.903  0.00  0.00    +0.030 N 
ATOM     12  O   LIG    1        0.005  -4.019  -4.910  0.00  0.00    -0.160 OA
ATOM     13  O   LIG    1       -0.020  -2.186  -5.955  0.00  0.00    -0.160 OA
ENDBRANCH   4  11
TORSDOF 2
