REMARK  Name = ZINC000071256024
REMARK                            x       y       z     vdW  Elec       q    Type
REMARK                         _______ _______ _______ _____ _____    ______ ____
ROOT
ATOM      1  C   LIG    1        1.467  -2.355  -2.548  0.00  0.00    -0.070 A 
ATOM      2  C   LIG    1        2.013  -1.509  -3.518  0.00  0.00    +0.110 A 
ATOM      3  C   LIG    1        2.639  -2.065  -4.617  0.00  0.00    +0.320 A 
ATOM      4  N   LIG    1        2.724  -3.373  -4.757  0.00  0.00    -0.410 NA
ATOM      5  C   LIG    1        2.224  -4.206  -3.866  0.00  0.00    +0.170 A 
ATOM      6  C   LIG    1        1.587  -3.736  -2.735  0.00  0.00    +0.140 A 
ENDROOT
BRANCH   5   7
ATOM      7  N   LIG    1        2.352  -5.665  -4.079  0.00  0.00    +0.020 N 
ATOM      8  O   LIG    1        1.893  -6.443  -3.262  0.00  0.00    -0.140 OA
ATOM      9  O   LIG    1        2.917  -6.089  -5.072  0.00  0.00    -0.100 OA
ENDBRANCH   5   7
BRANCH   1  10
ATOM     10  C   LIG    1        0.787  -1.805  -1.354  0.00  0.00    +0.510 C 
ATOM     11  O   LIG    1        0.323  -2.556  -0.519  0.00  0.00    -0.480 OA
BRANCH  10  12
ATOM     12  O   LIG    1        0.682  -0.472  -1.193  0.00  0.00    -0.350 OA
BRANCH  12  14
ATOM     13  C   LIG    1       -0.019   1.526   0.010  0.00  0.00    +0.080 C 
ATOM     14  C   LIG    1        0.002  -0.004   0.002  0.00  0.00    +0.220 C 
ENDBRANCH  12  14
ENDBRANCH  10  12
ENDBRANCH   1  10
TORSDOF 4
