REMARK  Name = ZINC000028580555
REMARK                            x       y       z     vdW  Elec       q    Type
REMARK                         _______ _______ _______ _____ _____    ______ ____
ROOT
ATOM      1  O   LIG    1        0.002  -0.004   0.002  0.00  0.00    -0.470 OA
ATOM      2  C   LIG    1       -0.015   1.214   0.009  0.00  0.00    +0.560 A 
ATOM      3  N   LIG    1       -1.197   1.852   0.029  0.00  0.00    -0.610 N 
ATOM      4  H   LIG    1       -2.018   1.335   0.038  0.00  0.00    +0.430 HD
ATOM      5  C   LIG    1       -1.263   3.227   0.037  0.00  0.00    +0.400 A 
ATOM      6  N   LIG    1       -2.434   3.849   0.057  0.00  0.00    -0.520 NA
ATOM      7  C   LIG    1       -2.518   5.163   0.065  0.00  0.00    +0.380 A 
ATOM      8  C   LIG    1       -1.386   5.964   0.053  0.00  0.00    -0.050 A 
ATOM      9  C   LIG    1       -0.136   5.374   0.032  0.00  0.00    +0.180 A 
ATOM     10  C   LIG    1       -0.070   3.975   0.024  0.00  0.00    -0.200 A 
ATOM     11  C   LIG    1        1.214   3.275   0.002  0.00  0.00    +0.290 A 
ATOM     12  C   LIG    1        1.209   1.918   0.001  0.00  0.00    -0.150 A 
ENDROOT
BRANCH  12  13
ATOM     13  N   LIG    1        2.489   1.175  -0.020  0.00  0.00    +0.040 N 
ATOM     14  O   LIG    1        2.486  -0.043  -0.021  0.00  0.00    -0.110 OA
ATOM     15  O   LIG    1        3.545   1.781  -0.036  0.00  0.00    -0.170 OA
ENDBRANCH  12  13
TORSDOF 1
