REMARK  Name = ZINC000088325204
REMARK                            x       y       z     vdW  Elec       q    Type
REMARK                         _______ _______ _______ _____ _____    ______ ____
ROOT
ATOM      1  C   LIG    1       -1.309  -0.679  -0.019  0.00  0.00    -0.210 A 
ATOM      2  C   LIG    1       -2.566  -0.107  -0.246  0.00  0.00    +0.170 A 
ATOM      3  C   LIG    1       -3.695  -0.895  -0.209  0.00  0.00    -0.070 A 
ATOM      4  C   LIG    1       -3.593  -2.252   0.053  0.00  0.00    +0.020 A 
ATOM      5  C   LIG    1       -2.360  -2.831   0.278  0.00  0.00    +0.000 A 
ATOM      6  C   LIG    1       -4.837  -3.102   0.090  0.00  0.00    +0.140 C 
ATOM      7  C   LIG    1       -1.211  -2.056   0.240  0.00  0.00    +0.220 A 
ENDROOT
BRANCH   1   9
ATOM      8  C   LIG    1       -0.212   1.631  -0.336  0.00  0.00    +0.090 C 
ATOM      9  C   LIG    1       -0.101   0.154  -0.057  0.00  0.00    +0.400 C 
ATOM     10  O   LIG    1        0.987  -0.346   0.136  0.00  0.00    -0.430 OA
ENDBRANCH   1   9
BRANCH   3  11
ATOM     11  N   LIG    1       -5.024  -0.289  -0.450  0.00  0.00    +0.020 N 
ATOM     12  O   LIG    1       -5.268   0.830  -0.035  0.00  0.00    -0.150 OA
ATOM     13  O   LIG    1       -5.874  -0.910  -1.063  0.00  0.00    -0.140 OA
ENDBRANCH   3  11
BRANCH   7  14
ATOM     14  O   LIG    1        0.001  -2.623   0.462  0.00  0.00    -0.470 OA
ATOM     15  H   LIG    1        0.434  -2.951  -0.339  0.00  0.00    +0.410 HD
ENDBRANCH   7  14
TORSDOF 3
