REMARK  Name = ZINC000000336972
REMARK                            x       y       z     vdW  Elec       q    Type
REMARK                         _______ _______ _______ _____ _____    ______ ____
ROOT
ATOM      1  O   LIG    1        0.002  -0.004   0.002  0.00  0.00    -0.630 OA
ATOM      2  N   LIG    1       -0.018   1.459   0.010  0.00  0.00    -0.070 NA
ATOM      3  C   LIG    1       -0.705   1.933   1.220  0.00  0.00    +0.200 C 
ATOM      4  C   LIG    1        0.038   1.424   2.458  0.00  0.00    +0.250 C 
ATOM      5  O   LIG    1        1.394   1.875   2.413  0.00  0.00    -0.380 OA
ATOM      6  C   LIG    1        2.099   1.459   1.240  0.00  0.00    +0.250 C 
ATOM      7  C   LIG    1        1.361   1.968  -0.000  0.00  0.00    +0.200 C 
ENDROOT
BRANCH   2   8
ATOM      8  C   LIG    1       -0.694   1.922  -1.122  0.00  0.00    +0.010 A 
ATOM      9  C   LIG    1       -0.347   3.135  -1.687  0.00  0.00    +0.000 A 
ATOM     10  C   LIG    1       -1.016   3.593  -2.806  0.00  0.00    +0.020 A 
ATOM     11  C   LIG    1       -2.032   2.838  -3.362  0.00  0.00    +0.030 A 
ATOM     12  C   LIG    1       -2.378   1.624  -2.798  0.00  0.00    +0.030 A 
ATOM     13  C   LIG    1       -1.707   1.164  -1.681  0.00  0.00    +0.090 A 
ENDBRANCH   2   8
TORSDOF 1
