REMARK  Name = ZINC000089195845
REMARK                            x       y       z     vdW  Elec       q    Type
REMARK                         _______ _______ _______ _____ _____    ______ ____
ROOT
ATOM      1  C   LIG    1       -0.223   1.497   0.023  0.00  0.00    +0.180 C 
ATOM      2  C   LIG    1       -0.167  -0.009   0.012  0.00  0.00    +0.140 A 
ATOM      3  C   LIG    1       -0.170  -0.815  -1.111  0.00  0.00    -0.200 A 
ATOM      4  C   LIG    1       -0.103  -2.203  -0.626  0.00  0.00    +0.110 A 
ATOM      5  C   LIG    1       -0.092  -3.248  -1.574  0.00  0.00    +0.100 A 
ATOM      6  C   LIG    1       -0.142  -2.954  -2.897  0.00  0.00    +0.060 A 
ATOM      7  C   LIG    1       -0.205  -1.636  -3.356  0.00  0.00    +0.090 A 
ATOM      8  N   LIG    1       -0.066  -2.144   0.693  0.00  0.00    -0.280 NA
ATOM      9  C   LIG    1       -0.220  -0.583  -2.502  0.00  0.00    +0.040 A 
ATOM     10  N   LIG    1       -0.099  -0.802   1.089  0.00  0.00    -0.410 N 
ATOM     11  H   LIG    1       -0.082  -0.493   2.009  0.00  0.00    +0.450 HD
ENDROOT
BRANCH   9  12
ATOM     12  N   LIG    1       -0.288   0.800  -3.025  0.00  0.00    +0.020 N 
ATOM     13  O   LIG    1        0.356   1.685  -2.491  0.00  0.00    -0.150 OA
ATOM     14  O   LIG    1       -0.988   1.053  -3.989  0.00  0.00    -0.150 OA
ENDBRANCH   9  12
TORSDOF 1
