REMARK  Name = ZINC000005932572
REMARK                            x       y       z     vdW  Elec       q    Type
REMARK                         _______ _______ _______ _____ _____    ______ ____
ROOT
ATOM      1  C   LIG    1       -1.105  -0.774  -0.864  0.00  0.00    +0.130 A 
ATOM      2  C   LIG    1       -2.142   0.064  -0.478  0.00  0.00    -0.050 A 
ATOM      3  C   LIG    1       -3.303  -0.465   0.056  0.00  0.00    +0.040 A 
ATOM      4  C   LIG    1       -3.437  -1.830   0.209  0.00  0.00    +0.010 A 
ATOM      5  C   LIG    1       -2.399  -2.680  -0.175  0.00  0.00    -0.070 A 
ATOM      6  C   LIG    1       -1.232  -2.146  -0.719  0.00  0.00    +0.030 A 
ENDROOT
BRANCH   1   8
ATOM      7  C   LIG    1        0.097   1.173  -1.509  0.00  0.00    +0.250 C 
ATOM      8  O   LIG    1        0.034  -0.249  -1.388  0.00  0.00    -0.320 OA
ENDBRANCH   1   8
BRANCH   5   9
ATOM      9  C   LIG    1       -2.540  -4.143  -0.013  0.00  0.00    +0.200 C 
ATOM     10  C   LIG    1       -1.541  -4.853   0.492  0.00  0.00    +0.090 C 
BRANCH  10  11
ATOM     11  N   LIG    1       -0.392  -4.167   1.127  0.00  0.00    +0.010 N 
ATOM     12  O   LIG    1        0.579  -4.810   1.482  0.00  0.00    -0.170 OA
ATOM     13  O   LIG    1       -0.419  -2.961   1.293  0.00  0.00    -0.150 OA
ENDBRANCH  10  11
ENDBRANCH   5   9
TORSDOF 3
