REMARK  Name = ZINC000068602895
REMARK                            x       y       z     vdW  Elec       q    Type
REMARK                         _______ _______ _______ _____ _____    ______ ____
ROOT
ATOM      1  N   LIG    1       -1.905  -1.894   0.010  0.00  0.00    -0.420 N 
ATOM      2  C   LIG    1       -1.990  -2.686  -1.080  0.00  0.00    +0.290 A 
ATOM      3  N   LIG    1       -2.111  -3.925  -0.689  0.00  0.00    -0.470 NA
ATOM      4  C   LIG    1       -2.108  -3.968   0.651  0.00  0.00    +0.330 A 
ATOM      5  C   LIG    1       -1.950  -2.217  -2.512  0.00  0.00    +0.210 C 
ATOM      6  C   LIG    1       -1.975  -2.708   1.108  0.00  0.00    +0.000 A 
ENDROOT
BRANCH   6   7
ATOM      7  N   LIG    1       -1.923  -2.284   2.526  0.00  0.00    +0.070 N 
ATOM      8  O   LIG    1       -1.798  -1.105   2.805  0.00  0.00    -0.160 OA
ATOM      9  O   LIG    1       -2.005  -3.115   3.413  0.00  0.00    -0.130 OA
ENDBRANCH   6   7
BRANCH   1  10
ATOM     10  C   LIG    1       -1.760  -0.436   0.017  0.00  0.00    +0.370 C 
BRANCH  10  12
ATOM     11  C   LIG    1       -0.022   1.810   0.012  0.00  0.00    +0.160 C 
ATOM     12  S   LIG    1        0.002  -0.004   0.002  0.00  0.00    -0.240 S 
ENDBRANCH  10  12
ENDBRANCH   1  10
TORSDOF 3
