REMARK  Name = ZINC000216719412
REMARK                            x       y       z     vdW  Elec       q    Type
REMARK                         _______ _______ _______ _____ _____    ______ ____
ROOT
ATOM      1  C   LIG    1       -0.018   1.503   0.010  0.00  0.00    +0.130 C 
ATOM      2  C   LIG    1        0.002  -0.004   0.002  0.00  0.00    -0.110 A 
ATOM      3  C   LIG    1        0.006  -0.689  -1.198  0.00  0.00    +0.120 A 
ATOM      4  C   LIG    1        0.024  -2.071  -1.206  0.00  0.00    -0.050 A 
ATOM      5  C   LIG    1        0.040  -2.772  -0.014  0.00  0.00    +0.150 A 
ATOM      6  C   LIG    1        0.036  -2.092   1.188  0.00  0.00    -0.110 A 
ATOM      7  C   LIG    1        0.023  -0.705   1.199  0.00  0.00    +0.160 A 
ENDROOT
BRANCH   4   8
ATOM      8  N   LIG    1        0.027  -2.803  -2.493  0.00  0.00    +0.030 N 
ATOM      9  O   LIG    1        0.043  -4.020  -2.501  0.00  0.00    -0.150 OA
ATOM     10  O   LIG    1        0.014  -2.186  -3.543  0.00  0.00    -0.160 OA
ENDBRANCH   4   8
BRANCH   7  11
ATOM     11  O   LIG    1        0.019  -0.034   2.381  0.00  0.00    -0.480 OA
ATOM     12  H   LIG    1        0.902   0.169   2.721  0.00  0.00    +0.400 HD
ENDBRANCH   7  11
BRANCH   6  13
ATOM     13  C   LIG    1        0.053  -2.856   2.487  0.00  0.00    +0.260 C 
BRANCH  13  14
ATOM     14  O   LIG    1        0.071  -4.259   2.214  0.00  0.00    -0.570 OA
ATOM     15  H   LIG    1        0.083  -4.813   3.006  0.00  0.00    +0.390 HD
ENDBRANCH  13  14
ENDBRANCH   6  13
TORSDOF 4
