REMARK  Name = ZINC000038888220
REMARK                            x       y       z     vdW  Elec       q    Type
REMARK                         _______ _______ _______ _____ _____    ______ ____
ROOT
ATOM      1  C   LIG    1        0.002  -0.004   0.002  0.00  0.00    +0.160 A 
ATOM      2  C   LIG    1       -1.188  -0.715   0.004  0.00  0.00    +0.060 A 
ATOM      3  C   LIG    1       -1.168  -2.098  -0.004  0.00  0.00    -0.040 A 
ATOM      4  C   LIG    1        0.037  -2.776  -0.014  0.00  0.00    +0.120 A 
ATOM      5  C   LIG    1        1.230  -2.074  -0.015  0.00  0.00    -0.090 A 
ATOM      6 CL   LIG    1        2.741  -2.929  -0.027  0.00  0.00    -0.040 Cl
ATOM      7  C   LIG    1        1.218  -0.687  -0.013  0.00  0.00    +0.210 A 
ENDROOT
BRANCH   1   8
ATOM      8  N   LIG    1       -0.017   1.396   0.010  0.00  0.00    -0.870 N 
ATOM      9  H   LIG    1       -0.863   1.869   0.016  0.00  0.00    +0.410 HD
ATOM     10  H   LIG    1        0.816   1.892   0.004  0.00  0.00    +0.400 HD
ENDBRANCH   1   8
BRANCH   3  11
ATOM     11  N   LIG    1       -2.440  -2.855  -0.003  0.00  0.00    +0.040 N 
ATOM     12  O   LIG    1       -2.424  -4.073  -0.010  0.00  0.00    -0.160 OA
ATOM     13  O   LIG    1       -3.502  -2.260   0.005  0.00  0.00    -0.160 OA
ENDBRANCH   3  11
BRANCH   7  14
ATOM     14  N   LIG    1        2.424   0.026  -0.015  0.00  0.00    -0.860 N 
ATOM     15  H   LIG    1        2.414   0.996  -0.013  0.00  0.00    +0.400 HD
ATOM     16  H   LIG    1        3.269  -0.450  -0.017  0.00  0.00    +0.410 HD
ENDBRANCH   7  14
TORSDOF 3
