REMARK  Name = ZINC000000132826
REMARK                            x       y       z     vdW  Elec       q    Type
REMARK                         _______ _______ _______ _____ _____    ______ ____
ROOT
ATOM      1  N   LIG    1        0.021  -2.982  -2.308  0.00  0.00    -0.450 N 
ATOM      2  C   LIG    1       -1.077  -3.477  -2.959  0.00  0.00    +0.270 A 
ATOM      3  C   LIG    1       -0.630  -4.067  -4.084  0.00  0.00    +0.050 A 
ATOM      4  N   LIG    1        0.705  -3.935  -4.120  0.00  0.00    -0.440 NA
ATOM      5  C   LIG    1        1.101  -3.281  -3.062  0.00  0.00    +0.250 A 
ATOM      6  C   LIG    1        2.528  -2.928  -2.731  0.00  0.00    +0.200 C 
ENDROOT
BRANCH   3   7
ATOM      7  N   LIG    1       -1.465  -4.742  -5.103  0.00  0.00    +0.060 N 
ATOM      8  O   LIG    1       -0.943  -5.241  -6.085  0.00  0.00    -0.130 OA
ATOM      9  O   LIG    1       -2.673  -4.798  -4.961  0.00  0.00    -0.160 OA
ENDBRANCH   3   7
BRANCH   1  10
ATOM     10  C   LIG    1        0.023  -2.256  -1.036  0.00  0.00    +0.330 C 
BRANCH  10  11
ATOM     11  C   LIG    1       -0.000  -0.750  -1.307  0.00  0.00    +0.030 C 
BRANCH  11  13
ATOM     12  C   LIG    1       -0.018   1.503   0.010  0.00  0.00    +0.070 C 
ATOM     13  C   LIG    1        0.002  -0.004   0.002  0.00  0.00    +0.360 C 
ATOM     14  O   LIG    1        0.020  -0.613   1.044  0.00  0.00    -0.450 OA
ENDBRANCH  11  13
ENDBRANCH  10  11
ENDBRANCH   1  10
TORSDOF 4
