REMARK  Name = ZINC000019045846
REMARK                            x       y       z     vdW  Elec       q    Type
REMARK                         _______ _______ _______ _____ _____    ______ ____
ROOT
ATOM      1  C   LIG    1        0.387  -0.736  -1.187  0.00  0.00    +0.270 A 
ATOM      2  C   LIG    1        0.881  -0.033  -2.277  0.00  0.00    -0.030 A 
ATOM      3  C   LIG    1        1.699  -0.666  -3.193  0.00  0.00    +0.100 A 
ATOM      4  C   LIG    1        2.025  -2.003  -3.025  0.00  0.00    +0.050 A 
ATOM      5  C   LIG    1        1.531  -2.706  -1.936  0.00  0.00    +0.110 A 
ATOM      6  C   LIG    1        0.719  -2.074  -1.016  0.00  0.00    -0.110 A 
ENDROOT
BRANCH   1   8
ATOM      7  C   LIG    1       -0.683   1.345  -0.364  0.00  0.00    +0.290 C 
ATOM      8  N   LIG    1       -0.442  -0.096  -0.259  0.00  0.00    -0.730 N 
ATOM      9  H   LIG    1       -0.856  -0.606   0.455  0.00  0.00    +0.410 HD
ENDBRANCH   1   8
BRANCH   6  10
ATOM     10  N   LIG    1        0.192  -2.824   0.146  0.00  0.00    +0.040 N 
ATOM     11  O   LIG    1       -0.144  -3.988   0.018  0.00  0.00    -0.150 OA
ATOM     12  O   LIG    1        0.095  -2.278   1.231  0.00  0.00    -0.180 OA
ENDBRANCH   6  10
BRANCH   4  13
ATOM     13  O   LIG    1        2.830  -2.625  -3.927  0.00  0.00    -0.490 OA
ATOM     14  H   LIG    1        3.772  -2.572  -3.716  0.00  0.00    +0.390 HD
ENDBRANCH   4  13
TORSDOF 3
