REMARK  Name = ZINC000199754692
REMARK                            x       y       z     vdW  Elec       q    Type
REMARK                         _______ _______ _______ _____ _____    ______ ____
ROOT
ATOM      1  C   LIG    1       -1.270  -0.762   0.010  0.00  0.00    +0.020 A 
ATOM      2  C   LIG    1       -1.863  -1.122   1.221  0.00  0.00    -0.010 A 
ATOM      3  C   LIG    1       -3.051  -1.828   1.221  0.00  0.00    +0.100 A 
ATOM      4  C   LIG    1       -3.650  -2.179   0.025  0.00  0.00    +0.070 A 
ATOM      5  C   LIG    1       -3.065  -1.824  -1.178  0.00  0.00    +0.120 A 
ATOM      6 CL   LIG    1       -1.112  -0.682   2.723  0.00  0.00    -0.020 Cl
ATOM      7  C   LIG    1       -1.883  -1.114  -1.192  0.00  0.00    -0.010 A 
ENDROOT
BRANCH   1  10
ATOM      8  N   LIG    1       -0.016   1.298   0.009  0.00  0.00    -0.730 NA
ATOM      9  H   LIG    1        0.818   1.795   0.004  0.00  0.00    +0.340 HD
ATOM     10  C   LIG    1        0.002  -0.004   0.002  0.00  0.00    +0.450 C 
BRANCH  10  11
ATOM     11  N   LIG    1        1.205  -0.677  -0.013  0.00  0.00    -0.880 N 
ATOM     12  H   LIG    1        1.218  -1.647  -0.018  0.00  0.00    +0.390 HD
ATOM     13  H   LIG    1        2.038  -0.180  -0.018  0.00  0.00    +0.410 HD
ENDBRANCH  10  11
ENDBRANCH   1  10
BRANCH   7  14
ATOM     14  N   LIG    1       -1.260  -0.735  -2.481  0.00  0.00    +0.030 N 
ATOM     15  O   LIG    1       -0.216  -0.108  -2.492  0.00  0.00    -0.130 OA
ATOM     16  O   LIG    1       -1.792  -1.051  -3.530  0.00  0.00    -0.150 OA
ENDBRANCH   7  14
TORSDOF 3
