REMARK  Name = ZINC000226240872
REMARK                            x       y       z     vdW  Elec       q    Type
REMARK                         _______ _______ _______ _____ _____    ______ ____
ROOT
ATOM      1  C   LIG    1       -1.306   1.936   0.019  0.00  0.00    +0.130 A 
ATOM      2  C   LIG    1       -1.319   3.323   0.021  0.00  0.00    +0.035 A 
ATOM      3  C   LIG    1       -2.513   4.009   0.029  0.00  0.00    +0.034 A 
ATOM      4  C   LIG    1       -3.717   3.303   0.037  0.00  0.00    +0.110 A 
ATOM      5  N   LIG    1       -5.026   3.674   0.046  0.00  0.00    -0.211 NA
ATOM      6  C   LIG    1       -5.764   2.604   0.050  0.00  0.00    +0.222 A 
ATOM      7  O   LIG    1       -4.992   1.506   0.043  0.00  0.00    -0.437 OA
ATOM      8  C   LIG    1       -3.700   1.900   0.035  0.00  0.00    +0.158 A 
ATOM      9  C   LIG    1       -2.489   1.226   0.021  0.00  0.00    +0.081 A 
ENDROOT
BRANCH   1  11
ATOM     10  O   LIG    1        0.002  -0.004   0.002  0.00  0.00    -0.126 OA
ATOM     11  N   LIG    1       -0.014   1.214   0.009  0.00  0.00    +0.057 N 
ATOM     12  O   LIG    1        1.032   1.837   0.002  0.00  0.00    -0.126 OA
ENDBRANCH   1  11
BRANCH   6  13
ATOM     13  C   LIG    1       -7.271   2.598   0.060  0.00  0.00    +0.251 C 
BRANCH  13  14
ATOM     14  O   LIG    1       -7.756   2.598  -1.284  0.00  0.00    -0.386 OA
ATOM     15  H   LIG    1       -8.720   2.593  -1.354  0.00  0.00    +0.210 HD
ENDBRANCH  13  14
ENDBRANCH   6  13
TORSDOF 3
