REMARK  Name = ZINC000095098549
REMARK                            x       y       z     vdW  Elec       q    Type
REMARK                         _______ _______ _______ _____ _____    ______ ____
ROOT
ATOM      1  C   LIG    1       -1.609  -1.891   0.007  0.00  0.00    +0.400 A 
ATOM      2  N   LIG    1       -0.693  -2.830  -0.001  0.00  0.00    -0.330 NA
ATOM      3  N   LIG    1       -1.341  -4.072  -0.003  0.00  0.00    -0.330 N 
ATOM      4  C   LIG    1       -2.672  -3.849   0.004  0.00  0.00    +0.370 A 
ATOM      5  C   LIG    1       -2.869  -2.511   0.016  0.00  0.00    -0.230 A 
ENDROOT
BRANCH   3   6
ATOM      6  C   LIG    1       -0.688  -5.383  -0.011  0.00  0.00    +0.270 C 
ATOM      7  C   LIG    1       -1.523  -6.364  -0.839  0.00  0.00    +0.060 C 
ATOM      8  C   LIG    1       -0.567  -5.902   1.423  0.00  0.00    +0.060 C 
ENDBRANCH   3   6
BRANCH   5   9
ATOM      9  N   LIG    1       -4.180  -1.823   0.027  0.00  0.00    +0.080 N 
ATOM     10  O   LIG    1       -4.228  -0.606   0.038  0.00  0.00    -0.190 OA
ATOM     11  O   LIG    1       -5.209  -2.474   0.025  0.00  0.00    -0.180 OA
ENDBRANCH   5   9
BRANCH   1  12
ATOM     12  N   LIG    1       -1.372  -0.511   0.012  0.00  0.00    -0.700 N 
ATOM     13  H   LIG    1       -2.118   0.109   0.023  0.00  0.00    +0.420 HD
BRANCH  12  15
ATOM     14  C   LIG    1       -0.019   1.526   0.010  0.00  0.00    +0.030 C 
ATOM     15  C   LIG    1        0.002  -0.004   0.002  0.00  0.00    +0.240 C 
ENDBRANCH  12  15
ENDBRANCH   1  12
TORSDOF 4
