REMARK  Name = ZINC000071617485
REMARK                            x       y       z     vdW  Elec       q    Type
REMARK                         _______ _______ _______ _____ _____    ______ ____
ROOT
ATOM      1  C   LIG    1       -1.202  -0.712  -0.082  0.00  0.00    +0.260 A 
ATOM      2  C   LIG    1       -1.236  -2.071   0.226  0.00  0.00    +0.060 A 
ATOM      3  C   LIG    1       -2.425  -2.773   0.113  0.00  0.00    +0.030 A 
ATOM      4  C   LIG    1       -3.574  -2.127  -0.304  0.00  0.00    +0.020 A 
ATOM      5  C   LIG    1       -3.541  -0.778  -0.609  0.00  0.00    +0.100 A 
ATOM      6  C   LIG    1       -2.360  -0.069  -0.494  0.00  0.00    -0.100 A 
ENDROOT
BRANCH   1   8
ATOM      7  C   LIG    1        1.276  -0.709   0.025  0.00  0.00    +0.300 C 
ATOM      8  N   LIG    1       -0.004   0.003   0.031  0.00  0.00    -0.720 N 
ATOM      9  H   LIG    1       -0.022   0.969   0.113  0.00  0.00    +0.420 HD
ENDBRANCH   1   8
BRANCH   6  10
ATOM     10  N   LIG    1       -2.329   1.374  -0.821  0.00  0.00    +0.050 N 
ATOM     11  O   LIG    1       -1.270   1.976  -0.820  0.00  0.00    -0.190 OA
ATOM     12  O   LIG    1       -3.362   1.960  -1.091  0.00  0.00    -0.160 OA
ENDBRANCH   6  10
BRANCH   2  13
ATOM     13  O   LIG    1       -0.105  -2.706   0.635  0.00  0.00    -0.310 OA
ATOM     14  C   LIG    1       -0.215  -4.099   0.933  0.00  0.00    +0.250 C 
ENDBRANCH   2  13
TORSDOF 3
