REMARK  Name = ZINC000001610535
REMARK                            x       y       z     vdW  Elec       q    Type
REMARK                         _______ _______ _______ _____ _____    ______ ____
ROOT
ATOM      1  C   LIG    1       -0.018   1.503   0.010  0.00  0.00    +0.110 C 
ATOM      2  C   LIG    1        0.002  -0.004   0.002  0.00  0.00    -0.210 A 
ATOM      3  C   LIG    1        0.006  -0.693  -1.203  0.00  0.00    +0.270 A 
ATOM      4  C   LIG    1        0.025  -2.083  -1.207  0.00  0.00    -0.170 A 
ATOM      5  C   LIG    1        0.041  -2.778  -0.013  0.00  0.00    +0.070 A 
ATOM      6  C   LIG    1        0.037  -2.095   1.188  0.00  0.00    -0.170 A 
ATOM      7  C   LIG    1        0.054  -2.858   2.487  0.00  0.00    +0.110 C 
ATOM      8  C   LIG    1        0.030  -2.831  -2.515  0.00  0.00    +0.110 C 
ATOM      9  C   LIG    1        0.023  -0.706   1.199  0.00  0.00    +0.270 A 
ENDROOT
BRANCH   5  10
ATOM     10  N   LIG    1        0.062  -4.258  -0.021  0.00  0.00    +0.020 N 
ATOM     11  O   LIG    1       -0.984  -4.882  -0.020  0.00  0.00    -0.140 OA
ATOM     12  O   LIG    1        1.125  -4.852  -0.030  0.00  0.00    -0.140 OA
ENDBRANCH   5  10
BRANCH   3  13
ATOM     13  N   LIG    1       -0.009   0.010  -2.410  0.00  0.00    -0.860 N 
ATOM     14  H   LIG    1       -0.007  -0.472  -3.252  0.00  0.00    +0.400 HD
ATOM     15  H   LIG    1       -0.022   0.980  -2.406  0.00  0.00    +0.400 HD
ENDBRANCH   3  13
BRANCH   9  16
ATOM     16  N   LIG    1        0.020  -0.017   2.414  0.00  0.00    -0.860 N 
ATOM     17  H   LIG    1        0.010   0.953   2.421  0.00  0.00    +0.400 HD
ATOM     18  H   LIG    1        0.027  -0.508   3.250  0.00  0.00    +0.400 HD
ENDBRANCH   9  16
TORSDOF 3
