REMARK  Name = ZINC000307725296
REMARK                            x       y       z     vdW  Elec       q    Type
REMARK                         _______ _______ _______ _____ _____    ______ ____
ROOT
ATOM      1  C   LIG    1       -2.052  -0.248  -1.348  0.00  0.00    +0.100 A 
ATOM      2  C   LIG    1       -2.874  -1.105  -2.057  0.00  0.00    +0.100 A 
ATOM      3  C   LIG    1       -3.578  -0.620  -3.147  0.00  0.00    +0.010 A 
ATOM      4  C   LIG    1       -3.427   0.722  -3.488  0.00  0.00    +0.250 A 
ATOM      5  C   LIG    1       -2.582   1.520  -2.726  0.00  0.00    +0.060 A 
ATOM      6  N   LIG    1       -1.935   1.019  -1.693  0.00  0.00    -0.380 NA
ENDROOT
BRANCH   5   7
ATOM      7  N   LIG    1       -2.426   2.828  -3.046  0.00  0.00    +0.080 N 
ATOM      8  O   LIG    1       -2.500   3.183  -4.208  0.00  0.00    -0.210 OA
ATOM      9  O   LIG    1       -2.211   3.647  -2.171  0.00  0.00    -0.140 OA
ENDBRANCH   5   7
BRANCH   4  10
ATOM     10  N   LIG    1       -4.116   1.259  -4.578  0.00  0.00    -0.830 N 
ATOM     11  H   LIG    1       -4.127   2.218  -4.721  0.00  0.00    +0.420 HD
ATOM     12  H   LIG    1       -4.584   0.671  -5.193  0.00  0.00    +0.410 HD
ENDBRANCH   4  10
BRANCH   1  13
ATOM     13  C   LIG    1       -1.284  -0.769  -0.161  0.00  0.00    +0.120 C 
BRANCH  13  15
ATOM     14  C   LIG    1        0.426   1.044  -0.339  0.00  0.00    +0.020 C 
ATOM     15  C   LIG    1        0.205  -0.469  -0.346  0.00  0.00    -0.020 C 
ATOM     16  C   LIG    1        1.000  -1.106   0.796  0.00  0.00    +0.020 C 
ENDBRANCH  13  15
ENDBRANCH   1  13
TORSDOF 4
