REMARK  Name = ZINC000039952305
REMARK                            x       y       z     vdW  Elec       q    Type
REMARK                         _______ _______ _______ _____ _____    ______ ____
ROOT
ATOM      1  O   LIG    1        0.002  -0.004   0.002  0.00  0.00    -0.380 OA
ATOM      2  C   LIG    1       -0.014   1.208   0.009  0.00  0.00    +0.380 C 
ATOM      3  C   LIG    1       -1.248   2.078   0.032  0.00  0.00    +0.070 C 
ATOM      4  C   LIG    1       -0.728   3.522   0.032  0.00  0.00    +0.120 C 
ATOM      5  C   LIG    1        0.779   3.429   0.009  0.00  0.00    -0.050 A 
ATOM      6  C   LIG    1        1.739   4.423  -0.001  0.00  0.00    +0.080 A 
ATOM      7  C   LIG    1        3.083   4.096  -0.024  0.00  0.00    +0.080 A 
ATOM      8  C   LIG    1        3.476   2.769  -0.036  0.00  0.00    +0.090 A 
ATOM      9  C   LIG    1        2.531   1.767  -0.027  0.00  0.00    +0.010 A 
ATOM     10  C   LIG    1        1.166   2.089   0.002  0.00  0.00    -0.130 A 
ENDROOT
BRANCH   9  11
ATOM     11  N   LIG    1        2.957   0.350  -0.042  0.00  0.00    +0.010 N 
ATOM     12  O   LIG    1        2.122  -0.537  -0.034  0.00  0.00    -0.110 OA
ATOM     13  O   LIG    1        4.142   0.070  -0.062  0.00  0.00    -0.170 OA
ENDBRANCH   9  11
TORSDOF 1
