REMARK  Name = ZINC000016159845
REMARK                            x       y       z     vdW  Elec       q    Type
REMARK                         _______ _______ _______ _____ _____    ______ ____
ROOT
ATOM      1  C   LIG    1       -1.306   1.936   0.019  0.00  0.00    -0.010 A 
ATOM      2  C   LIG    1       -1.934   2.284  -1.169  0.00  0.00    +0.100 A 
ATOM      3  C   LIG    1       -3.144   2.961  -1.120  0.00  0.00    +0.350 A 
ATOM      4  N   LIG    1       -3.697   3.273   0.037  0.00  0.00    -0.460 NA
ATOM      5  C   LIG    1       -3.127   2.958   1.186  0.00  0.00    +0.350 A 
ATOM      6  F   LIG    1       -3.731   3.298   2.346  0.00  0.00    -0.060 F 
ATOM      7  F   LIG    1       -3.763   3.304  -2.271  0.00  0.00    -0.060 F 
ATOM      8  F   LIG    1       -1.375   1.968  -2.357  0.00  0.00    -0.080 F 
ATOM      9  C   LIG    1       -1.920   2.277   1.216  0.00  0.00    +0.100 A 
ATOM     10  F   LIG    1       -1.344   1.957   2.395  0.00  0.00    -0.080 F 
ENDROOT
BRANCH   1  12
ATOM     11  O   LIG    1        0.002  -0.004   0.002  0.00  0.00    -0.090 OA
ATOM     12  N   LIG    1       -0.014   1.214   0.009  0.00  0.00    +0.010 N 
ATOM     13  O   LIG    1        1.032   1.837   0.002  0.00  0.00    -0.090 OA
ENDBRANCH   1  12
TORSDOF 1
