REMARK  Name = ZINC000095098535
REMARK                            x       y       z     vdW  Elec       q    Type
REMARK                         _______ _______ _______ _____ _____    ______ ____
ROOT
ATOM      1  C   LIG    1        2.851   0.057  -2.397  0.00  0.00    +0.400 A 
ATOM      2  N   LIG    1        2.390  -0.131  -3.611  0.00  0.00    -0.340 NA
ATOM      3  N   LIG    1        3.429   0.119  -4.516  0.00  0.00    -0.340 N 
ATOM      4  C   LIG    1        4.526   0.463  -3.810  0.00  0.00    +0.380 A 
ATOM      5  C   LIG    1        3.340   0.025  -5.976  0.00  0.00    +0.390 C 
ATOM      6  C   LIG    1        4.199   0.439  -2.498  0.00  0.00    -0.230 A 
ENDROOT
BRANCH   6   7
ATOM      7  N   LIG    1        5.103   0.751  -1.368  0.00  0.00    +0.080 N 
ATOM      8  O   LIG    1        4.689   0.695  -0.224  0.00  0.00    -0.190 OA
ATOM      9  O   LIG    1        6.260   1.064  -1.583  0.00  0.00    -0.180 OA
ENDBRANCH   6   7
BRANCH   1  10
ATOM     10  N   LIG    1        2.125  -0.091  -1.209  0.00  0.00    -0.690 N 
ATOM     11  H   LIG    1        2.553   0.075  -0.355  0.00  0.00    +0.420 HD
BRANCH  10  12
ATOM     12  C   LIG    1        0.718  -0.497  -1.257  0.00  0.00    +0.230 C 
ATOM     13  C   LIG    1        0.630  -2.023  -1.329  0.00  0.00    +0.020 C 
BRANCH  12  15
ATOM     14  C   LIG    1       -0.019   1.526   0.010  0.00  0.00    +0.020 C 
ATOM     15  C   LIG    1        0.002  -0.004   0.002  0.00  0.00    +0.020 C 
ENDBRANCH  12  15
ENDBRANCH  10  12
ENDBRANCH   1  10
TORSDOF 4
