REMARK  Name = ZINC000095931671
REMARK                            x       y       z     vdW  Elec       q    Type
REMARK                         _______ _______ _______ _____ _____    ______ ____
ROOT
ATOM      1  N   LIG    1        0.002  -0.004   0.002  0.00  0.00    -0.220 NA
ATOM      2  C   LIG    1        0.851  -0.528   1.092  0.00  0.00    +0.280 C 
ATOM      3  C   LIG    1        1.512  -1.824   0.702  0.00  0.00    -0.110 A 
ATOM      4  C   LIG    1        2.034  -2.809   1.537  0.00  0.00    +0.140 A 
ATOM      5  C   LIG    1        2.617  -3.943   1.013  0.00  0.00    -0.040 A 
ATOM      6  C   LIG    1        2.698  -4.126  -0.355  0.00  0.00    +0.140 A 
ATOM      7  C   LIG    1        2.183  -3.161  -1.200  0.00  0.00    +0.080 A 
ATOM      8  C   LIG    1        1.594  -2.024  -0.673  0.00  0.00    -0.030 A 
ATOM      9  S   LIG    1        0.832  -0.624  -1.449  0.00  0.00    -0.030 S 
ENDROOT
BRANCH   1  10
ATOM     10  N   LIG    1       -0.018   1.450   0.010  0.00  0.00    -0.630 NA
ATOM     11  H   LIG    1       -0.556   1.808  -0.764  0.00  0.00    +0.380 HD
ATOM     12  H   LIG    1        0.919   1.824   0.003  0.00  0.00    +0.340 HD
ENDBRANCH   1  10
BRANCH   5  13
ATOM     13  N   LIG    1        3.163  -4.974   1.924  0.00  0.00    +0.030 N 
ATOM     14  O   LIG    1        3.680  -5.978   1.467  0.00  0.00    -0.150 OA
ATOM     15  O   LIG    1        3.095  -4.819   3.130  0.00  0.00    -0.160 OA
ENDBRANCH   5  13
TORSDOF 2
