REMARK  Name = ZINC000616567707
REMARK                            x       y       z     vdW  Elec       q    Type
REMARK                         _______ _______ _______ _____ _____    ______ ____
ROOT
ATOM      1  C   LIG    1       -0.741   1.462   0.158  0.00  0.00    +0.180 C 
ATOM      2  C   LIG    1       -0.600  -0.038   0.125  0.00  0.00    +0.110 A 
ATOM      3  N   LIG    1       -0.852  -0.811  -0.893  0.00  0.00    -0.230 NA
ATOM      4  N   LIG    1       -0.607  -2.146  -0.555  0.00  0.00    -0.400 N 
ATOM      5  C   LIG    1       -0.179  -2.208   0.746  0.00  0.00    +0.130 A 
ATOM      6  C   LIG    1        0.200  -3.250   1.588  0.00  0.00    +0.060 A 
ATOM      7  C   LIG    1        0.588  -2.981   2.870  0.00  0.00    +0.090 A 
ATOM      8  C   LIG    1        0.610  -1.677   3.348  0.00  0.00    +0.060 A 
ATOM      9  C   LIG    1        0.244  -0.635   2.545  0.00  0.00    +0.040 A 
ATOM     10  C   LIG    1       -0.780  -3.294  -1.448  0.00  0.00    +0.380 C 
ATOM     11  C   LIG    1       -0.151  -0.884   1.226  0.00  0.00    -0.150 A 
ENDROOT
BRANCH   9  12
ATOM     12  N   LIG    1        0.272   0.750   3.065  0.00  0.00    +0.020 N 
ATOM     13  O   LIG    1       -0.074   0.978   4.210  0.00  0.00    -0.150 OA
ATOM     14  O   LIG    1        0.640   1.663   2.347  0.00  0.00    -0.140 OA
ENDBRANCH   9  12
TORSDOF 1
