REMARK  Name = ZINC000005701096
REMARK                            x       y       z     vdW  Elec       q    Type
REMARK                         _______ _______ _______ _____ _____    ______ ____
ROOT
ATOM      1  C   LIG    1        2.390   1.264   0.067  0.00  0.00    +0.210 A 
ATOM      2  C   LIG    1        2.467  -0.122   0.047  0.00  0.00    +0.070 A 
ATOM      3  C   LIG    1        3.696  -0.746   0.132  0.00  0.00    +0.080 A 
ATOM      4  C   LIG    1        4.851   0.009   0.236  0.00  0.00    +0.090 A 
ATOM      5  C   LIG    1        4.777   1.392   0.255  0.00  0.00    +0.090 A 
ATOM      6  F   LIG    1        6.053  -0.603   0.319  0.00  0.00    -0.120 F 
ATOM      7  C   LIG    1        3.551   2.020   0.166  0.00  0.00    -0.050 A 
ENDROOT
BRANCH   1  10
ATOM      8  O   LIG    1        0.152   0.255   1.092  0.00  0.00    -0.530 OA
ATOM      9  C   LIG    1        0.064   1.343   0.563  0.00  0.00    +0.660 C 
ATOM     10  N   LIG    1        1.145   1.899  -0.019  0.00  0.00    -0.670 N 
ATOM     11  H   LIG    1        1.060   2.739  -0.497  0.00  0.00    +0.430 HD
ENDBRANCH   1  10
BRANCH   7  12
ATOM     12  N   LIG    1        3.472   3.498   0.186  0.00  0.00    +0.040 N 
ATOM     13  O   LIG    1        2.387   4.050   0.207  0.00  0.00    -0.170 OA
ATOM     14  O   LIG    1        4.493   4.162   0.182  0.00  0.00    -0.140 OA
ENDBRANCH   7  12
TORSDOF 2
