REMARK  Name = ZINC000001688077
REMARK                            x       y       z     vdW  Elec       q    Type
REMARK                         _______ _______ _______ _____ _____    ______ ____
ROOT
ATOM      1  C   LIG    1       -0.538   1.446   0.087  0.00  0.00    +0.130 C 
ATOM      2  C   LIG    1       -0.247  -0.032   0.039  0.00  0.00    -0.120 A 
ATOM      3  C   LIG    1       -0.348  -0.718  -1.160  0.00  0.00    +0.160 A 
ATOM      4  C   LIG    1       -0.081  -2.074  -1.206  0.00  0.00    -0.040 A 
ATOM      5  C   LIG    1        0.289  -2.747  -0.049  0.00  0.00    +0.250 A 
ATOM      6  C   LIG    1        0.390  -2.054   1.152  0.00  0.00    +0.000 A 
ATOM      7  F   LIG    1       -0.708  -0.062  -2.285  0.00  0.00    -0.120 F 
ATOM      8  C   LIG    1        0.127  -0.699   1.191  0.00  0.00    +0.040 A 
ENDROOT
BRANCH   5   9
ATOM      9  N   LIG    1        0.560  -4.116  -0.092  0.00  0.00    -0.860 N 
ATOM     10  H   LIG    1        0.819  -4.585   0.717  0.00  0.00    +0.410 HD
ATOM     11  H   LIG    1        0.490  -4.598  -0.930  0.00  0.00    +0.410 HD
ENDBRANCH   5   9
BRANCH   8  12
ATOM     12  N   LIG    1        0.235   0.038   2.470  0.00  0.00    +0.020 N 
ATOM     13  O   LIG    1       -0.113  -0.492   3.510  0.00  0.00    -0.150 OA
ATOM     14  O   LIG    1        0.672   1.175   2.482  0.00  0.00    -0.140 OA
ENDBRANCH   8  12
TORSDOF 2
