REMARK  Name = ZINC000045236921
REMARK                            x       y       z     vdW  Elec       q    Type
REMARK                         _______ _______ _______ _____ _____    ______ ____
ROOT
ATOM      1  O   LIG    1        0.002  -0.004   0.002  0.00  0.00    -0.430 OA
ATOM      2  C   LIG    1       -0.014   1.213   0.009  0.00  0.00    +0.520 A 
ATOM      3  N   LIG    1       -1.093   2.002   0.029  0.00  0.00    -0.640 N 
ATOM      4  H   LIG    1       -1.985   1.620   0.040  0.00  0.00    +0.430 HD
ATOM      5  C   LIG    1       -0.912   3.373   0.034  0.00  0.00    +0.200 A 
ATOM      6  C   LIG    1        0.422   3.780   0.017  0.00  0.00    -0.160 A 
ATOM      7  C   LIG    1        0.771   5.119   0.020  0.00  0.00    +0.170 A 
ATOM      8  C   LIG    1       -0.214   6.087   0.040  0.00  0.00    +0.050 A 
ATOM      9  C   LIG    1       -1.544   5.704   0.057  0.00  0.00    +0.160 A 
ATOM     10  C   LIG    1       -1.895   4.374   0.054  0.00  0.00    -0.050 A 
ATOM     11  S   LIG    1        1.387   2.297   0.001  0.00  0.00    +0.040 S 
ENDROOT
BRANCH  10  12
ATOM     12  N   LIG    1       -3.326   3.995   0.073  0.00  0.00    +0.030 N 
ATOM     13  O   LIG    1       -3.644   2.819   0.070  0.00  0.00    -0.180 OA
ATOM     14  O   LIG    1       -4.185   4.858   0.090  0.00  0.00    -0.130 OA
ENDBRANCH  10  12
TORSDOF 1
