REMARK  Name = ZINC000034540550
REMARK                            x       y       z     vdW  Elec       q    Type
REMARK                         _______ _______ _______ _____ _____    ______ ____
ROOT
ATOM      1  C   LIG    1       -1.306   1.936   0.019  0.00  0.00    -0.120 A 
ATOM      2  C   LIG    1       -1.333   3.322   0.021  0.00  0.00    +0.410 A 
ATOM      3  N   LIG    1       -2.468   3.990   0.030  0.00  0.00    -0.450 NA
ATOM      4  C   LIG    1       -3.640   3.372   0.038  0.00  0.00    +0.300 A 
ATOM      5  O   LIG    1       -4.915   3.810   0.048  0.00  0.00    -0.170 OA
ATOM      6  C   LIG    1       -5.779   2.780   0.052  0.00  0.00    +0.260 A 
ATOM      7  C   LIG    1       -5.112   1.617   0.046  0.00  0.00    -0.010 A 
ATOM      8  C   LIG    1       -3.687   1.966   0.036  0.00  0.00    -0.180 A 
ATOM      9  C   LIG    1       -2.499   1.236   0.021  0.00  0.00    +0.220 A 
ENDROOT
BRANCH   1  11
ATOM     10  O   LIG    1        0.002  -0.004   0.002  0.00  0.00    -0.150 OA
ATOM     11  N   LIG    1       -0.014   1.214   0.009  0.00  0.00    +0.040 N 
ATOM     12  O   LIG    1        1.032   1.837   0.002  0.00  0.00    -0.140 OA
ENDBRANCH   1  11
TORSDOF 1
