REMARK  Name = ZINC000001688640
REMARK                            x       y       z     vdW  Elec       q    Type
REMARK                         _______ _______ _______ _____ _____    ______ ____
ROOT
ATOM      1  C   LIG    1       -0.018   1.503   0.010  0.00  0.00    +0.200 C 
ATOM      2  C   LIG    1        0.002  -0.004   0.002  0.00  0.00    +0.090 A 
ATOM      3  N   LIG    1       -1.046  -0.757   0.003  0.00  0.00    -0.480 NA
ATOM      4  C   LIG    1       -0.850  -2.060  -0.006  0.00  0.00    +0.190 A 
ATOM      5  C   LIG    1        0.436  -2.427  -0.014  0.00  0.00    -0.250 A 
ATOM      6  C   LIG    1       -1.981  -3.055  -0.006  0.00  0.00    +0.190 C 
ATOM      7  S   LIG    1        1.417  -0.964  -0.017  0.00  0.00    +0.260 S 
ENDROOT
BRANCH   5   8
ATOM      8  N   LIG    1        0.944  -3.817  -0.025  0.00  0.00    +0.070 N 
ATOM      9  O   LIG    1        2.144  -4.026  -0.032  0.00  0.00    -0.160 OA
ATOM     10  O   LIG    1        0.163  -4.751  -0.027  0.00  0.00    -0.140 OA
ENDBRANCH   5   8
TORSDOF 1
