REMARK  Name = ZINC000001666997
REMARK                            x       y       z     vdW  Elec       q    Type
REMARK                         _______ _______ _______ _____ _____    ______ ____
ROOT
ATOM      1  O   LIG    1        0.073  -0.005   0.050  0.00  0.00    -0.630 OA
ATOM      2  N   LIG    1        0.054   1.457   0.056  0.00  0.00    -0.100 N 
ATOM      3  C   LIG    1       -0.600   1.944  -1.167  0.00  0.00    +0.190 C 
ATOM      4  C   LIG    1        0.136   1.423  -2.401  0.00  0.00    +0.040 C 
ATOM      5  C   LIG    1        1.579   1.936  -2.370  0.00  0.00    +0.010 C 
ATOM      6  C   LIG    1        2.237   1.465  -1.071  0.00  0.00    +0.050 C 
ATOM      7  C   LIG    1       -0.725   1.933   1.209  0.00  0.00    +0.160 C 
ATOM      8  C   LIG    1       -0.122   1.401   2.509  0.00  0.00    +0.070 C 
ATOM      9  C   LIG    1        1.317   1.914   2.632  0.00  0.00    +0.010 C 
ATOM     10  C   LIG    1        2.108   1.455   1.406  0.00  0.00    +0.050 C 
ATOM     11  C   LIG    1        1.429   1.964   0.131  0.00  0.00    +0.140 C 
ENDROOT
BRANCH   7  12
ATOM     12  C   LIG    1       -0.709   3.463   1.232  0.00  0.00    +0.170 C 
BRANCH  12  13
ATOM     13  O   LIG    1       -1.408   3.929   2.388  0.00  0.00    -0.560 OA
ATOM     14  H   LIG    1       -1.438   4.892   2.467  0.00  0.00    +0.390 HD
ENDBRANCH  12  13
ENDBRANCH   7  12
TORSDOF 2
