REMARK  Name = ZINC000104833912
REMARK                            x       y       z     vdW  Elec       q    Type
REMARK                         _______ _______ _______ _____ _____    ______ ____
ROOT
ATOM      1  N   LIG    1       -1.372  -0.511   0.012  0.00  0.00    -0.430 N 
ATOM      2  C   LIG    1       -2.116  -0.789   1.105  0.00  0.00    +0.280 A 
ATOM      3  N   LIG    1       -3.285  -1.219   0.717  0.00  0.00    -0.480 NA
ATOM      4  C   LIG    1       -3.330  -1.231  -0.623  0.00  0.00    +0.310 A 
ATOM      5  C   LIG    1       -1.669  -0.629   2.535  0.00  0.00    +0.220 C 
ATOM      6  C   LIG    1       -2.145  -0.786  -1.083  0.00  0.00    -0.010 A 
ENDROOT
BRANCH   6   7
ATOM      7  N   LIG    1       -1.751  -0.633  -2.502  0.00  0.00    +0.070 N 
ATOM      8  O   LIG    1       -0.641  -0.216  -2.784  0.00  0.00    -0.170 OA
ATOM      9  O   LIG    1       -2.535  -0.923  -3.387  0.00  0.00    -0.130 OA
ENDBRANCH   6   7
BRANCH   1  11
ATOM     10  C   LIG    1       -0.019   1.526   0.010  0.00  0.00    +0.040 C 
ATOM     11  C   LIG    1        0.002  -0.004   0.002  0.00  0.00    +0.300 C 
ENDBRANCH   1  11
TORSDOF 2
