REMARK  Name = ZINC000001757055
REMARK                            x       y       z     vdW  Elec       q    Type
REMARK                         _______ _______ _______ _____ _____    ______ ____
ROOT
ATOM      1  C   LIG    1       -0.019   1.526   0.010  0.00  0.00    +0.070 C 
ATOM      2  C   LIG    1        0.002  -0.004   0.002  0.00  0.00    -0.020 C 
ATOM      3  C   LIG    1        0.745  -0.519  -1.238  0.00  0.00    +0.130 C 
ATOM      4  C   LIG    1        1.925  -1.311  -0.727  0.00  0.00    +0.020 A 
ATOM      5  C   LIG    1        1.928  -1.299   0.667  0.00  0.00    -0.190 A 
ATOM      6  C   LIG    1        2.943  -1.979   1.359  0.00  0.00    +0.150 A 
ATOM      7  C   LIG    1        3.923  -2.648   0.662  0.00  0.00    +0.030 A 
ATOM      8  C   LIG    1        3.912  -2.655  -0.723  0.00  0.00    +0.140 A 
ATOM      9  C   LIG    1        2.916  -1.988  -1.413  0.00  0.00    -0.050 A 
ATOM     10  C   LIG    1        0.785  -0.523   1.183  0.00  0.00    +0.410 C 
ATOM     11  O   LIG    1        0.523  -0.334   2.352  0.00  0.00    -0.420 OA
ENDROOT
BRANCH   9  12
ATOM     12  N   LIG    1        2.911  -2.000  -2.893  0.00  0.00    +0.030 N 
ATOM     13  O   LIG    1        2.035  -1.414  -3.503  0.00  0.00    -0.150 OA
ATOM     14  O   LIG    1        3.783  -2.596  -3.500  0.00  0.00    -0.160 OA
ENDBRANCH   9  12
TORSDOF 1
