REMARK  Name = ZINC000006643320
REMARK                            x       y       z     vdW  Elec       q    Type
REMARK                         _______ _______ _______ _____ _____    ______ ____
ROOT
ATOM      1  C   LIG    1       -1.306   1.936   0.019  0.00  0.00    -0.090 A 
ATOM      2  C   LIG    1       -1.329   3.322   0.021  0.00  0.00    +0.350 A 
ATOM      3  N   LIG    1       -2.464   3.987   0.030  0.00  0.00    -0.430 NA
ATOM      4  C   LIG    1       -3.635   3.357   0.037  0.00  0.00    +0.130 A 
ATOM      5  C   LIG    1       -5.028   3.809   0.048  0.00  0.00    -0.020 A 
ATOM      6  C   LIG    1       -5.800   2.709   0.052  0.00  0.00    +0.290 A 
ATOM      7  N   LIG    1       -5.016   1.590   0.045  0.00  0.00    -0.580 N 
ATOM      8  H   LIG    1       -5.347   0.678   0.046  0.00  0.00    +0.430 HD
ATOM      9  C   LIG    1       -3.688   1.950   0.036  0.00  0.00    +0.040 A 
ATOM     10  C   LIG    1       -2.497   1.232   0.021  0.00  0.00    +0.150 A 
ENDROOT
BRANCH   1  12
ATOM     11  O   LIG    1        0.002  -0.004   0.002  0.00  0.00    -0.160 OA
ATOM     12  N   LIG    1       -0.014   1.214   0.009  0.00  0.00    +0.040 N 
ATOM     13  O   LIG    1        1.032   1.837   0.002  0.00  0.00    -0.150 OA
ENDBRANCH   1  12
TORSDOF 1
