REMARK  Name = ZINC000070503655
REMARK                            x       y       z     vdW  Elec       q    Type
REMARK                         _______ _______ _______ _____ _____    ______ ____
ROOT
ATOM      1  C   LIG    1       -1.293  -0.522  -0.078  0.00  0.00    +0.140 A 
ATOM      2  C   LIG    1       -2.221  -0.223   0.907  0.00  0.00    +0.040 A 
ATOM      3  C   LIG    1       -3.515  -0.744   0.821  0.00  0.00    -0.130 A 
ATOM      4  C   LIG    1       -3.863  -1.563  -0.258  0.00  0.00    +0.090 A 
ATOM      5  C   LIG    1       -2.931  -1.853  -1.232  0.00  0.00    +0.100 A 
ATOM      6  C   LIG    1       -1.652  -1.332  -1.150  0.00  0.00    +0.000 A 
ENDROOT
BRANCH   1   8
ATOM      7  C   LIG    1       -0.018   1.465   0.010  0.00  0.00    +0.230 C 
ATOM      8  N   LIG    1        0.002  -0.004   0.002  0.00  0.00    -0.500 N 
ATOM      9  C   LIG    1        0.706  -0.527   1.180  0.00  0.00    +0.230 C 
ENDBRANCH   1   8
BRANCH   6  10
ATOM     10  N   LIG    1       -0.659  -1.649  -2.200  0.00  0.00    +0.020 N 
ATOM     11  O   LIG    1        0.468  -1.192  -2.130  0.00  0.00    -0.090 OA
ATOM     12  O   LIG    1       -0.968  -2.367  -3.134  0.00  0.00    -0.190 OA
ENDBRANCH   6  10
BRANCH   3  13
ATOM     13  C   LIG    1       -4.507  -0.432   1.862  0.00  0.00    +0.500 C 
ATOM     14  O   LIG    1       -5.630  -0.885   1.786  0.00  0.00    -0.440 OA
ENDBRANCH   3  13
TORSDOF 3
