REMARK  Name = ZINC000044712791
REMARK                            x       y       z     vdW  Elec       q    Type
REMARK                         _______ _______ _______ _____ _____    ______ ____
ROOT
ATOM      1  C   LIG    1        1.196   1.932   0.001  0.00  0.00    -0.310 A 
ATOM      2  C   LIG    1        1.363   3.322   0.013  0.00  0.00    +0.360 A 
ATOM      3  N   LIG    1        2.649   3.610   0.001  0.00  0.00    -0.530 NA
ATOM      4  C   LIG    1        3.413   2.522  -0.019  0.00  0.00    +0.280 A 
ATOM      5  N   LIG    1        4.768   2.333  -0.037  0.00  0.00    -0.470 N 
ATOM      6  H   LIG    1        5.359   3.102  -0.036  0.00  0.00    +0.450 HD
ATOM      7  C   LIG    1        5.290   1.096  -0.056  0.00  0.00    +0.430 A 
ATOM      8  C   LIG    1        4.500  -0.014  -0.058  0.00  0.00    -0.130 A 
ATOM      9  C   LIG    1        3.115   0.115  -0.040  0.00  0.00    +0.270 A 
ATOM     10  C   LIG    1        2.564   1.390  -0.015  0.00  0.00    -0.120 A 
ENDROOT
BRANCH   8  11
ATOM     11  N   LIG    1        5.117  -1.359  -0.080  0.00  0.00    +0.040 N 
ATOM     12  O   LIG    1        4.412  -2.353  -0.082  0.00  0.00    -0.140 OA
ATOM     13  O   LIG    1        6.330  -1.473  -0.095  0.00  0.00    -0.150 OA
ENDBRANCH   8  11
BRANCH   1  15
ATOM     14  O   LIG    1        0.002  -0.004   0.002  0.00  0.00    -0.490 OA
ATOM     15  C   LIG    1       -0.014   1.211   0.009  0.00  0.00    +0.500 C 
ENDBRANCH   1  15
TORSDOF 2
