REMARK  Name = ZINC000005743159
REMARK                            x       y       z     vdW  Elec       q    Type
REMARK                         _______ _______ _______ _____ _____    ______ ____
ROOT
ATOM      1  C   LIG    1       -1.306   1.936   0.019  0.00  0.00    -0.080 A 
ATOM      2  C   LIG    1       -1.323   3.319   0.021  0.00  0.00    +0.150 A 
ATOM      3  C   LIG    1       -2.527   3.997   0.030  0.00  0.00    +0.000 A 
ATOM      4  C   LIG    1       -3.721   3.287   0.037  0.00  0.00    +0.270 A 
ATOM      5  C   LIG    1       -3.700   1.898   0.035  0.00  0.00    -0.020 A 
ATOM      6  C   LIG    1       -2.493   1.227   0.021  0.00  0.00    +0.150 A 
ENDROOT
BRANCH   4   7
ATOM      7  N   LIG    1       -4.941   3.970   0.046  0.00  0.00    -0.510 N 
ATOM      8  C   LIG    1       -6.284   3.358   0.060  0.00  0.00    +0.250 C 
ATOM      9  C   LIG    1       -7.209   4.593   0.066  0.00  0.00    +0.220 C 
ATOM     10  N   LIG    1       -6.280   5.731   0.054  0.00  0.00    -0.210 NA
ATOM     11  N   LIG    1       -5.113   5.354   0.050  0.00  0.00    +0.080 NA
ENDBRANCH   4   7
BRANCH   1  13
ATOM     12  O   LIG    1        0.002  -0.004   0.002  0.00  0.00    -0.170 OA
ATOM     13  N   LIG    1       -0.014   1.214   0.009  0.00  0.00    +0.030 N 
ATOM     14  O   LIG    1        1.032   1.837   0.002  0.00  0.00    -0.160 OA
ENDBRANCH   1  13
TORSDOF 2
