REMARK  Name = ZINC000004088512
REMARK                            x       y       z     vdW  Elec       q    Type
REMARK                         _______ _______ _______ _____ _____    ______ ____
ROOT
ATOM      1  C   LIG    1       -0.018   1.503   0.010  0.00  0.00    +0.100 C 
ATOM      2  C   LIG    1        0.002  -0.004   0.002  0.00  0.00    -0.160 A 
ATOM      3  C   LIG    1        0.006  -0.689  -1.197  0.00  0.00    +0.110 A 
ATOM      4  C   LIG    1        0.025  -2.072  -1.206  0.00  0.00    -0.020 A 
ATOM      5  C   LIG    1        0.040  -2.773  -0.014  0.00  0.00    +0.000 A 
ATOM      6  C   LIG    1        0.037  -2.095   1.189  0.00  0.00    -0.110 A 
ATOM      7  C   LIG    1        0.061  -4.280  -0.029  0.00  0.00    +0.120 C 
ATOM      8  C   LIG    1        0.023  -0.706   1.201  0.00  0.00    +0.270 A 
ENDROOT
BRANCH   6   9
ATOM      9  N   LIG    1        0.054  -2.847   2.463  0.00  0.00    +0.020 N 
ATOM     10  O   LIG    1       -0.994  -3.170   2.993  0.00  0.00    -0.140 OA
ATOM     11  O   LIG    1        1.115  -3.142   2.983  0.00  0.00    -0.140 OA
ENDBRANCH   6   9
BRANCH   8  12
ATOM     12  N   LIG    1        0.020  -0.017   2.416  0.00  0.00    -0.860 N 
ATOM     13  H   LIG    1        0.011   0.953   2.423  0.00  0.00    +0.410 HD
ATOM     14  H   LIG    1        0.028  -0.508   3.252  0.00  0.00    +0.400 HD
ENDBRANCH   8  12
TORSDOF 2
