REMARK  Name = ZINC000039018132
REMARK                            x       y       z     vdW  Elec       q    Type
REMARK                         _______ _______ _______ _____ _____    ______ ____
ROOT
ATOM      1  C   LIG    1       -0.003  -0.005  -0.062  0.00  0.00    +0.480 A 
ATOM      2  N   LIG    1       -1.135  -0.677   0.040  0.00  0.00    -0.540 NA
ATOM      3  C   LIG    1       -1.171  -2.003   0.096  0.00  0.00    +0.250 A 
ATOM      4  C   LIG    1       -0.005  -2.729   0.045  0.00  0.00    -0.190 A 
ATOM      5  C   LIG    1        0.022  -4.234   0.088  0.00  0.00    +0.090 C 
ATOM      6  C   LIG    1       -1.300  -4.780   0.622  0.00  0.00    +0.030 C 
ATOM      7  C   LIG    1       -2.445  -4.132  -0.167  0.00  0.00    +0.030 C 
ATOM      8  C   LIG    1        1.213  -2.058  -0.058  0.00  0.00    +0.200 A 
ATOM      9  C   LIG    1       -2.524  -2.657   0.221  0.00  0.00    +0.120 C 
ATOM     10  C   LIG    1        1.213  -0.678  -0.118  0.00  0.00    -0.200 A 
ENDROOT
BRANCH   1  11
ATOM     11  N   LIG    1       -0.027   1.384  -0.118  0.00  0.00    -0.820 N 
ATOM     12  H   LIG    1       -0.856   1.861   0.039  0.00  0.00    +0.420 HD
ATOM     13  H   LIG    1        0.785   1.875  -0.319  0.00  0.00    +0.420 HD
ENDBRANCH   1  11
BRANCH  10  14
ATOM     14  N   LIG    1        2.378   0.007  -0.220  0.00  0.00    +0.090 N 
ATOM     15  O   LIG    1        2.519   1.059   0.377  0.00  0.00    -0.200 OA
ATOM     16  O   LIG    1        3.283  -0.428  -0.910  0.00  0.00    -0.170 OA
ENDBRANCH  10  14
TORSDOF 2
