REMARK  Name = ZINC000043669456
REMARK                            x       y       z     vdW  Elec       q    Type
REMARK                         _______ _______ _______ _____ _____    ______ ____
ROOT
ATOM      1  N   LIG    1       -2.105  -0.148  -1.230  0.00  0.00    -0.380 N 
ATOM      2  N   LIG    1       -2.829   1.032  -1.445  0.00  0.00    -0.270 NA
ATOM      3  C   LIG    1       -3.279   1.022  -2.673  0.00  0.00    +0.350 A 
ATOM      4  C   LIG    1       -2.860  -0.162  -3.286  0.00  0.00    -0.260 A 
ATOM      5  C   LIG    1       -2.132  -0.866  -2.376  0.00  0.00    +0.460 A 
ENDROOT
BRANCH   4   6
ATOM      6  N   LIG    1       -3.151  -0.574  -4.678  0.00  0.00    +0.090 N 
ATOM      7  O   LIG    1       -2.727  -1.635  -5.100  0.00  0.00    -0.210 OA
ATOM      8  O   LIG    1       -3.814   0.148  -5.401  0.00  0.00    -0.170 OA
ENDBRANCH   4   6
BRANCH   5   9
ATOM      9  N   LIG    1       -1.531  -2.105  -2.585  0.00  0.00    -0.820 N 
ATOM     10  H   LIG    1       -1.030  -2.527  -1.870  0.00  0.00    +0.410 HD
ATOM     11  H   LIG    1       -1.613  -2.545  -3.446  0.00  0.00    +0.430 HD
ENDBRANCH   5   9
BRANCH   1  12
ATOM     12  C   LIG    1       -1.433  -0.534   0.013  0.00  0.00    +0.330 C 
BRANCH  12  14
ATOM     13  C   LIG    1       -0.019   1.526   0.010  0.00  0.00    +0.030 C 
ATOM     14  C   LIG    1        0.002  -0.004   0.002  0.00  0.00    -0.050 C 
ATOM     15  C   LIG    1        0.742  -0.511   1.242  0.00  0.00    +0.040 C 
ENDBRANCH  12  14
ENDBRANCH   1  12
TORSDOF 4
