REMARK  Name = ZINC000034168138
REMARK                            x       y       z     vdW  Elec       q    Type
REMARK                         _______ _______ _______ _____ _____    ______ ____
ROOT
ATOM      1  C   LIG    1        0.698  -0.699   0.996  0.00  0.00    +0.200 A 
ATOM      2  C   LIG    1        1.365  -0.004   1.995  0.00  0.00    +0.070 A 
ATOM      3  C   LIG    1        2.050  -0.693   2.976  0.00  0.00    -0.010 A 
ATOM      4  C   LIG    1        2.073  -2.075   2.965  0.00  0.00    +0.070 A 
ATOM      5  C   LIG    1        1.410  -2.774   1.972  0.00  0.00    +0.060 A 
ATOM      6  C   LIG    1        0.717  -2.090   0.990  0.00  0.00    +0.070 A 
ATOM      7  F   LIG    1        0.070  -2.772   0.020  0.00  0.00    -0.130 F 
ENDROOT
BRANCH   3   8
ATOM      8  N   LIG    1        2.761   0.049   4.041  0.00  0.00    +0.030 N 
ATOM      9  O   LIG    1        3.366  -0.558   4.907  0.00  0.00    -0.150 OA
ATOM     10  O   LIG    1        2.742   1.267   4.052  0.00  0.00    -0.150 OA
ENDBRANCH   3   8
BRANCH   1  11
ATOM     11  N   LIG    1        0.002  -0.004   0.002  0.00  0.00    -0.580 N 
ATOM     12  H   LIG    1       -0.467  -0.492  -0.693  0.00  0.00    +0.410 HD
BRANCH  11  13
ATOM     13  N   LIG    1       -0.016   1.362   0.009  0.00  0.00    -0.600 NA
ATOM     14  H   LIG    1       -0.555   1.720  -0.765  0.00  0.00    +0.370 HD
ATOM     15  H   LIG    1        0.920   1.736   0.003  0.00  0.00    +0.340 HD
ENDBRANCH  11  13
ENDBRANCH   1  11
TORSDOF 3
