REMARK  Name = ZINC000196112302
REMARK                            x       y       z     vdW  Elec       q    Type
REMARK                         _______ _______ _______ _____ _____    ______ ____
ROOT
ATOM      1  C   LIG    1       -0.018   1.461   0.010  0.00  0.00    +0.370 C 
ATOM      2  N   LIG    1        0.002  -0.004   0.002  0.00  0.00    -0.390 N 
ATOM      3  N   LIG    1        0.008  -0.808  -1.142  0.00  0.00    -0.300 NA
ATOM      4  C   LIG    1        0.027  -2.070  -0.803  0.00  0.00    +0.360 A 
ATOM      5  C   LIG    1        0.034  -2.136   0.659  0.00  0.00    -0.160 A 
ATOM      6  C   LIG    1        0.052  -3.184   1.583  0.00  0.00    +0.130 A 
ATOM      7  C   LIG    1        0.053  -2.906   2.920  0.00  0.00    +0.040 A 
ATOM      8  C   LIG    1        0.037  -1.591   3.369  0.00  0.00    +0.020 A 
ATOM      9  C   LIG    1        0.020  -0.550   2.484  0.00  0.00    +0.090 A 
ATOM     10  C   LIG    1        0.024  -0.804   1.115  0.00  0.00    +0.150 A 
ENDROOT
BRANCH   8  11
ATOM     11  N   LIG    1        0.039  -1.315   4.823  0.00  0.00    +0.020 N 
ATOM     12  O   LIG    1        0.025  -0.165   5.224  0.00  0.00    -0.160 OA
ATOM     13  O   LIG    1        0.055  -2.238   5.618  0.00  0.00    -0.150 OA
ENDBRANCH   8  11
BRANCH   4  14
ATOM     14  N   LIG    1        0.039  -3.159  -1.679  0.00  0.00    -0.830 N 
ATOM     15  H   LIG    1        0.053  -4.063  -1.328  0.00  0.00    +0.420 HD
ATOM     16  H   LIG    1        0.033  -3.011  -2.638  0.00  0.00    +0.410 HD
ENDBRANCH   4  14
TORSDOF 2
