REMARK  Name = ZINC000004722185
REMARK                            x       y       z     vdW  Elec       q    Type
REMARK                         _______ _______ _______ _____ _____    ______ ____
ROOT
ATOM      1  C   LIG    1       -1.306   1.937   0.019  0.00  0.00    +0.080 A 
ATOM      2  C   LIG    1       -2.526   1.368   0.027  0.00  0.00    +0.120 A 
ATOM      3  C   LIG    1       -3.469   2.422   0.035  0.00  0.00    +0.120 A 
ATOM      4  C   LIG    1       -2.769   3.571   0.032  0.00  0.00    +0.080 A 
ATOM      5  O   LIG    1       -1.460   3.271   0.027  0.00  0.00    -0.120 OA
ENDROOT
BRANCH   1   7
ATOM      6  O   LIG    1        0.002  -0.004   0.002  0.00  0.00    -0.090 OA
ATOM      7  N   LIG    1       -0.014   1.214   0.009  0.00  0.00    +0.050 N 
ATOM      8  O   LIG    1        1.032   1.837   0.002  0.00  0.00    -0.100 OA
ENDBRANCH   1   7
BRANCH   4   9
ATOM      9  N   LIG    1       -3.345   4.935   0.038  0.00  0.00    +0.050 N 
ATOM     10  O   LIG    1       -2.610   5.906   0.035  0.00  0.00    -0.100 OA
ATOM     11  O   LIG    1       -4.553   5.085   0.048  0.00  0.00    -0.090 OA
ENDBRANCH   4   9
TORSDOF 2
