REMARK  Name = ZINC000034066700
REMARK                            x       y       z     vdW  Elec       q    Type
REMARK                         _______ _______ _______ _____ _____    ______ ____
ROOT
ATOM      1  C   LIG    1       -1.306   1.936   0.019  0.00  0.00    -0.020 A 
ATOM      2  C   LIG    1       -2.495   1.230   0.026  0.00  0.00    +0.110 A 
ATOM      3  C   LIG    1       -3.701   1.904   0.036  0.00  0.00    +0.050 A 
ATOM      4  C   LIG    1       -3.721   3.287   0.039  0.00  0.00    +0.110 A 
ATOM      5  C   LIG    1       -2.535   3.993   0.031  0.00  0.00    -0.130 A 
ATOM      6  C   LIG    1       -2.223   5.471   0.031  0.00  0.00    +0.290 C 
ATOM      7  O   LIG    1       -0.853   5.584  -0.402  0.00  0.00    -0.350 OA
ATOM      8  C   LIG    1       -0.230   4.356   0.018  0.00  0.00    +0.310 C 
ATOM      9  C   LIG    1       -1.326   3.316   0.026  0.00  0.00    -0.070 A 
ENDROOT
BRANCH   1  11
ATOM     10  O   LIG    1        0.002  -0.004   0.002  0.00  0.00    -0.150 OA
ATOM     11  N   LIG    1       -0.014   1.214   0.009  0.00  0.00    +0.030 N 
ATOM     12  O   LIG    1        1.032   1.837   0.002  0.00  0.00    -0.160 OA
ENDBRANCH   1  11
TORSDOF 1
