REMARK  Name = ZINC000095931240
REMARK                            x       y       z     vdW  Elec       q    Type
REMARK                         _______ _______ _______ _____ _____    ______ ____
ROOT
ATOM      1  C   LIG    1        0.614  -2.074  -1.042  0.00  0.00    -0.100 A 
ATOM      2  C   LIG    1        1.636  -2.751  -0.405  0.00  0.00    +0.140 A 
ATOM      3  C   LIG    1        1.602  -4.130  -0.317  0.00  0.00    +0.000 A 
ATOM      4  C   LIG    1        0.543  -4.833  -0.867  0.00  0.00    +0.180 A 
ATOM      5  C   LIG    1       -0.480  -4.153  -1.505  0.00  0.00    -0.090 A 
ATOM      6  F   LIG    1        0.509  -6.181  -0.780  0.00  0.00    -0.100 F 
ATOM      7  C   LIG    1       -0.447  -2.774  -1.588  0.00  0.00    +0.150 A 
ENDROOT
BRANCH   5   8
ATOM      8  N   LIG    1       -1.613  -4.902  -2.094  0.00  0.00    +0.030 N 
ATOM      9  O   LIG    1       -1.645  -6.117  -2.016  0.00  0.00    -0.140 OA
ATOM     10  O   LIG    1       -2.513  -4.304  -2.655  0.00  0.00    -0.150 OA
ENDBRANCH   5   8
BRANCH   1  11
ATOM     11  C   LIG    1        0.652  -0.570  -1.138  0.00  0.00    +0.240 C 
BRANCH  11  13
ATOM     12  C   LIG    1       -0.017   1.425   0.010  0.00  0.00    +0.220 C 
ATOM     13  O   LIG    1        0.002  -0.004   0.002  0.00  0.00    -0.390 OA
ENDBRANCH  11  13
ENDBRANCH   1  11
TORSDOF 3
