REMARK  Name = ZINC000149879549
REMARK                            x       y       z     vdW  Elec       q    Type
REMARK                         _______ _______ _______ _____ _____    ______ ____
ROOT
ATOM      1  C   LIG    1        0.707  -0.490  -1.238  0.00  0.00    -0.040 A 
ATOM      2  C   LIG    1        2.085  -0.609  -1.248  0.00  0.00    +0.020 A 
ATOM      3  C   LIG    1        2.733  -1.054  -2.385  0.00  0.00    +0.150 A 
ATOM      4  C   LIG    1        2.005  -1.381  -3.512  0.00  0.00    -0.090 A 
ATOM      5  C   LIG    1        0.625  -1.264  -3.504  0.00  0.00    +0.180 A 
ATOM      6  F   LIG    1       -0.087  -1.583  -4.606  0.00  0.00    -0.100 F 
ATOM      7  C   LIG    1       -0.023  -0.823  -2.363  0.00  0.00    +0.010 A 
ENDROOT
BRANCH   4   8
ATOM      8  N   LIG    1        2.700  -1.859  -4.729  0.00  0.00    +0.030 N 
ATOM      9  O   LIG    1        2.058  -2.147  -5.723  0.00  0.00    -0.140 OA
ATOM     10  O   LIG    1        3.913  -1.963  -4.737  0.00  0.00    -0.150 OA
ENDBRANCH   4   8
BRANCH   1  12
ATOM     11  C   LIG    1       -0.019   1.526   0.010  0.00  0.00    +0.040 C 
ATOM     12  C   LIG    1        0.002  -0.004   0.002  0.00  0.00    +0.260 C 
BRANCH  12  13
ATOM     13  O   LIG    1        0.693  -0.477   1.160  0.00  0.00    -0.550 OA
ATOM     14  H   LIG    1        1.611  -0.180   1.219  0.00  0.00    +0.380 HD
ENDBRANCH  12  13
ENDBRANCH   1  12
TORSDOF 3
