REMARK  Name = ZINC000001619050
REMARK                            x       y       z     vdW  Elec       q    Type
REMARK                         _______ _______ _______ _____ _____    ______ ____
ROOT
ATOM      1  C   LIG    1        0.739  -2.027  -1.265  0.00  0.00    +0.190 C 
ENDROOT
BRANCH   1   2
ATOM      2  C   LIG    1        1.343  -2.522  -2.581  0.00  0.00    +0.140 C 
ATOM      3  C   LIG    1        0.497  -2.017  -3.752  0.00  0.00    +0.110 C 
BRANCH   2   4
ATOM      4  N   LIG    1        1.363  -3.987  -2.589  0.00  0.00    -0.030 N 
ATOM      5  O   LIG    1        2.421  -4.581  -2.694  0.00  0.00    -0.180 OA
ATOM      6  O   LIG    1        0.321  -4.611  -2.491  0.00  0.00    -0.110 OA
ENDBRANCH   2   4
ENDBRANCH   1   2
BRANCH   1   7
ATOM      7  C   LIG    1        0.718  -0.497  -1.257  0.00  0.00    +0.070 C 
BRANCH   7   9
ATOM      8  C   LIG    1       -0.019   1.526   0.010  0.00  0.00    +0.030 C 
ATOM      9  C   LIG    1        0.002  -0.004   0.002  0.00  0.00    +0.020 C 
ENDBRANCH   7   9
ENDBRANCH   1   7
BRANCH   1  10
ATOM     10  O   LIG    1        1.541  -2.507  -0.154  0.00  0.00    -0.350 OA
BRANCH  10  11
ATOM     11  C   LIG    1        1.204  -3.694   0.374  0.00  0.00    +0.440 C 
ATOM     12  O   LIG    1        0.269  -4.312  -0.078  0.00  0.00    -0.480 OA
ATOM     13  C   LIG    1        1.991  -4.256   1.530  0.00  0.00    +0.170 C 
ENDBRANCH  10  11
ENDBRANCH   1  10
TORSDOF 6
