REMARK  Name = ZINC000095735426
REMARK                            x       y       z     vdW  Elec       q    Type
REMARK                         _______ _______ _______ _____ _____    ______ ____
ROOT
ATOM      1  C   LIG    1        0.551  -1.128   3.287  0.00  0.00    +0.250 A 
ATOM      2  C   LIG    1       -0.510  -2.023   3.293  0.00  0.00    -0.010 A 
ATOM      3  C   LIG    1       -0.574  -3.026   2.345  0.00  0.00    +0.050 A 
ATOM      4  C   LIG    1        0.424  -3.139   1.388  0.00  0.00    +0.080 A 
ATOM      5  C   LIG    1        1.485  -2.246   1.382  0.00  0.00    +0.110 A 
ATOM      6  C   LIG    1        1.546  -1.239   2.325  0.00  0.00    -0.080 A 
ENDROOT
BRANCH   1   7
ATOM      7  N   LIG    1        0.616  -0.112   4.247  0.00  0.00    -0.860 N 
ATOM      8  H   LIG    1        0.026  -0.134   5.016  0.00  0.00    +0.410 HD
ATOM      9  H   LIG    1        1.249   0.616   4.141  0.00  0.00    +0.410 HD
ENDBRANCH   1   7
BRANCH   6  10
ATOM     10  N   LIG    1        2.679  -0.286   2.317  0.00  0.00    +0.040 N 
ATOM     11  O   LIG    1        3.138   0.122   3.369  0.00  0.00    -0.170 OA
ATOM     12  O   LIG    1        3.152   0.089   1.260  0.00  0.00    -0.150 OA
ENDBRANCH   6  10
BRANCH   4  13
ATOM     13  O   LIG    1        0.361  -4.127   0.455  0.00  0.00    -0.280 OA
BRANCH  13  14
ATOM     14  C   LIG    1       -0.823  -4.927   0.436  0.00  0.00    +0.120 C 
ATOM     15  C   LIG    1       -0.700  -6.358  -0.092  0.00  0.00    +0.070 C 
ATOM     16  C   LIG    1       -0.892  -6.110   1.405  0.00  0.00    +0.020 C 
ENDBRANCH  13  14
ENDBRANCH   4  13
TORSDOF 4
