REMARK  Name = ZINC000001656038
REMARK                            x       y       z     vdW  Elec       q    Type
REMARK                         _______ _______ _______ _____ _____    ______ ____
ROOT
ATOM      1  C   LIG    1       -0.019   1.526   0.010  0.00  0.00    +0.030 C 
ATOM      2  C   LIG    1        0.002  -0.004   0.002  0.00  0.00    +0.020 C 
ATOM      3  C   LIG    1       -1.433  -0.534   0.013  0.00  0.00    +0.040 C 
ATOM      4  C   LIG    1       -1.413  -2.063   0.004  0.00  0.00    +0.010 C 
ATOM      5  C   LIG    1       -0.673  -2.570   1.244  0.00  0.00    +0.030 C 
ATOM      6  C   LIG    1        0.763  -2.041   1.233  0.00  0.00    -0.010 C 
ATOM      7  C   LIG    1        0.742  -0.511   1.242  0.00  0.00    +0.140 C 
ENDROOT
BRANCH   7   8
ATOM      8  O   LIG    1        0.073  -0.050   2.417  0.00  0.00    -0.540 OA
ATOM      9  H   LIG    1        0.488  -0.334   3.243  0.00  0.00    +0.390 HD
ENDBRANCH   7   8
BRANCH   7  10
ATOM     10  C   LIG    1        2.178   0.019   1.231  0.00  0.00    +0.240 C 
BRANCH  10  11
ATOM     11  N   LIG    1        2.921  -0.562   2.352  0.00  0.00    -0.010 N 
ATOM     12  O   LIG    1        2.414  -0.610   3.458  0.00  0.00    -0.170 OA
ATOM     13  O   LIG    1        4.045  -0.996   2.178  0.00  0.00    -0.150 OA
ENDBRANCH  10  11
ENDBRANCH   7  10
TORSDOF 3
