REMARK  Name = ZINC000039615228
REMARK                            x       y       z     vdW  Elec       q    Type
REMARK                         _______ _______ _______ _____ _____    ______ ____
ROOT
ATOM      1  C   LIG    1       -0.002  -0.005  -0.048  0.00  0.00    +0.240 A 
ATOM      2  C   LIG    1       -1.188  -0.719   0.058  0.00  0.00    +0.000 A 
ATOM      3  C   LIG    1       -1.163  -2.100   0.101  0.00  0.00    -0.070 A 
ATOM      4  C   LIG    1        0.040  -2.785   0.037  0.00  0.00    +0.150 A 
ATOM      5  N   LIG    1       -0.153  -4.170   0.094  0.00  0.00    -0.740 N 
ATOM      6  H   LIG    1        0.555  -4.831   0.065  0.00  0.00    +0.420 HD
ATOM      7  C   LIG    1       -1.582  -4.473   0.205  0.00  0.00    +0.260 C 
ATOM      8  C   LIG    1        1.229  -2.062  -0.071  0.00  0.00    +0.050 A 
ATOM      9  C   LIG    1       -2.286  -3.107   0.212  0.00  0.00    +0.110 C 
ATOM     10  C   LIG    1        1.206  -0.685  -0.118  0.00  0.00    -0.070 A 
ENDROOT
BRANCH   1  11
ATOM     11  N   LIG    1       -0.025   1.395  -0.091  0.00  0.00    -0.860 N 
ATOM     12  H   LIG    1       -0.856   1.871   0.066  0.00  0.00    +0.410 HD
ATOM     13  H   LIG    1        0.788   1.887  -0.282  0.00  0.00    +0.410 HD
ENDBRANCH   1  11
BRANCH  10  14
ATOM     14  N   LIG    1        2.474   0.071  -0.232  0.00  0.00    +0.040 N 
ATOM     15  O   LIG    1        2.611   1.125   0.363  0.00  0.00    -0.180 OA
ATOM     16  O   LIG    1        3.380  -0.360  -0.923  0.00  0.00    -0.150 OA
ENDBRANCH  10  14
TORSDOF 2
