REMARK  Name = ZINC000115037540
REMARK                            x       y       z     vdW  Elec       q    Type
REMARK                         _______ _______ _______ _____ _____    ______ ____
ROOT
ATOM      1  C   LIG    1       -0.018   1.503   0.010  0.00  0.00    +0.100 C 
ATOM      2  C   LIG    1        0.002  -0.004   0.002  0.00  0.00    -0.090 A 
ATOM      3  C   LIG    1        0.006  -0.689  -1.199  0.00  0.00    +0.030 A 
ATOM      4  C   LIG    1        0.025  -2.071  -1.206  0.00  0.00    +0.010 A 
ATOM      5  C   LIG    1        0.040  -2.768  -0.013  0.00  0.00    +0.030 A 
ATOM      6  C   LIG    1        0.037  -2.084   1.188  0.00  0.00    -0.130 A 
ATOM      7  C   LIG    1        0.023  -0.702   1.196  0.00  0.00    +0.050 A 
ENDROOT
BRANCH   6   8
ATOM      8  C   LIG    1        0.054  -2.844   2.489  0.00  0.00    +0.310 C 
BRANCH   8   9
ATOM      9  N   LIG    1        1.440  -3.073   2.903  0.00  0.00    -0.020 N 
ATOM     10  O   LIG    1        1.782  -4.170   3.308  0.00  0.00    -0.170 OA
ATOM     11  O   LIG    1        2.251  -2.166   2.844  0.00  0.00    -0.150 OA
ENDBRANCH   8   9
ENDBRANCH   6   8
TORSDOF 2
