REMARK  Name = ZINC000005354015
REMARK                            x       y       z     vdW  Elec       q    Type
REMARK                         _______ _______ _______ _____ _____    ______ ____
ROOT
ATOM      1  C   LIG    1        0.661  -2.081  -1.126  0.00  0.00    -0.040 A 
ATOM      2  C   LIG    1        0.092  -2.857  -0.116  0.00  0.00    +0.090 A 
ATOM      3  C   LIG    1        0.149  -4.233  -0.193  0.00  0.00    +0.100 A 
ATOM      4  C   LIG    1        0.769  -4.844  -1.268  0.00  0.00    -0.030 A 
ATOM      5  C   LIG    1        1.335  -4.080  -2.273  0.00  0.00    +0.110 A 
ATOM      6  C   LIG    1        1.280  -2.703  -2.211  0.00  0.00    +0.060 A 
ENDROOT
BRANCH   1   7
ATOM      7  C   LIG    1        0.603  -0.604  -1.051  0.00  0.00    +0.390 C 
ATOM      8  N   LIG    1        1.129   0.116  -1.996  0.00  0.00    -0.720 NA
ATOM      9  H   LIG    1        1.560  -0.314  -2.751  0.00  0.00    +0.360 HD
BRANCH   7  11
ATOM     10  C   LIG    1       -0.017   1.425   0.010  0.00  0.00    +0.260 C 
ATOM     11  O   LIG    1        0.002  -0.004   0.002  0.00  0.00    -0.310 OA
ENDBRANCH   7  11
ENDBRANCH   1   7
BRANCH   4  12
ATOM     12  N   LIG    1        0.827  -6.321  -1.343  0.00  0.00    +0.020 N 
ATOM     13  O   LIG    1        1.373  -6.862  -2.289  0.00  0.00    -0.150 OA
ATOM     14  O   LIG    1        0.330  -6.996  -0.460  0.00  0.00    -0.150 OA
ENDBRANCH   4  12
TORSDOF 3
