REMARK  Name = ZINC000000251359
REMARK                            x       y       z     vdW  Elec       q    Type
REMARK                         _______ _______ _______ _____ _____    ______ ____
ROOT
ATOM      1  C   LIG    1       -1.412  -0.526   0.013  0.00  0.00    +0.130 A 
ATOM      2  N   LIG    1       -2.015  -0.752   1.163  0.00  0.00    -0.430 NA
ATOM      3  C   LIG    1       -3.251  -1.209   1.221  0.00  0.00    +0.140 A 
ATOM      4  C   LIG    1       -3.966  -1.468   0.067  0.00  0.00    +0.060 A 
ATOM      5  C   LIG    1       -3.370  -1.244  -1.163  0.00  0.00    -0.020 A 
ATOM      6  C   LIG    1       -3.892  -1.450   2.563  0.00  0.00    +0.160 C 
ATOM      7  C   LIG    1       -2.067  -0.757  -1.188  0.00  0.00    +0.120 A 
ENDROOT
BRANCH   5   8
ATOM      8  N   LIG    1       -4.104  -1.509  -2.421  0.00  0.00    +0.020 N 
ATOM      9  O   LIG    1       -3.566  -1.306  -3.495  0.00  0.00    -0.120 OA
ATOM     10  O   LIG    1       -5.246  -1.930  -2.382  0.00  0.00    -0.150 OA
ENDBRANCH   5   8
BRANCH   1  12
ATOM     11  C   LIG    1       -0.019   1.526   0.010  0.00  0.00    +0.030 C 
ATOM     12  C   LIG    1        0.002  -0.004   0.002  0.00  0.00    +0.110 C 
ENDBRANCH   1  12
BRANCH   7  13
ATOM     13  O   LIG    1       -1.442  -0.521  -2.371  0.00  0.00    -0.460 OA
ATOM     14  H   LIG    1       -1.570   0.374  -2.713  0.00  0.00    +0.410 HD
ENDBRANCH   7  13
TORSDOF 3
