REMARK  Name = ZINC000001619049
REMARK                            x       y       z     vdW  Elec       q    Type
REMARK                         _______ _______ _______ _____ _____    ______ ____
ROOT
ATOM      1  C   LIG    1        0.739  -2.027  -1.265  0.00  0.00    +0.190 C 
ENDROOT
BRANCH   1   2
ATOM      2  C   LIG    1        1.562  -2.520  -2.457  0.00  0.00    +0.130 C 
ATOM      3  C   LIG    1        2.993  -1.991  -2.342  0.00  0.00    +0.110 C 
BRANCH   2   4
ATOM      4  N   LIG    1        1.582  -3.985  -2.466  0.00  0.00    -0.030 N 
ATOM      5  O   LIG    1        2.045  -4.593  -1.517  0.00  0.00    -0.110 OA
ATOM      6  O   LIG    1        1.135  -4.594  -3.421  0.00  0.00    -0.180 OA
ENDBRANCH   2   4
ENDBRANCH   1   2
BRANCH   1   7
ATOM      7  C   LIG    1        0.718  -0.497  -1.257  0.00  0.00    +0.070 C 
BRANCH   7   9
ATOM      8  C   LIG    1       -0.019   1.526   0.010  0.00  0.00    +0.030 C 
ATOM      9  C   LIG    1        0.002  -0.004   0.002  0.00  0.00    +0.020 C 
ENDBRANCH   7   9
ENDBRANCH   1   7
BRANCH   1  10
ATOM     10  O   LIG    1       -0.619  -2.529  -1.374  0.00  0.00    -0.350 OA
BRANCH  10  11
ATOM     11  C   LIG    1       -0.878  -3.716  -0.802  0.00  0.00    +0.440 C 
ATOM     12  O   LIG    1        0.001  -4.315  -0.230  0.00  0.00    -0.480 OA
ATOM     13  C   LIG    1       -2.265  -4.300  -0.875  0.00  0.00    +0.170 C 
ENDBRANCH  10  11
ENDBRANCH   1  10
TORSDOF 6
