REMARK  Name = ZINC000000331104
REMARK                            x       y       z     vdW  Elec       q    Type
REMARK                         _______ _______ _______ _____ _____    ______ ____
ROOT
ATOM      1  C   LIG    1        0.777  -1.810  -1.336  0.00  0.00    +0.180 A 
ATOM      2  C   LIG    1        0.245  -2.676  -0.391  0.00  0.00    +0.190 A 
ATOM      3  N   LIG    1        0.344  -3.982  -0.542  0.00  0.00    -0.350 NA
ATOM      4  C   LIG    1        0.945  -4.519  -1.585  0.00  0.00    +0.090 A 
ATOM      5  C   LIG    1        1.501  -3.719  -2.574  0.00  0.00    +0.200 A 
ATOM      6  C   LIG    1        1.414  -2.337  -2.454  0.00  0.00    -0.040 A 
ENDROOT
BRANCH   4   7
ATOM      7  N   LIG    1        1.027  -5.992  -1.704  0.00  0.00    +0.040 N 
ATOM      8  O   LIG    1        1.580  -6.495  -2.666  0.00  0.00    -0.140 OA
ATOM      9  O   LIG    1        0.541  -6.700  -0.841  0.00  0.00    -0.140 OA
ENDBRANCH   4   7
BRANCH   5  10
ATOM     10  O   LIG    1        2.118  -4.279  -3.647  0.00  0.00    -0.270 OA
ATOM     11  C   LIG    1        2.664  -3.387  -4.621  0.00  0.00    +0.270 C 
ENDBRANCH   5  10
BRANCH   1  12
ATOM     12  O   LIG    1        0.671  -0.465  -1.174  0.00  0.00    -0.290 OA
BRANCH  12  14
ATOM     13  C   LIG    1       -0.019   1.526   0.010  0.00  0.00    +0.080 C 
ATOM     14  C   LIG    1        0.002  -0.004   0.002  0.00  0.00    +0.200 C 
ENDBRANCH  12  14
ENDBRANCH   1  12
TORSDOF 4
