REMARK  Name = ZINC000043567596
REMARK                            x       y       z     vdW  Elec       q    Type
REMARK                         _______ _______ _______ _____ _____    ______ ____
ROOT
ATOM      1  C   LIG    1        0.623  -0.696   1.035  0.00  0.00    +0.410 A 
ATOM      2  C   LIG    1        1.219   0.008   2.076  0.00  0.00    -0.020 A 
ATOM      3  C   LIG    1        1.833  -0.694   3.098  0.00  0.00    +0.050 A 
ATOM      4  C   LIG    1        1.831  -2.081   3.044  0.00  0.00    -0.020 A 
ATOM      5  C   LIG    1        1.221  -2.716   1.980  0.00  0.00    +0.350 A 
ATOM      6  N   LIG    1        0.638  -2.021   1.022  0.00  0.00    -0.510 NA
ENDROOT
BRANCH   1   8
ATOM      7  C   LIG    1       -0.018   1.461   0.010  0.00  0.00    +0.290 C 
ATOM      8  N   LIG    1        0.002  -0.004   0.002  0.00  0.00    -0.720 N 
ATOM      9  H   LIG    1       -0.418  -0.491  -0.724  0.00  0.00    +0.420 HD
ENDBRANCH   1   8
BRANCH   3  10
ATOM     10  N   LIG    1        2.478   0.018   4.224  0.00  0.00    +0.020 N 
ATOM     11  O   LIG    1        3.015  -0.613   5.116  0.00  0.00    -0.140 OA
ATOM     12  O   LIG    1        2.472   1.236   4.258  0.00  0.00    -0.150 OA
ENDBRANCH   3  10
TORSDOF 2
