REMARK  Name = ZINC000082046658
REMARK                            x       y       z     vdW  Elec       q    Type
REMARK                         _______ _______ _______ _____ _____    ______ ____
ROOT
ATOM      1  C   LIG    1        0.606  -0.688  -1.055  0.00  0.00    +0.190 A 
ATOM      2  C   LIG    1        0.680  -2.022  -1.171  0.00  0.00    -0.180 A 
ATOM      3  C   LIG    1        1.329  -2.469  -2.311  0.00  0.00    +0.110 A 
ATOM      4  C   LIG    1        1.780  -1.508  -3.116  0.00  0.00    -0.050 A 
ATOM      5  S   LIG    1        1.381   0.067  -2.441  0.00  0.00    +0.190 S 
ENDROOT
BRANCH   1   7
ATOM      6  C   LIG    1       -0.018   1.461   0.010  0.00  0.00    +0.310 C 
ATOM      7  N   LIG    1        0.002  -0.004   0.002  0.00  0.00    -0.680 N 
ATOM      8  H   LIG    1       -0.404  -0.499   0.731  0.00  0.00    +0.430 HD
ENDBRANCH   1   7
BRANCH   2   9
ATOM      9  N   LIG    1        0.112  -2.945  -0.161  0.00  0.00    +0.070 N 
ATOM     10  O   LIG    1       -0.450  -2.499   0.823  0.00  0.00    -0.210 OA
ATOM     11  O   LIG    1        0.206  -4.149  -0.316  0.00  0.00    -0.160 OA
ENDBRANCH   2   9
TORSDOF 2
