REMARK  Name = ZINC000072209495
REMARK                            x       y       z     vdW  Elec       q    Type
REMARK                         _______ _______ _______ _____ _____    ______ ____
ROOT
ATOM      1  C   LIG    1       -0.018   1.503   0.010  0.00  0.00    +0.150 C 
ATOM      2  C   LIG    1        0.002  -0.004   0.002  0.00  0.00    -0.160 A 
ATOM      3  C   LIG    1        0.008  -0.794  -1.097  0.00  0.00    +0.130 A 
ATOM      4  N   LIG    1        0.028  -2.078  -0.680  0.00  0.00    -0.330 N 
ATOM      5  N   LIG    1        0.034  -2.076   0.721  0.00  0.00    -0.230 NA
ATOM      6  C   LIG    1        0.025  -0.833   1.128  0.00  0.00    +0.270 A 
ENDROOT
BRANCH   4   7
ATOM      7  C   LIG    1        0.041  -3.263  -1.541  0.00  0.00    +0.240 C 
ATOM      8  C   LIG    1       -1.196  -4.117  -1.251  0.00  0.00    +0.080 C 
ATOM      9  C   LIG    1        1.303  -4.082  -1.262  0.00  0.00    +0.080 C 
ENDBRANCH   4   7
BRANCH   3  10
ATOM     10  N   LIG    1       -0.004  -0.333  -2.503  0.00  0.00    +0.030 N 
ATOM     11  O   LIG    1        1.045  -0.129  -3.086  0.00  0.00    -0.110 OA
ATOM     12  O   LIG    1       -1.064  -0.158  -3.077  0.00  0.00    -0.110 OA
ENDBRANCH   3  10
TORSDOF 2
