REMARK  Name = ZINC000071257008
REMARK                            x       y       z     vdW  Elec       q    Type
REMARK                         _______ _______ _______ _____ _____    ______ ____
ROOT
ATOM      1  C   LIG    1        1.467  -2.356  -2.548  0.00  0.00    +0.150 A 
ATOM      2  C   LIG    1        1.567  -3.735  -2.712  0.00  0.00    +0.067 A 
ATOM      3  C   LIG    1        2.207  -4.236  -3.835  0.00  0.00    +0.130 A 
ATOM      4  C   LIG    1        2.724  -3.338  -4.756  0.00  0.00    +0.052 A 
ATOM      5  C   LIG    1        2.587  -1.977  -4.529  0.00  0.00    +0.114 A 
ATOM      6  N   LIG    1        1.972  -1.530  -3.457  0.00  0.00    -0.248 NA
ENDROOT
BRANCH   3   7
ATOM      7  N   LIG    1        2.334  -5.695  -4.047  0.00  0.00    +0.057 N 
ATOM      8  O   LIG    1        2.899  -6.119  -5.040  0.00  0.00    -0.126 OA
ATOM      9  O   LIG    1        1.874  -6.471  -3.229  0.00  0.00    -0.126 OA
ENDBRANCH   3   7
BRANCH   1  10
ATOM     10  C   LIG    1        0.787  -1.805  -1.354  0.00  0.00    +0.358 C 
ATOM     11  O   LIG    1        0.323  -2.556  -0.519  0.00  0.00    -0.243 OA
BRANCH  10  12
ATOM     12  O   LIG    1        0.682  -0.472  -1.193  0.00  0.00    -0.460 OA
BRANCH  12  14
ATOM     13  C   LIG    1       -0.019   1.526   0.010  0.00  0.00    +0.048 C 
ATOM     14  C   LIG    1        0.002  -0.004   0.002  0.00  0.00    +0.229 C 
ENDBRANCH  12  14
ENDBRANCH  10  12
ENDBRANCH   1  10
TORSDOF 4
