REMARK  Name = ZINC000020230673
REMARK                            x       y       z     vdW  Elec       q    Type
REMARK                         _______ _______ _______ _____ _____    ______ ____
ROOT
ATOM      1  C   LIG    1       -0.018   1.503   0.010  0.00  0.00    +0.160 C 
ATOM      2  C   LIG    1        0.002  -0.004   0.002  0.00  0.00    +0.230 A 
ATOM      3  C   LIG    1        0.005  -0.679  -1.202  0.00  0.00    -0.070 A 
ATOM      4  C   LIG    1        0.024  -2.067  -1.204  0.00  0.00    +0.060 A 
ATOM      5  C   LIG    1        0.039  -2.729   0.011  0.00  0.00    -0.200 A 
ATOM      6  C   LIG    1        0.035  -1.985   1.186  0.00  0.00    +0.470 A 
ATOM      7  C   LIG    1        0.029  -2.836  -2.500  0.00  0.00    +0.140 C 
ATOM      8  N   LIG    1        0.022  -0.661   1.146  0.00  0.00    -0.530 NA
ENDROOT
BRANCH   6   9
ATOM      9  N   LIG    1        0.050  -2.637   2.414  0.00  0.00    -0.830 N 
ATOM     10  H   LIG    1        0.047  -2.122   3.236  0.00  0.00    +0.420 HD
ATOM     11  H   LIG    1        0.063  -3.606   2.448  0.00  0.00    +0.410 HD
ENDBRANCH   6   9
BRANCH   5  12
ATOM     12  N   LIG    1        0.058  -4.083   0.055  0.00  0.00    +0.060 N 
ATOM     13  O   LIG    1       -0.988  -4.706   0.080  0.00  0.00    -0.150 OA
ATOM     14  O   LIG    1        1.121  -4.677   0.070  0.00  0.00    -0.150 OA
ENDBRANCH   5  12
TORSDOF 2
