REMARK  Name = ZINC000004537604
REMARK                            x       y       z     vdW  Elec       q    Type
REMARK                         _______ _______ _______ _____ _____    ______ ____
ROOT
ATOM      1  C   LIG    1       -1.271   2.016   0.133  0.00  0.00    -0.050 A 
ATOM      2  C   LIG    1       -1.319   3.371   0.408  0.00  0.00    +0.110 A 
ATOM      3  C   LIG    1       -2.528   4.036   0.404  0.00  0.00    +0.040 A 
ATOM      4  C   LIG    1       -3.704   3.339   0.123  0.00  0.00    +0.000 A 
ATOM      5  C   LIG    1       -3.648   1.972  -0.153  0.00  0.00    +0.030 A 
ATOM      6  C   LIG    1       -2.432   1.320  -0.152  0.00  0.00    +0.110 A 
ENDROOT
BRANCH   1   8
ATOM      7  O   LIG    1        0.075   0.117  -0.108  0.00  0.00    -0.160 OA
ATOM      8  N   LIG    1        0.029   1.309   0.138  0.00  0.00    +0.030 N 
ATOM      9  O   LIG    1        1.054   1.920   0.384  0.00  0.00    -0.160 OA
ENDBRANCH   1   8
BRANCH   4  10
ATOM     10  C   LIG    1       -5.002   4.045   0.117  0.00  0.00    +0.010 C 
ATOM     11  C   LIG    1       -6.096   3.425   0.537  0.00  0.00    +0.020 C 
BRANCH  11  12
ATOM     12  C   LIG    1       -5.991   2.070   1.189  0.00  0.00    +0.210 C 
BRANCH  12  13
ATOM     13  O   LIG    1       -6.830   2.031   2.345  0.00  0.00    -0.570 OA
ATOM     14  H   LIG    1       -6.812   1.186   2.816  0.00  0.00    +0.390 HD
ENDBRANCH  12  13
ENDBRANCH  11  12
ENDBRANCH   4  10
TORSDOF 4
