REMARK  Name = ZINC000039321171
REMARK                            x       y       z     vdW  Elec       q    Type
REMARK                         _______ _______ _______ _____ _____    ______ ____
ROOT
ATOM      1  O   LIG    1        0.002  -0.004   0.002  0.00  0.00    -0.420 OA
ATOM      2  C   LIG    1       -0.014   1.210   0.009  0.00  0.00    +0.520 C 
ATOM      3  O   LIG    1       -1.127   1.964   0.029  0.00  0.00    -0.300 OA
ATOM      4  C   LIG    1       -0.748   3.368   0.031  0.00  0.00    +0.370 C 
ATOM      5  C   LIG    1        0.760   3.402   0.009  0.00  0.00    -0.090 A 
ATOM      6  C   LIG    1        1.680   4.424   0.001  0.00  0.00    +0.140 A 
ATOM      7  C   LIG    1        3.034   4.136  -0.021  0.00  0.00    +0.080 A 
ATOM      8  C   LIG    1        3.466   2.819  -0.035  0.00  0.00    +0.150 A 
ATOM      9  C   LIG    1        2.549   1.785  -0.027  0.00  0.00    +0.010 A 
ATOM     10  F   LIG    1        4.789   2.545  -0.056  0.00  0.00    -0.110 F 
ATOM     11  C   LIG    1        1.183   2.070   0.002  0.00  0.00    -0.130 A 
ENDROOT
BRANCH   9  12
ATOM     12  N   LIG    1        3.014   0.380  -0.041  0.00  0.00    +0.010 N 
ATOM     13  O   LIG    1        3.190  -0.193  -1.102  0.00  0.00    -0.110 OA
ATOM     14  O   LIG    1        3.221  -0.204   1.008  0.00  0.00    -0.110 OA
ENDBRANCH   9  12
TORSDOF 1
