REMARK  Name = ZINC000149879332
REMARK                            x       y       z     vdW  Elec       q    Type
REMARK                         _______ _______ _______ _____ _____    ______ ____
ROOT
ATOM      1  C   LIG    1       -1.412  -0.526   0.013  0.00  0.00    -0.040 A 
ATOM      2  C   LIG    1       -2.123  -0.571   1.197  0.00  0.00    +0.020 A 
ATOM      3  C   LIG    1       -3.420  -1.050   1.209  0.00  0.00    +0.150 A 
ATOM      4  C   LIG    1       -4.007  -1.483   0.036  0.00  0.00    -0.090 A 
ATOM      5  C   LIG    1       -3.296  -1.438  -1.152  0.00  0.00    +0.180 A 
ATOM      6  F   LIG    1       -3.869  -1.861  -2.300  0.00  0.00    -0.100 F 
ATOM      7  C   LIG    1       -1.999  -0.954  -1.163  0.00  0.00    +0.010 A 
ENDROOT
BRANCH   4   8
ATOM      8  N   LIG    1       -5.396  -1.995   0.048  0.00  0.00    +0.030 N 
ATOM      9  O   LIG    1       -5.913  -2.377  -0.986  0.00  0.00    -0.140 OA
ATOM     10  O   LIG    1       -6.021  -2.034   1.093  0.00  0.00    -0.150 OA
ENDBRANCH   4   8
BRANCH   1  12
ATOM     11  C   LIG    1       -0.019   1.526   0.010  0.00  0.00    +0.040 C 
ATOM     12  C   LIG    1        0.002  -0.004   0.002  0.00  0.00    +0.260 C 
BRANCH  12  13
ATOM     13  O   LIG    1        0.693  -0.477   1.160  0.00  0.00    -0.550 OA
ATOM     14  H   LIG    1        0.294  -0.202   1.996  0.00  0.00    +0.380 HD
ENDBRANCH  12  13
ENDBRANCH   1  12
TORSDOF 3
