REMARK  Name = ZINC001548918958
REMARK                            x       y       z     vdW  Elec       q    Type
REMARK                         _______ _______ _______ _____ _____    ______ ____
ROOT
ATOM      1  N   LIG    1        1.425  -2.500  -2.470  0.00  0.00    -0.330 N 
ATOM      2  C   LIG    1        2.477  -3.345  -2.505  0.00  0.00    +0.380 A 
ATOM      3  C   LIG    1        2.816  -3.533  -3.800  0.00  0.00    -0.230 A 
ATOM      4  C   LIG    1        1.937  -2.774  -4.590  0.00  0.00    +0.400 A 
ATOM      5  N   LIG    1        1.099  -2.159  -3.789  0.00  0.00    -0.330 NA
ENDROOT
BRANCH   4   6
ATOM      6  N   LIG    1        1.949  -2.693  -5.988  0.00  0.00    -0.820 N 
ATOM      7  H   LIG    1        1.299  -2.139  -6.447  0.00  0.00    +0.410 HD
ATOM      8  H   LIG    1        2.608  -3.191  -6.497  0.00  0.00    +0.430 HD
ENDBRANCH   4   6
BRANCH   3   9
ATOM      9  N   LIG    1        3.917  -4.388  -4.297  0.00  0.00    +0.080 N 
ATOM     10  O   LIG    1        4.126  -4.478  -5.494  0.00  0.00    -0.180 OA
ATOM     11  O   LIG    1        4.614  -5.002  -3.510  0.00  0.00    -0.170 OA
ENDBRANCH   3   9
BRANCH   1  12
ATOM     12  C   LIG    1        0.739  -2.027  -1.265  0.00  0.00    +0.340 C 
BRANCH  12  13
ATOM     13  C   LIG    1        0.718  -0.497  -1.257  0.00  0.00    +0.020 C 
BRANCH  13  15
ATOM     14  C   LIG    1       -0.019   1.526   0.010  0.00  0.00    +0.030 C 
ATOM     15  C   LIG    1        0.002  -0.004   0.002  0.00  0.00    +0.020 C 
ENDBRANCH  13  15
ENDBRANCH  12  13
ENDBRANCH   1  12
TORSDOF 5
