REMARK  Name = ZINC000001621363
REMARK                            x       y       z     vdW  Elec       q    Type
REMARK                         _______ _______ _______ _____ _____    ______ ____
ROOT
ATOM      1  C   LIG    1        0.630  -0.546   1.086  0.00  0.00    +0.140 A 
ATOM      2  C   LIG    1        1.452   0.121   1.977  0.00  0.00    -0.010 A 
ATOM      3  C   LIG    1        2.087  -0.569   2.998  0.00  0.00    +0.130 A 
ATOM      4  C   LIG    1        1.908  -1.926   3.137  0.00  0.00    -0.020 A 
ATOM      5  C   LIG    1        1.079  -2.618   2.244  0.00  0.00    -0.130 A 
ATOM      6  C   LIG    1        0.433  -1.918   1.214  0.00  0.00    +0.150 A 
ENDROOT
BRANCH   4   7
ATOM      7  N   LIG    1        2.590  -2.655   4.230  0.00  0.00    +0.020 N 
ATOM      8  O   LIG    1        3.024  -3.776   4.037  0.00  0.00    -0.150 OA
ATOM      9  O   LIG    1        2.717  -2.133   5.323  0.00  0.00    -0.130 OA
ENDBRANCH   4   7
BRANCH   1  11
ATOM     10  C   LIG    1        0.258   1.544   0.015  0.00  0.00    +0.270 C 
ATOM     11  O   LIG    1        0.011   0.139   0.087  0.00  0.00    -0.290 OA
ENDBRANCH   1  11
BRANCH   5  12
ATOM     12  C   LIG    1        0.884  -4.066   2.388  0.00  0.00    +0.500 C 
ATOM     13  O   LIG    1        0.247  -4.678   1.557  0.00  0.00    -0.410 OA
ENDBRANCH   5  12
BRANCH   6  14
ATOM     14  O   LIG    1       -0.373  -2.576   0.343  0.00  0.00    -0.450 OA
ATOM     15  H   LIG    1       -1.297  -2.624   0.621  0.00  0.00    +0.400 HD
ENDBRANCH   6  14
TORSDOF 4
