REMARK  Name = ZINC000408716111
REMARK                            x       y       z     vdW  Elec       q    Type
REMARK                         _______ _______ _______ _____ _____    ______ ____
ROOT
ATOM      1  C   LIG    1       -0.018   1.503   0.010  0.00  0.00    +0.180 C 
ATOM      2  C   LIG    1        0.002  -0.004   0.002  0.00  0.00    +0.100 A 
ATOM      3  C   LIG    1        0.009  -0.801  -1.084  0.00  0.00    +0.040 A 
ATOM      4  N   LIG    1        0.028  -2.075  -0.663  0.00  0.00    -0.450 NA
ATOM      5  C   LIG    1        0.033  -2.097   0.641  0.00  0.00    +0.450 A 
ATOM      6  N   LIG    1        0.024  -0.826   1.097  0.00  0.00    -0.440 N 
ENDROOT
BRANCH   3   7
ATOM      7  N   LIG    1       -0.003  -0.350  -2.494  0.00  0.00    +0.070 N 
ATOM      8  O   LIG    1        0.005  -1.169  -3.395  0.00  0.00    -0.130 OA
ATOM      9  O   LIG    1       -0.020   0.840  -2.752  0.00  0.00    -0.160 OA
ENDBRANCH   3   7
BRANCH   6  10
ATOM     10  C   LIG    1        0.026  -0.405   2.500  0.00  0.00    +0.230 C 
ATOM     11  C   LIG    1        1.282  -0.939   3.190  0.00  0.00    +0.060 C 
ATOM     12  C   LIG    1       -1.216  -0.960   3.200  0.00  0.00    +0.060 C 
ENDBRANCH   6  10
TORSDOF 2
