REMARK  Name = ZINC000001666554
REMARK                            x       y       z     vdW  Elec       q    Type
REMARK                         _______ _______ _______ _____ _____    ______ ____
ROOT
ATOM      1  C   LIG    1       -0.957  -2.036   0.008  0.00  0.00    +0.140 A 
ATOM      2  C   LIG    1        0.330  -2.553   0.059  0.00  0.00    +0.040 A 
ATOM      3  C   LIG    1        0.524  -3.920   0.058  0.00  0.00    +0.090 A 
ATOM      4  C   LIG    1       -0.561  -4.774   0.005  0.00  0.00    +0.040 A 
ATOM      5  C   LIG    1       -1.845  -4.262  -0.047  0.00  0.00    -0.020 A 
ATOM      6  C   LIG    1       -3.026  -5.196  -0.104  0.00  0.00    +0.120 C 
ATOM      7  C   LIG    1       -2.045  -2.896  -0.039  0.00  0.00    -0.040 A 
ENDROOT
BRANCH   7   8
ATOM      8  N   LIG    1       -3.420  -2.348  -0.094  0.00  0.00    +0.020 N 
ATOM      9  O   LIG    1       -3.938  -2.111  -1.170  0.00  0.00    -0.130 OA
ATOM     10  O   LIG    1       -4.032  -2.136   0.937  0.00  0.00    -0.130 OA
ENDBRANCH   7   8
BRANCH   1  11
ATOM     11  O   LIG    1       -1.151  -0.691   0.009  0.00  0.00    -0.300 OA
BRANCH  11  13
ATOM     12  C   LIG    1       -1.714   1.358   1.267  0.00  0.00    +0.190 C 
ATOM     13  C   LIG    1       -1.375  -0.109   1.198  0.00  0.00    +0.450 C 
ATOM     14  O   LIG    1       -1.304  -0.761   2.213  0.00  0.00    -0.480 OA
ENDBRANCH  11  13
ENDBRANCH   1  11
TORSDOF 3
