REMARK  Name = ZINC000095098540
REMARK                            x       y       z     vdW  Elec       q    Type
REMARK                         _______ _______ _______ _____ _____    ______ ____
ROOT
ATOM      1  C   LIG    1       -2.616  -2.715   0.013  0.00  0.00    +0.400 A 
ATOM      2  N   LIG    1       -3.822  -2.197   0.021  0.00  0.00    -0.330 NA
ATOM      3  N   LIG    1       -4.748  -3.247   0.026  0.00  0.00    -0.340 N 
ATOM      4  C   LIG    1       -4.063  -4.410   0.020  0.00  0.00    +0.370 A 
ATOM      5  C   LIG    1       -2.743  -4.113   0.006  0.00  0.00    -0.230 A 
ENDROOT
BRANCH   5   6
ATOM      6  N   LIG    1       -1.631  -5.090  -0.005  0.00  0.00    +0.080 N 
ATOM      7  O   LIG    1       -0.477  -4.698  -0.018  0.00  0.00    -0.190 OA
ATOM      8  O   LIG    1       -1.869  -6.284  -0.001  0.00  0.00    -0.180 OA
ENDBRANCH   5   6
BRANCH   1   9
ATOM      9  N   LIG    1       -1.413  -1.998   0.005  0.00  0.00    -0.700 N 
ATOM     10  H   LIG    1       -0.567  -2.472  -0.006  0.00  0.00    +0.420 HD
BRANCH   9  11
ATOM     11  C   LIG    1       -1.433  -0.534   0.013  0.00  0.00    +0.250 C 
BRANCH  11  13
ATOM     12  C   LIG    1       -0.019   1.526   0.010  0.00  0.00    +0.030 C 
ATOM     13  C   LIG    1        0.002  -0.004   0.002  0.00  0.00    +0.000 C 
ENDBRANCH  11  13
ENDBRANCH   9  11
ENDBRANCH   1   9
BRANCH   3  14
ATOM     14  C   LIG    1       -6.207  -3.108   0.036  0.00  0.00    +0.340 C 
ATOM     15  C   LIG    1       -6.628  -2.238   1.222  0.00  0.00    +0.040 C 
ENDBRANCH   3  14
TORSDOF 5
