REMARK  Name = ZINC000005084926
REMARK                            x       y       z     vdW  Elec       q    Type
REMARK                         _______ _______ _______ _____ _____    ______ ____
ROOT
ATOM      1  C   LIG    1        0.802  -2.356   1.291  0.00  0.00    -0.420 A 
ATOM      2  C   LIG    1       -0.262  -3.060   1.824  0.00  0.00    +0.120 A 
ATOM      3  C   LIG    1       -0.322  -4.433   1.682  0.00  0.00    +0.090 A 
ATOM      4  C   LIG    1        0.681  -5.103   1.007  0.00  0.00    -0.010 A 
ATOM      5  C   LIG    1        1.744  -4.400   0.473  0.00  0.00    +0.090 A 
ATOM      6  C   LIG    1        1.803  -3.026   0.612  0.00  0.00    +0.100 A 
ENDROOT
BRANCH   4   7
ATOM      7  N   LIG    1        0.616  -6.574   0.856  0.00  0.00    +0.020 N 
ATOM      8  O   LIG    1        1.500  -7.165   0.261  0.00  0.00    -0.150 OA
ATOM      9  O   LIG    1       -0.321  -7.194   1.326  0.00  0.00    -0.150 OA
ENDBRANCH   4   7
BRANCH   1  10
ATOM     10  S   LIG    1        0.879  -0.605   1.472  0.00  0.00    +1.340 S 
ATOM     11  O   LIG    1        2.268  -0.331   1.340  0.00  0.00    -0.840 OA
BRANCH  10  13
ATOM     12  C   LIG    1       -0.019   1.526   0.010  0.00  0.00    +0.060 C 
ATOM     13  C   LIG    1        0.002  -0.004   0.002  0.00  0.00    -0.250 C 
ENDBRANCH  10  13
ENDBRANCH   1  10
TORSDOF 3
