REMARK  Name = ZINC000013154326
REMARK                            x       y       z     vdW  Elec       q    Type
REMARK                         _______ _______ _______ _____ _____    ______ ____
ROOT
ATOM      1  O   LIG    1        0.030  -0.117  -0.233  0.00  0.00    -0.620 OA
ATOM      2  N   LIG    1        0.020   1.338  -0.073  0.00  0.00    -0.100 N 
ATOM      3  C   LIG    1       -0.641   1.687   1.193  0.00  0.00    +0.190 C 
ATOM      4  C   LIG    1        0.082   1.025   2.365  0.00  0.00    +0.050 C 
ATOM      5  C   LIG    1        1.529   1.528   2.402  0.00  0.00    +0.000 C 
ATOM      6  C   LIG    1        2.195   1.203   1.063  0.00  0.00    +0.050 C 
ATOM      7  C   LIG    1       -0.748   1.946  -1.170  0.00  0.00    +0.140 C 
ATOM      8  C   LIG    1       -0.138   1.560  -2.517  0.00  0.00    +0.050 C 
ATOM      9  C   LIG    1        1.305   2.074  -2.572  0.00  0.00    +0.010 C 
ATOM     10  C   LIG    1        2.084   1.474  -1.401  0.00  0.00    +0.050 C 
ATOM     11  C   LIG    1        1.398   1.840  -0.080  0.00  0.00    +0.130 C 
ENDROOT
BRANCH   7  12
ATOM     12  C   LIG    1       -2.194   1.450  -1.108  0.00  0.00    +0.180 C 
BRANCH  12  13
ATOM     13  O   LIG    1       -2.225   0.041  -1.340  0.00  0.00    -0.520 OA
ATOM     14  H   LIG    1       -3.113  -0.342  -1.315  0.00  0.00    +0.370 HD
ENDBRANCH  12  13
ENDBRANCH   7  12
TORSDOF 2
