REMARK  Name = ZINC000575727261
REMARK                            x       y       z     vdW  Elec       q    Type
REMARK                         _______ _______ _______ _____ _____    ______ ____
ROOT
ATOM      1  C   LIG    1       -1.243  -0.636   0.328  0.00  0.00    +0.090 A 
ATOM      2  C   LIG    1       -2.432   0.072   0.288  0.00  0.00    +0.000 A 
ATOM      3  C   LIG    1       -3.615  -0.577  -0.021  0.00  0.00    +0.090 A 
ATOM      4  C   LIG    1       -3.613  -1.935  -0.291  0.00  0.00    +0.070 A 
ATOM      5  C   LIG    1       -2.429  -2.648  -0.252  0.00  0.00    -0.070 A 
ATOM      6  F   LIG    1       -4.775   0.116  -0.059  0.00  0.00    -0.120 F 
ATOM      7  C   LIG    1       -1.240  -2.002   0.051  0.00  0.00    +0.260 A 
ENDROOT
BRANCH   5   8
ATOM      8  N   LIG    1       -2.429  -4.099  -0.542  0.00  0.00    +0.040 N 
ATOM      9  O   LIG    1       -3.353  -4.796  -0.161  0.00  0.00    -0.140 OA
ATOM     10  O   LIG    1       -1.506  -4.597  -1.161  0.00  0.00    -0.170 OA
ENDBRANCH   5   8
BRANCH   7  11
ATOM     11  N   LIG    1       -0.039  -2.723   0.090  0.00  0.00    -0.840 N 
ATOM     12  H   LIG    1        0.804  -2.256   0.190  0.00  0.00    +0.420 HD
ATOM     13  H   LIG    1       -0.052  -3.691   0.018  0.00  0.00    +0.410 HD
ENDBRANCH   7  11
BRANCH   1  15
ATOM     14  C   LIG    1       -0.159   1.401   0.904  0.00  0.00    +0.250 C 
ATOM     15  O   LIG    1       -0.080   0.000   0.631  0.00  0.00    -0.310 OA
ENDBRANCH   1  15
TORSDOF 3
