REMARK  Name = ZINC000008698266
REMARK                            x       y       z     vdW  Elec       q    Type
REMARK                         _______ _______ _______ _____ _____    ______ ____
ROOT
ATOM      1  C   LIG    1       -1.035  -2.086   0.092  0.00  0.00    +0.410 A 
ATOM      2  C   LIG    1        0.107  -2.858  -0.082  0.00  0.00    -0.050 A 
ATOM      3  C   LIG    1        0.015  -4.234   0.039  0.00  0.00    +0.050 A 
ATOM      4  C   LIG    1       -1.222  -4.791   0.331  0.00  0.00    -0.140 A 
ATOM      5  C   LIG    1       -2.316  -3.963   0.491  0.00  0.00    +0.400 A 
ATOM      6  C   LIG    1        1.230  -5.107  -0.142  0.00  0.00    +0.140 C 
ATOM      7  N   LIG    1       -2.197  -2.654   0.375  0.00  0.00    -0.470 NA
ENDROOT
BRANCH   1  10
ATOM      8  C   LIG    1       -1.918   1.567   0.220  0.00  0.00    +0.130 C 
ATOM      9  C   LIG    1       -2.030   0.064   0.255  0.00  0.00    +0.500 C 
ATOM     10  N   LIG    1       -0.956  -0.699  -0.027  0.00  0.00    -0.660 N 
ATOM     11  H   LIG    1       -0.127  -0.283  -0.313  0.00  0.00    +0.430 HD
ATOM     12  O   LIG    1       -3.088  -0.458   0.536  0.00  0.00    -0.460 OA
ENDBRANCH   1  10
BRANCH   4  13
ATOM     13  N   LIG    1       -1.368  -6.257   0.471  0.00  0.00    +0.030 N 
ATOM     14  O   LIG    1       -0.484  -6.910   0.995  0.00  0.00    -0.150 OA
ATOM     15  O   LIG    1       -2.373  -6.811   0.061  0.00  0.00    -0.150 OA
ENDBRANCH   4  13
TORSDOF 2
