REMARK  Name = ZINC000039320098
REMARK                            x       y       z     vdW  Elec       q    Type
REMARK                         _______ _______ _______ _____ _____    ______ ____
ROOT
ATOM      1  C   LIG    1       -0.018   1.461   0.010  0.00  0.00    +0.370 C 
ATOM      2  N   LIG    1        0.002  -0.004   0.002  0.00  0.00    -0.390 N 
ATOM      3  N   LIG    1        0.009  -0.822  -1.135  0.00  0.00    -0.270 NA
ATOM      4  C   LIG    1        0.028  -2.071  -0.745  0.00  0.00    +0.170 A 
ATOM      5  C   LIG    1        0.034  -2.095   0.652  0.00  0.00    -0.250 A 
ATOM      6  C   LIG    1        0.023  -0.806   1.091  0.00  0.00    +0.430 A 
ENDROOT
BRANCH   4   7
ATOM      7  C   LIG    1        0.041  -3.277  -1.648  0.00  0.00    +0.000 C 
ATOM      8  C   LIG    1       -1.194  -4.136  -1.371  0.00  0.00    +0.040 C 
ATOM      9  C   LIG    1        1.304  -4.099  -1.382  0.00  0.00    +0.040 C 
ATOM     10  C   LIG    1        0.028  -2.821  -3.109  0.00  0.00    +0.050 C 
ENDBRANCH   4   7
BRANCH   5  11
ATOM     11  N   LIG    1        0.055  -3.305   1.504  0.00  0.00    +0.060 N 
ATOM     12  O   LIG    1       -0.991  -3.818   1.859  0.00  0.00    -0.140 OA
ATOM     13  O   LIG    1        1.119  -3.789   1.849  0.00  0.00    -0.140 OA
ENDBRANCH   5  11
BRANCH   6  14
ATOM     14  N   LIG    1        0.025  -0.389   2.419  0.00  0.00    -0.840 N 
ATOM     15  H   LIG    1        0.016   0.558   2.631  0.00  0.00    +0.410 HD
ATOM     16  H   LIG    1        0.035  -1.045   3.134  0.00  0.00    +0.420 HD
ENDBRANCH   6  14
TORSDOF 3
