REMARK  Name = ZINC000148878346
REMARK                            x       y       z     vdW  Elec       q    Type
REMARK                         _______ _______ _______ _____ _____    ______ ____
ROOT
ATOM      1  C   LIG    1        0.606  -0.608  -1.056  0.00  0.00    +0.170 A 
ATOM      2  C   LIG    1        1.173   0.162  -2.062  0.00  0.00    -0.030 A 
ATOM      3  C   LIG    1        1.788  -0.452  -3.138  0.00  0.00    +0.120 A 
ATOM      4  C   LIG    1        1.837  -1.839  -3.211  0.00  0.00    +0.160 A 
ATOM      5  C   LIG    1        1.270  -2.607  -2.204  0.00  0.00    +0.090 A 
ATOM      6  F   LIG    1        2.340   0.297  -4.118  0.00  0.00    -0.120 F 
ATOM      7  C   LIG    1        0.660  -1.992  -1.127  0.00  0.00    -0.040 A 
ENDROOT
BRANCH   4   8
ATOM      8  N   LIG    1        2.460  -2.462  -4.301  0.00  0.00    -0.860 N 
ATOM      9  H   LIG    1        2.494  -3.430  -4.351  0.00  0.00    +0.410 HD
ATOM     10  H   LIG    1        2.857  -1.925  -5.004  0.00  0.00    +0.410 HD
ENDBRANCH   4   8
BRANCH   7  11
ATOM     11  N   LIG    1        0.055  -2.811  -0.053  0.00  0.00    +0.030 N 
ATOM     12  O   LIG    1       -0.482  -2.269   0.897  0.00  0.00    -0.130 OA
ATOM     13  O   LIG    1        0.094  -4.026  -0.119  0.00  0.00    -0.170 OA
ENDBRANCH   7  11
BRANCH   1  15
ATOM     14  C   LIG    1       -0.017   1.425   0.010  0.00  0.00    +0.250 C 
ATOM     15  O   LIG    1        0.002  -0.004   0.002  0.00  0.00    -0.280 OA
ENDBRANCH   1  15
TORSDOF 3
