REMARK  Name = ZINC000071978603
REMARK                            x       y       z     vdW  Elec       q    Type
REMARK                         _______ _______ _______ _____ _____    ______ ____
ROOT
ATOM      1  N   LIG    1       -2.828  -4.058   0.007  0.00  0.00    -0.330 N 
ATOM      2  C   LIG    1       -3.439  -4.865   0.900  0.00  0.00    +0.270 A 
ATOM      3  C   LIG    1       -3.180  -6.144   0.544  0.00  0.00    -0.030 A 
ATOM      4  C   LIG    1       -2.383  -6.118  -0.606  0.00  0.00    +0.120 A 
ATOM      5  N   LIG    1       -2.176  -4.868  -0.931  0.00  0.00    -0.210 NA
ENDROOT
BRANCH   4   6
ATOM      6  N   LIG    1       -1.868  -7.301  -1.332  0.00  0.00    +0.050 N 
ATOM      7  O   LIG    1       -1.180  -7.153  -2.326  0.00  0.00    -0.130 OA
ATOM      8  O   LIG    1       -2.132  -8.422  -0.935  0.00  0.00    -0.130 OA
ENDBRANCH   4   6
BRANCH   1   9
ATOM      9  C   LIG    1       -2.848  -2.593   0.015  0.00  0.00    +0.330 C 
BRANCH   9  10
ATOM     10  C   LIG    1       -1.413  -2.063   0.004  0.00  0.00    +0.010 C 
BRANCH  10  11
ATOM     11  C   LIG    1       -1.433  -0.534   0.013  0.00  0.00    +0.020 C 
BRANCH  11  13
ATOM     12  C   LIG    1       -0.019   1.526   0.010  0.00  0.00    +0.020 C 
ATOM     13  C   LIG    1        0.002  -0.004   0.002  0.00  0.00    -0.010 C 
ENDBRANCH  11  13
ENDBRANCH  10  11
ENDBRANCH   9  10
ENDBRANCH   1   9
TORSDOF 5
