REMARK  Name = ZINC000001666919
REMARK                            x       y       z     vdW  Elec       q    Type
REMARK                         _______ _______ _______ _____ _____    ______ ____
ROOT
ATOM      1  C   LIG    1        0.739  -2.027  -1.265  0.00  0.00    +0.110 C 
ENDROOT
BRANCH   1   2
ATOM      2  N   LIG    1       -0.631  -2.534  -1.375  0.00  0.00    -0.010 N 
ATOM      3  O   LIG    1       -1.090  -3.245  -0.499  0.00  0.00    -0.160 OA
ATOM      4  O   LIG    1       -1.312  -2.243  -2.343  0.00  0.00    -0.160 OA
ENDBRANCH   1   2
BRANCH   1   5
ATOM      5  C   LIG    1        0.718  -0.497  -1.257  0.00  0.00    +0.080 C 
BRANCH   5   7
ATOM      6  C   LIG    1       -0.019   1.526   0.010  0.00  0.00    +0.030 C 
ATOM      7  C   LIG    1        0.002  -0.004   0.002  0.00  0.00    -0.010 C 
ENDBRANCH   5   7
ENDBRANCH   1   5
BRANCH   1   8
ATOM      8  C   LIG    1        1.562  -2.520  -2.457  0.00  0.00    +0.240 C 
BRANCH   8   9
ATOM      9  C   LIG    1        1.583  -4.050  -2.466  0.00  0.00    -0.020 C 
ATOM     10  C   LIG    1        2.299  -4.543  -3.725  0.00  0.00    +0.040 C 
ENDBRANCH   8   9
BRANCH   8  11
ATOM     11  O   LIG    1        2.898  -2.026  -2.350  0.00  0.00    -0.530 OA
ATOM     12  H   LIG    1        3.359  -2.309  -1.549  0.00  0.00    +0.380 HD
ENDBRANCH   8  11
ENDBRANCH   1   8
TORSDOF 6
