REMARK  Name = ZINC000096125955
REMARK                            x       y       z     vdW  Elec       q    Type
REMARK                         _______ _______ _______ _____ _____    ______ ____
ROOT
ATOM      1  C   LIG    1        0.707  -0.490  -1.238  0.00  0.00    -0.120 A 
ATOM      2  C   LIG    1        0.671   0.266  -2.395  0.00  0.00    +0.070 A 
ATOM      3  C   LIG    1        1.318  -0.180  -3.532  0.00  0.00    +0.050 A 
ATOM      4  C   LIG    1        2.002  -1.381  -3.512  0.00  0.00    +0.110 A 
ATOM      5  C   LIG    1        2.039  -2.137  -2.355  0.00  0.00    -0.030 A 
ATOM      6  C   LIG    1        1.396  -1.689  -1.217  0.00  0.00    +0.110 A 
ENDROOT
BRANCH   5   7
ATOM      7  N   LIG    1        2.771  -3.423  -2.334  0.00  0.00    +0.020 N 
ATOM      8  O   LIG    1        2.803  -4.089  -1.314  0.00  0.00    -0.150 OA
ATOM      9  O   LIG    1        3.340  -3.817  -3.336  0.00  0.00    -0.150 OA
ENDBRANCH   5   7
BRANCH   1  10
ATOM     10  C   LIG    1        0.002  -0.004   0.002  0.00  0.00    +0.260 C 
BRANCH  10  11
ATOM     11  N   LIG    1       -0.018   1.465   0.010  0.00  0.00    -0.810 NA
ATOM     12  H   LIG    1       -0.556   1.823  -0.764  0.00  0.00    +0.360 HD
ATOM     13  H   LIG    1        0.919   1.839   0.003  0.00  0.00    +0.360 HD
ENDBRANCH  10  11
BRANCH  10  14
ATOM     14  N   LIG    1        0.711  -0.489   1.189  0.00  0.00    -0.450 NA
ATOM     15  O   LIG    1        0.136  -1.202   1.992  0.00  0.00    +0.350 OA
ENDBRANCH  10  14
ENDBRANCH   1  10
TORSDOF 4
