REMARK  Name = ZINC000001020116
REMARK                            x       y       z     vdW  Elec       q    Type
REMARK                         _______ _______ _______ _____ _____    ______ ____
ROOT
ATOM      1  C   LIG    1       -1.306   1.936   0.019  0.00  0.00    -0.010 A 
ATOM      2  C   LIG    1       -1.946   2.291  -1.183  0.00  0.00    -0.060 A 
ATOM      3  C   LIG    1       -1.384   1.973  -2.430  0.00  0.00    +0.010 A 
ATOM      4  C   LIG    1       -2.033   2.332  -3.572  0.00  0.00    +0.060 A 
ATOM      5  C   LIG    1       -3.249   3.013  -3.519  0.00  0.00    +0.060 A 
ATOM      6  C   LIG    1       -3.821   3.337  -2.328  0.00  0.00    +0.080 A 
ATOM      7  C   LIG    1       -3.182   2.982  -1.127  0.00  0.00    +0.130 A 
ATOM      8  N   LIG    1       -3.722   3.287   0.057  0.00  0.00    -0.420 NA
ATOM      9  C   LIG    1       -3.133   2.960   1.181  0.00  0.00    +0.310 A 
ATOM     10  C   LIG    1       -1.915   2.274   1.199  0.00  0.00    +0.130 A 
ENDROOT
BRANCH   1  12
ATOM     11  O   LIG    1        0.002  -0.004   0.002  0.00  0.00    -0.130 OA
ATOM     12  N   LIG    1       -0.014   1.214   0.009  0.00  0.00    +0.020 N 
ATOM     13  O   LIG    1        1.032   1.837   0.002  0.00  0.00    -0.120 OA
ENDBRANCH   1  12
BRANCH  10  14
ATOM     14  O   LIG    1       -1.333   1.950   2.384  0.00  0.00    -0.480 OA
ATOM     15  H   LIG    1       -1.598   1.087   2.729  0.00  0.00    +0.410 HD
ENDBRANCH  10  14
TORSDOF 2
