REMARK  Name = ZINC000004921440
REMARK                            x       y       z     vdW  Elec       q    Type
REMARK                         _______ _______ _______ _____ _____    ______ ____
ROOT
ATOM      1  C   LIG    1       -0.019   1.526   0.010  0.00  0.00    +0.110 C 
ATOM      2  C   LIG    1        0.002  -0.004   0.002  0.00  0.00    +0.030 C 
ATOM      3  C   LIG    1        0.845  -0.530  -1.185  0.00  0.00    +0.080 C 
ATOM      4  C   LIG    1        1.997  -1.328  -0.496  0.00  0.00    +0.040 C 
ATOM      5  C   LIG    1        1.290  -2.530   0.141  0.00  0.00    -0.040 C 
ATOM      6  C   LIG    1        0.562  -2.099   1.151  0.00  0.00    -0.010 C 
ATOM      7  C   LIG    1        2.244  -0.431   0.772  0.00  0.00    +0.060 C 
ATOM      8  C   LIG    1        0.753  -0.550   1.258  0.00  0.00    +0.050 C 
ENDROOT
BRANCH   2   9
ATOM      9  N   LIG    1       -1.362  -0.536  -0.054  0.00  0.00    -0.010 N 
ATOM     10  O   LIG    1       -1.769  -1.264   0.833  0.00  0.00    -0.150 OA
ATOM     11  O   LIG    1       -2.089  -0.250  -0.989  0.00  0.00    -0.170 OA
ENDBRANCH   2   9
TORSDOF 1
