REMARK  Name = ZINC000044712810
REMARK                            x       y       z     vdW  Elec       q    Type
REMARK                         _______ _______ _______ _____ _____    ______ ____
ROOT
ATOM      1  C   LIG    1       -1.306   1.936   0.019  0.00  0.00    -0.120 A 
ATOM      2  C   LIG    1       -2.530   1.386   0.027  0.00  0.00    +0.410 A 
ATOM      3  N   LIG    1       -3.484   2.369   0.035  0.00  0.00    -0.550 N 
ATOM      4  H   LIG    1       -4.441   2.216   0.042  0.00  0.00    +0.440 HD
ATOM      5  C   LIG    1       -2.884   3.606   0.032  0.00  0.00    +0.330 A 
ATOM      6  N   LIG    1       -3.358   4.846   0.036  0.00  0.00    -0.520 NA
ATOM      7  C   LIG    1       -2.553   5.890   0.031  0.00  0.00    +0.360 A 
ATOM      8  C   LIG    1       -1.172   5.742   0.021  0.00  0.00    -0.030 A 
ATOM      9  C   LIG    1       -0.626   4.484   0.016  0.00  0.00    +0.180 A 
ATOM     10  F   LIG    1       -3.084   7.132   0.035  0.00  0.00    -0.100 F 
ATOM     11  C   LIG    1       -1.494   3.389   0.028  0.00  0.00    -0.130 A 
ENDROOT
BRANCH   1  13
ATOM     12  O   LIG    1        0.002  -0.004   0.002  0.00  0.00    -0.170 OA
ATOM     13  N   LIG    1       -0.014   1.214   0.009  0.00  0.00    +0.070 N 
ATOM     14  O   LIG    1        1.032   1.837   0.002  0.00  0.00    -0.160 OA
ENDBRANCH   1  13
TORSDOF 1
