REMARK  Name = ZINC000071257346
REMARK                            x       y       z     vdW  Elec       q    Type
REMARK                         _______ _______ _______ _____ _____    ______ ____
ROOT
ATOM      1  C   LIG    1        0.880  -0.397   1.478  0.00  0.00    -0.100 A 
ATOM      2  C   LIG    1        1.116  -1.724   1.829  0.00  0.00    +0.110 A 
ATOM      3  C   LIG    1        1.811  -1.982   2.999  0.00  0.00    +0.100 A 
ATOM      4  C   LIG    1        2.244  -0.923   3.775  0.00  0.00    +0.150 A 
ATOM      5  N   LIG    1        2.005   0.323   3.415  0.00  0.00    -0.410 NA
ATOM      6  C   LIG    1        1.353   0.614   2.308  0.00  0.00    +0.290 A 
ENDROOT
BRANCH   4   7
ATOM      7  N   LIG    1        2.988  -1.192   5.026  0.00  0.00    +0.030 N 
ATOM      8  O   LIG    1        3.374  -0.265   5.716  0.00  0.00    -0.120 OA
ATOM      9  O   LIG    1        3.214  -2.339   5.366  0.00  0.00    -0.150 OA
ENDBRANCH   4   7
BRANCH   1  11
ATOM     10  C   LIG    1       -0.022   1.810   0.012  0.00  0.00    +0.140 C 
ATOM     11  S   LIG    1        0.002  -0.004   0.002  0.00  0.00    -0.040 S 
ENDBRANCH   1  11
TORSDOF 2
