REMARK  Name = ZINC000038292911
REMARK                            x       y       z     vdW  Elec       q    Type
REMARK                         _______ _______ _______ _____ _____    ______ ____
ROOT
ATOM      1  C   LIG    1        0.706  -2.075   1.073  0.00  0.00    -0.210 A 
ATOM      2  C   LIG    1        1.353  -2.806   2.032  0.00  0.00    +0.020 A 
ATOM      3  C   LIG    1        1.214  -4.163   1.867  0.00  0.00    +0.060 A 
ATOM      4  C   LIG    1        0.478  -4.534   0.812  0.00  0.00    -0.040 A 
ATOM      5  S   LIG    1       -0.094  -3.173  -0.043  0.00  0.00    +0.380 S 
ENDROOT
BRANCH   2   6
ATOM      6  N   LIG    1        2.127  -2.195   3.136  0.00  0.00    +0.020 N 
ATOM      7  O   LIG    1        2.112  -0.988   3.295  0.00  0.00    -0.080 OA
ATOM      8  O   LIG    1        2.778  -2.900   3.886  0.00  0.00    -0.170 OA
ENDBRANCH   2   6
BRANCH   1   9
ATOM      9  C   LIG    1        0.679  -0.614   0.994  0.00  0.00    +0.510 C 
ATOM     10  O   LIG    1        1.163   0.053   1.888  0.00  0.00    -0.420 OA
BRANCH   9  12
ATOM     11  C   LIG    1        0.125   1.445  -0.084  0.00  0.00    +0.290 C 
ATOM     12  O   LIG    1        0.117  -0.007  -0.072  0.00  0.00    -0.360 OA
ENDBRANCH   9  12
ENDBRANCH   1   9
TORSDOF 3
