REMARK  Name = ZINC000039133579
REMARK                            x       y       z     vdW  Elec       q    Type
REMARK                         _______ _______ _______ _____ _____    ______ ____
ROOT
ATOM      1  C   LIG    1       -0.018   1.503   0.010  0.00  0.00    +0.120 C 
ATOM      2  C   LIG    1        0.002  -0.004   0.002  0.00  0.00    -0.020 A 
ATOM      3  C   LIG    1        0.006  -0.688  -1.199  0.00  0.00    +0.020 A 
ATOM      4  C   LIG    1        0.024  -2.071  -1.210  0.00  0.00    +0.120 A 
ATOM      5  C   LIG    1        0.039  -2.772  -0.020  0.00  0.00    -0.080 A 
ATOM      6  C   LIG    1        0.035  -2.088   1.187  0.00  0.00    +0.180 A 
ATOM      7  C   LIG    1        0.023  -0.701   1.195  0.00  0.00    -0.120 A 
ATOM      8  C   LIG    1        0.020   0.046   2.504  0.00  0.00    +0.120 C 
ENDROOT
BRANCH   5   9
ATOM      9  N   LIG    1        0.058  -4.252  -0.033  0.00  0.00    +0.030 N 
ATOM     10  O   LIG    1        0.071  -4.870   1.017  0.00  0.00    -0.140 OA
ATOM     11  O   LIG    1        0.061  -4.852  -1.093  0.00  0.00    -0.170 OA
ENDBRANCH   5   9
BRANCH   6  12
ATOM     12  O   LIG    1        0.050  -2.775   2.359  0.00  0.00    -0.470 OA
ATOM     13  H   LIG    1        0.938  -2.962   2.694  0.00  0.00    +0.410 HD
ENDBRANCH   6  12
TORSDOF 2
