REMARK  Name = ZINC000002033630
REMARK                            x       y       z     vdW  Elec       q    Type
REMARK                         _______ _______ _______ _____ _____    ______ ____
ROOT
ATOM      1  C   LIG    1       -0.019   1.526   0.010  0.00  0.00    +0.070 C 
ATOM      2  C   LIG    1        0.002  -0.004   0.002  0.00  0.00    -0.020 C 
ATOM      3  C   LIG    1       -1.430  -0.556   0.045  0.00  0.00    +0.130 C 
ATOM      4  C   LIG    1       -1.532  -1.369   1.313  0.00  0.00    +0.020 A 
ATOM      5  C   LIG    1       -0.314  -1.337   1.990  0.00  0.00    -0.190 A 
ATOM      6  C   LIG    1       -0.182  -2.031   3.203  0.00  0.00    +0.150 A 
ATOM      7  C   LIG    1       -1.249  -2.735   3.714  0.00  0.00    +0.030 A 
ATOM      8  C   LIG    1       -2.455  -2.761   3.034  0.00  0.00    +0.140 A 
ATOM      9  C   LIG    1       -2.594  -2.081   1.839  0.00  0.00    -0.050 A 
ATOM     10  C   LIG    1        0.671  -0.525   1.251  0.00  0.00    +0.410 C 
ATOM     11  O   LIG    1        1.815  -0.312   1.589  0.00  0.00    -0.420 OA
ENDROOT
BRANCH   9  12
ATOM     12  N   LIG    1       -3.887  -2.115   1.119  0.00  0.00    +0.030 N 
ATOM     13  O   LIG    1       -4.013  -1.516   0.066  0.00  0.00    -0.150 OA
ATOM     14  O   LIG    1       -4.824  -2.741   1.579  0.00  0.00    -0.160 OA
ENDBRANCH   9  12
TORSDOF 1
