REMARK  Name = ZINC000042689504
REMARK                            x       y       z     vdW  Elec       q    Type
REMARK                         _______ _______ _______ _____ _____    ______ ____
ROOT
ATOM      1  C   LIG    1       -1.200  -0.637   0.010  0.00  0.00    +0.160 A 
ATOM      2  C   LIG    1       -2.341   0.105   0.019  0.00  0.00    -0.010 A 
ATOM      3  C   LIG    1       -3.594  -0.544   0.028  0.00  0.00    +0.140 A 
ATOM      4  N   LIG    1       -4.850  -0.136   0.038  0.00  0.00    -0.290 NA
ATOM      5  N   LIG    1       -5.691  -1.254   0.043  0.00  0.00    -0.410 N 
ATOM      6  H   LIG    1       -6.661  -1.221   0.051  0.00  0.00    +0.450 HD
ATOM      7  C   LIG    1       -4.960  -2.377   0.036  0.00  0.00    +0.340 A 
ATOM      8  C   LIG    1       -3.626  -2.015   0.026  0.00  0.00    -0.220 A 
ATOM      9  C   LIG    1       -2.404  -2.722   0.016  0.00  0.00    +0.060 A 
ATOM     10  C   LIG    1       -1.234  -2.038   0.003  0.00  0.00    +0.110 A 
ENDROOT
BRANCH   9  11
ATOM     11  N   LIG    1       -2.401  -4.204   0.014  0.00  0.00    +0.030 N 
ATOM     12  O   LIG    1       -3.455  -4.815   0.021  0.00  0.00    -0.160 OA
ATOM     13  O   LIG    1       -1.346  -4.811   0.005  0.00  0.00    -0.150 OA
ENDBRANCH   9  11
BRANCH   1  15
ATOM     14  C   LIG    1       -0.017   1.425   0.010  0.00  0.00    +0.250 C 
ATOM     15  O   LIG    1        0.002  -0.004   0.002  0.00  0.00    -0.300 OA
ENDBRANCH   1  15
TORSDOF 2
