REMARK  Name = ZINC000039413990
REMARK                            x       y       z     vdW  Elec       q    Type
REMARK                         _______ _______ _______ _____ _____    ______ ____
ROOT
ATOM      1  C   LIG    1        0.002  -0.004   0.002  0.00  0.00    +0.320 A 
ATOM      2  C   LIG    1       -1.101  -0.732   0.003  0.00  0.00    -0.270 A 
ATOM      3  S   LIG    1       -0.737  -2.446  -0.008  0.00  0.00    +0.270 S 
ATOM      4  C   LIG    1        0.998  -2.151  -0.014  0.00  0.00    +0.100 A 
ATOM      5  N   LIG    1        2.019  -3.010  -0.024  0.00  0.00    -0.460 NA
ATOM      6  C   LIG    1        3.269  -2.609  -0.028  0.00  0.00    +0.350 A 
ATOM      7  C   LIG    1        3.588  -1.260  -0.022  0.00  0.00    -0.030 A 
ATOM      8  C   LIG    1        2.576  -0.324  -0.011  0.00  0.00    +0.150 A 
ATOM      9  C   LIG    1        1.238  -0.773  -0.014  0.00  0.00    -0.170 A 
ENDROOT
BRANCH   1  10
ATOM     10  N   LIG    1       -0.017   1.403   0.010  0.00  0.00    -0.820 N 
ATOM     11  H   LIG    1       -0.864   1.876   0.016  0.00  0.00    +0.430 HD
ATOM     12  H   LIG    1        0.816   1.899   0.004  0.00  0.00    +0.410 HD
ENDBRANCH   1  10
BRANCH   2  13
ATOM     13  N   LIG    1       -2.471  -0.170   0.012  0.00  0.00    +0.090 N 
ATOM     14  O   LIG    1       -3.435  -0.914   0.013  0.00  0.00    -0.150 OA
ATOM     15  O   LIG    1       -2.634   1.037   0.019  0.00  0.00    -0.190 OA
ENDBRANCH   2  13
TORSDOF 2
