REMARK  Name = ZINC000032222053
REMARK                            x       y       z     vdW  Elec       q    Type
REMARK                         _______ _______ _______ _____ _____    ______ ____
ROOT
ATOM      1  C   LIG    1        0.628  -0.701   1.042  0.00  0.00    +0.250 A 
ATOM      2  C   LIG    1        1.224  -0.007   2.084  0.00  0.00    -0.020 A 
ATOM      3  C   LIG    1        1.841  -0.698   3.110  0.00  0.00    +0.130 A 
ATOM      4  C   LIG    1        1.866  -2.080   3.101  0.00  0.00    -0.070 A 
ATOM      5  C   LIG    1        1.272  -2.779   2.065  0.00  0.00    +0.050 A 
ATOM      6  C   LIG    1        0.648  -2.095   1.036  0.00  0.00    +0.060 A 
ENDROOT
BRANCH   1   8
ATOM      7  C   LIG    1       -0.018   1.461   0.010  0.00  0.00    +0.280 C 
ATOM      8  N   LIG    1        0.002  -0.004   0.002  0.00  0.00    -0.730 N 
ATOM      9  H   LIG    1       -0.418  -0.491  -0.724  0.00  0.00    +0.410 HD
ENDBRANCH   1   8
BRANCH   4  10
ATOM     10  N   LIG    1        2.528  -2.814   4.202  0.00  0.00    +0.040 N 
ATOM     11  O   LIG    1        2.551  -4.032   4.196  0.00  0.00    -0.170 OA
ATOM     12  O   LIG    1        3.051  -2.200   5.115  0.00  0.00    -0.170 OA
ENDBRANCH   4  10
BRANCH   6  13
ATOM     13  O   LIG    1        0.063  -2.780   0.017  0.00  0.00    -0.310 OA
ATOM     14  C   LIG    1        0.132  -4.207   0.072  0.00  0.00    +0.250 C 
ENDBRANCH   6  13
TORSDOF 3
