REMARK  Name = ZINC000044712596
REMARK                            x       y       z     vdW  Elec       q    Type
REMARK                         _______ _______ _______ _____ _____    ______ ____
ROOT
ATOM      1  O   LIG    1        0.002  -0.004   0.002  0.00  0.00    -0.460 OA
ATOM      2  C   LIG    1       -0.015   1.218   0.009  0.00  0.00    +0.420 A 
ATOM      3  C   LIG    1       -1.237   1.933   0.030  0.00  0.00    -0.120 A 
ATOM      4  C   LIG    1       -1.221   3.281   0.038  0.00  0.00    +0.340 A 
ATOM      5  N   LIG    1       -0.067   3.992   0.025  0.00  0.00    -0.590 N 
ATOM      6  H   LIG    1       -0.110   4.961   0.031  0.00  0.00    +0.420 HD
ATOM      7  C   LIG    1        1.156   3.381   0.004  0.00  0.00    +0.310 A 
ATOM      8  N   LIG    1        2.433   3.852  -0.013  0.00  0.00    -0.550 N 
ATOM      9  H   LIG    1        2.679   4.790  -0.015  0.00  0.00    +0.430 HD
ATOM     10  C   LIG    1        3.321   2.808  -0.034  0.00  0.00    +0.320 A 
ATOM     11  C   LIG    1        2.647   1.646  -0.024  0.00  0.00    -0.060 A 
ATOM     12  C   LIG    1        1.227   1.990   0.001  0.00  0.00    -0.220 A 
ENDROOT
BRANCH  11  13
ATOM     13  N   LIG    1        3.228   0.285  -0.036  0.00  0.00    +0.050 N 
ATOM     14  O   LIG    1        2.497  -0.690  -0.025  0.00  0.00    -0.110 OA
ATOM     15  O   LIG    1        4.437   0.139  -0.057  0.00  0.00    -0.190 OA
ENDBRANCH  11  13
TORSDOF 1
