REMARK  Name = ZINC000001759034
REMARK                            x       y       z     vdW  Elec       q    Type
REMARK                         _______ _______ _______ _____ _____    ______ ____
ROOT
ATOM      1  C   LIG    1        0.739  -2.027  -1.265  0.00  0.00    +0.240 C 
ENDROOT
BRANCH   1   2
ATOM      2  O   LIG    1       -0.598  -2.521  -1.373  0.00  0.00    -0.530 OA
ATOM      3  H   LIG    1       -1.059  -2.238  -2.174  0.00  0.00    +0.380 HD
ENDBRANCH   1   2
BRANCH   1   4
ATOM      4  C   LIG    1        0.718  -0.497  -1.257  0.00  0.00    -0.010 C 
BRANCH   4   6
ATOM      5  C   LIG    1       -0.019   1.526   0.010  0.00  0.00    +0.010 C 
ATOM      6  C   LIG    1        0.002  -0.004   0.002  0.00  0.00    +0.020 C 
ENDBRANCH   4   6
ENDBRANCH   1   4
BRANCH   1   7
ATOM      7  C   LIG    1        1.562  -2.520  -2.457  0.00  0.00    +0.110 C 
BRANCH   7   8
ATOM      8  N   LIG    1        2.932  -2.013  -2.347  0.00  0.00    -0.010 N 
ATOM      9  O   LIG    1        3.391  -1.302  -3.223  0.00  0.00    -0.160 OA
ATOM     10  O   LIG    1        3.613  -2.304  -1.380  0.00  0.00    -0.160 OA
ENDBRANCH   7   8
BRANCH   7  11
ATOM     11  C   LIG    1        1.583  -4.050  -2.466  0.00  0.00    +0.070 C 
ATOM     12  C   LIG    1        2.299  -4.543  -3.725  0.00  0.00    +0.030 C 
ENDBRANCH   7  11
ENDBRANCH   1   7
TORSDOF 6
