REMARK  Name = ZINC000001759031
REMARK                            x       y       z     vdW  Elec       q    Type
REMARK                         _______ _______ _______ _____ _____    ______ ____
ROOT
ATOM      1  C   LIG    1        0.739  -2.027  -1.265  0.00  0.00    +0.240 C 
ENDROOT
BRANCH   1   2
ATOM      2  O   LIG    1        1.529  -2.499  -0.172  0.00  0.00    -0.530 OA
ATOM      3  H   LIG    1        2.448  -2.201  -0.193  0.00  0.00    +0.380 HD
ENDBRANCH   1   2
BRANCH   1   4
ATOM      4  C   LIG    1        0.718  -0.497  -1.257  0.00  0.00    -0.010 C 
BRANCH   4   6
ATOM      5  C   LIG    1       -0.019   1.526   0.010  0.00  0.00    +0.010 C 
ATOM      6  C   LIG    1        0.002  -0.004   0.002  0.00  0.00    +0.020 C 
ENDBRANCH   4   6
ENDBRANCH   1   4
BRANCH   1   7
ATOM      7  C   LIG    1        1.343  -2.522  -2.581  0.00  0.00    +0.110 C 
BRANCH   7   8
ATOM      8  N   LIG    1        0.533  -2.038  -3.702  0.00  0.00    -0.010 N 
ATOM      9  O   LIG    1       -0.642  -2.348  -3.783  0.00  0.00    -0.160 OA
ATOM     10  O   LIG    1        1.036  -1.327  -4.553  0.00  0.00    -0.160 OA
ENDBRANCH   7   8
BRANCH   7  11
ATOM     11  C   LIG    1        1.364  -4.052  -2.590  0.00  0.00    +0.070 C 
ATOM     12  C   LIG    1        2.080  -4.545  -3.848  0.00  0.00    +0.030 C 
ENDBRANCH   7  11
ENDBRANCH   1   7
TORSDOF 6
