REMARK  Name = ZINC000005636128
REMARK                            x       y       z     vdW  Elec       q    Type
REMARK                         _______ _______ _______ _____ _____    ______ ____
ROOT
ATOM      1  O   LIG    1        0.002  -0.004   0.002  0.00  0.00    -0.490 OA
ATOM      2  C   LIG    1       -0.016   1.330   0.009  0.00  0.00    +0.360 A 
ATOM      3  C   LIG    1       -1.246   2.019   0.031  0.00  0.00    +0.060 A 
ATOM      4  C   LIG    1       -1.277   3.368   0.038  0.00  0.00    +0.140 A 
ATOM      5  C   LIG    1       -0.068   4.125   0.024  0.00  0.00    +0.090 A 
ATOM      6  N   LIG    1        0.053   5.447   0.028  0.00  0.00    -0.450 NA
ATOM      7  S   LIG    1        1.553   5.862   0.009  0.00  0.00    +0.760 S 
ATOM      8  N   LIG    1        2.221   4.309  -0.008  0.00  0.00    -0.690 N 
ATOM      9  H   LIG    1        3.163   4.080  -0.022  0.00  0.00    +0.470 HD
ATOM     10  C   LIG    1        1.162   3.438   0.003  0.00  0.00    +0.260 A 
ATOM     11  C   LIG    1        1.179   2.043   0.002  0.00  0.00    -0.200 A 
ENDROOT
BRANCH  11  12
ATOM     12  N   LIG    1        2.470   1.319  -0.014  0.00  0.00    +0.060 N 
ATOM     13  O   LIG    1        2.486   0.101  -0.015  0.00  0.00    -0.110 OA
ATOM     14  O   LIG    1        3.517   1.942  -0.026  0.00  0.00    -0.250 OA
ENDBRANCH  11  12
TORSDOF 1
