REMARK  Name = ZINC000082046756
REMARK                            x       y       z     vdW  Elec       q    Type
REMARK                         _______ _______ _______ _____ _____    ______ ____
ROOT
ATOM      1  C   LIG    1       -0.517   1.444   0.224  0.00  0.00    +0.130 C 
ATOM      2  C   LIG    1       -0.235  -0.031   0.103  0.00  0.00    -0.180 A 
ATOM      3  C   LIG    1       -0.329  -0.664  -1.128  0.00  0.00    +0.210 A 
ATOM      4  C   LIG    1       -0.062  -2.020  -1.197  0.00  0.00    -0.160 A 
ATOM      5  C   LIG    1        0.289  -2.700  -0.036  0.00  0.00    +0.480 A 
ATOM      6  N   LIG    1        0.370  -2.061   1.122  0.00  0.00    -0.520 NA
ATOM      7  C   LIG    1        0.126  -0.767   1.216  0.00  0.00    +0.270 A 
ATOM      8 CL   LIG    1        0.247   0.018   2.760  0.00  0.00    +0.010 Cl
ENDROOT
BRANCH   5   9
ATOM      9  N   LIG    1        0.560  -4.062  -0.091  0.00  0.00    -0.820 N 
ATOM     10  H   LIG    1        0.683  -4.566   0.729  0.00  0.00    +0.420 HD
ATOM     11  H   LIG    1        0.625  -4.509  -0.949  0.00  0.00    +0.420 HD
ENDBRANCH   5   9
BRANCH   4  12
ATOM     12  N   LIG    1       -0.150  -2.737  -2.488  0.00  0.00    +0.040 N 
ATOM     13  O   LIG    1       -0.593  -3.871  -2.526  0.00  0.00    -0.170 OA
ATOM     14  O   LIG    1        0.221  -2.193  -3.513  0.00  0.00    -0.140 OA
ENDBRANCH   4  12
TORSDOF 2
