REMARK  Name = ZINC000196911888
REMARK                            x       y       z     vdW  Elec       q    Type
REMARK                         _______ _______ _______ _____ _____    ______ ____
ROOT
ATOM      1  C   LIG    1        0.578  -1.869  -1.033  0.00  0.00    -0.050 C 
ATOM      2  C   LIG    1        1.245  -2.584  -2.213  0.00  0.00    +0.040 C 
ATOM      3  C   LIG    1        1.220  -4.094  -1.974  0.00  0.00    +0.020 C 
ATOM      4  C   LIG    1        2.051  -4.437  -0.737  0.00  0.00    +0.030 C 
ATOM      5  C   LIG    1        1.414  -3.793   0.499  0.00  0.00    +0.020 C 
ATOM      6  C   LIG    1        1.256  -2.309   0.245  0.00  0.00    +0.370 C 
ATOM      7  O   LIG    1        1.667  -1.498   1.040  0.00  0.00    -0.450 OA
ENDROOT
BRANCH   1   8
ATOM      8  C   LIG    1        0.726  -0.356  -1.199  0.00  0.00    +0.090 C 
BRANCH   8  10
ATOM      9  C   LIG    1        0.171   1.595  -2.658  0.00  0.00    +0.110 C 
ATOM     10  C   LIG    1       -0.080   0.105  -2.415  0.00  0.00    +0.150 C 
BRANCH  10  11
ATOM     11  N   LIG    1       -1.507  -0.116  -2.168  0.00  0.00    -0.020 N 
ATOM     12  O   LIG    1       -2.050   0.419  -1.218  0.00  0.00    -0.160 OA
ATOM     13  O   LIG    1       -2.150  -0.834  -2.912  0.00  0.00    -0.160 OA
ENDBRANCH  10  11
ENDBRANCH   8  10
ENDBRANCH   1   8
TORSDOF 3
