REMARK  Name = ZINC000228941997
REMARK                            x       y       z     vdW  Elec       q    Type
REMARK                         _______ _______ _______ _____ _____    ______ ____
ROOT
ATOM      1  C   LIG    1        0.002  -0.004   0.002  0.00  0.00    +0.400 A 
ATOM      2  N   LIG    1       -1.046  -0.754   0.003  0.00  0.00    -0.550 NA
ATOM      3  C   LIG    1       -0.864  -2.088  -0.006  0.00  0.00    +0.140 A 
ATOM      4  C   LIG    1       -1.830  -3.118  -0.007  0.00  0.00    +0.130 A 
ATOM      5  C   LIG    1       -1.404  -4.428  -0.017  0.00  0.00    +0.100 A 
ATOM      6  C   LIG    1       -0.047  -4.707  -0.026  0.00  0.00    +0.170 A 
ATOM      7  N   LIG    1        0.841  -3.737  -0.025  0.00  0.00    -0.370 NA
ATOM      8  C   LIG    1        0.486  -2.457  -0.015  0.00  0.00    +0.010 A 
ATOM      9  S   LIG    1        1.459  -0.987  -0.018  0.00  0.00    +0.150 S 
ENDROOT
BRANCH   1  10
ATOM     10  N   LIG    1       -0.017   1.375   0.010  0.00  0.00    -0.790 N 
ATOM     11  H   LIG    1       -0.863   1.849   0.016  0.00  0.00    +0.420 HD
ATOM     12  H   LIG    1        0.817   1.872   0.004  0.00  0.00    +0.430 HD
ENDBRANCH   1  10
BRANCH   6  13
ATOM     13  N   LIG    1        0.409  -6.116  -0.036  0.00  0.00    +0.030 N 
ATOM     14  O   LIG    1        1.600  -6.370  -0.044  0.00  0.00    -0.120 OA
ATOM     15  O   LIG    1       -0.407  -7.020  -0.038  0.00  0.00    -0.140 OA
ENDBRANCH   6  13
TORSDOF 2
