REMARK  Name = ZINC000014984597
REMARK                            x       y       z     vdW  Elec       q    Type
REMARK                         _______ _______ _______ _____ _____    ______ ____
ROOT
ATOM      1  C   LIG    1        0.002  -0.004   0.002  0.00  0.00    +0.280 A 
ATOM      2  C   LIG    1       -1.199  -0.726   0.004  0.00  0.00    -0.140 A 
ATOM      3  C   LIG    1       -2.614  -0.347   0.012  0.00  0.00    -0.040 A 
ATOM      4  C   LIG    1       -3.325  -1.485   0.009  0.00  0.00    +0.240 A 
ATOM      5  N   LIG    1       -2.480  -2.563  -0.001  0.00  0.00    -0.580 N 
ATOM      6  H   LIG    1       -2.760  -3.491  -0.005  0.00  0.00    +0.420 HD
ATOM      7  C   LIG    1       -1.172  -2.131  -0.004  0.00  0.00    +0.130 A 
ATOM      8  C   LIG    1        0.053  -2.793  -0.014  0.00  0.00    +0.040 A 
ATOM      9  C   LIG    1        1.227  -2.071  -0.015  0.00  0.00    +0.030 A 
ATOM     10  C   LIG    1        1.207  -0.685  -0.013  0.00  0.00    -0.050 A 
ENDROOT
BRANCH   1  11
ATOM     11  N   LIG    1       -0.017   1.391   0.010  0.00  0.00    -0.860 N 
ATOM     12  H   LIG    1       -0.863   1.865   0.016  0.00  0.00    +0.410 HD
ATOM     13  H   LIG    1        0.817   1.888   0.004  0.00  0.00    +0.410 HD
ENDBRANCH   1  11
BRANCH   9  14
ATOM     14  N   LIG    1        2.524  -2.785  -0.025  0.00  0.00    +0.030 N 
ATOM     15  O   LIG    1        3.566  -2.154  -0.026  0.00  0.00    -0.160 OA
ATOM     16  O   LIG    1        2.549  -4.002  -0.032  0.00  0.00    -0.160 OA
ENDBRANCH   9  14
TORSDOF 2
