REMARK  Name = ZINC000038338980
REMARK                            x       y       z     vdW  Elec       q    Type
REMARK                         _______ _______ _______ _____ _____    ______ ____
ROOT
ATOM      1  C   LIG    1       -1.306   1.937   0.019  0.00  0.00    +0.030 A 
ATOM      2  C   LIG    1       -1.913   2.272  -1.151  0.00  0.00    +0.050 A 
ATOM      3  C   LIG    1       -3.131   2.954  -1.177  0.00  0.00    +0.060 A 
ATOM      4  C   LIG    1       -3.771   3.315  -0.035  0.00  0.00    +0.180 A 
ATOM      5  C   LIG    1       -3.199   2.998   1.210  0.00  0.00    +0.030 A 
ATOM      6  N   LIG    1       -3.513   3.177   2.483  0.00  0.00    -0.240 NA
ATOM      7  N   LIG    1       -2.588   2.662   3.216  0.00  0.00    -0.170 N 
ATOM      8  H   LIG    1       -2.603   2.673   4.186  0.00  0.00    +0.480 HD
ATOM      9  N   LIG    1       -1.641   2.131   2.524  0.00  0.00    -0.250 NA
ATOM     10 CL   LIG    1       -1.152   1.842  -2.651  0.00  0.00    -0.010 Cl
ATOM     11  C   LIG    1       -1.919   2.276   1.238  0.00  0.00    +0.050 A 
ENDROOT
BRANCH   1  13
ATOM     12  O   LIG    1        0.002  -0.004   0.002  0.00  0.00    -0.120 OA
ATOM     13  N   LIG    1       -0.014   1.214   0.009  0.00  0.00    +0.020 N 
ATOM     14  O   LIG    1        1.032   1.837   0.002  0.00  0.00    -0.120 OA
ENDBRANCH   1  13
TORSDOF 1
