REMARK  Name = ZINC000001601363
REMARK                            x       y       z     vdW  Elec       q    Type
REMARK                         _______ _______ _______ _____ _____    ______ ____
ROOT
ATOM      1  C   LIG    1        2.064   0.004   3.111  0.00  0.00    -0.040 A 
ATOM      2  C   LIG    1        1.370  -0.207   4.287  0.00  0.00    +0.060 A 
ATOM      3  C   LIG    1        2.021  -0.731   5.389  0.00  0.00    +0.110 A 
ATOM      4  C   LIG    1        3.365  -1.043   5.314  0.00  0.00    -0.040 A 
ATOM      5  C   LIG    1        4.059  -0.833   4.137  0.00  0.00    +0.110 A 
ATOM      6  C   LIG    1        3.407  -0.313   3.034  0.00  0.00    +0.050 A 
ENDROOT
BRANCH   4   7
ATOM      7  N   LIG    1        4.062  -1.603   6.494  0.00  0.00    +0.020 N 
ATOM      8  O   LIG    1        5.246  -1.878   6.428  0.00  0.00    -0.150 OA
ATOM      9  O   LIG    1        3.450  -1.788   7.531  0.00  0.00    -0.150 OA
ENDBRANCH   4   7
BRANCH   1  10
ATOM     10  C   LIG    1        1.355   0.575   1.909  0.00  0.00    +0.210 C 
BRANCH  10  14
ATOM     11  C   LIG    1        1.150   1.245  -0.497  0.00  0.00    +0.220 C 
ATOM     12  N   LIG    1        0.679  -0.132  -0.292  0.00  0.00    -0.120 NA
ATOM     13  O   LIG    1        1.776  -1.004   0.129  0.00  0.00    -0.140 OA
ATOM     14  N   LIG    1        0.798  -0.520   1.104  0.00  0.00    -0.120 NA
ENDBRANCH  10  14
ENDBRANCH   1  10
TORSDOF 3
