REMARK  Name = ZINC000001666905
REMARK                            x       y       z     vdW  Elec       q    Type
REMARK                         _______ _______ _______ _____ _____    ______ ____
ROOT
ATOM      1  C   LIG    1       -1.331   3.117   0.983  0.00  0.00    +0.000 C 
ATOM      2  C   LIG    1       -0.385   4.210   0.482  0.00  0.00    +0.030 C 
ATOM      3  C   LIG    1       -0.422   5.398   1.446  0.00  0.00    +0.020 C 
ATOM      4  C   LIG    1       -1.847   5.950   1.519  0.00  0.00    +0.010 C 
ATOM      5  C   LIG    1       -2.793   4.857   2.020  0.00  0.00    +0.020 C 
ATOM      6  C   LIG    1       -2.755   3.669   1.056  0.00  0.00    +0.010 C 
ENDROOT
BRANCH   1   7
ATOM      7  C   LIG    1       -1.293   1.929   0.019  0.00  0.00    +0.260 C 
BRANCH   7   9
ATOM      8  O   LIG    1       -2.883   0.239  -0.152  0.00  0.00    -0.170 OA
ATOM      9  N   LIG    1       -2.096   0.832   0.564  0.00  0.00    -0.020 N 
ATOM     10  O   LIG    1       -1.973   0.509   1.732  0.00  0.00    -0.160 OA
ENDBRANCH   7   9
ENDBRANCH   1   7
TORSDOF 2
