REMARK  Name = ZINC000005419396
REMARK                            x       y       z     vdW  Elec       q    Type
REMARK                         _______ _______ _______ _____ _____    ______ ____
ROOT
ATOM      1  C   LIG    1       -0.097   1.501   0.017  0.00  0.00    +0.160 C 
ATOM      2  C   LIG    1       -0.035  -0.005   0.005  0.00  0.00    +0.080 A 
ATOM      3  C   LIG    1       -0.099  -0.690  -1.195  0.00  0.00    -0.100 A 
ATOM      4  C   LIG    1       -0.042  -2.071  -1.210  0.00  0.00    +0.200 A 
ATOM      5  C   LIG    1        0.077  -2.772  -0.026  0.00  0.00    -0.020 A 
ATOM      6  C   LIG    1        0.141  -2.088   1.181  0.00  0.00    +0.310 A 
ATOM      7  C   LIG    1        0.089  -0.700   1.192  0.00  0.00    -0.120 A 
ENDROOT
BRANCH   6   8
ATOM      8  N   LIG    1        0.262  -2.793   2.380  0.00  0.00    -0.840 N 
ATOM      9  H   LIG    1        0.307  -2.314   3.223  0.00  0.00    +0.410 HD
ATOM     10  H   LIG    1        0.302  -3.763   2.371  0.00  0.00    +0.420 HD
ENDBRANCH   6   8
BRANCH   3  11
ATOM     11  N   LIG    1       -0.226   0.059  -2.466  0.00  0.00    +0.030 N 
ATOM     12  O   LIG    1        0.353   1.120  -2.608  0.00  0.00    -0.150 OA
ATOM     13  O   LIG    1       -0.911  -0.388  -3.369  0.00  0.00    -0.150 OA
ENDBRANCH   3  11
BRANCH   7  14
ATOM     14  N   LIG    1        0.157   0.034   2.476  0.00  0.00    +0.020 N 
ATOM     15  O   LIG    1       -0.866   0.296   3.083  0.00  0.00    -0.130 OA
ATOM     16  O   LIG    1        1.236   0.375   2.927  0.00  0.00    -0.120 OA
ENDBRANCH   7  14
TORSDOF 3
