REMARK  Name = ZINC000001716744
REMARK                            x       y       z     vdW  Elec       q    Type
REMARK                         _______ _______ _______ _____ _____    ______ ____
ROOT
ATOM      1  C   LIG    1       -1.962  -0.191  -1.417  0.00  0.00    -0.010 A 
ATOM      2  C   LIG    1       -2.836   0.875  -1.517  0.00  0.00    +0.020 A 
ATOM      3  C   LIG    1       -3.388   1.203  -2.741  0.00  0.00    +0.070 A 
ATOM      4  C   LIG    1       -3.066   0.466  -3.865  0.00  0.00    +0.030 A 
ATOM      5  C   LIG    1       -2.191  -0.600  -3.765  0.00  0.00    +0.090 A 
ATOM      6  C   LIG    1       -1.635  -0.925  -2.542  0.00  0.00    -0.030 A 
ENDROOT
BRANCH   6   7
ATOM      7  N   LIG    1       -0.699  -2.066  -2.435  0.00  0.00    +0.030 N 
ATOM      8  O   LIG    1       -0.209  -2.353  -1.357  0.00  0.00    -0.130 OA
ATOM      9  O   LIG    1       -0.417  -2.718  -3.424  0.00  0.00    -0.180 OA
ENDBRANCH   6   7
BRANCH   1  10
ATOM     10  C   LIG    1       -1.360  -0.549  -0.083  0.00  0.00    +0.240 C 
BRANCH  10  12
ATOM     11  C   LIG    1       -0.018   1.465   0.010  0.00  0.00    +0.180 C 
ATOM     12  N   LIG    1        0.002  -0.004   0.002  0.00  0.00    -0.530 NA
ATOM     13  C   LIG    1        0.706  -0.527   1.180  0.00  0.00    +0.210 C 
ENDBRANCH  10  12
ENDBRANCH   1  10
TORSDOF 3
