REMARK  Name = ZINC000001644059
REMARK                            x       y       z     vdW  Elec       q    Type
REMARK                         _______ _______ _______ _____ _____    ______ ____
ROOT
ATOM      1  C   LIG    1       -0.018   1.465   0.010  0.00  0.00    +0.230 C 
ATOM      2  N   LIG    1        0.002  -0.004   0.002  0.00  0.00    -0.560 NA
ATOM      3  C   LIG    1       -1.364  -0.550  -0.058  0.00  0.00    +0.400 C 
ATOM      4  O   LIG    1       -1.282  -1.959  -0.287  0.00  0.00    -0.290 OA
ATOM      5  C   LIG    1       -0.432  -2.666   0.503  0.00  0.00    +0.190 A 
ATOM      6  C   LIG    1       -0.559  -4.047   0.573  0.00  0.00    +0.010 A 
ATOM      7  C   LIG    1        0.298  -4.781   1.368  0.00  0.00    +0.140 A 
ATOM      8  C   LIG    1        1.284  -4.141   2.095  0.00  0.00    -0.080 A 
ATOM      9  C   LIG    1        1.413  -2.767   2.029  0.00  0.00    +0.150 A 
ATOM     10  C   LIG    1        0.556  -2.027   1.235  0.00  0.00    -0.160 A 
ATOM     11  C   LIG    1        0.707  -0.528   1.181  0.00  0.00    +0.260 C 
ENDROOT
BRANCH   8  12
ATOM     12  N   LIG    1        2.204  -4.929   2.947  0.00  0.00    +0.030 N 
ATOM     13  O   LIG    1        3.073  -4.366   3.587  0.00  0.00    -0.160 OA
ATOM     14  O   LIG    1        2.091  -6.141   3.006  0.00  0.00    -0.160 OA
ENDBRANCH   8  12
TORSDOF 1
