REMARK  Name = ZINC000072334127
REMARK                            x       y       z     vdW  Elec       q    Type
REMARK                         _______ _______ _______ _____ _____    ______ ____
ROOT
ATOM      1  N   LIG    1        0.738  -1.962  -1.265  0.00  0.00    -0.350 N 
ATOM      2  N   LIG    1        1.732  -2.776  -0.707  0.00  0.00    -0.270 NA
ATOM      3  C   LIG    1        1.402  -4.025  -0.913  0.00  0.00    +0.130 A 
ATOM      4  C   LIG    1        0.188  -4.047  -1.607  0.00  0.00    -0.190 A 
ATOM      5  C   LIG    1        2.192  -5.232  -0.477  0.00  0.00    +0.170 C 
ATOM      6  C   LIG    1       -0.201  -2.766  -1.806  0.00  0.00    +0.160 A 
ATOM      7  C   LIG    1       -1.454  -2.318  -2.514  0.00  0.00    +0.170 C 
ENDROOT
BRANCH   4   8
ATOM      8  N   LIG    1       -0.545  -5.257  -2.042  0.00  0.00    +0.050 N 
ATOM      9  O   LIG    1       -0.324  -5.743  -3.137  0.00  0.00    -0.140 OA
ATOM     10  O   LIG    1       -1.370  -5.767  -1.305  0.00  0.00    -0.140 OA
ENDBRANCH   4   8
BRANCH   1  11
ATOM     11  C   LIG    1        0.718  -0.497  -1.257  0.00  0.00    +0.340 C 
BRANCH  11  13
ATOM     12  C   LIG    1       -0.019   1.526   0.010  0.00  0.00    +0.040 C 
ATOM     13  C   LIG    1        0.002  -0.004   0.002  0.00  0.00    +0.010 C 
ENDBRANCH  11  13
ENDBRANCH   1  11
TORSDOF 3
