REMARK  Name = ZINC000038174050
REMARK                            x       y       z     vdW  Elec       q    Type
REMARK                         _______ _______ _______ _____ _____    ______ ____
ROOT
ATOM      1  C   LIG    1        0.731  -0.503   1.223  0.00  0.00    -0.060 A 
ATOM      2  C   LIG    1        2.078  -0.808   1.147  0.00  0.00    +0.050 A 
ATOM      3  C   LIG    1        2.750  -1.266   2.265  0.00  0.00    +0.000 A 
ATOM      4  C   LIG    1        2.080  -1.422   3.464  0.00  0.00    +0.030 A 
ATOM      5  C   LIG    1        0.729  -1.118   3.547  0.00  0.00    +0.200 A 
ATOM      6  C   LIG    1        0.053  -0.651   2.422  0.00  0.00    +0.080 A 
ENDROOT
BRANCH   5   7
ATOM      7  N   LIG    1        0.048  -1.274   4.760  0.00  0.00    -0.860 N 
ATOM      8  H   LIG    1       -0.897  -1.061   4.817  0.00  0.00    +0.410 HD
ATOM      9  H   LIG    1        0.521  -1.595   5.544  0.00  0.00    +0.410 HD
ENDBRANCH   5   7
BRANCH   3  10
ATOM     10  N   LIG    1        4.192  -1.591   2.178  0.00  0.00    +0.030 N 
ATOM     11  O   LIG    1        4.786  -1.995   3.162  0.00  0.00    -0.160 OA
ATOM     12  O   LIG    1        4.784  -1.454   1.123  0.00  0.00    -0.150 OA
ENDBRANCH   3  10
BRANCH   1  14
ATOM     13  C   LIG    1       -0.019   1.526   0.010  0.00  0.00    +0.030 C 
ATOM     14  C   LIG    1        0.002  -0.004   0.002  0.00  0.00    +0.090 C 
ENDBRANCH   1  14
BRANCH   6  15
ATOM     15  O   LIG    1       -1.271  -0.351   2.497  0.00  0.00    -0.480 OA
ATOM     16  H   LIG    1       -1.454   0.566   2.743  0.00  0.00    +0.390 HD
ENDBRANCH   6  15
TORSDOF 4
