REMARK  Name = ZINC000034155862
REMARK                            x       y       z     vdW  Elec       q    Type
REMARK                         _______ _______ _______ _____ _____    ______ ____
ROOT
ATOM      1  O   LIG    1        0.002  -0.004   0.002  0.00  0.00    -0.490 OA
ATOM      2  C   LIG    1       -0.015   1.217   0.009  0.00  0.00    +0.530 A 
ATOM      3  N   LIG    1       -1.168   1.883   0.029  0.00  0.00    -0.610 NA
ATOM      4  C   LIG    1       -1.216   3.215   0.037  0.00  0.00    +0.450 A 
ATOM      5  C   LIG    1       -2.477   3.841   0.058  0.00  0.00    +0.020 A 
ATOM      6  C   LIG    1       -2.556   5.201   0.066  0.00  0.00    +0.140 A 
ATOM      7  C   LIG    1       -1.379   5.960   0.053  0.00  0.00    -0.020 A 
ATOM      8  C   LIG    1       -0.176   5.343   0.033  0.00  0.00    +0.290 A 
ATOM      9  N   LIG    1       -0.087   3.984   0.025  0.00  0.00    -0.410 N 
ATOM     10  C   LIG    1        1.165   3.391   0.004  0.00  0.00    +0.340 A 
ATOM     11  N   LIG    1        2.271   4.116  -0.009  0.00  0.00    -0.500 NA
ATOM     12  C   LIG    1        3.462   3.553  -0.028  0.00  0.00    +0.340 A 
ATOM     13  C   LIG    1        3.614   2.176  -0.038  0.00  0.00    -0.020 A 
ATOM     14  C   LIG    1        2.490   1.367  -0.026  0.00  0.00    +0.170 A 
ATOM     15  C   LIG    1        1.242   1.988   0.001  0.00  0.00    -0.220 A 
ENDROOT
TORSDOF 0
