REMARK  Name = ZINC000196911878
REMARK                            x       y       z     vdW  Elec       q    Type
REMARK                         _______ _______ _______ _____ _____    ______ ____
ROOT
ATOM      1  C   LIG    1        0.757  -2.108   1.552  0.00  0.00    -0.050 C 
ATOM      2  C   LIG    1        1.323  -2.406   2.945  0.00  0.00    +0.040 C 
ATOM      3  C   LIG    1        1.448  -3.919   3.129  0.00  0.00    +0.020 C 
ATOM      4  C   LIG    1        2.455  -4.483   2.125  0.00  0.00    +0.030 C 
ATOM      5  C   LIG    1        1.932  -4.263   0.702  0.00  0.00    +0.020 C 
ATOM      6  C   LIG    1        1.625  -2.792   0.519  0.00  0.00    +0.370 C 
ATOM      7  O   LIG    1        2.067  -2.180  -0.423  0.00  0.00    -0.450 OA
ENDROOT
BRANCH   1   8
ATOM      8  C   LIG    1        0.761  -0.598   1.308  0.00  0.00    +0.090 C 
BRANCH   8  10
ATOM      9  C   LIG    1       -0.164   1.593   2.074  0.00  0.00    +0.110 C 
ATOM     10  C   LIG    1       -0.228   0.075   2.261  0.00  0.00    +0.150 C 
BRANCH  10  11
ATOM     11  N   LIG    1       -1.584  -0.396   1.971  0.00  0.00    -0.020 N 
ATOM     12  O   LIG    1       -2.231  -0.960   2.835  0.00  0.00    -0.160 OA
ATOM     13  O   LIG    1       -2.065  -0.225   0.865  0.00  0.00    -0.160 OA
ENDBRANCH  10  11
ENDBRANCH   8  10
ENDBRANCH   1   8
TORSDOF 3
