REMARK  Name = ZINC000039644676
REMARK                            x       y       z     vdW  Elec       q    Type
REMARK                         _______ _______ _______ _____ _____    ______ ____
ROOT
ATOM      1  C   LIG    1       -0.018   1.503   0.010  0.00  0.00    +0.190 C 
ATOM      2  C   LIG    1        0.002  -0.004   0.002  0.00  0.00    +0.110 C 
ATOM      3  C   LIG    1        0.005  -0.680  -1.203  0.00  0.00    +0.150 C 
ATOM      4  C   LIG    1        0.024  -2.067  -1.200  0.00  0.00    -0.010 C 
ATOM      5  C   LIG    1        0.039  -2.725   0.021  0.00  0.00    -0.010 C 
ATOM      6  C   LIG    1        0.035  -1.981   1.187  0.00  0.00    +0.300 C 
ATOM      7 CL   LIG    1        0.064  -4.460   0.084  0.00  0.00    +0.050 Cl
ATOM      8  N   LIG    1        0.022  -0.662   1.146  0.00  0.00    -0.090 NA
ATOM      9  O   LIG    1        0.018   0.066   2.361  0.00  0.00    -0.480 OA
ENDROOT
BRANCH   4  10
ATOM     10  N   LIG    1        0.029  -2.826  -2.471  0.00  0.00    +0.020 N 
ATOM     11  O   LIG    1        0.046  -4.044  -2.452  0.00  0.00    -0.110 OA
ATOM     12  O   LIG    1        0.017  -2.234  -3.535  0.00  0.00    -0.130 OA
ENDBRANCH   4  10
TORSDOF 1
