REMARK  Name = ZINC000021981822
REMARK                            x       y       z     vdW  Elec       q    Type
REMARK                         _______ _______ _______ _____ _____    ______ ____
ROOT
ATOM      1  C   LIG    1       -0.516   1.450   0.083  0.00  0.00    +0.170 C 
ATOM      2  C   LIG    1       -0.235  -0.030   0.037  0.00  0.00    +0.260 A 
ATOM      3  N   LIG    1       -0.335  -0.676  -1.109  0.00  0.00    -0.520 NA
ATOM      4  C   LIG    1       -0.098  -1.976  -1.197  0.00  0.00    +0.460 A 
ATOM      5  C   LIG    1        0.267  -2.706  -0.069  0.00  0.00    -0.170 A 
ATOM      6  C   LIG    1        0.379  -2.055   1.147  0.00  0.00    +0.210 A 
ATOM      7 CL   LIG    1        0.578  -4.410  -0.187  0.00  0.00    -0.030 Cl
ATOM      8  C   LIG    1        0.127  -0.690   1.193  0.00  0.00    -0.150 A 
ENDROOT
BRANCH   4   9
ATOM      9  N   LIG    1       -0.214  -2.616  -2.425  0.00  0.00    -0.820 N 
ATOM     10  H   LIG    1       -0.041  -3.568  -2.494  0.00  0.00    +0.420 HD
ATOM     11  H   LIG    1       -0.467  -2.111  -3.214  0.00  0.00    +0.420 HD
ENDBRANCH   4   9
BRANCH   8  12
ATOM     12  N   LIG    1        0.235   0.047   2.472  0.00  0.00    +0.040 N 
ATOM     13  O   LIG    1       -0.113  -0.483   3.512  0.00  0.00    -0.160 OA
ATOM     14  O   LIG    1        0.673   1.183   2.485  0.00  0.00    -0.140 OA
ENDBRANCH   8  12
TORSDOF 2
