REMARK  Name = ZINC000256050750
REMARK                            x       y       z     vdW  Elec       q    Type
REMARK                         _______ _______ _______ _____ _____    ______ ____
ROOT
ATOM      1  C   LIG    1       -1.293   1.929   0.019  0.00  0.00    +0.160 C 
ATOM      2  C   LIG    1       -2.136   1.522  -1.207  0.00  0.00    +0.080 C 
ATOM      3  C   LIG    1       -3.590   1.486  -0.674  0.00  0.00    +0.080 C 
ATOM      4  C   LIG    1       -3.417   0.901   0.750  0.00  0.00    +0.000 C 
ATOM      5  C   LIG    1       -2.107   1.536   1.264  0.00  0.00    +0.090 C 
ENDROOT
BRANCH   4   6
ATOM      6  C   LIG    1       -4.595   1.304   1.640  0.00  0.00    +0.460 C 
ATOM      7  F   LIG    1       -4.679   2.699   1.699  0.00  0.00    -0.180 F 
ATOM      8  F   LIG    1       -4.402   0.793   2.928  0.00  0.00    -0.180 F 
ATOM      9  F   LIG    1       -5.781   0.787   1.106  0.00  0.00    -0.180 F 
ENDBRANCH   4   6
BRANCH   1  11
ATOM     10  O   LIG    1        0.002  -0.004   0.002  0.00  0.00    -0.150 OA
ATOM     11  N   LIG    1       -0.014   1.214   0.009  0.00  0.00    -0.020 N 
ATOM     12  O   LIG    1        1.032   1.837   0.002  0.00  0.00    -0.150 OA
ENDBRANCH   1  11
TORSDOF 2
