REMARK  Name = ZINC000095830705
REMARK                            x       y       z     vdW  Elec       q    Type
REMARK                         _______ _______ _______ _____ _____    ______ ____
ROOT
ATOM      1  C   LIG    1        0.625  -0.618   1.040  0.00  0.00    +0.160 A 
ATOM      2  C   LIG    1        1.984  -0.908   0.960  0.00  0.00    +0.080 A 
ATOM      3  C   LIG    1        2.621  -1.531   2.011  0.00  0.00    +0.130 A 
ATOM      4  C   LIG    1        1.897  -1.870   3.162  0.00  0.00    -0.170 A 
ATOM      5  C   LIG    1        0.530  -1.575   3.236  0.00  0.00    +0.180 A 
ATOM      6  F   LIG    1        2.680  -0.580  -0.151  0.00  0.00    -0.110 F 
ATOM      7  C   LIG    1       -0.095  -0.948   2.182  0.00  0.00    -0.060 A 
ENDROOT
BRANCH   7   8
ATOM      8  N   LIG    1       -1.540  -0.636   2.261  0.00  0.00    +0.030 N 
ATOM      9  O   LIG    1       -2.094  -0.081   1.329  0.00  0.00    -0.130 OA
ATOM     10  O   LIG    1       -2.174  -0.933   3.257  0.00  0.00    -0.150 OA
ENDBRANCH   7   8
BRANCH   1  12
ATOM     11  C   LIG    1       -0.017   1.425   0.010  0.00  0.00    +0.270 C 
ATOM     12  O   LIG    1        0.002  -0.004   0.002  0.00  0.00    -0.310 OA
ENDBRANCH   1  12
BRANCH   4  13
ATOM     13  C   LIG    1        2.570  -2.533   4.286  0.00  0.00    +0.520 C 
ATOM     14  O   LIG    1        3.754  -2.788   4.220  0.00  0.00    -0.440 OA
ENDBRANCH   4  13
TORSDOF 3
