REMARK  Name = ZINC000238563050
REMARK                            x       y       z     vdW  Elec       q    Type
REMARK                         _______ _______ _______ _____ _____    ______ ____
ROOT
ATOM      1  C   LIG    1       -1.306   1.936   0.019  0.00  0.00    -0.140 A 
ATOM      2  C   LIG    1       -1.317   3.301   0.021  0.00  0.00    +0.170 A 
ATOM      3  C   LIG    1       -2.569   3.955   0.030  0.00  0.00    -0.280 A 
ATOM      4  C   LIG    1       -2.982   5.274   0.036  0.00  0.00    +0.370 A 
ATOM      5  N   LIG    1       -4.321   5.284   0.046  0.00  0.00    -0.390 N 
ATOM      6  H   LIG    1       -4.871   6.082   0.051  0.00  0.00    +0.460 HD
ATOM      7  N   LIG    1       -4.808   3.973   0.047  0.00  0.00    -0.260 NA
ATOM      8  C   LIG    1       -3.789   3.133   0.038  0.00  0.00    +0.300 A 
ATOM      9  N   LIG    1       -3.673   1.796   0.035  0.00  0.00    -0.440 NA
ATOM     10 CL   LIG    1        0.164   4.206   0.011  0.00  0.00    +0.030 Cl
ATOM     11  C   LIG    1       -2.499   1.216   0.021  0.00  0.00    +0.450 A 
ENDROOT
BRANCH   1  13
ATOM     12  O   LIG    1        0.002  -0.004   0.002  0.00  0.00    -0.150 OA
ATOM     13  N   LIG    1       -0.014   1.214   0.009  0.00  0.00    +0.040 N 
ATOM     14  O   LIG    1        1.032   1.837   0.002  0.00  0.00    -0.150 OA
ENDBRANCH   1  13
TORSDOF 1
