REMARK  Name = ZINC000032150865
REMARK                            x       y       z     vdW  Elec       q    Type
REMARK                         _______ _______ _______ _____ _____    ______ ____
ROOT
ATOM      1  C   LIG    1        0.017  -2.863  -0.105  0.00  0.00    +0.010 A 
ATOM      2  C   LIG    1        1.215  -2.172   0.103  0.00  0.00    +0.090 A 
ATOM      3  C   LIG    1        2.412  -2.857   0.094  0.00  0.00    +0.070 A 
ATOM      4  C   LIG    1        2.430  -4.224  -0.122  0.00  0.00    +0.040 A 
ATOM      5  C   LIG    1        1.249  -4.914  -0.330  0.00  0.00    +0.090 A 
ATOM      6  C   LIG    1        0.043  -4.245  -0.317  0.00  0.00    -0.040 A 
ENDROOT
BRANCH   6   7
ATOM      7  N   LIG    1       -1.219  -4.986  -0.539  0.00  0.00    +0.030 N 
ATOM      8  O   LIG    1       -2.288  -4.412  -0.433  0.00  0.00    -0.170 OA
ATOM      9  O   LIG    1       -1.189  -6.169  -0.827  0.00  0.00    -0.160 OA
ENDBRANCH   6   7
BRANCH   1  11
ATOM     10  C   LIG    1       -1.410  -1.017  -0.828  0.00  0.00    -0.050 C 
ATOM     11  C   LIG    1       -1.265  -2.140  -0.096  0.00  0.00    +0.130 C 
BRANCH  10  15
ATOM     12  N   LIG    1       -0.458   0.553  -2.428  0.00  0.00    -0.850 N 
ATOM     13  H   LIG    1       -1.201   1.151  -2.249  0.00  0.00    +0.400 HD
ATOM     14  H   LIG    1        0.226   0.808  -3.067  0.00  0.00    +0.400 HD
ATOM     15  C   LIG    1       -0.378  -0.632  -1.793  0.00  0.00    +0.540 C 
ATOM     16  O   LIG    1        0.552  -1.384  -2.021  0.00  0.00    -0.540 OA
ENDBRANCH  10  15
ENDBRANCH   1  11
TORSDOF 3
