REMARK  Name = ZINC000016678008
REMARK                            x       y       z     vdW  Elec       q    Type
REMARK                         _______ _______ _______ _____ _____    ______ ____
ROOT
ATOM      1  C   LIG    1        0.606  -0.608  -1.056  0.00  0.00    +0.050 A 
ATOM      2  C   LIG    1        1.175   0.152  -2.066  0.00  0.00    +0.280 A 
ATOM      3  N   LIG    1        1.763  -0.427  -3.096  0.00  0.00    -0.490 NA
ATOM      4  C   LIG    1        1.834  -1.742  -3.207  0.00  0.00    +0.350 A 
ATOM      5  C   LIG    1        1.286  -2.567  -2.233  0.00  0.00    -0.070 A 
ATOM      6  C   LIG    1        0.666  -1.996  -1.136  0.00  0.00    +0.010 A 
ATOM      7  C   LIG    1        0.060  -2.857  -0.058  0.00  0.00    +0.150 C 
ENDROOT
BRANCH   5   8
ATOM      8  N   LIG    1        1.371  -4.039  -2.364  0.00  0.00    +0.030 N 
ATOM      9  O   LIG    1        0.488  -4.651  -2.939  0.00  0.00    -0.130 OA
ATOM     10  O   LIG    1        2.323  -4.639  -1.897  0.00  0.00    -0.130 OA
ENDBRANCH   5   8
BRANCH   1  12
ATOM     11  C   LIG    1       -0.017   1.425   0.010  0.00  0.00    +0.250 C 
ATOM     12  O   LIG    1        0.002  -0.004   0.002  0.00  0.00    -0.300 OA
ENDBRANCH   1  12
BRANCH   4  13
ATOM     13  O   LIG    1        2.449  -2.292  -4.284  0.00  0.00    -0.300 OA
ATOM     14  C   LIG    1        2.993  -1.391  -5.251  0.00  0.00    +0.290 C 
ENDBRANCH   4  13
TORSDOF 3
