REMARK  Name = ZINC000039220894
REMARK                            x       y       z     vdW  Elec       q    Type
REMARK                         _______ _______ _______ _____ _____    ______ ____
ROOT
ATOM      1  O   LIG    1        0.002  -0.004   0.002  0.00  0.00    -0.430 OA
ATOM      2  C   LIG    1       -0.014   1.210   0.009  0.00  0.00    +0.530 C 
ATOM      3  O   LIG    1       -1.182   1.903   0.029  0.00  0.00    -0.350 OA
ATOM      4  C   LIG    1       -1.208   3.067  -0.847  0.00  0.00    +0.280 C 
ATOM      5  C   LIG    1       -0.150   4.070  -0.386  0.00  0.00    +0.100 C 
ATOM      6  C   LIG    1        1.177   3.381  -0.200  0.00  0.00    +0.010 A 
ATOM      7  C   LIG    1        2.344   4.118  -0.220  0.00  0.00    +0.040 A 
ATOM      8  C   LIG    1        3.565   3.491  -0.046  0.00  0.00    +0.140 A 
ATOM      9  C   LIG    1        3.629   2.123   0.149  0.00  0.00    -0.060 A 
ATOM     10  C   LIG    1        2.470   1.372   0.171  0.00  0.00    +0.180 A 
ATOM     11  C   LIG    1        1.239   2.000   0.001  0.00  0.00    -0.170 A 
ENDROOT
BRANCH   9  12
ATOM     12  N   LIG    1        4.941   1.463   0.337  0.00  0.00    +0.030 N 
ATOM     13  O   LIG    1        4.998   0.259   0.509  0.00  0.00    -0.150 OA
ATOM     14  O   LIG    1        5.963   2.125   0.318  0.00  0.00    -0.150 OA
ENDBRANCH   9  12
TORSDOF 1
