REMARK  Name = ZINC000217572436
REMARK                            x       y       z     vdW  Elec       q    Type
REMARK                         _______ _______ _______ _____ _____    ______ ____
ROOT
ATOM      1  C   LIG    1       -1.306   1.936   0.019  0.00  0.00    -0.170 A 
ATOM      2  C   LIG    1       -1.467   3.280   0.021  0.00  0.00    +0.400 A 
ATOM      3  N   LIG    1       -2.792   3.536   0.031  0.00  0.00    -0.430 N 
ATOM      4  N   LIG    1       -3.468   2.309   0.034  0.00  0.00    -0.230 NA
ATOM      5  C   LIG    1       -2.577   1.351   0.021  0.00  0.00    +0.370 A 
ENDROOT
BRANCH   3   6
ATOM      6  C   LIG    1       -3.413   4.862   0.036  0.00  0.00    +0.700 C 
ATOM      7  F   LIG    1       -2.573   5.769   0.690  0.00  0.00    -0.140 F 
ATOM      8  F   LIG    1       -4.641   4.799   0.704  0.00  0.00    -0.130 F 
ATOM      9  F   LIG    1       -3.620   5.286  -1.281  0.00  0.00    -0.140 F 
ENDBRANCH   3   6
BRANCH   1  11
ATOM     10  O   LIG    1        0.002  -0.004   0.002  0.00  0.00    -0.140 OA
ATOM     11  N   LIG    1       -0.014   1.214   0.009  0.00  0.00    +0.060 N 
ATOM     12  O   LIG    1        1.032   1.837   0.002  0.00  0.00    -0.160 OA
ENDBRANCH   1  11
TORSDOF 2
