REMARK  Name = ZINC000001632599
REMARK                            x       y       z     vdW  Elec       q    Type
REMARK                         _______ _______ _______ _____ _____    ______ ____
ROOT
ATOM      1  C   LIG    1        0.002  -0.004   0.002  0.00  0.00    +0.350 A 
ATOM      2  C   LIG    1       -1.195  -0.750   0.004  0.00  0.00    -0.080 A 
ATOM      3  N   LIG    1       -2.390  -0.155   0.012  0.00  0.00    -0.400 NA
ATOM      4  C   LIG    1       -3.478  -0.889   0.013  0.00  0.00    +0.210 A 
ATOM      5  C   LIG    1       -3.412  -2.284   0.005  0.00  0.00    +0.320 A 
ATOM      6  N   LIG    1       -2.261  -2.916  -0.004  0.00  0.00    -0.440 NA
ATOM      7  C   LIG    1       -1.118  -2.212  -0.005  0.00  0.00    +0.330 A 
ATOM      8  N   LIG    1        0.063  -2.820  -0.014  0.00  0.00    -0.510 NA
ATOM      9  C   LIG    1        1.208  -2.135  -0.016  0.00  0.00    +0.230 A 
ATOM     10  C   LIG    1        2.439  -2.824  -0.026  0.00  0.00    +0.030 A 
ATOM     11  C   LIG    1        3.606  -2.127  -0.029  0.00  0.00    +0.060 A 
ATOM     12  C   LIG    1        3.611  -0.732  -0.021  0.00  0.00    -0.010 A 
ATOM     13  C   LIG    1        2.446  -0.030  -0.011  0.00  0.00    +0.040 A 
ATOM     14  C   LIG    1        1.218  -0.716  -0.013  0.00  0.00    -0.180 A 
ENDROOT
BRANCH   1  15
ATOM     15  N   LIG    1       -0.017   1.373   0.010  0.00  0.00    -0.810 N 
ATOM     16  H   LIG    1       -0.863   1.847   0.016  0.00  0.00    +0.420 HD
ATOM     17  H   LIG    1        0.817   1.869   0.004  0.00  0.00    +0.410 HD
ENDBRANCH   1  15
TORSDOF 1
