REMARK  Name = ZINC000071256957
REMARK                            x       y       z     vdW  Elec       q    Type
REMARK                         _______ _______ _______ _____ _____    ______ ____
ROOT
ATOM      1  C   LIG    1       -0.018   1.503   0.010  0.00  0.00    +0.130 C 
ATOM      2  C   LIG    1        0.002  -0.004   0.002  0.00  0.00    +0.050 A 
ATOM      3  C   LIG    1        0.006  -0.705  -1.190  0.00  0.00    -0.090 A 
ATOM      4  C   LIG    1        0.025  -2.095  -1.158  0.00  0.00    +0.440 A 
ATOM      5  N   LIG    1        0.040  -2.742  -0.003  0.00  0.00    -0.530 NA
ATOM      6  C   LIG    1        0.036  -2.100   1.150  0.00  0.00    +0.250 A 
ATOM      7  C   LIG    1        0.054  -2.883   2.438  0.00  0.00    +0.150 C 
ATOM      8  C   LIG    1        0.023  -0.720   1.192  0.00  0.00    -0.150 A 
ENDROOT
BRANCH   4   9
ATOM      9  N   LIG    1        0.029  -2.812  -2.349  0.00  0.00    -0.830 N 
ATOM     10  H   LIG    1        0.043  -3.782  -2.331  0.00  0.00    +0.410 HD
ATOM     11  H   LIG    1        0.019  -2.343  -3.198  0.00  0.00    +0.420 HD
ENDBRANCH   4   9
BRANCH   8  12
ATOM     12  N   LIG    1        0.019  -0.012   2.491  0.00  0.00    +0.030 N 
ATOM     13  O   LIG    1       -1.037   0.270   3.028  0.00  0.00    -0.140 OA
ATOM     14  O   LIG    1        1.073   0.290   3.023  0.00  0.00    -0.140 OA
ENDBRANCH   8  12
TORSDOF 2
