REMARK  Name = ZINC000035635570
REMARK                            x       y       z     vdW  Elec       q    Type
REMARK                         _______ _______ _______ _____ _____    ______ ____
ROOT
ATOM      1  C   LIG    1       -0.001  -0.031   0.264  0.00  0.00    +0.320 A 
ATOM      2  C   LIG    1       -1.175  -0.768   0.319  0.00  0.00    -0.120 A 
ATOM      3  C   LIG    1       -1.149  -2.129   0.048  0.00  0.00    +0.330 A 
ATOM      4  C   LIG    1        0.052  -2.749  -0.277  0.00  0.00    -0.160 A 
ATOM      5  C   LIG    1        1.219  -2.012  -0.331  0.00  0.00    +0.200 A 
ATOM      6  C   LIG    1        1.197  -0.656  -0.067  0.00  0.00    -0.160 A 
ATOM      7 CL   LIG    1        2.666   0.266  -0.136  0.00  0.00    -0.050 Cl
ENDROOT
BRANCH   1   8
ATOM      8  N   LIG    1       -0.023   1.340   0.536  0.00  0.00    -0.850 N 
ATOM      9  H   LIG    1       -0.859   1.776   0.763  0.00  0.00    +0.410 HD
ATOM     10  H   LIG    1        0.798   1.856   0.494  0.00  0.00    +0.410 HD
ENDBRANCH   1   8
BRANCH   4  11
ATOM     11  N   LIG    1        0.080  -4.201  -0.565  0.00  0.00    +0.050 N 
ATOM     12  O   LIG    1       -0.841  -4.719  -1.172  0.00  0.00    -0.180 OA
ATOM     13  O   LIG    1        1.023  -4.877  -0.196  0.00  0.00    -0.160 OA
ENDBRANCH   4  11
BRANCH   3  14
ATOM     14  N   LIG    1       -2.329  -2.876   0.102  0.00  0.00    -0.850 N 
ATOM     15  H   LIG    1       -2.296  -3.842   0.024  0.00  0.00    +0.410 HD
ATOM     16  H   LIG    1       -3.181  -2.427   0.216  0.00  0.00    +0.410 HD
ENDBRANCH   3  14
TORSDOF 3
