REMARK  Name = ZINC000044712920
REMARK                            x       y       z     vdW  Elec       q    Type
REMARK                         _______ _______ _______ _____ _____    ______ ____
ROOT
ATOM      1  C   LIG    1       -1.306   1.936   0.019  0.00  0.00    -0.120 A 
ATOM      2  C   LIG    1       -2.530   1.383   0.027  0.00  0.00    +0.400 A 
ATOM      3  N   LIG    1       -3.485   2.362   0.035  0.00  0.00    -0.560 N 
ATOM      4  H   LIG    1       -4.442   2.208   0.042  0.00  0.00    +0.440 HD
ATOM      5  C   LIG    1       -2.883   3.600   0.032  0.00  0.00    +0.070 A 
ATOM      6  C   LIG    1       -3.367   4.904   0.036  0.00  0.00    +0.050 A 
ATOM      7  C   LIG    1       -2.453   5.944   0.030  0.00  0.00    +0.080 A 
ATOM      8  C   LIG    1       -1.093   5.662   0.020  0.00  0.00    +0.270 A 
ATOM      9  N   LIG    1       -0.653   4.422   0.016  0.00  0.00    -0.400 NA
ATOM     10  F   LIG    1       -2.880   7.226   0.035  0.00  0.00    -0.120 F 
ATOM     11  C   LIG    1       -1.491   3.389   0.028  0.00  0.00    +0.120 A 
ENDROOT
BRANCH   1  13
ATOM     12  O   LIG    1        0.002  -0.004   0.002  0.00  0.00    -0.180 OA
ATOM     13  N   LIG    1       -0.014   1.214   0.009  0.00  0.00    +0.060 N 
ATOM     14  O   LIG    1        1.032   1.837   0.002  0.00  0.00    -0.130 OA
ENDBRANCH   1  13
TORSDOF 1
