REMARK  Name = ZINC000038950709
REMARK                            x       y       z     vdW  Elec       q    Type
REMARK                         _______ _______ _______ _____ _____    ______ ____
ROOT
ATOM      1  C   LIG    1       -0.018   1.503   0.010  0.00  0.00    +0.140 C 
ATOM      2  C   LIG    1        0.002  -0.004   0.002  0.00  0.00    +0.060 A 
ATOM      3  C   LIG    1        0.006  -0.707  -1.195  0.00  0.00    -0.070 A 
ATOM      4  C   LIG    1        0.025  -2.088  -1.169  0.00  0.00    +0.380 A 
ATOM      5  N   LIG    1        0.040  -2.742  -0.023  0.00  0.00    -0.530 NA
ATOM      6  C   LIG    1        0.037  -2.108   1.139  0.00  0.00    +0.470 A 
ATOM      7  C   LIG    1        0.023  -0.718   1.187  0.00  0.00    -0.190 A 
ENDROOT
BRANCH   7   8
ATOM      8  N   LIG    1        0.020  -0.071   2.378  0.00  0.00    +0.060 N 
ATOM      9  O   LIG    1       -1.037   0.209   2.916  0.00  0.00    -0.150 OA
ATOM     10  O   LIG    1        1.073   0.230   2.910  0.00  0.00    -0.150 OA
ENDBRANCH   7   8
BRANCH   6  11
ATOM     11  N   LIG    1        0.053  -2.837   2.322  0.00  0.00    -0.680 N 
ATOM     12  H   LIG    1        0.051  -2.377   3.176  0.00  0.00    +0.410 HD
BRANCH  11  13
ATOM     13  C   LIG    1        0.074  -4.302   2.280  0.00  0.00    +0.230 C 
ATOM     14  C   LIG    1        1.025  -5.023   3.236  0.00  0.00    +0.020 C 
ATOM     15  C   LIG    1       -0.483  -5.052   3.491  0.00  0.00    +0.020 C 
ENDBRANCH  11  13
ENDBRANCH   6  11
TORSDOF 3
