REMARK  Name = ZINC000039060925
REMARK                            x       y       z     vdW  Elec       q    Type
REMARK                         _______ _______ _______ _____ _____    ______ ____
ROOT
ATOM      1  C   LIG    1        1.245   1.959   0.001  0.00  0.00    -0.300 A 
ATOM      2  C   LIG    1        2.514   1.447  -0.020  0.00  0.00    +0.370 A 
ATOM      3  O   LIG    1        3.378   2.465  -0.021  0.00  0.00    -0.150 OA
ATOM      4  C   LIG    1        2.733   3.643  -0.001  0.00  0.00    +0.010 A 
ATOM      5  C   LIG    1        1.411   3.422   0.007  0.00  0.00    +0.150 A 
ENDROOT
BRANCH   4   6
ATOM      6  N   LIG    1        3.380   4.974   0.005  0.00  0.00    +0.060 N 
ATOM      7  O   LIG    1        4.595   5.061  -0.009  0.00  0.00    -0.120 OA
ATOM      8  O   LIG    1        2.697   5.983   0.023  0.00  0.00    -0.120 OA
ENDBRANCH   4   6
BRANCH   1  10
ATOM      9  O   LIG    1        0.002  -0.004   0.002  0.00  0.00    -0.450 OA
ATOM     10  C   LIG    1       -0.014   1.209   0.009  0.00  0.00    +0.540 C 
ENDBRANCH   1  10
TORSDOF 2
