REMARK  Name = ZINC000002046397
REMARK                            x       y       z     vdW  Elec       q    Type
REMARK                         _______ _______ _______ _____ _____    ______ ____
ROOT
ATOM      1  C   LIG    1        0.872  -2.034   1.171  0.00  0.00    +0.060 C 
ENDROOT
BRANCH   1   2
ATOM      2  C   LIG    1        1.612  -2.541   2.410  0.00  0.00    +0.040 C 
ATOM      3  C   LIG    1        0.828  -2.153   3.666  0.00  0.00    +0.100 C 
ATOM      4  C   LIG    1        3.006  -1.912   2.465  0.00  0.00    +0.100 C 
BRANCH   2   5
ATOM      5  N   LIG    1        1.736  -3.999   2.343  0.00  0.00    -0.020 N 
ATOM      6  O   LIG    1        0.887  -4.656   1.768  0.00  0.00    -0.160 OA
ATOM      7  O   LIG    1        2.689  -4.553   2.861  0.00  0.00    -0.160 OA
ENDBRANCH   2   5
ENDBRANCH   1   2
BRANCH   1   8
ATOM      8  C   LIG    1        0.742  -0.511   1.242  0.00  0.00    +0.050 C 
BRANCH   8  10
ATOM      9  C   LIG    1       -0.019   1.526   0.010  0.00  0.00    +0.010 C 
ATOM     10  C   LIG    1        0.002  -0.004   0.002  0.00  0.00    +0.160 C 
BRANCH  10  11
ATOM     11  O   LIG    1       -1.339  -0.499   0.012  0.00  0.00    -0.570 OA
ATOM     12  H   LIG    1       -1.868  -0.216  -0.746  0.00  0.00    +0.380 HD
ENDBRANCH  10  11
ENDBRANCH   8  10
ENDBRANCH   1   8
TORSDOF 5
