REMARK  Name = ZINC000228951925
REMARK                            x       y       z     vdW  Elec       q    Type
REMARK                         _______ _______ _______ _____ _____    ______ ____
ROOT
ATOM      1  C   LIG    1       -0.018   1.503   0.010  0.00  0.00    +0.120 C 
ATOM      2  C   LIG    1        0.002  -0.004   0.002  0.00  0.00    -0.050 A 
ATOM      3  C   LIG    1        0.006  -0.689  -1.196  0.00  0.00    +0.080 A 
ATOM      4  C   LIG    1        0.024  -2.072  -1.205  0.00  0.00    +0.050 A 
ATOM      5  C   LIG    1        0.039  -2.777  -0.015  0.00  0.00    +0.100 A 
ATOM      6  C   LIG    1        0.036  -2.104   1.190  0.00  0.00    -0.010 A 
ATOM      7  C   LIG    1        0.023  -0.709   1.205  0.00  0.00    +0.010 A 
ENDROOT
BRANCH   6   8
ATOM      8  N   LIG    1        0.052  -2.860   2.462  0.00  0.00    +0.020 N 
ATOM      9  O   LIG    1        0.049  -2.264   3.524  0.00  0.00    -0.140 OA
ATOM     10  O   LIG    1        0.068  -4.077   2.447  0.00  0.00    -0.160 OA
ENDBRANCH   6   8
BRANCH   7  11
ATOM     11  C   LIG    1        0.020   0.020   2.494  0.00  0.00    +0.470 C 
ATOM     12  N   LIG    1        1.146   0.350   3.058  0.00  0.00    -0.720 NA
ATOM     13  H   LIG    1        1.144   0.828   3.903  0.00  0.00    +0.350 HD
BRANCH  11  14
ATOM     14  N   LIG    1       -1.175   0.348   3.097  0.00  0.00    -0.620 N 
ATOM     15  H   LIG    1       -2.014   0.102   2.677  0.00  0.00    +0.400 HD
BRANCH  14  16
ATOM     16  O   LIG    1       -1.178   1.045   4.330  0.00  0.00    -0.320 OA
ATOM     17  H   LIG    1       -2.062   1.230   4.674  0.00  0.00    +0.400 HD
ENDBRANCH  14  16
ENDBRANCH  11  14
ENDBRANCH   7  11
TORSDOF 4
