REMARK  Name = ZINC000218256591
REMARK                            x       y       z     vdW  Elec       q    Type
REMARK                         _______ _______ _______ _____ _____    ______ ____
ROOT
ATOM      1  C   LIG    1       -0.018   1.503   0.010  0.00  0.00    +0.130 C 
ATOM      2  C   LIG    1        0.002  -0.004   0.002  0.00  0.00    +0.010 A 
ATOM      3  C   LIG    1        0.005  -0.659  -1.188  0.00  0.00    +0.010 A 
ATOM      4  C   LIG    1        0.025  -2.065  -1.205  0.00  0.00    +0.040 A 
ATOM      5  N   LIG    1        0.033  -3.013  -2.127  0.00  0.00    -0.270 NA
ATOM      6  N   LIG    1        0.052  -4.161  -1.544  0.00  0.00    -0.090 N 
ATOM      7  N   LIG    1        0.057  -4.067  -0.260  0.00  0.00    -0.250 NA
ATOM      8  C   LIG    1        0.066  -5.437  -2.264  0.00  0.00    +0.440 C 
ATOM      9  C   LIG    1        0.041  -2.788   0.076  0.00  0.00    +0.030 A 
ATOM     10  C   LIG    1        0.037  -2.047   1.271  0.00  0.00    +0.150 A 
ATOM     11  C   LIG    1        0.023  -0.690   1.217  0.00  0.00    +0.050 A 
ENDROOT
BRANCH   3  12
ATOM     12  N   LIG    1       -0.011   0.102  -2.458  0.00  0.00    +0.020 N 
ATOM     13  O   LIG    1       -1.072   0.400  -2.975  0.00  0.00    -0.130 OA
ATOM     14  O   LIG    1        1.037   0.429  -2.985  0.00  0.00    -0.130 OA
ENDBRANCH   3  12
TORSDOF 1
