REMARK  Name = ZINC000005218067
REMARK                            x       y       z     vdW  Elec       q    Type
REMARK                         _______ _______ _______ _____ _____    ______ ____
ROOT
ATOM      1  C   LIG    1       -1.306   1.936   0.019  0.00  0.00    -0.010 A 
ATOM      2  C   LIG    1       -1.327   3.353   0.021  0.00  0.00    +0.100 A 
ATOM      3  N   LIG    1       -0.341   4.236   0.015  0.00  0.00    -0.570 NA
ATOM      4  S   LIG    1       -0.934   5.674   0.022  0.00  0.00    +0.870 S 
ATOM      5  N   LIG    1       -2.454   5.345   0.032  0.00  0.00    -0.580 NA
ATOM      6  C   LIG    1       -2.620   4.032   0.031  0.00  0.00    +0.070 A 
ATOM      7  C   LIG    1       -3.798   3.244   0.038  0.00  0.00    +0.160 A 
ATOM      8  C   LIG    1       -3.706   1.892   0.035  0.00  0.00    +0.050 A 
ATOM      9  C   LIG    1       -2.471   1.244   0.021  0.00  0.00    +0.180 A 
ENDROOT
BRANCH   1  11
ATOM     10  O   LIG    1        0.002  -0.004   0.002  0.00  0.00    -0.170 OA
ATOM     11  N   LIG    1       -0.014   1.214   0.009  0.00  0.00    +0.030 N 
ATOM     12  O   LIG    1        1.032   1.837   0.002  0.00  0.00    -0.130 OA
ENDBRANCH   1  11
TORSDOF 1
