REMARK  Name = ZINC000005161728
REMARK                            x       y       z     vdW  Elec       q    Type
REMARK                         _______ _______ _______ _____ _____    ______ ____
ROOT
ATOM      1  C   LIG    1        0.042  -0.032   0.264  0.00  0.00    +0.290 A 
ATOM      2  C   LIG    1       -1.145  -0.744   0.370  0.00  0.00    +0.040 A 
ATOM      3  C   LIG    1       -1.162  -2.099   0.100  0.00  0.00    +0.050 A 
ATOM      4  C   LIG    1        0.001  -2.745  -0.274  0.00  0.00    +0.050 A 
ATOM      5  C   LIG    1        1.185  -2.039  -0.380  0.00  0.00    +0.170 A 
ATOM      6  C   LIG    1        1.208  -0.683  -0.118  0.00  0.00    -0.080 A 
ENDROOT
BRANCH   1   7
ATOM      7  N   LIG    1        0.063   1.338   0.536  0.00  0.00    -0.840 N 
ATOM      8  H   LIG    1       -0.769   1.817   0.678  0.00  0.00    +0.420 HD
ATOM      9  H   LIG    1        0.908   1.812   0.579  0.00  0.00    +0.420 HD
ENDBRANCH   1   7
BRANCH   3  10
ATOM     10  N   LIG    1       -2.427  -2.859   0.212  0.00  0.00    +0.020 N 
ATOM     11  O   LIG    1       -2.443  -4.054  -0.025  0.00  0.00    -0.130 OA
ATOM     12  O   LIG    1       -3.453  -2.290   0.541  0.00  0.00    -0.140 OA
ENDBRANCH   3  10
BRANCH   6  13
ATOM     13  N   LIG    1        2.476   0.072  -0.232  0.00  0.00    +0.030 N 
ATOM     14  O   LIG    1        3.523  -0.439   0.122  0.00  0.00    -0.130 OA
ATOM     15  O   LIG    1        2.472   1.205  -0.679  0.00  0.00    -0.160 OA
ENDBRANCH   6  13
TORSDOF 3
