REMARK  Name = ZINC000095098493
REMARK                            x       y       z     vdW  Elec       q    Type
REMARK                         _______ _______ _______ _____ _____    ______ ____
ROOT
ATOM      1  C   LIG    1       -1.201  -0.638   0.010  0.00  0.00    +0.320 A 
ATOM      2  N   LIG    1       -2.377  -0.058   0.019  0.00  0.00    -0.320 NA
ATOM      3  N   LIG    1       -3.358  -1.058   0.025  0.00  0.00    -0.330 N 
ATOM      4  C   LIG    1       -2.734  -2.254   0.020  0.00  0.00    +0.380 A 
ATOM      5  C   LIG    1       -1.401  -2.026   0.004  0.00  0.00    -0.200 A 
ENDROOT
BRANCH   3   6
ATOM      6  C   LIG    1       -4.807  -0.842   0.035  0.00  0.00    +0.270 C 
ATOM      7  C   LIG    1       -5.480  -1.936   0.866  0.00  0.00    +0.070 C 
ATOM      8  C   LIG    1       -5.339  -0.890  -1.399  0.00  0.00    +0.060 C 
ENDBRANCH   3   6
BRANCH   5   9
ATOM      9  N   LIG    1       -0.340  -3.059  -0.006  0.00  0.00    +0.070 N 
ATOM     10  O   LIG    1        0.832  -2.728  -0.019  0.00  0.00    -0.150 OA
ATOM     11  O   LIG    1       -0.640  -4.240  -0.001  0.00  0.00    -0.180 OA
ENDBRANCH   5   9
BRANCH   1  13
ATOM     12  C   LIG    1       -0.017   1.425   0.010  0.00  0.00    +0.260 C 
ATOM     13  O   LIG    1        0.002  -0.004   0.002  0.00  0.00    -0.270 OA
ENDBRANCH   1  13
TORSDOF 3
