REMARK  Name = ZINC000142372738
REMARK                            x       y       z     vdW  Elec       q    Type
REMARK                         _______ _______ _______ _____ _____    ______ ____
ROOT
ATOM      1  C   LIG    1       -1.306   1.936   0.019  0.00  0.00    +0.120 A 
ATOM      2  N   LIG    1       -1.315   3.255   0.021  0.00  0.00    -0.370 NA
ATOM      3  C   LIG    1       -2.441   3.941   0.029  0.00  0.00    +0.290 A 
ATOM      4  C   LIG    1       -3.665   3.295   0.037  0.00  0.00    +0.140 A 
ATOM      5  C   LIG    1       -3.697   1.907   0.036  0.00  0.00    +0.040 A 
ATOM      6  F   LIG    1       -4.814   4.006   0.046  0.00  0.00    -0.100 F 
ATOM      7  C   LIG    1       -2.491   1.220   0.021  0.00  0.00    +0.170 A 
ATOM      8  F   LIG    1       -2.474  -0.131   0.018  0.00  0.00    -0.080 F 
ENDROOT
BRANCH   1  10
ATOM      9  O   LIG    1        0.002  -0.004   0.002  0.00  0.00    -0.140 OA
ATOM     10  N   LIG    1       -0.014   1.214   0.009  0.00  0.00    +0.030 N 
ATOM     11  O   LIG    1        1.032   1.837   0.002  0.00  0.00    -0.100 OA
ENDBRANCH   1  10
TORSDOF 1
