REMARK  Name = ZINC000071255773
REMARK                            x       y       z     vdW  Elec       q    Type
REMARK                         _______ _______ _______ _____ _____    ______ ____
ROOT
ATOM      1  C   LIG    1        0.707  -0.490  -1.238  0.00  0.00    -0.200 A 
ATOM      2  C   LIG    1        1.206   0.401  -2.126  0.00  0.00    +0.380 A 
ATOM      3  N   LIG    1        1.844  -0.022  -3.248  0.00  0.00    -0.600 N 
ATOM      4  H   LIG    1        2.195   0.630  -3.875  0.00  0.00    +0.430 HD
ATOM      5  C   LIG    1        1.994  -1.336  -3.501  0.00  0.00    +0.530 A 
ATOM      6  C   LIG    1        1.489  -2.288  -2.599  0.00  0.00    -0.190 A 
ATOM      7  O   LIG    1        2.570  -1.700  -4.514  0.00  0.00    -0.490 OA
ATOM      8  C   LIG    1        0.852  -1.865  -1.469  0.00  0.00    +0.270 A 
ENDROOT
BRANCH   1  10
ATOM      9  C   LIG    1       -0.019   1.526   0.010  0.00  0.00    +0.030 C 
ATOM     10  C   LIG    1        0.002  -0.004   0.002  0.00  0.00    -0.010 C 
ATOM     11  C   LIG    1       -1.433  -0.534   0.013  0.00  0.00    +0.040 C 
ATOM     12  C   LIG    1        0.742  -0.511   1.242  0.00  0.00    +0.040 C 
ENDBRANCH   1  10
BRANCH   6  13
ATOM     13  N   LIG    1        1.651  -3.734  -2.869  0.00  0.00    +0.050 N 
ATOM     14  O   LIG    1        2.224  -4.104  -3.878  0.00  0.00    -0.120 OA
ATOM     15  O   LIG    1        1.211  -4.554  -2.083  0.00  0.00    -0.180 OA
ENDBRANCH   6  13
TORSDOF 2
