REMARK  Name = ZINC000135845870
REMARK                            x       y       z     vdW  Elec       q    Type
REMARK                         _______ _______ _______ _____ _____    ______ ____
ROOT
ATOM      1  P   LIG    1        0.877  -2.026  -1.510  0.00  0.00    +2.420 P 
ATOM      2  O   LIG    1       -0.435  -2.711  -1.499  0.00  0.00    -1.000 OA
ENDROOT
BRANCH   1   3
ATOM      3  O   LIG    1        0.671  -0.465  -1.174  0.00  0.00    -0.740 OA
BRANCH   3   5
ATOM      4  C   LIG    1       -0.019   1.526   0.010  0.00  0.00    +0.060 C 
ATOM      5  C   LIG    1        0.002  -0.004   0.002  0.00  0.00    +0.240 C 
ENDBRANCH   3   5
ENDBRANCH   1   3
BRANCH   1   6
ATOM      6  O   LIG    1        1.839  -2.691  -0.404  0.00  0.00    -0.740 OA
BRANCH   6   7
ATOM      7  C   LIG    1        1.475  -2.811   0.973  0.00  0.00    +0.240 C 
ATOM      8  C   LIG    1        2.612  -3.485   1.744  0.00  0.00    +0.060 C 
ENDBRANCH   6   7
ENDBRANCH   1   6
BRANCH   1   9
ATOM      9  C   LIG    1        1.638  -2.197  -3.158  0.00  0.00    -0.260 C 
BRANCH   9  10
ATOM     10  N   LIG    1        2.937  -1.519  -3.169  0.00  0.00    -0.010 N 
ATOM     11  O   LIG    1        3.613  -1.514  -4.183  0.00  0.00    -0.120 OA
ATOM     12  O   LIG    1        3.340  -0.960  -2.166  0.00  0.00    -0.160 OA
ENDBRANCH   9  10
ENDBRANCH   1   9
TORSDOF 6
