REMARK  Name = ZINC000074370120
REMARK                            x       y       z     vdW  Elec       q    Type
REMARK                         _______ _______ _______ _____ _____    ______ ____
ROOT
ATOM      1  C   LIG    1        0.731  -0.503   1.223  0.00  0.00    -0.090 A 
ATOM      2  C   LIG    1        0.053  -0.656   2.418  0.00  0.00    +0.150 A 
ATOM      3  C   LIG    1        0.720  -1.115   3.538  0.00  0.00    +0.000 A 
ATOM      4  C   LIG    1        2.068  -1.420   3.463  0.00  0.00    +0.170 A 
ATOM      5  C   LIG    1        2.747  -1.267   2.266  0.00  0.00    -0.080 A 
ATOM      6  F   LIG    1        2.721  -1.869   4.557  0.00  0.00    -0.100 F 
ATOM      7  C   LIG    1        2.076  -0.813   1.146  0.00  0.00    +0.140 A 
ENDROOT
BRANCH   5   8
ATOM      8  N   LIG    1        4.188  -1.593   2.184  0.00  0.00    +0.030 N 
ATOM      9  O   LIG    1        4.777  -1.998   3.170  0.00  0.00    -0.140 OA
ATOM     10  O   LIG    1        4.784  -1.458   1.131  0.00  0.00    -0.150 OA
ENDBRANCH   5   8
BRANCH   1  12
ATOM     11  C   LIG    1       -0.019   1.526   0.010  0.00  0.00    +0.020 C 
ATOM     12  C   LIG    1        0.002  -0.004   0.002  0.00  0.00    +0.230 C 
BRANCH  12  13
ATOM     13  O   LIG    1       -1.339  -0.499   0.012  0.00  0.00    -0.560 OA
ATOM     14  H   LIG    1       -1.868  -0.216  -0.746  0.00  0.00    +0.390 HD
ENDBRANCH  12  13
ENDBRANCH   1  12
TORSDOF 3
