REMARK  Name = ZINC000012397795
REMARK                            x       y       z     vdW  Elec       q    Type
REMARK                         _______ _______ _______ _____ _____    ______ ____
ROOT
ATOM      1  N   LIG    1       -1.372  -0.511   0.012  0.00  0.00    -0.330 N 
ATOM      2  N   LIG    1       -2.137  -0.797   1.151  0.00  0.00    -0.210 NA
ATOM      3  C   LIG    1       -3.308  -1.228   0.759  0.00  0.00    +0.110 A 
ATOM      4  C   LIG    1       -3.328  -1.230  -0.639  0.00  0.00    +0.020 A 
ATOM      5  C   LIG    1       -2.128  -0.780  -1.073  0.00  0.00    +0.120 A 
ENDROOT
BRANCH   3   6
ATOM      6  C   LIG    1       -4.441  -1.649   1.659  0.00  0.00    +0.040 C 
ATOM      7  C   LIG    1       -5.571  -2.471   1.036  0.00  0.00    +0.050 C 
ATOM      8  C   LIG    1       -4.571  -3.139   1.982  0.00  0.00    +0.050 C 
ENDBRANCH   3   6
BRANCH   5   9
ATOM      9  N   LIG    1       -1.714  -0.620  -2.485  0.00  0.00    +0.050 N 
ATOM     10  O   LIG    1       -0.601  -0.202  -2.751  0.00  0.00    -0.150 OA
ATOM     11  O   LIG    1       -2.487  -0.906  -3.382  0.00  0.00    -0.120 OA
ENDBRANCH   5   9
BRANCH   1  13
ATOM     12  C   LIG    1       -0.019   1.526   0.010  0.00  0.00    +0.050 C 
ATOM     13  C   LIG    1        0.002  -0.004   0.002  0.00  0.00    +0.340 C 
ENDBRANCH   1  13
TORSDOF 3
