REMARK  Name = ZINC000001656041
REMARK                            x       y       z     vdW  Elec       q    Type
REMARK                         _______ _______ _______ _____ _____    ______ ____
ROOT
ATOM      1  C   LIG    1       -0.019   1.526   0.010  0.00  0.00    +0.020 C 
ATOM      2  C   LIG    1        0.002  -0.004   0.002  0.00  0.00    -0.010 C 
ATOM      3  C   LIG    1        0.718  -0.497  -1.257  0.00  0.00    +0.010 C 
ATOM      4  C   LIG    1        0.739  -2.027  -1.265  0.00  0.00    +0.030 C 
ATOM      5  C   LIG    1        1.479  -2.534  -0.026  0.00  0.00    -0.010 C 
ATOM      6  C   LIG    1        0.763  -2.041   1.233  0.00  0.00    +0.140 C 
ATOM      7  C   LIG    1        0.742  -0.511   1.242  0.00  0.00    +0.060 C 
ENDROOT
BRANCH   6   8
ATOM      8  O   LIG    1       -0.578  -2.535   1.243  0.00  0.00    -0.550 OA
ATOM      9  H   LIG    1       -0.641  -3.500   1.239  0.00  0.00    +0.390 HD
ENDBRANCH   6   8
BRANCH   6  10
ATOM     10  C   LIG    1        1.503  -2.548   2.473  0.00  0.00    +0.240 C 
BRANCH  10  11
ATOM     11  N   LIG    1        1.627  -4.006   2.405  0.00  0.00    -0.010 N 
ATOM     12  O   LIG    1        0.669  -4.684   2.082  0.00  0.00    -0.170 OA
ATOM     13  O   LIG    1        2.689  -4.539   2.671  0.00  0.00    -0.150 OA
ENDBRANCH  10  11
ENDBRANCH   6  10
TORSDOF 3
