REMARK  Name = ZINC000044185449
REMARK                            x       y       z     vdW  Elec       q    Type
REMARK                         _______ _______ _______ _____ _____    ______ ____
ROOT
ATOM      1  C   LIG    1       -1.199  -0.762   0.259  0.00  0.00    +0.310 A 
ATOM      2  C   LIG    1       -2.408  -0.090   0.372  0.00  0.00    -0.060 A 
ATOM      3  C   LIG    1       -3.595  -0.759   0.131  0.00  0.00    +0.200 A 
ATOM      4  C   LIG    1       -3.575  -2.097  -0.224  0.00  0.00    -0.050 A 
ATOM      5  C   LIG    1       -2.372  -2.768  -0.337  0.00  0.00    +0.180 A 
ATOM      6  F   LIG    1       -4.772  -0.106   0.240  0.00  0.00    -0.120 F 
ATOM      7  C   LIG    1       -1.184  -2.104  -0.103  0.00  0.00    -0.130 A 
ENDROOT
BRANCH   7   8
ATOM      8  N   LIG    1        0.104  -2.824  -0.224  0.00  0.00    +0.040 N 
ATOM      9  O   LIG    1        0.189  -3.984   0.136  0.00  0.00    -0.140 OA
ATOM     10  O   LIG    1        1.078  -2.256  -0.684  0.00  0.00    -0.190 OA
ENDBRANCH   7   8
BRANCH   1  11
ATOM     11  N   LIG    1        0.001  -0.090   0.502  0.00  0.00    -0.570 N 
ATOM     12  H   LIG    1        0.840  -0.578   0.501  0.00  0.00    +0.420 HD
BRANCH  11  13
ATOM     13  N   LIG    1       -0.006   1.255   0.742  0.00  0.00    -0.600 NA
ATOM     14  H   LIG    1       -0.453   1.754  -0.012  0.00  0.00    +0.350 HD
ATOM     15  H   LIG    1        0.930   1.599   0.899  0.00  0.00    +0.370 HD
ENDBRANCH  11  13
ENDBRANCH   1  11
TORSDOF 3
