REMARK  Name = ZINC000006399362
REMARK                            x       y       z     vdW  Elec       q    Type
REMARK                         _______ _______ _______ _____ _____    ______ ____
ROOT
ATOM      1  C   LIG    1       -0.018   1.503   0.010  0.00  0.00    +0.190 C 
ATOM      2  C   LIG    1        0.002  -0.004   0.002  0.00  0.00    +0.280 A 
ATOM      3  N   LIG    1        0.007  -0.737  -1.090  0.00  0.00    -0.510 NA
ATOM      4  C   LIG    1        0.027  -2.034  -0.735  0.00  0.00    -0.010 A 
ATOM      5  C   LIG    1        0.041  -3.247  -1.393  0.00  0.00    +0.400 A 
ATOM      6  N   LIG    1        0.060  -4.389  -0.690  0.00  0.00    -0.500 N 
ATOM      7  H   LIG    1        0.069  -5.232  -1.169  0.00  0.00    +0.450 HD
ATOM      8  C   LIG    1        0.066  -4.411   0.666  0.00  0.00    +0.350 A 
ATOM      9  C   LIG    1        0.053  -3.277   1.401  0.00  0.00    -0.020 A 
ATOM     10  C   LIG    1        0.034  -2.034   0.737  0.00  0.00    +0.110 A 
ATOM     11  N   LIG    1        0.023  -0.755   1.094  0.00  0.00    -0.490 NA
ENDROOT
BRANCH   9  12
ATOM     12  N   LIG    1        0.061  -3.339   2.880  0.00  0.00    +0.030 N 
ATOM     13  O   LIG    1        0.049  -2.311   3.532  0.00  0.00    -0.100 OA
ATOM     14  O   LIG    1        0.079  -4.418   3.444  0.00  0.00    -0.170 OA
ENDBRANCH   9  12
TORSDOF 1
