REMARK  Name = ZINC000035606923
REMARK                            x       y       z     vdW  Elec       q    Type
REMARK                         _______ _______ _______ _____ _____    ______ ____
ROOT
ATOM      1  C   UNK A  0       -0.019  -0.613  -2.401  0.00  0.00    +0.270 A 
ATOM      2  C   UNK A  0       -1.370  -0.296  -2.451  0.00  0.00    -0.060 A 
ATOM      3  C   UNK A  0       -2.065  -0.432  -3.637  0.00  0.00    +0.150 A 
ATOM      4  C   UNK A  0       -1.418  -0.883  -4.772  0.00  0.00    -0.110 A 
ATOM      5  C   UNK A  0       -0.073  -1.200  -4.725  0.00  0.00    +0.150 A 
ATOM      6  C   UNK A  0        0.630  -1.061  -3.544  0.00  0.00    -0.060 A 
ENDROOT
BRANCH   4   7
ATOM      7  N   UNK A  0       -2.166  -1.027  -6.041  0.00  0.00    +0.040 N 
ATOM      8  O   UNK A  0       -1.597  -1.425  -7.042  0.00  0.00    -0.180 OA
ATOM      9  O   UNK A  0       -3.351  -0.748  -6.084  0.00  0.00    -0.180 OA
ENDBRANCH   4   7
BRANCH   1  10
ATOM     10  N   ALA A  1        0.688  -0.476  -1.203  0.00  0.00    -0.720 N 
ATOM     11  H   ALA A  1        1.632  -0.695  -1.170  0.00  0.00    +0.410 HD
BRANCH  10  13
ATOM     12  CB  ALA A  1       -0.019   1.526   0.010  0.00  0.00    +0.030 C 
ATOM     13  CA  ALA A  1        0.002  -0.004   0.002  0.00  0.00    +0.240 C 
BRANCH  13  14
ATOM     14  C   ALA A  1        0.742  -0.511   1.242  0.00  0.00    +0.200 C 
BRANCH  14  15
ATOM     15  O   ALA A  1        2.044   0.076   1.292  0.00  0.00    -0.570 OA
ATOM     16  H   ALA A  1        2.571  -0.201   2.054  0.00  0.00    +0.390 HD
ENDBRANCH  14  15
ENDBRANCH  13  14
ENDBRANCH  10  13
ENDBRANCH   1  10
TORSDOF 5
