REMARK  Name = ZINC000050184676
REMARK                            x       y       z     vdW  Elec       q    Type
REMARK                         _______ _______ _______ _____ _____    ______ ____
ROOT
ATOM      1  N   LIG    1        1.278  -4.186  -2.180  0.00  0.00    -0.350 N 
ATOM      2  C   LIG    1        0.748  -5.084  -3.037  0.00  0.00    +0.360 A 
ATOM      3  C   LIG    1        0.833  -6.305  -2.458  0.00  0.00    -0.190 A 
ATOM      4  C   LIG    1        1.435  -6.147  -1.206  0.00  0.00    +0.320 A 
ATOM      5  N   LIG    1        1.708  -4.878  -1.041  0.00  0.00    -0.250 NA
ENDROOT
BRANCH   3   6
ATOM      6  N   LIG    1        0.370  -7.582  -3.048  0.00  0.00    +0.070 N 
ATOM      7  O   LIG    1        0.501  -8.621  -2.427  0.00  0.00    -0.160 OA
ATOM      8  O   LIG    1       -0.141  -7.592  -4.153  0.00  0.00    -0.170 OA
ENDBRANCH   3   6
BRANCH   1   9
ATOM      9  C   LIG    1        1.391  -2.743  -2.406  0.00  0.00    +0.350 C 
BRANCH   9  10
ATOM     10  C   LIG    1        0.739  -2.004  -1.265  0.00  0.00    +0.340 C 
ATOM     11  O   LIG    1        0.233  -2.620  -0.358  0.00  0.00    -0.420 OA
BRANCH  10  12
ATOM     12  C   LIG    1        0.718  -0.497  -1.257  0.00  0.00    +0.050 C 
BRANCH  12  14
ATOM     13  C   LIG    1       -0.019   1.526   0.010  0.00  0.00    +0.030 C 
ATOM     14  C   LIG    1        0.002  -0.004   0.002  0.00  0.00    +0.020 C 
ENDBRANCH  12  14
ENDBRANCH  10  12
ENDBRANCH   9  10
ENDBRANCH   1   9
TORSDOF 5
