REMARK  Name = ZINC000308656634
REMARK                            x       y       z     vdW  Elec       q    Type
REMARK                         _______ _______ _______ _____ _____    ______ ____
ROOT
ATOM      1  N   LIG    1        1.272  -4.165  -2.169  0.00  0.00    -0.330 N 
ATOM      2  C   LIG    1        0.786  -5.007  -3.104  0.00  0.00    +0.270 A 
ATOM      3  C   LIG    1        0.934  -6.269  -2.639  0.00  0.00    -0.180 A 
ATOM      4  C   LIG    1        1.532  -6.195  -1.377  0.00  0.00    +0.120 A 
ATOM      5  C   LIG    1        0.529  -7.532  -3.356  0.00  0.00    +0.150 C 
ATOM      6  N   LIG    1        1.740  -4.934  -1.096  0.00  0.00    -0.210 NA
ENDROOT
BRANCH   4   7
ATOM      7  N   LIG    1        1.876  -7.345  -0.510  0.00  0.00    +0.060 N 
ATOM      8  O   LIG    1        2.396  -7.156   0.575  0.00  0.00    -0.130 OA
ATOM      9  O   LIG    1        1.638  -8.480  -0.882  0.00  0.00    -0.130 OA
ENDBRANCH   4   7
BRANCH   1  10
ATOM     10  C   LIG    1        1.309  -2.703  -2.261  0.00  0.00    +0.350 C 
BRANCH  10  11
ATOM     11  C   LIG    1        0.613  -2.097  -1.041  0.00  0.00    +0.030 C 
BRANCH  11  12
ATOM     12  C   LIG    1        0.652  -0.570  -1.138  0.00  0.00    +0.180 C 
BRANCH  12  14
ATOM     13  C   LIG    1       -0.017   1.425   0.010  0.00  0.00    +0.200 C 
ATOM     14  O   LIG    1        0.002  -0.004   0.002  0.00  0.00    -0.390 OA
ENDBRANCH  12  14
ENDBRANCH  11  12
ENDBRANCH  10  11
ENDBRANCH   1  10
TORSDOF 5
