REMARK  Name = ZINC000071978636
REMARK                            x       y       z     vdW  Elec       q    Type
REMARK                         _______ _______ _______ _____ _____    ______ ____
ROOT
ATOM      1  N   LIG    1        0.855  -0.484  -3.356  0.00  0.00    -0.340 N 
ATOM      2  C   LIG    1        0.600  -0.931  -4.604  0.00  0.00    +0.360 A 
ATOM      3  C   LIG    1        1.761  -1.395  -5.121  0.00  0.00    -0.190 A 
ATOM      4  C   LIG    1        2.759  -1.226  -4.156  0.00  0.00    +0.320 A 
ATOM      5  N   LIG    1        2.219  -0.675  -3.100  0.00  0.00    -0.260 NA
ENDROOT
BRANCH   3   6
ATOM      6  N   LIG    1        1.942  -1.977  -6.470  0.00  0.00    +0.070 N 
ATOM      7  O   LIG    1        3.042  -2.362  -6.824  0.00  0.00    -0.160 OA
ATOM      8  O   LIG    1        0.991  -2.072  -7.225  0.00  0.00    -0.170 OA
ENDBRANCH   3   6
BRANCH   1   9
ATOM      9  C   LIG    1       -0.122   0.102  -2.434  0.00  0.00    +0.380 C 
BRANCH   9  12
ATOM     10  C   LIG    1        0.164   1.492   0.002  0.00  0.00    +0.080 C 
ATOM     11  C   LIG    1        0.091  -0.013  -0.005  0.00  0.00    -0.080 C 
ATOM     12  C   LIG    1       -0.099  -0.654  -1.131  0.00  0.00    -0.090 C 
ATOM     13  C   LIG    1        0.238  -0.780   1.284  0.00  0.00    +0.090 C 
ENDBRANCH   9  12
ENDBRANCH   1   9
TORSDOF 3
