REMARK  Name = ZINC000918377521
REMARK                            x       y       z     vdW  Elec       q    Type
REMARK                         _______ _______ _______ _____ _____    ______ ____
ROOT
ATOM      1  N   LIG    1       -1.980  -0.059  -1.366  0.00  0.00    -0.410 N 
ATOM      2  C   LIG    1       -2.185  -0.730  -2.542  0.00  0.00    +0.220 A 
ATOM      3  C   LIG    1       -2.891   0.092  -3.341  0.00  0.00    +0.190 A 
ATOM      4  N   LIG    1       -3.112   1.233  -2.671  0.00  0.00    -0.400 NA
ATOM      5  C   LIG    1       -2.574   1.148  -1.486  0.00  0.00    +0.230 A 
ENDROOT
BRANCH   5   6
ATOM      6  N   LIG    1       -2.601   2.203  -0.448  0.00  0.00    +0.070 N 
ATOM      7  O   LIG    1       -2.204   1.960   0.678  0.00  0.00    -0.150 OA
ATOM      8  O   LIG    1       -3.022   3.313  -0.719  0.00  0.00    -0.100 OA
ENDBRANCH   5   6
BRANCH   1   9
ATOM      9  C   LIG    1       -1.258  -0.560  -0.194  0.00  0.00    +0.330 C 
BRANCH   9  11
ATOM     10  C   LIG    1        0.414   1.349  -0.435  0.00  0.00    +0.050 C 
ATOM     11  C   LIG    1        0.215  -0.161  -0.294  0.00  0.00    -0.100 C 
ATOM     12  C   LIG    1        1.011  -0.985  -1.320  0.00  0.00    +0.020 C 
ATOM     13  C   LIG    1        2.166  -0.988  -0.305  0.00  0.00    +0.010 C 
ATOM     14  C   LIG    1        1.101  -0.800   0.789  0.00  0.00    +0.050 C 
ENDBRANCH   9  11
ENDBRANCH   1   9
TORSDOF 3
