REMARK  Name = ZINC000035121753
REMARK                            x       y       z     vdW  Elec       q    Type
REMARK                         _______ _______ _______ _____ _____    ______ ____
ROOT
ATOM      1  C   LIG    1       -0.105  -0.600   2.330  0.00  0.00    +0.260 A 
ATOM      2  C   LIG    1        0.313  -0.857   3.592  0.00  0.00    +0.060 A 
ATOM      3  N   LIG    1       -0.710  -0.616   4.428  0.00  0.00    -0.440 NA
ATOM      4  C   LIG    1       -1.746  -0.221   3.742  0.00  0.00    +0.460 A 
ATOM      5  N   LIG    1       -1.410  -0.192   2.422  0.00  0.00    -0.480 N 
ATOM      6  C   LIG    1       -2.282   0.196   1.310  0.00  0.00    +0.350 C 
ENDROOT
BRANCH   2   7
ATOM      7  N   LIG    1        1.664  -1.322   3.982  0.00  0.00    +0.070 N 
ATOM      8  O   LIG    1        1.924  -1.520   5.156  0.00  0.00    -0.160 OA
ATOM      9  O   LIG    1        2.514  -1.506   3.130  0.00  0.00    -0.120 OA
ENDBRANCH   2   7
BRANCH   1  10
ATOM     10  N   LIG    1        0.648  -0.722   1.162  0.00  0.00    -0.590 N 
ATOM     11  H   LIG    1        0.181  -1.313   0.490  0.00  0.00    +0.360 HD
BRANCH  10  13
ATOM     12  C   LIG    1        2.212   1.161   1.232  0.00  0.00    +0.050 C 
ATOM     13  C   LIG    1        0.945   0.596   0.586  0.00  0.00    +0.130 C 
ATOM     14  C   LIG    1        1.160   0.458  -0.922  0.00  0.00    +0.050 C 
ENDBRANCH  10  13
ENDBRANCH   1  10
TORSDOF 3
