REMARK  Name = ZINC000899881813
REMARK                            x       y       z     vdW  Elec       q    Type
REMARK                         _______ _______ _______ _____ _____    ______ ____
ROOT
ATOM      1  C   LIG    1       -0.018   1.503   0.010  0.00  0.00    +0.130 C 
ATOM      2  C   LIG    1        0.002  -0.004   0.002  0.00  0.00    -0.190 A 
ATOM      3  C   LIG    1        0.006  -0.706  -1.194  0.00  0.00    +0.340 A 
ATOM      4  N   LIG    1        0.024  -2.028  -1.166  0.00  0.00    -0.490 NA
ATOM      5  C   LIG    1        0.038  -2.681  -0.013  0.00  0.00    +0.280 A 
ATOM      6  N   LIG    1        0.035  -2.040   1.148  0.00  0.00    -0.520 NA
ATOM      7  C   LIG    1        0.023  -0.718   1.190  0.00  0.00    +0.340 A 
ENDROOT
BRANCH   5   8
ATOM      8  S   LIG    1        0.062  -4.443  -0.022  0.00  0.00    +0.050 S 
BRANCH   8   9
ATOM      9  C   LIG    1        0.075  -4.767   1.758  0.00  0.00    +0.100 C 
BRANCH   9  10
ATOM     10  C   LIG    1        0.096  -6.277   2.002  0.00  0.00    +0.290 C 
BRANCH  10  11
ATOM     11  N   LIG    1        0.107  -6.540   3.443  0.00  0.00    -0.020 N 
ATOM     12  O   LIG    1        0.847  -5.905   4.172  0.00  0.00    -0.150 OA
ATOM     13  O   LIG    1       -0.626  -7.392   3.912  0.00  0.00    -0.150 OA
ENDBRANCH  10  11
ENDBRANCH   9  10
ENDBRANCH   8   9
ENDBRANCH   5   8
TORSDOF 4
