REMARK  Name = ZINC000591338274
REMARK                            x       y       z     vdW  Elec       q    Type
REMARK                         _______ _______ _______ _____ _____    ______ ____
ROOT
ATOM      1  N   LIG    1        1.462  -2.151   2.859  0.00  0.00    -0.340 N 
ATOM      2  C   LIG    1        0.895  -2.789   3.904  0.00  0.00    +0.360 A 
ATOM      3  C   LIG    1        1.757  -2.719   4.946  0.00  0.00    -0.190 A 
ATOM      4  C   LIG    1        2.888  -2.014   4.522  0.00  0.00    +0.320 A 
ATOM      5  N   LIG    1        2.715  -1.678   3.269  0.00  0.00    -0.240 NA
ENDROOT
BRANCH   3   6
ATOM      6  N   LIG    1        1.541  -3.289   6.295  0.00  0.00    +0.070 N 
ATOM      7  O   LIG    1        2.394  -3.160   7.154  0.00  0.00    -0.160 OA
ATOM      8  O   LIG    1        0.509  -3.886   6.545  0.00  0.00    -0.170 OA
ENDBRANCH   3   6
BRANCH   1   9
ATOM      9  C   LIG    1        0.872  -1.987   1.528  0.00  0.00    +0.350 C 
BRANCH   9  10
ATOM     10  C   LIG    1        0.844  -0.501   1.162  0.00  0.00    +0.150 C 
BRANCH  10  12
ATOM     11  C   LIG    1       -0.029   1.175  -0.473  0.00  0.00    +0.020 C 
ATOM     12  C   LIG    1        0.116  -0.318  -0.172  0.00  0.00    +0.020 C 
ENDBRANCH  10  12
BRANCH  10  13
ATOM     13  O   LIG    1        2.182  -0.014   1.045  0.00  0.00    -0.360 OA
ATOM     14  C   LIG    1        2.429   1.188   1.779  0.00  0.00    +0.210 C 
ENDBRANCH  10  13
ENDBRANCH   9  10
ENDBRANCH   1   9
TORSDOF 5
