REMARK  Name = ZINC000930894431
REMARK                            x       y       z     vdW  Elec       q    Type
REMARK                         _______ _______ _______ _____ _____    ______ ____
ROOT
ATOM      1  N   LIG    1       -2.517   3.780   1.055  0.00  0.00    -0.470 NA
ATOM      2  C   LIG    1       -2.603   4.727  -0.075  0.00  0.00    +0.160 C 
ATOM      3  C   LIG    1       -3.272   5.700   0.897  0.00  0.00    +0.000 C 
ATOM      4  C   LIG    1       -2.971   7.158   0.681  0.00  0.00    +0.030 C 
ATOM      5  C   LIG    1       -1.527   7.545   0.935  0.00  0.00    +0.010 C 
ATOM      6  C   LIG    1       -1.024   6.952   2.248  0.00  0.00    +0.020 C 
ATOM      7  C   LIG    1       -1.035   5.426   2.136  0.00  0.00    +0.010 C 
ATOM      8  C   LIG    1       -2.459   4.959   1.950  0.00  0.00    +0.140 C 
ENDROOT
BRANCH   1   9
ATOM      9  C   LIG    1       -1.235   3.063   1.045  0.00  0.00    +0.180 C 
BRANCH   9  10
ATOM     10  C   LIG    1       -1.315   1.890   0.065  0.00  0.00    +0.270 C 
BRANCH  10  12
ATOM     11  O   LIG    1       -0.019  -0.043   0.096  0.00  0.00    -0.160 OA
ATOM     12  N   LIG    1       -0.036   1.174   0.056  0.00  0.00    -0.020 N 
ATOM     13  O   LIG    1        1.010   1.797   0.001  0.00  0.00    -0.160 OA
ENDBRANCH  10  12
ENDBRANCH   9  10
ENDBRANCH   1   9
TORSDOF 3
