REMARK  Name = ZINC000228886807
REMARK                            x       y       z     vdW  Elec       q    Type
REMARK                         _______ _______ _______ _____ _____    ______ ____
ROOT
ATOM      1  C   LIG    1       -1.928  -0.190  -1.543  0.00  0.00    +0.220 A 
ATOM      2  C   LIG    1       -1.452   0.903  -2.262  0.00  0.00    +0.010 A 
ATOM      3  C   LIG    1       -2.203   1.367  -3.329  0.00  0.00    +0.120 A 
ATOM      4  C   LIG    1       -3.392   0.734  -3.643  0.00  0.00    +0.100 A 
ATOM      5  N   LIG    1       -3.815  -0.300  -2.943  0.00  0.00    -0.390 NA
ATOM      6  C   LIG    1       -3.129  -0.776  -1.923  0.00  0.00    +0.230 A 
ENDROOT
BRANCH   4   7
ATOM      7  N   LIG    1       -4.200   1.223  -4.783  0.00  0.00    +0.040 N 
ATOM      8  O   LIG    1       -5.248   0.672  -5.067  0.00  0.00    -0.130 OA
ATOM      9  O   LIG    1       -3.817   2.177  -5.436  0.00  0.00    -0.170 OA
ENDBRANCH   4   7
BRANCH   1  10
ATOM     10  N   LIG    1       -1.205  -0.695  -0.459  0.00  0.00    -0.690 N 
ATOM     11  H   LIG    1       -1.489  -1.515  -0.026  0.00  0.00    +0.410 HD
BRANCH  10  13
ATOM     12  C   LIG    1       -0.278   1.398   0.628  0.00  0.00    +0.090 C 
ATOM     13  C   LIG    1       -0.019   0.016   0.025  0.00  0.00    +0.080 C 
ATOM     14  C   LIG    1        1.288  -0.186  -0.744  0.00  0.00    +0.030 C 
ATOM     15  C   LIG    1        1.106  -0.822   0.636  0.00  0.00    +0.050 C 
ENDBRANCH  10  13
ENDBRANCH   1  10
TORSDOF 3
