REMARK  Name = ZINC000306289815
REMARK                            x       y       z     vdW  Elec       q    Type
REMARK                         _______ _______ _______ _____ _____    ______ ____
ROOT
ATOM      1  C   LIG    1       -1.199  -0.637   0.010  0.00  0.00    +0.220 A 
ATOM      2  C   LIG    1       -1.823  -0.971   1.211  0.00  0.00    -0.130 A 
ATOM      3  C   LIG    1       -3.044  -1.614   1.176  0.00  0.00    +0.370 A 
ATOM      4  N   LIG    1       -3.619  -1.911   0.026  0.00  0.00    -0.460 NA
ATOM      5  C   LIG    1       -3.059  -1.611  -1.131  0.00  0.00    +0.390 A 
ATOM      6 CL   LIG    1       -1.074  -0.584   2.728  0.00  0.00    +0.000 Cl
ATOM      7  C   LIG    1       -1.842  -0.963  -1.181  0.00  0.00    -0.120 A 
ENDROOT
BRANCH   7   8
ATOM      8  N   LIG    1       -1.223  -0.630  -2.483  0.00  0.00    +0.030 N 
ATOM      9  O   LIG    1       -0.148  -0.058  -2.518  0.00  0.00    -0.130 OA
ATOM     10  O   LIG    1       -1.788  -0.928  -3.521  0.00  0.00    -0.150 OA
ENDBRANCH   7   8
BRANCH   1  12
ATOM     11  C   LIG    1       -0.017   1.425   0.010  0.00  0.00    +0.280 C 
ATOM     12  O   LIG    1        0.002  -0.004   0.002  0.00  0.00    -0.310 OA
ENDBRANCH   1  12
TORSDOF 2
