REMARK  Name = ZINC000036466230
REMARK                            x       y       z     vdW  Elec       q    Type
REMARK                         _______ _______ _______ _____ _____    ______ ____
ROOT
ATOM      1  C   LIG    1        1.294  -0.770  -0.278  0.00  0.00    +0.230 A 
ATOM      2  N   LIG    1        2.429  -0.088  -0.381  0.00  0.00    -0.470 NA
ATOM      3  C   LIG    1        3.597  -0.653  -0.152  0.00  0.00    +0.330 A 
ATOM      4  C   LIG    1        3.683  -1.986   0.206  0.00  0.00    -0.020 A 
ATOM      5  C   LIG    1        2.521  -2.736   0.325  0.00  0.00    +0.150 A 
ATOM      6  C   LIG    1        1.308  -2.117   0.084  0.00  0.00    -0.090 A 
ENDROOT
BRANCH   6   7
ATOM      7  N   LIG    1        0.042  -2.876   0.198  0.00  0.00    +0.030 N 
ATOM      8  O   LIG    1       -0.009  -4.035  -0.173  0.00  0.00    -0.150 OA
ATOM      9  O   LIG    1       -0.949  -2.342   0.663  0.00  0.00    -0.140 OA
ENDBRANCH   6   7
BRANCH   1  11
ATOM     10  C   LIG    1       -0.021   1.210  -0.779  0.00  0.00    +0.150 C 
ATOM     11  C   LIG    1        0.007  -0.095  -0.544  0.00  0.00    -0.020 C 
ENDBRANCH   1  11
TORSDOF 2
