REMARK  Name = ZINC000899892945
REMARK                            x       y       z     vdW  Elec       q    Type
REMARK                         _______ _______ _______ _____ _____    ______ ____
ROOT
ATOM      1  C   LIG    1       -0.018   1.503   0.010  0.00  0.00    +0.130 C 
ATOM      2  C   LIG    1        0.002  -0.004   0.002  0.00  0.00    -0.210 A 
ATOM      3  C   LIG    1        0.008  -0.794  -1.096  0.00  0.00    +0.260 A 
ATOM      4  N   LIG    1        0.028  -2.078  -0.680  0.00  0.00    -0.370 N 
ATOM      5  N   LIG    1        0.034  -2.077   0.721  0.00  0.00    -0.280 NA
ATOM      6  C   LIG    1        0.025  -0.834   1.129  0.00  0.00    +0.130 A 
ATOM      7 CL   LIG    1        0.027  -0.305   2.783  0.00  0.00    +0.020 Cl
ENDROOT
BRANCH   4   8
ATOM      8  C   LIG    1        0.041  -3.263  -1.541  0.00  0.00    +0.380 C 
BRANCH   8   9
ATOM      9  C   LIG    1        1.236  -4.145  -1.177  0.00  0.00    +0.260 C 
BRANCH   9  10
ATOM     10  N   LIG    1        1.249  -5.330  -2.038  0.00  0.00    -0.020 N 
ATOM     11  O   LIG    1        0.218  -5.945  -2.244  0.00  0.00    -0.150 OA
ATOM     12  O   LIG    1        2.291  -5.700  -2.549  0.00  0.00    -0.150 OA
ENDBRANCH   9  10
ENDBRANCH   8   9
ENDBRANCH   4   8
TORSDOF 3
