REMARK  Name = ZINC000095929572
REMARK                            x       y       z     vdW  Elec       q    Type
REMARK                         _______ _______ _______ _____ _____    ______ ____
ROOT
ATOM      1  C   LIG    1       -1.306   1.936   0.019  0.00  0.00    -0.030 A 
ATOM      2  C   LIG    1       -1.324   3.318   0.021  0.00  0.00    +0.110 A 
ATOM      3  C   LIG    1       -2.532   3.995   0.029  0.00  0.00    +0.080 A 
ATOM      4  C   LIG    1       -3.722   3.284   0.037  0.00  0.00    +0.130 A 
ATOM      5  C   LIG    1       -3.701   1.901   0.035  0.00  0.00    -0.100 A 
ATOM      6  F   LIG    1       -4.902   3.943   0.045  0.00  0.00    -0.100 F 
ATOM      7  F   LIG    1       -2.550   5.346   0.031  0.00  0.00    -0.110 F 
ATOM      8  C   LIG    1       -2.494   1.228   0.021  0.00  0.00    +0.170 A 
ENDROOT
BRANCH   1  10
ATOM      9  O   LIG    1        0.002  -0.004   0.002  0.00  0.00    -0.140 OA
ATOM     10  N   LIG    1       -0.014   1.214   0.009  0.00  0.00    +0.030 N 
ATOM     11  O   LIG    1        1.032   1.837   0.002  0.00  0.00    -0.150 OA
ENDBRANCH   1  10
BRANCH   5  12
ATOM     12  C   LIG    1       -4.994   1.127   0.043  0.00  0.00    +0.280 C 
BRANCH  12  13
ATOM     13  O   LIG    1       -4.712  -0.274   0.039  0.00  0.00    -0.570 OA
ATOM     14  H   LIG    1       -5.500  -0.834   0.043  0.00  0.00    +0.400 HD
ENDBRANCH  12  13
ENDBRANCH   5  12
TORSDOF 3
