REMARK  Name = ZINC000039254923
REMARK                            x       y       z     vdW  Elec       q    Type
REMARK                         _______ _______ _______ _____ _____    ______ ____
ROOT
ATOM      1  C   LIG    1       -1.156  -2.103   0.002  0.00  0.00    -0.020 A 
ATOM      2  C   LIG    1        0.100  -2.681  -0.008  0.00  0.00    +0.060 A 
ATOM      3  C   LIG    1        0.228  -4.058  -0.016  0.00  0.00    +0.090 A 
ATOM      4  C   LIG    1       -0.900  -4.856  -0.015  0.00  0.00    +0.030 A 
ATOM      5  C   LIG    1       -2.156  -4.279  -0.005  0.00  0.00    +0.110 A 
ATOM      6  C   LIG    1       -2.284  -2.903   0.008  0.00  0.00    -0.050 A 
ENDROOT
BRANCH   6   7
ATOM      7  N   LIG    1       -3.629  -2.284   0.019  0.00  0.00    +0.030 N 
ATOM      8  O   LIG    1       -3.742  -1.071   0.031  0.00  0.00    -0.170 OA
ATOM      9  O   LIG    1       -4.623  -2.988   0.017  0.00  0.00    -0.160 OA
ENDBRANCH   6   7
BRANCH   1  10
ATOM     10  C   LIG    1       -1.295  -0.603   0.011  0.00  0.00    +0.270 C 
BRANCH  10  12
ATOM     11  C   LIG    1       -0.017   1.425   0.010  0.00  0.00    +0.220 C 
ATOM     12  O   LIG    1        0.002  -0.004   0.002  0.00  0.00    -0.390 OA
ENDBRANCH  10  12
ENDBRANCH   1  10
TORSDOF 3
