REMARK  Name = ZINC000071973240
REMARK                            x       y       z     vdW  Elec       q    Type
REMARK                         _______ _______ _______ _____ _____    ______ ____
ROOT
ATOM      1  C   LIG    1       -1.306   1.936   0.019  0.00  0.00    -0.020 A 
ATOM      2  C   LIG    1       -1.314   3.330   0.021  0.00  0.00    +0.100 A 
ATOM      3  C   LIG    1       -2.483   4.027   0.030  0.00  0.00    +0.110 A 
ATOM      4  C   LIG    1       -3.705   3.335   0.038  0.00  0.00    +0.080 A 
ATOM      5  N   LIG    1       -4.878   3.974   0.047  0.00  0.00    -0.200 NA
ATOM      6  N   LIG    1       -5.990   3.331   0.053  0.00  0.00    -0.200 NA
ATOM      7  C   LIG    1       -6.064   2.006   0.052  0.00  0.00    +0.210 A 
ATOM      8  C   LIG    1       -4.931   1.243   0.043  0.00  0.00    +0.110 A 
ATOM      9  C   LIG    1       -3.694   1.915   0.035  0.00  0.00    -0.080 A 
ATOM     10  C   LIG    1       -2.471   1.230   0.021  0.00  0.00    +0.160 A 
ENDROOT
BRANCH   1  12
ATOM     11  O   LIG    1        0.002  -0.004   0.002  0.00  0.00    -0.150 OA
ATOM     12  N   LIG    1       -0.014   1.214   0.009  0.00  0.00    +0.020 N 
ATOM     13  O   LIG    1        1.032   1.837   0.002  0.00  0.00    -0.140 OA
ENDBRANCH   1  12
TORSDOF 1
