REMARK  Name = ZINC000168565136
REMARK                            x       y       z     vdW  Elec       q    Type
REMARK                         _______ _______ _______ _____ _____    ______ ____
ROOT
ATOM      1  C   LIG    1        0.707  -0.490  -1.238  0.00  0.00    -0.080 A 
ATOM      2  C   LIG    1       -0.011  -0.719  -2.397  0.00  0.00    +0.000 A 
ATOM      3  C   LIG    1        0.636  -1.164  -3.534  0.00  0.00    +0.010 A 
ATOM      4  C   LIG    1        2.002  -1.381  -3.513  0.00  0.00    -0.090 A 
ATOM      5  C   LIG    1        2.720  -1.151  -2.354  0.00  0.00    +0.010 A 
ATOM      6  C   LIG    1        2.073  -0.702  -1.218  0.00  0.00    +0.000 A 
ENDROOT
BRANCH   1   8
ATOM      7  C   LIG    1       -0.019   1.526   0.010  0.00  0.00    +0.030 C 
ATOM      8  C   LIG    1        0.002  -0.004   0.002  0.00  0.00    +0.050 C 
ENDBRANCH   1   8
BRANCH   4   9
ATOM      9  C   LIG    1        2.707  -1.868  -4.752  0.00  0.00    +0.090 C 
BRANCH   9  10
ATOM     10  C   LIG    1        3.169  -0.667  -5.580  0.00  0.00    +0.080 C 
BRANCH  10  11
ATOM     11  C   LIG    1        3.874  -1.154  -6.820  0.00  0.00    +0.520 C 
ATOM     12  N   LIG    1        4.370  -0.266  -7.705  0.00  0.00    -0.600 N 
ATOM     13  H   LIG    1        4.274   0.685  -7.544  0.00  0.00    +0.410 HD
ATOM     14  O   LIG    1        3.995  -2.343  -7.022  0.00  0.00    -0.520 OA
BRANCH  12  15
ATOM     15  O   LIG    1        5.033  -0.724  -8.870  0.00  0.00    -0.320 OA
ATOM     16  H   LIG    1        5.354  -0.014  -9.444  0.00  0.00    +0.390 HD
ENDBRANCH  12  15
ENDBRANCH  10  11
ENDBRANCH   9  10
ENDBRANCH   4   9
TORSDOF 5
