REMARK  Name = ZINC000095929814
REMARK                            x       y       z     vdW  Elec       q    Type
REMARK                         _______ _______ _______ _____ _____    ______ ____
ROOT
ATOM      1  C   LIG    1       -1.306   1.936   0.019  0.00  0.00    +0.210 A 
ATOM      2  C   LIG    1       -1.315   3.316   0.021  0.00  0.00    +0.050 A 
ATOM      3  C   LIG    1       -2.537   3.986   0.030  0.00  0.00    +0.200 A 
ATOM      4  C   LIG    1       -3.705   3.227   0.036  0.00  0.00    +0.020 A 
ATOM      5  C   LIG    1       -3.611   1.850   0.034  0.00  0.00    +0.360 A 
ATOM      6  N   LIG    1       -2.435   1.253   0.020  0.00  0.00    -0.440 NA
ENDROOT
BRANCH   3   7
ATOM      7  N   LIG    1       -2.589   5.384   0.031  0.00  0.00    -0.420 N 
ATOM      8  C   LIG    1       -3.721   6.158   0.045  0.00  0.00    +0.140 A 
ATOM      9  C   LIG    1       -3.316   7.442   0.042  0.00  0.00    +0.170 A 
ATOM     10  N   LIG    1       -1.975   7.458   0.027  0.00  0.00    -0.470 NA
ATOM     11  C   LIG    1       -1.527   6.232   0.025  0.00  0.00    +0.420 A 
ENDBRANCH   3   7
BRANCH   1  13
ATOM     12  O   LIG    1        0.002  -0.004   0.002  0.00  0.00    -0.100 OA
ATOM     13  N   LIG    1       -0.014   1.214   0.009  0.00  0.00    +0.020 N 
ATOM     14  O   LIG    1        1.032   1.837   0.002  0.00  0.00    -0.140 OA
ENDBRANCH   1  13
TORSDOF 2
