REMARK  Name = ZINC000306266483
REMARK                            x       y       z     vdW  Elec       q    Type
REMARK                         _______ _______ _______ _____ _____    ______ ____
ROOT
ATOM      1  N   LIG    1        0.855  -0.484  -3.356  0.00  0.00    -0.380 N 
ATOM      2  N   LIG    1        2.200  -0.115  -3.476  0.00  0.00    -0.270 NA
ATOM      3  C   LIG    1        2.752  -0.859  -4.400  0.00  0.00    +0.350 A 
ATOM      4  C   LIG    1        1.780  -1.729  -4.901  0.00  0.00    -0.260 A 
ATOM      5  C   LIG    1        0.617  -1.482  -4.237  0.00  0.00    +0.460 A 
ENDROOT
BRANCH   4   6
ATOM      6  N   LIG    1        1.980  -2.743  -5.962  0.00  0.00    +0.090 N 
ATOM      7  O   LIG    1        1.051  -3.446  -6.315  0.00  0.00    -0.210 OA
ATOM      8  O   LIG    1        3.075  -2.873  -6.481  0.00  0.00    -0.170 OA
ENDBRANCH   4   6
BRANCH   5   9
ATOM      9  N   LIG    1       -0.598  -2.133  -4.436  0.00  0.00    -0.820 N 
ATOM     10  H   LIG    1       -1.373  -1.883  -3.909  0.00  0.00    +0.410 HD
ATOM     11  H   LIG    1       -0.668  -2.836  -5.101  0.00  0.00    +0.430 HD
ENDBRANCH   5   9
BRANCH   1  12
ATOM     12  C   LIG    1       -0.122   0.102  -2.434  0.00  0.00    +0.380 C 
BRANCH  12  15
ATOM     13  C   LIG    1        0.165   1.492   0.002  0.00  0.00    +0.080 C 
ATOM     14  C   LIG    1        0.092  -0.013  -0.005  0.00  0.00    -0.070 C 
ATOM     15  C   LIG    1       -0.099  -0.654  -1.131  0.00  0.00    -0.100 C 
ATOM     16  C   LIG    1        0.238  -0.780   1.284  0.00  0.00    +0.080 C 
ENDBRANCH  12  15
ENDBRANCH   1  12
TORSDOF 4
