REMARK  Name = ZINC000306997814
REMARK                            x       y       z     vdW  Elec       q    Type
REMARK                         _______ _______ _______ _____ _____    ______ ____
ROOT
ATOM      1  N   LIG    1       -1.905  -1.894   0.010  0.00  0.00    -0.330 N 
ATOM      2  N   LIG    1       -1.992  -2.708  -1.126  0.00  0.00    -0.210 NA
ATOM      3  C   LIG    1       -2.113  -3.950  -0.731  0.00  0.00    +0.280 A 
ATOM      4  C   LIG    1       -2.108  -3.966   0.667  0.00  0.00    +0.030 A 
ATOM      5  C   LIG    1       -1.973  -2.690   1.098  0.00  0.00    +0.120 A 
ENDROOT
BRANCH   5   6
ATOM      6  N   LIG    1       -1.920  -2.246   2.509  0.00  0.00    +0.050 N 
ATOM      7  O   LIG    1       -1.795  -1.063   2.771  0.00  0.00    -0.150 OA
ATOM      8  O   LIG    1       -2.000  -3.063   3.408  0.00  0.00    -0.120 OA
ENDBRANCH   5   6
BRANCH   1   9
ATOM      9  C   LIG    1       -1.760  -0.436   0.017  0.00  0.00    +0.400 C 
BRANCH   9  11
ATOM     10  C   LIG    1       -0.022   1.810   0.012  0.00  0.00    +0.170 C 
ATOM     11  S   LIG    1        0.002  -0.004   0.002  0.00  0.00    -0.250 S 
ENDBRANCH   9  11
ENDBRANCH   1   9
TORSDOF 3
