REMARK  Name = ZINC000089200826
REMARK                            x       y       z     vdW  Elec       q    Type
REMARK                         _______ _______ _______ _____ _____    ______ ____
ROOT
ATOM      1  C   LIG    1        0.002  -0.004   0.002  0.00  0.00    +0.370 A 
ATOM      2  C   LIG    1       -1.253  -0.771   0.004  0.00  0.00    -0.090 A 
ATOM      3  C   LIG    1       -1.235  -2.123  -0.004  0.00  0.00    +0.210 A 
ATOM      4  C   LIG    1       -0.023  -2.845  -0.014  0.00  0.00    -0.080 A 
ATOM      5  C   LIG    1        1.195  -2.180  -0.017  0.00  0.00    -0.070 A 
ATOM      6  C   LIG    1        2.549  -2.558  -0.026  0.00  0.00    +0.200 A 
ATOM      7  N   LIG    1        3.267  -1.401  -0.023  0.00  0.00    -0.320 N 
ATOM      8  H   LIG    1        4.236  -1.362  -0.027  0.00  0.00    +0.460 HD
ATOM      9  N   LIG    1        2.504  -0.368  -0.013  0.00  0.00    -0.260 NA
ATOM     10  C   LIG    1        1.230  -0.709  -0.013  0.00  0.00    -0.020 A 
ENDROOT
BRANCH   1  11
ATOM     11  N   LIG    1       -0.016   1.346   0.009  0.00  0.00    -0.790 N 
ATOM     12  H   LIG    1       -0.863   1.820   0.016  0.00  0.00    +0.420 HD
ATOM     13  H   LIG    1        0.817   1.843   0.004  0.00  0.00    +0.420 HD
ENDBRANCH   1  11
BRANCH   4  14
ATOM     14  N   LIG    1       -0.051  -4.326  -0.023  0.00  0.00    +0.020 N 
ATOM     15  O   LIG    1        1.077  -5.006  -0.032  0.00  0.00    -0.240 OA
ATOM     16  O   LIG    1       -1.204  -4.963  -0.021  0.00  0.00    -0.240 OA
ENDBRANCH   4  14
TORSDOF 2
