REMARK  Name = ZINC000687727599
REMARK                            x       y       z     vdW  Elec       q    Type
REMARK                         _______ _______ _______ _____ _____    ______ ____
ROOT
ATOM      1  C   LIG    1       -1.201  -0.638   0.010  0.00  0.00    +0.060 A 
ATOM      2  C   LIG    1       -2.374   0.099   0.019  0.00  0.00    -0.030 A 
ATOM      3  C   LIG    1       -3.597  -0.547   0.027  0.00  0.00    -0.010 A 
ATOM      4  C   LIG    1       -3.653  -1.928   0.026  0.00  0.00    +0.020 A 
ATOM      5  C   LIG    1       -2.487  -2.671   0.017  0.00  0.00    -0.030 A 
ATOM      6  C   LIG    1       -1.257  -2.030   0.003  0.00  0.00    +0.190 A 
ENDROOT
BRANCH   1   8
ATOM      7  C   LIG    1       -0.017   1.425   0.010  0.00  0.00    +0.250 C 
ATOM      8  O   LIG    1        0.002  -0.004   0.002  0.00  0.00    -0.330 OA
ENDBRANCH   1   8
BRANCH   6   9
ATOM      9  N   LIG    1       -0.075  -2.780  -0.007  0.00  0.00    -0.750 N 
ATOM     10  H   LIG    1        0.784  -2.331  -0.016  0.00  0.00    +0.410 HD
BRANCH   9  11
ATOM     11  C   LIG    1       -0.137  -4.244  -0.003  0.00  0.00    +0.290 C 
BRANCH  11  12
ATOM     12  C   LIG    1        1.284  -4.814  -0.015  0.00  0.00    +0.250 C 
BRANCH  12  13
ATOM     13  N   LIG    1        1.222  -6.277  -0.011  0.00  0.00    -0.020 N 
ATOM     14  O   LIG    1        0.459  -6.853   0.743  0.00  0.00    -0.150 OA
ATOM     15  O   LIG    1        1.935  -6.919  -0.763  0.00  0.00    -0.150 OA
ENDBRANCH  12  13
ENDBRANCH  11  12
ENDBRANCH   9  11
ENDBRANCH   6   9
TORSDOF 5
