REMARK  Name = ZINC000037666447
REMARK                            x       y       z     vdW  Elec       q    Type
REMARK                         _______ _______ _______ _____ _____    ______ ____
ROOT
ATOM      1  C   LIG    1        0.626  -0.700   1.040  0.00  0.00    +0.250 A 
ATOM      2  C   LIG    1        1.223  -0.004   2.083  0.00  0.00    -0.040 A 
ATOM      3  C   LIG    1        1.840  -0.697   3.110  0.00  0.00    +0.160 A 
ATOM      4  C   LIG    1        1.862  -2.082   3.096  0.00  0.00    +0.000 A 
ATOM      5  C   LIG    1        1.268  -2.775   2.058  0.00  0.00    +0.040 A 
ATOM      6  F   LIG    1        2.421  -0.022   4.125  0.00  0.00    -0.120 F 
ATOM      7  C   LIG    1        0.646  -2.089   1.034  0.00  0.00    +0.010 A 
ENDROOT
BRANCH   1   9
ATOM      8  C   LIG    1       -0.018   1.461   0.010  0.00  0.00    +0.280 C 
ATOM      9  N   LIG    1        0.002  -0.004   0.002  0.00  0.00    -0.740 N 
ATOM     10  H   LIG    1       -0.418  -0.491  -0.724  0.00  0.00    +0.410 HD
ENDBRANCH   1   9
BRANCH   5  11
ATOM     11  N   LIG    1        1.294  -4.255   2.048  0.00  0.00    +0.020 N 
ATOM     12  O   LIG    1        0.771  -4.867   1.133  0.00  0.00    -0.150 OA
ATOM     13  O   LIG    1        1.837  -4.861   2.954  0.00  0.00    -0.150 OA
ENDBRANCH   5  11
TORSDOF 2
