REMARK  Name = ZINC000849169946
REMARK                            x       y       z     vdW  Elec       q    Type
REMARK                         _______ _______ _______ _____ _____    ______ ____
ROOT
ATOM      1  C   LIG    1        0.606  -0.608  -1.056  0.00  0.00    +0.100 A 
ATOM      2  C   LIG    1        1.173   0.161  -2.062  0.00  0.00    -0.030 A 
ATOM      3  C   LIG    1        1.786  -0.452  -3.137  0.00  0.00    +0.040 A 
ATOM      4  C   LIG    1        1.836  -1.836  -3.211  0.00  0.00    +0.090 A 
ATOM      5  C   LIG    1        1.271  -2.604  -2.204  0.00  0.00    -0.040 A 
ATOM      6  C   LIG    1        0.661  -1.992  -1.127  0.00  0.00    +0.030 A 
ENDROOT
BRANCH   1   8
ATOM      7  C   LIG    1       -0.017   1.425   0.010  0.00  0.00    +0.250 C 
ATOM      8  O   LIG    1        0.002  -0.004   0.002  0.00  0.00    -0.320 OA
ENDBRANCH   1   8
BRANCH   4   9
ATOM      9  O   LIG    1        2.440  -2.439  -4.269  0.00  0.00    -0.300 OA
BRANCH   9  10
ATOM     10  C   LIG    1        2.455  -3.868  -4.280  0.00  0.00    +0.230 C 
BRANCH  10  11
ATOM     11  C   LIG    1        3.171  -4.362  -5.538  0.00  0.00    +0.290 C 
BRANCH  11  12
ATOM     12  N   LIG    1        4.579  -3.960  -5.488  0.00  0.00    -0.020 N 
ATOM     13  O   LIG    1        4.878  -2.827  -5.154  0.00  0.00    -0.130 OA
ATOM     14  O   LIG    1        5.451  -4.759  -5.780  0.00  0.00    -0.170 OA
ENDBRANCH  11  12
ENDBRANCH  10  11
ENDBRANCH   9  10
ENDBRANCH   4   9
TORSDOF 5
