REMARK  Name = ZINC000083823403
REMARK                            x       y       z     vdW  Elec       q    Type
REMARK                         _______ _______ _______ _____ _____    ______ ____
ROOT
ATOM      1  C   LIG    1        0.433  -0.605  -1.230  0.00  0.00    +0.440 A 
ATOM      2  C   LIG    1        1.254   0.026  -2.159  0.00  0.00    -0.090 A 
ATOM      3  C   LIG    1        2.021  -0.746  -3.014  0.00  0.00    +0.190 A 
ATOM      4  C   LIG    1        1.940  -2.128  -2.909  0.00  0.00    -0.160 A 
ATOM      5  C   LIG    1        1.104  -2.688  -1.964  0.00  0.00    +0.260 A 
ATOM      6  C   LIG    1        1.012  -4.188  -1.846  0.00  0.00    +0.160 C 
ATOM      7  N   LIG    1        0.388  -1.927  -1.159  0.00  0.00    -0.530 NA
ENDROOT
BRANCH   1   9
ATOM      8  C   LIG    1       -0.297   1.621  -0.439  0.00  0.00    +0.310 C 
ATOM      9  N   LIG    1       -0.342   0.159  -0.365  0.00  0.00    -0.710 N 
ATOM     10  H   LIG    1       -0.913  -0.277   0.287  0.00  0.00    +0.410 HD
ENDBRANCH   1   9
BRANCH   4  11
ATOM     11  N   LIG    1        2.743  -2.994  -3.803  0.00  0.00    +0.040 N 
ATOM     12  O   LIG    1        2.926  -2.668  -4.962  0.00  0.00    -0.160 OA
ATOM     13  O   LIG    1        3.221  -4.030  -3.378  0.00  0.00    -0.150 OA
ENDBRANCH   4  11
TORSDOF 2
