REMARK  Name = ZINC000594885249
REMARK                            x       y       z     vdW  Elec       q    Type
REMARK                         _______ _______ _______ _____ _____    ______ ____
ROOT
ATOM      1  C   LIG    1       -1.306   1.936   0.019  0.00  0.00    +0.270 A 
ATOM      2  N   LIG    1       -1.450   3.236   0.021  0.00  0.00    -0.210 NA
ATOM      3  N   LIG    1       -2.831   3.491   0.031  0.00  0.00    -0.350 N 
ATOM      4  C   LIG    1       -3.438   2.292   0.033  0.00  0.00    +0.530 A 
ATOM      5  N   LIG    1       -2.511   1.368   0.021  0.00  0.00    -0.490 NA
ENDROOT
BRANCH   1   7
ATOM      6  O   LIG    1        0.002  -0.004   0.002  0.00  0.00    -0.090 OA
ATOM      7  N   LIG    1       -0.014   1.214   0.009  0.00  0.00    +0.060 N 
ATOM      8  O   LIG    1        1.032   1.837   0.002  0.00  0.00    -0.110 OA
ENDBRANCH   1   7
BRANCH   3   9
ATOM      9  C   LIG    1       -3.481   4.804   0.036  0.00  0.00    +0.360 C 
BRANCH   9  10
ATOM     10  C   LIG    1       -2.958   5.627   1.216  0.00  0.00    -0.020 C 
ATOM     11  C   LIG    1       -1.510   6.106   0.960  0.00  0.00    +0.070 C 
ATOM     12  C   LIG    1       -1.456   7.495   1.553  0.00  0.00    -0.030 C 
ATOM     13  C   LIG    1       -2.655   7.968   1.755  0.00  0.00    -0.040 C 
ATOM     14  C   LIG    1       -3.711   6.973   1.331  0.00  0.00    +0.070 C 
ENDBRANCH   9  10
ENDBRANCH   3   9
TORSDOF 3
