REMARK  Name = ZINC000098179648
REMARK                            x       y       z     vdW  Elec       q    Type
REMARK                         _______ _______ _______ _____ _____    ______ ____
ROOT
ATOM      1  C   LIG    1        0.002  -0.004   0.045  0.00  0.00    +0.390 A 
ATOM      2  C   LIG    1       -1.204  -0.741   0.025  0.00  0.00    -0.120 A 
ATOM      3  C   LIG    1       -2.463  -0.131   0.012  0.00  0.00    +0.130 A 
ATOM      4  C   LIG    1       -3.583  -0.909  -0.008  0.00  0.00    +0.040 A 
ATOM      5  C   LIG    1       -3.494  -2.299  -0.015  0.00  0.00    +0.170 A 
ATOM      6  C   LIG    1       -2.283  -2.925  -0.002  0.00  0.00    -0.030 A 
ATOM      7  C   LIG    1       -1.112  -2.157   0.017  0.00  0.00    +0.000 A 
ATOM      8  C   LIG    1        0.174  -2.729   0.030  0.00  0.00    +0.210 A 
ATOM      9  N   LIG    1        1.224  -1.941   0.048  0.00  0.00    -0.190 NA
ATOM     10  N   LIG    1        1.148  -0.662   0.050  0.00  0.00    -0.330 NA
ENDROOT
BRANCH   1  11
ATOM     11  N   LIG    1       -0.017   1.381   0.053  0.00  0.00    -0.820 N 
ATOM     12  H   LIG    1       -0.863   1.854   0.045  0.00  0.00    +0.410 HD
ATOM     13  H   LIG    1        0.816   1.877   0.063  0.00  0.00    +0.420 HD
ENDBRANCH   1  11
BRANCH   6  14
ATOM     14  N   LIG    1       -2.207  -4.403  -0.010  0.00  0.00    +0.030 N 
ATOM     15  O   LIG    1       -1.126  -4.957  -0.109  0.00  0.00    -0.150 OA
ATOM     16  O   LIG    1       -3.224  -5.066   0.084  0.00  0.00    -0.140 OA
ENDBRANCH   6  14
TORSDOF 2
