REMARK  Name = ZINC000899232112
REMARK                            x       y       z     vdW  Elec       q    Type
REMARK                         _______ _______ _______ _____ _____    ______ ____
ROOT
ATOM      1  C   LIG    1       -0.089   5.107   1.440  0.00  0.00    +0.160 A 
ATOM      2  C   LIG    1       -0.830   5.231   2.607  0.00  0.00    -0.090 A 
ATOM      3  C   LIG    1       -0.649   6.329   3.426  0.00  0.00    +0.090 A 
ATOM      4  C   LIG    1        0.269   7.304   3.086  0.00  0.00    -0.050 A 
ATOM      5  C   LIG    1        1.010   7.184   1.922  0.00  0.00    +0.140 A 
ATOM      6  F   LIG    1        1.907   8.139   1.590  0.00  0.00    -0.130 F 
ATOM      7  C   LIG    1        0.837   6.083   1.102  0.00  0.00    -0.030 A 
ENDROOT
BRANCH   1   8
ATOM      8  O   LIG    1       -0.265   4.028   0.634  0.00  0.00    -0.300 OA
BRANCH   8   9
ATOM      9  C   LIG    1       -1.235   3.063   1.045  0.00  0.00    +0.240 C 
BRANCH   9  10
ATOM     10  C   LIG    1       -1.293   1.929   0.019  0.00  0.00    +0.290 C 
BRANCH  10  12
ATOM     11  O   LIG    1        0.002  -0.004   0.002  0.00  0.00    -0.170 OA
ATOM     12  N   LIG    1       -0.014   1.214   0.009  0.00  0.00    -0.030 N 
ATOM     13  O   LIG    1        1.032   1.837   0.002  0.00  0.00    -0.130 OA
ENDBRANCH  10  12
ENDBRANCH   9  10
ENDBRANCH   8   9
ENDBRANCH   1   8
TORSDOF 4
