REMARK  Name = ZINC000238597661
REMARK                            x       y       z     vdW  Elec       q    Type
REMARK                         _______ _______ _______ _____ _____    ______ ____
ROOT
ATOM      1  C   LIG    1       -1.306   1.936   0.019  0.00  0.00    -0.140 A 
ATOM      2  C   LIG    1       -2.497   1.239   0.026  0.00  0.00    +0.440 A 
ATOM      3  N   LIG    1       -3.653   1.875   0.035  0.00  0.00    -0.470 NA
ATOM      4  C   LIG    1       -3.721   3.193   0.038  0.00  0.00    +0.240 A 
ATOM      5  C   LIG    1       -2.570   3.960   0.031  0.00  0.00    -0.010 A 
ATOM      6 CL   LIG    1       -5.272   3.973   0.051  0.00  0.00    +0.030 Cl
ATOM      7  C   LIG    1       -1.335   3.326   0.026  0.00  0.00    +0.240 A 
ATOM      8  F   LIG    1       -0.190   4.042   0.020  0.00  0.00    -0.080 F 
ENDROOT
BRANCH   1  10
ATOM      9  O   LIG    1        0.002  -0.004   0.002  0.00  0.00    -0.130 OA
ATOM     10  N   LIG    1       -0.014   1.214   0.009  0.00  0.00    +0.030 N 
ATOM     11  O   LIG    1        1.032   1.837   0.002  0.00  0.00    -0.140 OA
ENDBRANCH   1  10
TORSDOF 1
