REMARK  Name = ZINC000308321101
REMARK                            x       y       z     vdW  Elec       q    Type
REMARK                         _______ _______ _______ _____ _____    ______ ____
ROOT
ATOM      1  N   LIG    1        1.210  -2.487  -2.591  0.00  0.00    -0.330 N 
ATOM      2  N   LIG    1        0.523  -2.660  -3.800  0.00  0.00    -0.220 NA
ATOM      3  C   LIG    1        1.375  -3.085  -4.697  0.00  0.00    +0.260 A 
ATOM      4  C   LIG    1        2.630  -3.196  -4.090  0.00  0.00    +0.010 A 
ATOM      5  C   LIG    1        2.503  -2.817  -2.798  0.00  0.00    +0.120 A 
ENDROOT
BRANCH   5   6
ATOM      6  N   LIG    1        3.585  -2.780  -1.788  0.00  0.00    +0.050 N 
ATOM      7  O   LIG    1        3.344  -2.417  -0.650  0.00  0.00    -0.150 OA
ATOM      8  O   LIG    1        4.716  -3.112  -2.095  0.00  0.00    -0.120 OA
ENDBRANCH   5   6
BRANCH   1   9
ATOM      9  C   LIG    1        0.630  -2.023  -1.329  0.00  0.00    +0.350 C 
BRANCH   9  10
ATOM     10  C   LIG    1        0.718  -0.497  -1.257  0.00  0.00    -0.020 C 
ATOM     11  C   LIG    1        2.187  -0.073  -1.207  0.00  0.00    +0.020 C 
BRANCH  10  13
ATOM     12  C   LIG    1       -0.019   1.526   0.010  0.00  0.00    +0.020 C 
ATOM     13  C   LIG    1        0.002  -0.004   0.002  0.00  0.00    +0.020 C 
ENDBRANCH  10  13
ENDBRANCH   9  10
ENDBRANCH   1   9
TORSDOF 4
