REMARK  Name = ZINC000142691219
REMARK                            x       y       z     vdW  Elec       q    Type
REMARK                         _______ _______ _______ _____ _____    ______ ____
ROOT
ATOM      1  C   LIG    1       -1.412  -0.526   0.013  0.00  0.00    -0.080 A 
ATOM      2  C   LIG    1       -2.061  -0.770   1.213  0.00  0.00    +0.090 A 
ATOM      3  C   LIG    1       -3.361  -1.249   1.175  0.00  0.00    +0.080 A 
ATOM      4  C   LIG    1       -3.963  -1.467  -0.050  0.00  0.00    +0.160 A 
ATOM      5  N   LIG    1       -3.315  -1.223  -1.173  0.00  0.00    -0.430 NA
ATOM      6  C   LIG    1       -2.080  -0.761  -1.174  0.00  0.00    +0.300 A 
ENDROOT
BRANCH   4   7
ATOM      7  N   LIG    1       -5.351  -1.979  -0.103  0.00  0.00    +0.020 N 
ATOM      8  O   LIG    1       -5.888  -2.173  -1.179  0.00  0.00    -0.120 OA
ATOM      9  O   LIG    1       -5.956  -2.206   0.929  0.00  0.00    -0.150 OA
ENDBRANCH   4   7
BRANCH   1  11
ATOM     10  C   LIG    1       -0.019   1.526   0.010  0.00  0.00    +0.040 C 
ATOM     11  C   LIG    1        0.002  -0.004   0.002  0.00  0.00    +0.090 C 
ENDBRANCH   1  11
TORSDOF 2
