REMARK  Name = ZINC000306322185
REMARK                            x       y       z     vdW  Elec       q    Type
REMARK                         _______ _______ _______ _____ _____    ______ ____
ROOT
ATOM      1  C   LIG    1        0.732  -1.699  -1.203  0.00  0.00    +0.290 A 
ATOM      2  C   LIG    1        1.435  -2.371  -2.145  0.00  0.00    +0.000 A 
ATOM      3  N   LIG    1        1.437  -3.672  -1.815  0.00  0.00    -0.430 NA
ATOM      4  C   LIG    1        0.767  -3.840  -0.710  0.00  0.00    +0.240 A 
ATOM      5  C   LIG    1        0.539  -5.156  -0.011  0.00  0.00    +0.200 C 
ATOM      6  N   LIG    1        0.311  -2.628  -0.288  0.00  0.00    -0.470 N 
ENDROOT
BRANCH   2   7
ATOM      7  N   LIG    1        2.088  -1.774  -3.332  0.00  0.00    +0.080 N 
ATOM      8  O   LIG    1        2.696  -2.483  -4.114  0.00  0.00    -0.140 OA
ATOM      9  O   LIG    1        2.018  -0.573  -3.527  0.00  0.00    -0.170 OA
ENDBRANCH   2   7
BRANCH   1  10
ATOM     10  N   LIG    1        0.488  -0.325  -1.167  0.00  0.00    -0.580 N 
ATOM     11  H   LIG    1        0.155   0.006  -2.060  0.00  0.00    +0.390 HD
BRANCH  10  13
ATOM     12  C   LIG    1       -0.585   1.535   0.010  0.00  0.00    +0.050 C 
ATOM     13  C   LIG    1       -0.457   0.014  -0.095  0.00  0.00    +0.170 C 
ENDBRANCH  10  13
ENDBRANCH   1  10
BRANCH   6  14
ATOM     14  C   LIG    1       -0.487  -2.368   0.913  0.00  0.00    +0.290 C 
ATOM     15  C   LIG    1        0.441  -2.000   2.072  0.00  0.00    +0.050 C 
ENDBRANCH   6  14
TORSDOF 4
