REMARK  Name = ZINC000791052088
REMARK                            x       y       z     vdW  Elec       q    Type
REMARK                         _______ _______ _______ _____ _____    ______ ____
ROOT
ATOM      1  C   LIG    1       -0.019   1.526   0.010  0.00  0.00    +0.060 C 
ATOM      2  C   LIG    1        0.002  -0.004   0.002  0.00  0.00    +0.250 C 
ENDROOT
BRANCH   2   3
ATOM      3  C   LIG    1        0.731  -0.503   1.223  0.00  0.00    -0.010 A 
ATOM      4  C   LIG    1        0.156  -0.963   2.349  0.00  0.00    -0.050 A 
ATOM      5  C   LIG    1        1.205  -1.322   3.227  0.00  0.00    -0.060 A 
ATOM      6  C   LIG    1        2.358  -1.060   2.584  0.00  0.00    +0.160 A 
ATOM      7  O   LIG    1        2.064  -0.570   1.369  0.00  0.00    -0.160 OA
ENDBRANCH   2   3
BRANCH   2   8
ATOM      8  N   LIG    1        0.690  -0.478  -1.207  0.00  0.00    -0.530 NA
ATOM      9  C   LIG    1        0.812  -1.942  -1.203  0.00  0.00    +0.200 C 
BRANCH   8  10
ATOM     10  C   LIG    1        0.006  -0.009  -2.419  0.00  0.00    +0.210 C 
BRANCH  10  11
ATOM     11  C   LIG    1        0.876  -0.305  -3.642  0.00  0.00    +0.270 C 
BRANCH  11  12
ATOM     12  N   LIG    1        0.194   0.162  -4.852  0.00  0.00    -0.020 N 
ATOM     13  O   LIG    1        0.155  -0.546  -5.841  0.00  0.00    -0.160 OA
ATOM     14  O   LIG    1       -0.335   1.260  -4.867  0.00  0.00    -0.160 OA
ENDBRANCH  11  12
ENDBRANCH  10  11
ENDBRANCH   8  10
ENDBRANCH   2   8
TORSDOF 5
