REMARK  Name = ZINC000601169942
REMARK                            x       y       z     vdW  Elec       q    Type
REMARK                         _______ _______ _______ _____ _____    ______ ____
ROOT
ATOM      1  C   LIG    1        0.000  -0.696  -1.212  0.00  0.00    +0.210 A 
ATOM      2  C   LIG    1       -0.015  -0.004  -2.420  0.00  0.00    +0.000 A 
ATOM      3  C   LIG    1       -0.016  -0.734  -3.597  0.00  0.00    +0.130 A 
ATOM      4  C   LIG    1       -0.002  -2.115  -3.535  0.00  0.00    +0.100 A 
ATOM      5  N   LIG    1        0.012  -2.741  -2.374  0.00  0.00    -0.390 NA
ATOM      6  C   LIG    1        0.019  -2.085  -1.231  0.00  0.00    +0.230 A 
ENDROOT
BRANCH   4   7
ATOM      7  N   LIG    1       -0.003  -2.902  -4.788  0.00  0.00    +0.040 N 
ATOM      8  O   LIG    1        0.009  -4.119  -4.744  0.00  0.00    -0.130 OA
ATOM      9  O   LIG    1       -0.016  -2.332  -5.865  0.00  0.00    -0.170 OA
ENDBRANCH   4   7
BRANCH   1  11
ATOM     10  C   LIG    1       -0.018   1.461   0.010  0.00  0.00    +0.310 C 
ATOM     11  N   LIG    1        0.002  -0.004   0.002  0.00  0.00    -0.600 N 
BRANCH  11  12
ATOM     12  C   LIG    1        0.024  -0.743   1.267  0.00  0.00    +0.280 C 
BRANCH  12  13
ATOM     13  C   LIG    1       -1.411  -1.020   1.720  0.00  0.00    +0.200 C 
ATOM     14  F   LIG    1       -1.389  -1.726   2.928  0.00  0.00    -0.210 F 
ENDBRANCH  12  13
ENDBRANCH  11  12
ENDBRANCH   1  11
TORSDOF 4
