REMARK  Name = ZINC000035186175
REMARK                            x       y       z     vdW  Elec       q    Type
REMARK                         _______ _______ _______ _____ _____    ______ ____
ROOT
ATOM      1  C   LIG    1       -1.065  -3.921  -1.052  0.00  0.00    +0.029 A 
ATOM      2  C   LIG    1       -0.037  -4.844  -0.906  0.00  0.00    +0.023 A 
ATOM      3  C   LIG    1       -0.327  -6.192  -0.840  0.00  0.00    +0.004 A 
ATOM      4  C   LIG    1       -1.638  -6.625  -0.919  0.00  0.00    +0.033 A 
ATOM      5  C   LIG    1       -2.664  -5.708  -1.064  0.00  0.00    +0.128 A 
ATOM      6  C   LIG    1       -2.382  -4.358  -1.126  0.00  0.00    +0.055 A 
ENDROOT
BRANCH   5   7
ATOM      7  N   LIG    1       -4.066  -6.175  -1.148  0.00  0.00    +0.056 N 
ATOM      8  O   LIG    1       -4.969  -5.369  -1.276  0.00  0.00    -0.126 OA
ATOM      9  O   LIG    1       -4.315  -7.366  -1.089  0.00  0.00    -0.126 OA
ENDBRANCH   5   7
BRANCH   1  10
ATOM     10  N   LIG    1       -0.776  -2.556  -1.119  0.00  0.00    -0.342 N 
ATOM     11  H   LIG    1       -1.495  -1.912  -1.217  0.00  0.00    +0.146 HD
BRANCH  10  12
ATOM     12  C   LIG    1        0.613  -2.097  -1.041  0.00  0.00    +0.129 C 
BRANCH  12  13
ATOM     13  C   LIG    1        0.652  -0.570  -1.138  0.00  0.00    +0.178 C 
BRANCH  13  15
ATOM     14  C   LIG    1       -0.017   1.425   0.010  0.00  0.00    +0.194 C 
ATOM     15  O   LIG    1        0.002  -0.004   0.002  0.00  0.00    -0.381 OA
ENDBRANCH  13  15
ENDBRANCH  12  13
ENDBRANCH  10  12
ENDBRANCH   1  10
TORSDOF 5
