REMARK  Name = ZINC000035121761
REMARK                            x       y       z     vdW  Elec       q    Type
REMARK                         _______ _______ _______ _____ _____    ______ ____
ROOT
ATOM      1  C   LIG    1        0.546  -0.738   3.582  0.00  0.00    +0.290 A 
ATOM      2  C   LIG    1        0.074  -0.657   4.849  0.00  0.00    +0.000 A 
ATOM      3  N   LIG    1        0.970  -1.232   5.666  0.00  0.00    -0.430 NA
ATOM      4  C   LIG    1        1.979  -1.667   4.964  0.00  0.00    +0.450 A 
ATOM      5  N   LIG    1        1.753  -1.383   3.652  0.00  0.00    -0.480 N 
ATOM      6  C   LIG    1        2.637  -1.700   2.527  0.00  0.00    +0.340 C 
ENDROOT
BRANCH   2   7
ATOM      7  N   LIG    1       -1.209  -0.041   5.260  0.00  0.00    +0.070 N 
ATOM      8  O   LIG    1       -1.528  -0.028   6.436  0.00  0.00    -0.140 OA
ATOM      9  O   LIG    1       -1.944   0.452   4.424  0.00  0.00    -0.170 OA
ENDBRANCH   2   7
BRANCH   1  10
ATOM     10  N   LIG    1       -0.078  -0.261   2.428  0.00  0.00    -0.580 N 
ATOM     11  H   LIG    1       -0.365   0.699   2.543  0.00  0.00    +0.390 HD
BRANCH  10  12
ATOM     12  C   LIG    1        0.795  -0.412   1.257  0.00  0.00    +0.190 C 
BRANCH  12  14
ATOM     13  C   LIG    1       -0.321   1.469   0.050  0.00  0.00    +0.020 C 
ATOM     14  C   LIG    1        0.026  -0.020  -0.006  0.00  0.00    -0.010 C 
ATOM     15  C   LIG    1        0.892  -0.296  -1.237  0.00  0.00    +0.040 C 
ENDBRANCH  12  14
ENDBRANCH  10  12
ENDBRANCH   1  10
TORSDOF 4
