REMARK  Name = ZINC000899880911
REMARK                            x       y       z     vdW  Elec       q    Type
REMARK                         _______ _______ _______ _____ _____    ______ ____
ROOT
ATOM      1  C   LIG    1        0.762  -2.018   1.233  0.00  0.00    +0.210 A 
ATOM      2  N   LIG    1       -0.143  -2.794   1.763  0.00  0.00    -0.480 NA
ATOM      3  C   LIG    1        0.201  -4.075   1.565  0.00  0.00    +0.160 A 
ATOM      4  C   LIG    1        1.364  -4.093   0.887  0.00  0.00    +0.120 A 
ATOM      5  N   LIG    1        1.718  -2.789   0.671  0.00  0.00    -0.460 N 
ENDROOT
BRANCH   1   6
ATOM      6  C   LIG    1        0.742  -0.511   1.242  0.00  0.00    +0.130 C 
BRANCH   6   8
ATOM      7  C   LIG    1       -0.019   1.526   0.010  0.00  0.00    +0.030 C 
ATOM      8  C   LIG    1        0.002  -0.004   0.002  0.00  0.00    +0.010 C 
ENDBRANCH   6   8
ENDBRANCH   1   6
BRANCH   5   9
ATOM      9  C   LIG    1        2.915  -2.317  -0.030  0.00  0.00    +0.340 C 
BRANCH   9  10
ATOM     10  C   LIG    1        4.020  -2.025   0.986  0.00  0.00    +0.260 C 
BRANCH  10  11
ATOM     11  N   LIG    1        5.216  -1.553   0.285  0.00  0.00    -0.020 N 
ATOM     12  O   LIG    1        5.599  -2.126  -0.719  0.00  0.00    -0.150 OA
ATOM     13  O   LIG    1        5.829  -0.588   0.706  0.00  0.00    -0.150 OA
ENDBRANCH  10  11
ENDBRANCH   9  10
ENDBRANCH   5   9
TORSDOF 5
