REMARK  Name = ZINC000082563331
REMARK                            x       y       z     vdW  Elec       q    Type
REMARK                         _______ _______ _______ _____ _____    ______ ____
ROOT
ATOM      1  N   LIG    1       -3.149  -2.165  -0.418  0.00  0.00    -0.440 N 
ATOM      2  C   LIG    1       -3.765  -2.744   0.634  0.00  0.00    +0.460 A 
ATOM      3  N   LIG    1       -5.044  -2.817   0.382  0.00  0.00    -0.440 NA
ATOM      4  C   LIG    1       -5.286  -2.293  -0.829  0.00  0.00    +0.050 A 
ATOM      5  C   LIG    1       -4.114  -1.873  -1.343  0.00  0.00    +0.280 A 
ENDROOT
BRANCH   4   6
ATOM      6  N   LIG    1       -6.611  -2.186  -1.481  0.00  0.00    +0.060 N 
ATOM      7  O   LIG    1       -6.706  -1.687  -2.588  0.00  0.00    -0.160 OA
ATOM      8  O   LIG    1       -7.605  -2.598  -0.911  0.00  0.00    -0.130 OA
ENDBRANCH   4   6
BRANCH   1   9
ATOM      9  C   LIG    1       -1.715  -1.893  -0.543  0.00  0.00    +0.330 C 
BRANCH   9  10
ATOM     10  C   LIG    1       -1.412  -0.526   0.013  0.00  0.00    +0.340 C 
ATOM     11  O   LIG    1       -2.302   0.152   0.467  0.00  0.00    -0.420 OA
BRANCH  10  13
ATOM     12  C   LIG    1       -0.019   1.526   0.010  0.00  0.00    +0.050 C 
ATOM     13  C   LIG    1        0.002  -0.004   0.002  0.00  0.00    -0.040 C 
ATOM     14  C   LIG    1        0.742  -0.511   1.242  0.00  0.00    +0.060 C 
ENDBRANCH  10  13
ENDBRANCH   9  10
ENDBRANCH   1   9
TORSDOF 4
