REMARK  Name = ZINC000336162938
REMARK                            x       y       z     vdW  Elec       q    Type
REMARK                         _______ _______ _______ _____ _____    ______ ____
ROOT
ATOM      1  C   LIG    1        0.473  -1.669  -3.480  0.00  0.00    +0.030 A 
ATOM      2  C   LIG    1       -0.170  -2.044  -4.641  0.00  0.00    +0.070 A 
ATOM      3  C   LIG    1        0.753  -2.762  -5.408  0.00  0.00    +0.090 A 
ATOM      4  C   LIG    1        1.918  -2.812  -4.718  0.00  0.00    +0.070 A 
ATOM      5  N   LIG    1        1.762  -2.147  -3.547  0.00  0.00    -0.520 N 
ATOM      6  H   LIG    1        2.444  -2.031  -2.867  0.00  0.00    +0.430 HD
ENDROOT
BRANCH   1   8
ATOM      7  N   LIG    1        0.676  -0.455  -1.375  0.00  0.00    -0.610 N 
ATOM      8  C   LIG    1       -0.109  -0.896  -2.378  0.00  0.00    +0.590 C 
ATOM      9  O   LIG    1       -1.301  -0.652  -2.369  0.00  0.00    -0.500 OA
ATOM     10  C   LIG    1        2.129  -0.630  -1.452  0.00  0.00    +0.290 C 
BRANCH   7  12
ATOM     11  C   LIG    1       -0.011   1.705  -0.459  0.00  0.00    +0.020 C 
ATOM     12  C   LIG    1        0.078   0.199  -0.209  0.00  0.00    +0.280 C 
ENDBRANCH   7  12
ENDBRANCH   1   8
BRANCH   4  13
ATOM     13  N   LIG    1        3.159  -3.478  -5.171  0.00  0.00    +0.050 N 
ATOM     14  O   LIG    1        3.188  -4.045  -6.248  0.00  0.00    -0.120 OA
ATOM     15  O   LIG    1        4.153  -3.460  -4.466  0.00  0.00    -0.170 OA
ENDBRANCH   4  13
TORSDOF 3
