REMARK  Name = ZINC000336612174
REMARK                            x       y       z     vdW  Elec       q    Type
REMARK                         _______ _______ _______ _____ _____    ______ ____
ROOT
ATOM      1  C   LIG    1       -3.427  -1.150  -1.134  0.00  0.00    +0.030 A 
ATOM      2  C   LIG    1       -4.234  -1.341  -2.236  0.00  0.00    +0.070 A 
ATOM      3  C   LIG    1       -5.455  -1.837  -1.770  0.00  0.00    +0.090 A 
ATOM      4  C   LIG    1       -5.375  -1.938  -0.421  0.00  0.00    +0.070 A 
ATOM      5  N   LIG    1       -4.146  -1.529  -0.023  0.00  0.00    -0.510 N 
ATOM      6  H   LIG    1       -3.828  -1.501   0.893  0.00  0.00    +0.430 HD
ENDROOT
BRANCH   1   9
ATOM      7  N   LIG    1       -1.372  -0.511   0.012  0.00  0.00    -0.720 N 
ATOM      8  H   LIG    1       -1.794  -0.752   0.852  0.00  0.00    +0.400 HD
ATOM      9  C   LIG    1       -2.051  -0.643  -1.145  0.00  0.00    +0.590 C 
ATOM     10  O   LIG    1       -1.522  -0.340  -2.198  0.00  0.00    -0.500 OA
BRANCH   7  12
ATOM     11  C   LIG    1       -0.019   1.526   0.010  0.00  0.00    +0.020 C 
ATOM     12  C   LIG    1        0.002  -0.004   0.002  0.00  0.00    +0.240 C 
ATOM     13  C   LIG    1        0.742  -0.511   1.242  0.00  0.00    +0.040 C 
ENDBRANCH   7  12
ENDBRANCH   1   9
BRANCH   4  14
ATOM     14  N   LIG    1       -6.453  -2.422   0.471  0.00  0.00    +0.050 N 
ATOM     15  O   LIG    1       -7.521  -2.770   0.002  0.00  0.00    -0.120 OA
ATOM     16  O   LIG    1       -6.271  -2.471   1.674  0.00  0.00    -0.170 OA
ENDBRANCH   4  14
TORSDOF 3
