REMARK  Name = ZINC000905295026
REMARK                            x       y       z     vdW  Elec       q    Type
REMARK                         _______ _______ _______ _____ _____    ______ ____
ROOT
ATOM      1  C   LIG    1       -0.018   1.503   0.010  0.00  0.00    +0.090 C 
ATOM      2  C   LIG    1        0.002  -0.004   0.002  0.00  0.00    -0.140 A 
ATOM      3  C   LIG    1        0.006  -0.687  -1.200  0.00  0.00    +0.050 A 
ATOM      4  C   LIG    1        0.025  -2.068  -1.211  0.00  0.00    -0.070 A 
ATOM      5  C   LIG    1        0.041  -2.771  -0.013  0.00  0.00    +0.210 A 
ATOM      6  C   LIG    1        0.037  -2.081   1.193  0.00  0.00    -0.070 A 
ATOM      7  C   LIG    1        0.023  -0.700   1.197  0.00  0.00    -0.040 A 
ATOM      8  C   LIG    1        0.019   0.049   2.505  0.00  0.00    +0.090 C 
ENDROOT
BRANCH   5   9
ATOM      9  N   LIG    1        0.060  -4.167  -0.021  0.00  0.00    -0.750 N 
ATOM     10  H   LIG    1        0.071  -4.657   0.817  0.00  0.00    +0.400 HD
BRANCH   9  11
ATOM     11  C   LIG    1        0.065  -4.893  -1.294  0.00  0.00    +0.290 C 
BRANCH  11  12
ATOM     12  C   LIG    1        0.087  -6.398  -1.022  0.00  0.00    +0.250 C 
BRANCH  12  13
ATOM     13  N   LIG    1        0.092  -7.124  -2.295  0.00  0.00    -0.020 N 
ATOM     14  O   LIG    1       -0.641  -8.084  -2.451  0.00  0.00    -0.150 OA
ATOM     15  O   LIG    1        0.829  -6.767  -3.197  0.00  0.00    -0.150 OA
ENDBRANCH  12  13
ENDBRANCH  11  12
ENDBRANCH   9  11
ENDBRANCH   5   9
TORSDOF 4
