REMARK  Name = ZINC000038672086
REMARK                            x       y       z     vdW  Elec       q    Type
REMARK                         _______ _______ _______ _____ _____    ______ ____
ROOT
ATOM      1  C   LIG    1        0.167   1.496   0.143  0.00  0.00    +0.120 C 
ATOM      2  C   LIG    1        0.091  -0.008   0.066  0.00  0.00    -0.120 A 
ATOM      3  C   LIG    1       -0.247  -0.623  -1.127  0.00  0.00    +0.100 A 
ATOM      4  C   LIG    1       -0.318  -2.004  -1.201  0.00  0.00    +0.050 A 
ATOM      5  C   LIG    1       -0.051  -2.774  -0.084  0.00  0.00    -0.060 A 
ATOM      6  C   LIG    1        0.289  -2.165   1.113  0.00  0.00    +0.210 A 
ATOM      7  F   LIG    1       -0.509   0.125  -2.221  0.00  0.00    -0.120 F 
ATOM      8  C   LIG    1        0.366  -0.775   1.188  0.00  0.00    +0.180 A 
ENDROOT
BRANCH   6   9
ATOM      9  N   LIG    1        0.561  -2.945   2.246  0.00  0.00    -0.860 N 
ATOM     10  H   LIG    1        0.672  -2.521   3.111  0.00  0.00    +0.400 HD
ATOM     11  H   LIG    1        0.637  -3.908   2.164  0.00  0.00    +0.410 HD
ENDBRANCH   6   9
BRANCH   5  12
ATOM     12  N   LIG    1       -0.128  -4.250  -0.168  0.00  0.00    +0.040 N 
ATOM     13  O   LIG    1       -0.572  -4.891   0.768  0.00  0.00    -0.170 OA
ATOM     14  O   LIG    1        0.253  -4.824  -1.173  0.00  0.00    -0.140 OA
ENDBRANCH   5  12
BRANCH   8  15
ATOM     15  N   LIG    1        0.710  -0.154   2.395  0.00  0.00    -0.860 N 
ATOM     16  H   LIG    1        0.762   0.813   2.445  0.00  0.00    +0.410 HD
ATOM     17  H   LIG    1        0.895  -0.692   3.181  0.00  0.00    +0.400 HD
ENDBRANCH   8  15
TORSDOF 3
