REMARK  Name = ZINC000001699084
REMARK                            x       y       z     vdW  Elec       q    Type
REMARK                         _______ _______ _______ _____ _____    ______ ____
ROOT
ATOM      1  C   LIG    1        0.623  -0.616   1.037  0.00  0.00    +0.470 A 
ATOM      2  C   LIG    1        0.686  -1.995   1.093  0.00  0.00    -0.190 A 
ATOM      3  C   LIG    1        1.339  -2.591   2.183  0.00  0.00    +0.310 A 
ATOM      4  N   LIG    1        1.878  -1.795   3.130  0.00  0.00    -0.570 N 
ATOM      5  H   LIG    1        2.333  -2.189   3.890  0.00  0.00    +0.450 HD
ATOM      6  C   LIG    1        1.785  -0.454   3.023  0.00  0.00    +0.690 A 
ATOM      7  S   LIG    1        1.450  -4.295   2.308  0.00  0.00    -0.420 S 
ATOM      8  N   LIG    1        1.186   0.113   2.012  0.00  0.00    -0.560 NA
ENDROOT
BRANCH   2   9
ATOM      9  N   LIG    1        0.079  -2.824   0.028  0.00  0.00    +0.050 N 
ATOM     10  O   LIG    1        0.143  -4.039   0.091  0.00  0.00    -0.090 OA
ATOM     11  O   LIG    1       -0.484  -2.292  -0.912  0.00  0.00    -0.180 OA
ENDBRANCH   2   9
BRANCH   1  13
ATOM     12  C   LIG    1       -0.017   1.425   0.010  0.00  0.00    +0.300 C 
ATOM     13  O   LIG    1        0.002  -0.004   0.002  0.00  0.00    -0.240 OA
ENDBRANCH   1  13
TORSDOF 2
