REMARK  Name = ZINC000039090643
REMARK                            x       y       z     vdW  Elec       q    Type
REMARK                         _______ _______ _______ _____ _____    ______ ____
ROOT
ATOM      1  C   LIG    1       -1.604  -1.884   0.054  0.00  0.00    +0.340 A 
ATOM      2  C   LIG    1       -0.552  -2.789  -0.062  0.00  0.00    -0.120 A 
ATOM      3  C   LIG    1       -0.834  -4.145  -0.110  0.00  0.00    +0.400 A 
ATOM      4  N   LIG    1       -2.083  -4.579  -0.048  0.00  0.00    -0.560 NA
ATOM      5  C   LIG    1       -3.104  -3.748   0.062  0.00  0.00    +0.440 A 
ATOM      6  C   LIG    1       -2.905  -2.387   0.121  0.00  0.00    -0.210 A 
ENDROOT
BRANCH   6   7
ATOM      7  N   LIG    1       -4.058  -1.466   0.245  0.00  0.00    +0.050 N 
ATOM      8  O   LIG    1       -4.049  -0.397  -0.339  0.00  0.00    -0.180 OA
ATOM      9  O   LIG    1       -5.016  -1.778   0.930  0.00  0.00    -0.150 OA
ENDBRANCH   6   7
BRANCH   1  10
ATOM     10  N   LIG    1       -1.365  -0.514   0.106  0.00  0.00    -0.710 N 
ATOM     11  H   LIG    1       -2.097   0.100   0.270  0.00  0.00    +0.420 HD
BRANCH  10  13
ATOM     12  C   LIG    1       -0.019   1.526   0.017  0.00  0.00    +0.040 C 
ATOM     13  C   LIG    1       -0.007  -0.000  -0.088  0.00  0.00    +0.260 C 
ENDBRANCH  10  13
ENDBRANCH   1  10
BRANCH   3  14
ATOM     14  O   LIG    1        0.182  -5.038  -0.223  0.00  0.00    -0.290 OA
ATOM     15  C   LIG    1       -0.172  -6.421  -0.268  0.00  0.00    +0.270 C 
ENDBRANCH   3  14
TORSDOF 4
