REMARK  Name = ZINC000005430954
REMARK                            x       y       z     vdW  Elec       q    Type
REMARK                         _______ _______ _______ _____ _____    ______ ____
ROOT
ATOM      1  C   LIG    1        1.341  -4.089  -2.293  0.00  0.00    +0.000 A 
ATOM      2  C   LIG    1        1.900  -4.879  -3.257  0.00  0.00    +0.060 A 
ATOM      3  C   LIG    1        1.689  -6.209  -2.861  0.00  0.00    +0.100 A 
ATOM      4  C   LIG    1        1.019  -6.173  -1.688  0.00  0.00    +0.030 A 
ATOM      5  O   LIG    1        0.815  -4.894  -1.347  0.00  0.00    -0.140 OA
ENDROOT
BRANCH   1   8
ATOM      6  N   LIG    1        0.738  -1.962  -1.265  0.00  0.00    -0.710 N 
ATOM      7  H   LIG    1        0.332  -2.457  -0.536  0.00  0.00    +0.410 HD
ATOM      8  C   LIG    1        1.321  -2.623  -2.285  0.00  0.00    +0.600 C 
ATOM      9  O   LIG    1        1.831  -2.002  -3.199  0.00  0.00    -0.500 OA
BRANCH   6  10
ATOM     10  C   LIG    1        0.718  -0.497  -1.257  0.00  0.00    +0.270 C 
BRANCH  10  12
ATOM     11  C   LIG    1       -0.019   1.526   0.010  0.00  0.00    +0.030 C 
ATOM     12  C   LIG    1        0.002  -0.004   0.002  0.00  0.00    +0.000 C 
ENDBRANCH  10  12
ENDBRANCH   6  10
ENDBRANCH   1   8
BRANCH   4  13
ATOM     13  N   LIG    1        0.586  -7.354  -0.906  0.00  0.00    +0.060 N 
ATOM     14  O   LIG    1       -0.014  -7.203   0.142  0.00  0.00    -0.120 OA
ATOM     15  O   LIG    1        0.831  -8.476  -1.312  0.00  0.00    -0.110 OA
ENDBRANCH   4  13
TORSDOF 4
