REMARK  Name = ZINC000075825468
REMARK                            x       y       z     vdW  Elec       q    Type
REMARK                         _______ _______ _______ _____ _____    ______ ____
ROOT
ATOM      1  C   LIG    1       -1.651  -1.769  -0.499  0.00  0.00    +0.340 A 
ATOM      2  N   LIG    1       -0.771  -2.578  -1.003  0.00  0.00    -0.540 NA
ATOM      3  C   LIG    1       -1.214  -3.741  -1.445  0.00  0.00    +0.410 A 
ATOM      4  C   LIG    1       -2.527  -3.924  -1.307  0.00  0.00    -0.270 A 
ATOM      5  S   LIG    1       -3.203  -2.484  -0.550  0.00  0.00    +0.230 S 
ENDROOT
BRANCH   4   6
ATOM      6  N   LIG    1       -3.285  -5.129  -1.714  0.00  0.00    +0.080 N 
ATOM      7  O   LIG    1       -4.489  -5.180  -1.537  0.00  0.00    -0.170 OA
ATOM      8  O   LIG    1       -2.704  -6.069  -2.226  0.00  0.00    -0.150 OA
ENDBRANCH   4   6
BRANCH   1   9
ATOM      9  N   LIG    1       -1.372  -0.511   0.012  0.00  0.00    -0.660 N 
ATOM     10  H   LIG    1       -2.087   0.033   0.377  0.00  0.00    +0.420 HD
BRANCH   9  12
ATOM     11  C   LIG    1       -0.019   1.526   0.010  0.00  0.00    +0.050 C 
ATOM     12  C   LIG    1        0.002  -0.004   0.002  0.00  0.00    +0.240 C 
ATOM     13  C   LIG    1        0.742  -0.511   1.242  0.00  0.00    +0.020 C 
ENDBRANCH   9  12
ENDBRANCH   1   9
TORSDOF 3
