REMARK  Name = ZINC000865350521
REMARK                            x       y       z     vdW  Elec       q    Type
REMARK                         _______ _______ _______ _____ _____    ______ ____
ROOT
ATOM      1  N   LIG    1       -2.582  -4.008  -0.245  0.00  0.00    -0.450 N 
ATOM      2  C   LIG    1       -2.547  -4.708  -1.400  0.00  0.00    +0.470 A 
ATOM      3  N   LIG    1       -2.421  -5.976  -1.117  0.00  0.00    -0.450 NA
ATOM      4  C   LIG    1       -2.372  -6.130   0.214  0.00  0.00    +0.050 A 
ATOM      5  C   LIG    1       -2.465  -4.910   0.778  0.00  0.00    +0.280 A 
ENDROOT
BRANCH   4   6
ATOM      6  N   LIG    1       -2.232  -7.414   0.937  0.00  0.00    +0.060 N 
ATOM      7  O   LIG    1       -2.198  -7.427   2.154  0.00  0.00    -0.160 OA
ATOM      8  O   LIG    1       -2.150  -8.457   0.314  0.00  0.00    -0.130 OA
ENDBRANCH   4   6
BRANCH   1   9
ATOM      9  C   LIG    1       -2.715  -2.555  -0.113  0.00  0.00    +0.480 C 
BRANCH   9  10
ATOM     10  O   LIG    1       -1.417  -1.957  -0.112  0.00  0.00    -0.400 OA
BRANCH  10  11
ATOM     11  C   LIG    1       -1.433  -0.534   0.013  0.00  0.00    +0.190 C 
BRANCH  11  13
ATOM     12  C   LIG    1       -0.019   1.526   0.010  0.00  0.00    +0.040 C 
ATOM     13  C   LIG    1        0.002  -0.004   0.002  0.00  0.00    -0.010 C 
ATOM     14  C   LIG    1        0.742  -0.511   1.242  0.00  0.00    +0.020 C 
ENDBRANCH  11  13
ENDBRANCH  10  11
ENDBRANCH   9  10
ENDBRANCH   1   9
TORSDOF 5
