REMARK  Name = ZINC000071506260
REMARK                            x       y       z     vdW  Elec       q    Type
REMARK                         _______ _______ _______ _____ _____    ______ ____
ROOT
ATOM      1  C   LIG    1        0.026  -0.005  -0.056  0.00  0.00    +0.170 A 
ATOM      2  C   LIG    1       -1.179  -0.693  -0.009  0.00  0.00    +0.040 A 
ATOM      3  C   LIG    1       -1.184  -2.073   0.042  0.00  0.00    +0.000 A 
ATOM      4  C   LIG    1        0.015  -2.772   0.044  0.00  0.00    +0.230 A 
ATOM      5  C   LIG    1        1.220  -2.084  -0.004  0.00  0.00    -0.070 A 
ATOM      6  C   LIG    1        1.226  -0.705  -0.059  0.00  0.00    +0.040 A 
ENDROOT
BRANCH   1   7
ATOM      7  N   LIG    1        0.032   1.394  -0.107  0.00  0.00    -0.880 N 
ATOM      8  H   LIG    1       -0.806   1.883  -0.109  0.00  0.00    +0.400 HD
ATOM      9  H   LIG    1        0.874   1.875  -0.144  0.00  0.00    +0.400 HD
ENDBRANCH   1   7
BRANCH   5  10
ATOM     10  N   LIG    1        2.499  -2.830  -0.001  0.00  0.00    +0.040 N 
ATOM     11  O   LIG    1        2.592  -3.881  -0.609  0.00  0.00    -0.180 OA
ATOM     12  O   LIG    1        3.458  -2.391   0.608  0.00  0.00    -0.150 OA
ENDBRANCH   5  10
BRANCH   4  13
ATOM     13  N   LIG    1        0.010  -4.172   0.095  0.00  0.00    -0.710 N 
ATOM     14  H   LIG    1        0.842  -4.663   0.014  0.00  0.00    +0.410 HD
BRANCH  13  15
ATOM     15  C   LIG    1       -1.253  -4.893   0.270  0.00  0.00    +0.210 C 
ATOM     16  C   LIG    1       -1.487  -6.129  -0.602  0.00  0.00    +0.020 C 
ATOM     17  C   LIG    1       -1.189  -6.290   0.890  0.00  0.00    +0.020 C 
ENDBRANCH  13  15
ENDBRANCH   4  13
TORSDOF 4
