REMARK  Name = ZINC000604403165
REMARK                            x       y       z     vdW  Elec       q    Type
REMARK                         _______ _______ _______ _____ _____    ______ ____
ROOT
ATOM      1  C   LIG    1        0.939   0.299   2.149  0.00  0.00    +0.370 A 
ATOM      2  N   LIG    1        1.952   1.151   2.181  0.00  0.00    -0.510 NA
ATOM      3  C   LIG    1        2.104   2.008   3.173  0.00  0.00    +0.360 A 
ATOM      4  C   LIG    1        1.205   2.046   4.220  0.00  0.00    -0.040 A 
ATOM      5  C   LIG    1        0.128   1.169   4.224  0.00  0.00    +0.190 A 
ATOM      6  C   LIG    1       -0.008   0.286   3.168  0.00  0.00    -0.120 A 
ENDROOT
BRANCH   1  11
ATOM      7  C   LIG    1        0.174   1.565  -0.044  0.00  0.00    +0.030 C 
ATOM      8  C   LIG    1        0.098   0.036  -0.043  0.00  0.00    +0.150 C 
ATOM      9  C   LIG    1        1.112  -0.627  -0.986  0.00  0.00    +0.050 C 
ATOM     10  C   LIG    1        2.031  -0.572   0.242  0.00  0.00    +0.200 C 
ATOM     11  N   LIG    1        0.818  -0.587   1.084  0.00  0.00    -0.410 N 
ENDBRANCH   1  11
BRANCH   6  12
ATOM     12  N   LIG    1       -1.043  -0.587   3.132  0.00  0.00    +0.070 N 
ATOM     13  O   LIG    1       -1.155  -1.361   2.199  0.00  0.00    -0.140 OA
ATOM     14  O   LIG    1       -1.863  -0.598   4.034  0.00  0.00    -0.210 OA
ENDBRANCH   6  12
TORSDOF 2
