REMARK  Name = ZINC000905220297
REMARK                            x       y       z     vdW  Elec       q    Type
REMARK                         _______ _______ _______ _____ _____    ______ ____
ROOT
ATOM      1  N   LIG    1       -3.513   1.999   1.050  0.00  0.00    -0.510 NA
ATOM      2  H   LIG    1       -3.377   2.982   1.235  0.00  0.00    +0.340 HD
ENDROOT
BRANCH   1   3
ATOM      3  C   LIG    1       -2.231   1.282   1.040  0.00  0.00    +0.220 C 
BRANCH   3   4
ATOM      4  C   LIG    1       -1.293   1.929   0.019  0.00  0.00    +0.270 C 
BRANCH   4   6
ATOM      5  O   LIG    1        0.002  -0.004   0.002  0.00  0.00    -0.150 OA
ATOM      6  N   LIG    1       -0.014   1.214   0.009  0.00  0.00    -0.020 N 
ATOM      7  O   LIG    1        1.032   1.837   0.002  0.00  0.00    -0.150 OA
ENDBRANCH   4   6
ENDBRANCH   3   4
ENDBRANCH   1   3
BRANCH   1   8
ATOM      8  O   LIG    1       -4.438   1.407   2.017  0.00  0.00    -0.230 OA
BRANCH   8   9
ATOM      9  C   LIG    1       -5.709   2.057   2.079  0.00  0.00    +0.160 C 
ATOM     10  C   LIG    1       -6.626   1.489   0.994  0.00  0.00    +0.000 C 
ATOM     11  C   LIG    1       -7.987   2.186   1.061  0.00  0.00    +0.010 C 
ATOM     12  C   LIG    1       -8.614   1.947   2.436  0.00  0.00    +0.010 C 
ATOM     13  C   LIG    1       -7.697   2.515   3.521  0.00  0.00    +0.010 C 
ATOM     14  C   LIG    1       -6.336   1.819   3.454  0.00  0.00    +0.020 C 
ENDBRANCH   8   9
ENDBRANCH   1   8
TORSDOF 5
