REMARK  Name = ZINC000036458817
REMARK                            x       y       z     vdW  Elec       q    Type
REMARK                         _______ _______ _______ _____ _____    ______ ____
ROOT
ATOM      1  C   LIG    1        0.704  -0.509  -1.232  0.00  0.00    -0.010 A 
ATOM      2  C   LIG    1        2.073  -0.731  -1.229  0.00  0.00    -0.010 A 
ATOM      3  C   LIG    1        2.688  -1.158  -2.391  0.00  0.00    +0.340 A 
ATOM      4  N   LIG    1        1.990  -1.352  -3.492  0.00  0.00    -0.470 NA
ATOM      5  C   LIG    1        0.687  -1.151  -3.532  0.00  0.00    +0.370 A 
ATOM      6  C   LIG    1        0.003  -0.730  -2.408  0.00  0.00    -0.100 A 
ENDROOT
BRANCH   6   7
ATOM      7  N   LIG    1       -1.460  -0.506  -2.461  0.00  0.00    +0.030 N 
ATOM      8  O   LIG    1       -2.039  -0.033  -1.499  0.00  0.00    -0.160 OA
ATOM      9  O   LIG    1       -2.084  -0.795  -3.466  0.00  0.00    -0.140 OA
ENDBRANCH   6   7
BRANCH   1  11
ATOM     10  C   LIG    1       -0.163   1.478  -0.028  0.00  0.00    +0.050 C 
ATOM     11  C   LIG    1       -0.004  -0.043   0.013  0.00  0.00    +0.270 C 
BRANCH  11  12
ATOM     12  O   LIG    1        0.761  -0.411   1.163  0.00  0.00    -0.550 OA
ATOM     13  H   LIG    1        1.650  -0.031   1.181  0.00  0.00    +0.370 HD
ENDBRANCH  11  12
ENDBRANCH   1  11
TORSDOF 3
