REMARK  Name = ZINC000080858549
REMARK                            x       y       z     vdW  Elec       q    Type
REMARK                         _______ _______ _______ _____ _____    ______ ____
ROOT
ATOM      1  C   LIG    1       -1.181  -0.709   0.009  0.00  0.00    +0.520 A 
ATOM      2  N   LIG    1       -1.276  -2.014   0.009  0.00  0.00    -0.530 NA
ATOM      3  C   LIG    1       -2.594  -2.355   0.018  0.00  0.00    +0.070 A 
ATOM      4  C   LIG    1       -3.273  -3.573   0.020  0.00  0.00    +0.160 A 
ATOM      5  C   LIG    1       -4.651  -3.587   0.030  0.00  0.00    -0.030 A 
ATOM      6  C   LIG    1       -5.364  -2.399   0.036  0.00  0.00    +0.110 A 
ATOM      7  C   LIG    1       -4.704  -1.186   0.033  0.00  0.00    +0.090 A 
ATOM      8  C   LIG    1       -3.320  -1.154   0.024  0.00  0.00    +0.030 A 
ATOM      9  O   LIG    1       -2.406  -0.156   0.025  0.00  0.00    -0.220 OA
ENDROOT
BRANCH   1  11
ATOM     10  C   LIG    1       -0.018   1.461   0.010  0.00  0.00    +0.320 C 
ATOM     11  N   LIG    1        0.002  -0.004   0.002  0.00  0.00    -0.670 N 
ATOM     12  H   LIG    1        0.849  -0.478  -0.009  0.00  0.00    +0.440 HD
ENDBRANCH   1  11
BRANCH   5  13
ATOM     13  N   LIG    1       -5.374  -4.879   0.033  0.00  0.00    +0.030 N 
ATOM     14  O   LIG    1       -6.592  -4.895   0.042  0.00  0.00    -0.150 OA
ATOM     15  O   LIG    1       -4.751  -5.925   0.028  0.00  0.00    -0.150 OA
ENDBRANCH   5  13
TORSDOF 2
