REMARK  Name = ZINC000917254520
REMARK                            x       y       z     vdW  Elec       q    Type
REMARK                         _______ _______ _______ _____ _____    ______ ____
ROOT
ATOM      1  N   LIG    1       -4.202  -4.630   0.017  0.00  0.00    -0.350 N 
ATOM      2  C   LIG    1       -4.751  -5.487  -0.861  0.00  0.00    +0.530 A 
ATOM      3  N   LIG    1       -5.994  -5.690  -0.506  0.00  0.00    -0.490 NA
ATOM      4  C   LIG    1       -6.273  -4.983   0.587  0.00  0.00    +0.270 A 
ATOM      5  N   LIG    1       -5.205  -4.322   0.950  0.00  0.00    -0.220 NA
ENDROOT
BRANCH   4   6
ATOM      6  N   LIG    1       -7.579  -4.956   1.284  0.00  0.00    +0.060 N 
ATOM      7  O   LIG    1       -7.724  -4.271   2.280  0.00  0.00    -0.110 OA
ATOM      8  O   LIG    1       -8.509  -5.619   0.860  0.00  0.00    -0.090 OA
ENDBRANCH   4   6
BRANCH   1   9
ATOM      9  C   LIG    1       -2.827  -4.123   0.007  0.00  0.00    +0.340 C 
BRANCH   9  10
ATOM     10  C   LIG    1       -2.848  -2.593   0.015  0.00  0.00    +0.010 C 
BRANCH  10  11
ATOM     11  C   LIG    1       -1.413  -2.063   0.004  0.00  0.00    +0.020 C 
BRANCH  11  12
ATOM     12  C   LIG    1       -1.433  -0.534   0.013  0.00  0.00    +0.000 C 
BRANCH  12  14
ATOM     13  C   LIG    1       -0.019   1.526   0.010  0.00  0.00    +0.000 C 
ATOM     14  C   LIG    1        0.002  -0.004   0.002  0.00  0.00    -0.010 C 
ENDBRANCH  12  14
ENDBRANCH  11  12
ENDBRANCH  10  11
ENDBRANCH   9  10
ENDBRANCH   1   9
TORSDOF 6
