REMARK  Name = ZINC001330067831
REMARK                            x       y       z     vdW  Elec       q    Type
REMARK                         _______ _______ _______ _____ _____    ______ ____
ROOT
ATOM      1  C   LIG    1       -2.994   2.960   1.688  0.00  0.00    +0.170 A 
ATOM      2  N   LIG    1       -4.023   3.349   0.990  0.00  0.00    -0.260 NA
ATOM      3  N   LIG    1       -5.078   3.309   1.726  0.00  0.00    -0.280 NA
ATOM      4  C   LIG    1       -4.757   2.893   2.918  0.00  0.00    +0.220 A 
ATOM      5  O   LIG    1       -3.434   2.658   2.921  0.00  0.00    -0.210 OA
ENDROOT
BRANCH   1   8
ATOM      6  C   LIG    1       -1.293   1.929   0.019  0.00  0.00    +0.110 C 
ATOM      7  C   LIG    1       -1.256   3.446  -0.180  0.00  0.00    +0.200 C 
ATOM      8  C   LIG    1       -1.572   2.861   1.199  0.00  0.00    +0.130 C 
BRANCH   6  10
ATOM      9  O   LIG    1        0.002  -0.004   0.002  0.00  0.00    -0.150 OA
ATOM     10  N   LIG    1       -0.014   1.214   0.009  0.00  0.00    +0.010 N 
ATOM     11  O   LIG    1        1.032   1.837   0.002  0.00  0.00    -0.150 OA
ENDBRANCH   6  10
ENDBRANCH   1   8
BRANCH   4  12
ATOM     12  C   LIG    1       -5.698   2.704   4.080  0.00  0.00    +0.040 C 
ATOM     13  C   LIG    1       -7.131   3.217   3.919  0.00  0.00    +0.090 C 
ATOM     14  C   LIG    1       -6.850   1.713   3.903  0.00  0.00    +0.070 C 
ENDBRANCH   4  12
TORSDOF 3
