REMARK  Name = ZINC000095930353
REMARK                            x       y       z     vdW  Elec       q    Type
REMARK                         _______ _______ _______ _____ _____    ______ ____
ROOT
ATOM      1  C   LIG    1       -1.306   1.936   0.019  0.00  0.00    +0.030 A 
ATOM      2  C   LIG    1       -1.322   3.318   0.021  0.00  0.00    +0.020 A 
ATOM      3  C   LIG    1       -2.531   3.993   0.030  0.00  0.00    +0.170 A 
ATOM      4  C   LIG    1       -3.720   3.286   0.038  0.00  0.00    -0.170 A 
ATOM      5  C   LIG    1       -5.156   3.760   0.048  0.00  0.00    +0.110 C 
ATOM      6  C   LIG    1       -5.989   2.467   0.052  0.00  0.00    +0.270 C 
ATOM      7  N   LIG    1       -5.008   1.379   0.044  0.00  0.00    -0.730 N 
ATOM      8  H   LIG    1       -5.227   0.434   0.045  0.00  0.00    +0.420 HD
ATOM      9  C   LIG    1       -3.713   1.900   0.036  0.00  0.00    +0.230 A 
ATOM     10  F   LIG    1       -2.550   5.344   0.032  0.00  0.00    -0.120 F 
ATOM     11  C   LIG    1       -2.489   1.228   0.021  0.00  0.00    +0.030 A 
ENDROOT
BRANCH   1  13
ATOM     12  O   LIG    1        0.002  -0.004   0.002  0.00  0.00    -0.150 OA
ATOM     13  N   LIG    1       -0.014   1.214   0.009  0.00  0.00    +0.030 N 
ATOM     14  O   LIG    1        1.032   1.837   0.002  0.00  0.00    -0.150 OA
ENDBRANCH   1  13
TORSDOF 1
