REMARK  Name = ZINC000901472471
REMARK                            x       y       z     vdW  Elec       q    Type
REMARK                         _______ _______ _______ _____ _____    ______ ____
ROOT
ATOM      1  C   LIG    1       -2.566   5.194   2.276  0.00  0.00    -0.100 A 
ATOM      2  C   LIG    1       -1.347   5.284   2.937  0.00  0.00    +0.020 A 
ATOM      3  C   LIG    1       -1.150   6.261   3.893  0.00  0.00    +0.020 A 
ATOM      4  C   LIG    1       -2.169   7.154   4.192  0.00  0.00    +0.110 A 
ATOM      5  C   LIG    1       -3.386   7.066   3.533  0.00  0.00    +0.020 A 
ATOM      6  C   LIG    1       -3.583   6.092   2.574  0.00  0.00    +0.060 A 
ENDROOT
BRANCH   4   7
ATOM      7  O   LIG    1       -1.974   8.116   5.133  0.00  0.00    -0.500 OA
ATOM      8  H   LIG    1       -1.619   8.944   4.782  0.00  0.00    +0.390 HD
ENDBRANCH   4   7
BRANCH   1   9
ATOM      9  S   LIG    1       -2.818   3.948   1.057  0.00  0.00    -0.070 S 
BRANCH   9  10
ATOM     10  C   LIG    1       -1.235   3.063   1.045  0.00  0.00    +0.090 C 
BRANCH  10  11
ATOM     11  C   LIG    1       -1.293   1.929   0.019  0.00  0.00    +0.290 C 
BRANCH  11  13
ATOM     12  O   LIG    1        0.002  -0.004   0.002  0.00  0.00    -0.150 OA
ATOM     13  N   LIG    1       -0.014   1.214   0.009  0.00  0.00    -0.020 N 
ATOM     14  O   LIG    1        1.032   1.837   0.002  0.00  0.00    -0.150 OA
ENDBRANCH  11  13
ENDBRANCH  10  11
ENDBRANCH   9  10
ENDBRANCH   1   9
TORSDOF 5
