REMARK  Name = ZINC000905294679
REMARK                            x       y       z     vdW  Elec       q    Type
REMARK                         _______ _______ _______ _____ _____    ______ ____
ROOT
ATOM      1  C   LIG    1        0.606  -0.608  -1.056  0.00  0.00    +0.080 A 
ATOM      2  C   LIG    1        1.173   0.162  -2.062  0.00  0.00    -0.030 A 
ATOM      3  C   LIG    1        1.787  -0.451  -3.137  0.00  0.00    -0.030 A 
ATOM      4  C   LIG    1        1.837  -1.836  -3.211  0.00  0.00    +0.170 A 
ATOM      5  C   LIG    1        1.270  -2.605  -2.204  0.00  0.00    -0.020 A 
ATOM      6  C   LIG    1        0.660  -1.992  -1.127  0.00  0.00    +0.030 A 
ENDROOT
BRANCH   1   8
ATOM      7  C   LIG    1       -0.017   1.425   0.010  0.00  0.00    +0.230 C 
ATOM      8  O   LIG    1        0.002  -0.004   0.002  0.00  0.00    -0.320 OA
ENDBRANCH   1   8
BRANCH   4   9
ATOM      9  N   LIG    1        2.459  -2.457  -4.300  0.00  0.00    -0.750 N 
ATOM     10  H   LIG    1        2.856  -1.919  -5.003  0.00  0.00    +0.400 HD
BRANCH   9  11
ATOM     11  C   LIG    1        2.512  -3.919  -4.377  0.00  0.00    +0.290 C 
BRANCH  11  12
ATOM     12  C   LIG    1        3.241  -4.336  -5.656  0.00  0.00    +0.250 C 
BRANCH  12  13
ATOM     13  N   LIG    1        3.294  -5.798  -5.734  0.00  0.00    -0.020 N 
ATOM     14  O   LIG    1        4.332  -6.354  -6.045  0.00  0.00    -0.150 OA
ATOM     15  O   LIG    1        2.300  -6.457  -5.487  0.00  0.00    -0.150 OA
ENDBRANCH  12  13
ENDBRANCH  11  12
ENDBRANCH   9  11
ENDBRANCH   4   9
TORSDOF 5
