REMARK  Name = ZINC000238532787
REMARK                            x       y       z     vdW  Elec       q    Type
REMARK                         _______ _______ _______ _____ _____    ______ ____
ROOT
ATOM      1  C   LIG    1       -1.715   0.885   0.392  0.00  0.00    +0.140 C 
ATOM      2  C   LIG    1       -0.809  -0.301   0.185  0.00  0.00    +0.030 A 
ATOM      3  C   LIG    1       -0.890  -1.046  -0.992  0.00  0.00    -0.110 A 
ATOM      4  C   LIG    1       -0.047  -2.143  -1.176  0.00  0.00    +0.090 A 
ATOM      5  C   LIG    1        0.862  -2.484  -0.194  0.00  0.00    +0.100 A 
ATOM      6  C   LIG    1        0.937  -1.739   0.972  0.00  0.00    +0.100 A 
ATOM      7  F   LIG    1        1.680  -3.545  -0.370  0.00  0.00    -0.110 F 
ATOM      8  C   LIG    1        0.107  -0.648   1.157  0.00  0.00    -0.020 A 
ENDROOT
BRANCH   3   9
ATOM      9  C   LIG    1       -1.866  -0.675  -2.039  0.00  0.00    +0.570 C 
ATOM     10  O   LIG    1       -2.520   0.343  -1.927  0.00  0.00    -0.510 OA
ATOM     11  N   LIG    1       -2.030  -1.467  -3.117  0.00  0.00    -0.840 N 
ATOM     12  H   LIG    1       -2.671  -1.223  -3.804  0.00  0.00    +0.410 HD
ATOM     13  H   LIG    1       -1.509  -2.280  -3.207  0.00  0.00    +0.400 HD
ENDBRANCH   3   9
BRANCH   8  14
ATOM     14  N   LIG    1        0.195   0.143   2.405  0.00  0.00    +0.020 N 
ATOM     15  O   LIG    1        0.065   1.353   2.370  0.00  0.00    -0.130 OA
ATOM     16  O   LIG    1        0.397  -0.417   3.468  0.00  0.00    -0.140 OA
ENDBRANCH   8  14
TORSDOF 2
