REMARK  Name = ZINC000088189762
REMARK                            x       y       z     vdW  Elec       q    Type
REMARK                         _______ _______ _______ _____ _____    ______ ____
ROOT
ATOM      1  C   LIG    1       -0.539   1.446   0.087  0.00  0.00    +0.150 C 
ATOM      2  C   LIG    1       -0.247  -0.032   0.039  0.00  0.00    +0.020 A 
ATOM      3  C   LIG    1       -0.348  -0.727  -1.170  0.00  0.00    -0.160 A 
ATOM      4  C   LIG    1       -0.075  -2.098  -1.206  0.00  0.00    +0.120 A 
ATOM      5  C   LIG    1        0.292  -2.755  -0.048  0.00  0.00    +0.100 A 
ATOM      6  C   LIG    1        0.391  -2.057   1.146  0.00  0.00    +0.110 A 
ATOM      7  F   LIG    1        0.556  -4.079  -0.079  0.00  0.00    -0.120 F 
ATOM      8  C   LIG    1        0.127  -0.700   1.186  0.00  0.00    -0.030 A 
ENDROOT
BRANCH   8   9
ATOM      9  N   LIG    1        0.235   0.036   2.466  0.00  0.00    +0.020 N 
ATOM     10  O   LIG    1       -0.112  -0.496   3.505  0.00  0.00    -0.140 OA
ATOM     11  O   LIG    1        0.673   1.172   2.480  0.00  0.00    -0.130 OA
ENDBRANCH   8   9
BRANCH   3  12
ATOM     12  C   LIG    1       -0.741  -0.019  -2.399  0.00  0.00    +0.510 C 
ATOM     13  O   LIG    1       -0.828  -0.624  -3.446  0.00  0.00    -0.440 OA
ENDBRANCH   3  12
TORSDOF 2
