REMARK  Name = ZINC000306404685
REMARK                            x       y       z     vdW  Elec       q    Type
REMARK                         _______ _______ _______ _____ _____    ______ ____
ROOT
ATOM      1  C   LIG    1       -2.212  -0.408  -1.160  0.00  0.00    +0.480 A 
ATOM      2  N   LIG    1       -1.667   0.011  -2.292  0.00  0.00    -0.530 NA
ATOM      3  C   LIG    1       -2.167  -0.324  -3.466  0.00  0.00    +0.390 A 
ATOM      4  C   LIG    1       -3.285  -1.128  -3.556  0.00  0.00    -0.080 A 
ATOM      5  C   LIG    1       -3.887  -1.589  -2.392  0.00  0.00    +0.200 A 
ATOM      6  C   LIG    1       -3.337  -1.226  -1.176  0.00  0.00    -0.190 A 
ENDROOT
BRANCH   6   7
ATOM      7  N   LIG    1       -3.893  -1.653  -0.017  0.00  0.00    +0.080 N 
ATOM      8  O   LIG    1       -5.104  -1.719   0.090  0.00  0.00    -0.170 OA
ATOM      9  O   LIG    1       -3.181  -1.971   0.919  0.00  0.00    -0.200 OA
ENDBRANCH   6   7
BRANCH   1  10
ATOM     10  N   LIG    1       -1.651  -0.032   0.055  0.00  0.00    -0.690 N 
ATOM     11  H   LIG    1       -2.090  -0.272   0.887  0.00  0.00    +0.420 HD
BRANCH  10  13
ATOM     12  C   LIG    1       -0.704   2.219  -0.074  0.00  0.00    +0.050 C 
ATOM     13  C   LIG    1       -0.399   0.728   0.080  0.00  0.00    +0.230 C 
BRANCH  13  14
ATOM     14  C   LIG    1        0.316   0.489   1.411  0.00  0.00    +0.230 C 
ATOM     15  F   LIG    1        0.595  -0.875   1.552  0.00  0.00    -0.210 F 
ENDBRANCH  13  14
ENDBRANCH  10  13
ENDBRANCH   1  10
TORSDOF 4
