REMARK  Name = ZINC000005329725
REMARK                            x       y       z     vdW  Elec       q    Type
REMARK                         _______ _______ _______ _____ _____    ______ ____
ROOT
ATOM      1  C   LIG    1        0.626  -0.619   1.042  0.00  0.00    +0.070 A 
ATOM      2  C   LIG    1        1.206   0.129   2.057  0.00  0.00    +0.100 A 
ATOM      3  C   LIG    1        1.831  -0.542   3.099  0.00  0.00    -0.100 A 
ATOM      4  C   LIG    1        1.858  -1.922   3.094  0.00  0.00    +0.380 A 
ATOM      5  N   LIG    1        1.299  -2.609   2.115  0.00  0.00    -0.490 NA
ATOM      6  C   LIG    1        0.688  -2.010   1.108  0.00  0.00    +0.360 A 
ENDROOT
BRANCH   3   7
ATOM      7  N   LIG    1        2.463   0.214   4.203  0.00  0.00    +0.040 N 
ATOM      8  O   LIG    1        3.010  -0.381   5.114  0.00  0.00    -0.150 OA
ATOM      9  O   LIG    1        2.435   1.432   4.201  0.00  0.00    -0.160 OA
ENDBRANCH   3   7
BRANCH   1  11
ATOM     10  C   LIG    1       -0.017   1.425   0.010  0.00  0.00    +0.250 C 
ATOM     11  O   LIG    1        0.002  -0.004   0.002  0.00  0.00    -0.290 OA
ENDBRANCH   1  11
BRANCH   6  12
ATOM     12  O   LIG    1        0.126  -2.756   0.122  0.00  0.00    -0.280 OA
ATOM     13  C   LIG    1        0.233  -4.176   0.242  0.00  0.00    +0.280 C 
ENDBRANCH   6  12
TORSDOF 3
