REMARK  Name = ZINC000075824910
REMARK                            x       y       z     vdW  Elec       q    Type
REMARK                         _______ _______ _______ _____ _____    ______ ____
ROOT
ATOM      1  C   LIG    1       -1.607  -1.877   0.007  0.00  0.00    +0.340 A 
ATOM      2  N   LIG    1       -0.685  -2.789  -0.001  0.00  0.00    -0.540 NA
ATOM      3  C   LIG    1       -1.090  -4.047  -0.004  0.00  0.00    +0.410 A 
ATOM      4  C   LIG    1       -2.414  -4.204   0.002  0.00  0.00    -0.270 A 
ATOM      5  S   LIG    1       -3.154  -2.605   0.018  0.00  0.00    +0.230 S 
ENDROOT
BRANCH   4   6
ATOM      6  N   LIG    1       -3.136  -5.496   0.001  0.00  0.00    +0.080 N 
ATOM      7  O   LIG    1       -4.354  -5.513   0.006  0.00  0.00    -0.170 OA
ATOM      8  O   LIG    1       -2.513  -6.542  -0.006  0.00  0.00    -0.150 OA
ENDBRANCH   4   6
BRANCH   1   9
ATOM      9  N   LIG    1       -1.372  -0.511   0.012  0.00  0.00    -0.670 N 
ATOM     10  H   LIG    1       -2.118   0.109   0.023  0.00  0.00    +0.420 HD
BRANCH   9  12
ATOM     11  C   LIG    1       -0.019   1.526   0.010  0.00  0.00    +0.050 C 
ATOM     12  C   LIG    1        0.002  -0.004   0.002  0.00  0.00    +0.280 C 
ENDBRANCH   9  12
ENDBRANCH   1   9
TORSDOF 3
