REMARK  Name = ZINC000228886868
REMARK                            x       y       z     vdW  Elec       q    Type
REMARK                         _______ _______ _______ _____ _____    ______ ____
ROOT
ATOM      1  C   LIG    1       -0.692  -1.172   0.454  0.00  0.00    +0.340 C 
ATOM      2  N   LIG    1        0.761  -1.153   0.637  0.00  0.00    -0.480 N 
ATOM      3  C   LIG    1        1.692  -1.642  -0.229  0.00  0.00    +0.460 A 
ATOM      4  N   LIG    1        2.878  -1.444   0.277  0.00  0.00    -0.440 NA
ATOM      5  C   LIG    1        2.759  -0.832   1.466  0.00  0.00    +0.060 A 
ATOM      6  C   LIG    1        1.441  -0.635   1.708  0.00  0.00    +0.260 A 
ENDROOT
BRANCH   5   7
ATOM      7  N   LIG    1        3.874  -0.435   2.355  0.00  0.00    +0.070 N 
ATOM      8  O   LIG    1        3.641   0.118   3.415  0.00  0.00    -0.130 OA
ATOM      9  O   LIG    1        5.025  -0.662   2.027  0.00  0.00    -0.150 OA
ENDBRANCH   5   7
BRANCH   6  10
ATOM     10  N   LIG    1        0.882  -0.029   2.834  0.00  0.00    -0.550 N 
ATOM     11  H   LIG    1        0.335  -0.690   3.366  0.00  0.00    +0.370 HD
BRANCH  10  12
ATOM     12  C   LIG    1        0.076   1.140   2.459  0.00  0.00    +0.030 C 
ATOM     13  C   LIG    1       -1.432   1.068   2.708  0.00  0.00    -0.010 C 
ATOM     14  C   LIG    1        0.552   1.899   1.218  0.00  0.00    +0.080 C 
ATOM     15  C   LIG    1       -0.552   1.958   3.589  0.00  0.00    +0.080 C 
ENDBRANCH  10  12
ENDBRANCH   6  10
TORSDOF 3
