REMARK  Name = ZINC000780662638
REMARK                            x       y       z     vdW  Elec       q    Type
REMARK                         _______ _______ _______ _____ _____    ______ ____
ROOT
ATOM      1  C   LIG    1        2.204  -2.229  -1.443  0.00  0.00    +0.130 A 
ATOM      2  C   LIG    1        2.594  -3.208  -2.348  0.00  0.00    +0.020 A 
ATOM      3  C   LIG    1        3.931  -3.528  -2.483  0.00  0.00    +0.090 A 
ATOM      4  C   LIG    1        4.880  -2.875  -1.718  0.00  0.00    +0.040 A 
ATOM      5  C   LIG    1        4.495  -1.899  -0.817  0.00  0.00    +0.110 A 
ATOM      6  C   LIG    1        3.161  -1.571  -0.681  0.00  0.00    -0.020 A 
ENDROOT
BRANCH   6   7
ATOM      7  N   LIG    1        2.749  -0.527   0.284  0.00  0.00    +0.020 N 
ATOM      8  O   LIG    1        1.586  -0.168   0.334  0.00  0.00    -0.110 OA
ATOM      9  O   LIG    1        3.573  -0.027   1.029  0.00  0.00    -0.180 OA
ENDBRANCH   6   7
BRANCH   1  10
ATOM     10  N   LIG    1        0.853  -1.903  -1.305  0.00  0.00    -0.330 N 
ATOM     11  C   LIG    1        0.095  -3.029  -0.743  0.00  0.00    +0.250 C 
BRANCH  10  12
ATOM     12  O   LIG    1        0.284  -1.474  -2.582  0.00  0.00    -0.250 OA
BRANCH  12  14
ATOM     13  C   LIG    1       -0.600   0.264  -4.011  0.00  0.00    +0.050 C 
ATOM     14  C   LIG    1       -0.139  -0.108  -2.601  0.00  0.00    +0.180 C 
ENDBRANCH  12  14
ENDBRANCH  10  12
ENDBRANCH   1  10
TORSDOF 4
