REMARK  Name = ZINC000052211334
REMARK                            x       y       z     vdW  Elec       q    Type
REMARK                         _______ _______ _______ _____ _____    ______ ____
ROOT
ATOM      1  C   LIG    1       -1.306   1.936   0.019  0.00  0.00    -0.170 A 
ATOM      2  C   LIG    1       -1.333   3.324   0.021  0.00  0.00    +0.190 A 
ATOM      3  C   LIG    1       -2.561   3.961   0.030  0.00  0.00    -0.080 A 
ATOM      4  C   LIG    1       -3.721   3.193   0.036  0.00  0.00    +0.450 A 
ATOM      5  N   LIG    1       -3.654   1.870   0.034  0.00  0.00    -0.530 NA
ATOM      6  C   LIG    1       -2.496   1.237   0.021  0.00  0.00    +0.430 A 
ENDROOT
BRANCH   1   8
ATOM      7  O   LIG    1        0.002  -0.004   0.002  0.00  0.00    -0.170 OA
ATOM      8  N   LIG    1       -0.014   1.214   0.009  0.00  0.00    +0.040 N 
ATOM      9  O   LIG    1        1.032   1.837   0.002  0.00  0.00    -0.170 OA
ENDBRANCH   1   8
BRANCH   4  10
ATOM     10  N   LIG    1       -4.962   3.819   0.045  0.00  0.00    -0.680 N 
ATOM     11  H   LIG    1       -5.774   3.288   0.050  0.00  0.00    +0.410 HD
BRANCH  10  12
ATOM     12  C   LIG    1       -5.044   5.282   0.047  0.00  0.00    +0.210 C 
ATOM     13  C   LIG    1       -5.511   5.875  -1.293  0.00  0.00    +0.010 C 
ATOM     14  C   LIG    1       -6.948   5.740  -0.763  0.00  0.00    +0.020 C 
ATOM     15  C   LIG    1       -6.350   5.825   0.651  0.00  0.00    +0.030 C 
ENDBRANCH  10  12
ENDBRANCH   4  10
TORSDOF 3
