REMARK  Name = ZINC000039051762
REMARK                            x       y       z     vdW  Elec       q    Type
REMARK                         _______ _______ _______ _____ _____    ______ ____
ROOT
ATOM      1  C   LIG    1        1.292  -0.725  -0.014  0.00  0.00    +0.210 A 
ATOM      2  C   LIG    1        1.304  -2.120  -0.028  0.00  0.00    +0.000 A 
ATOM      3  C   LIG    1        2.520  -2.781  -0.043  0.00  0.00    +0.160 A 
ATOM      4  C   LIG    1        3.685  -2.026  -0.045  0.00  0.00    -0.110 A 
ATOM      5  C   LIG    1        3.599  -0.646  -0.031  0.00  0.00    +0.380 A 
ATOM      6  N   LIG    1        2.430  -0.041  -0.021  0.00  0.00    -0.470 NA
ENDROOT
BRANCH   4   7
ATOM      7  N   LIG    1        5.006  -2.693  -0.062  0.00  0.00    +0.030 N 
ATOM      8  O   LIG    1        6.025  -2.025  -0.063  0.00  0.00    -0.150 OA
ATOM      9  O   LIG    1        5.075  -3.909  -0.074  0.00  0.00    -0.160 OA
ENDBRANCH   4   7
BRANCH   1  11
ATOM     10  C   LIG    1       -0.016   1.322   0.009  0.00  0.00    +0.140 C 
ATOM     11  C   LIG    1        0.002  -0.004   0.002  0.00  0.00    -0.020 C 
ENDBRANCH   1  11
TORSDOF 2
