REMARK  Name = ZINC000918369041
REMARK                            x       y       z     vdW  Elec       q    Type
REMARK                         _______ _______ _______ _____ _____    ______ ____
ROOT
ATOM      1  N   LIG    1        1.639  -2.482  -2.350  0.00  0.00    -0.410 N 
ATOM      2  C   LIG    1        1.149  -2.923  -3.550  0.00  0.00    +0.220 A 
ATOM      3  C   LIG    1        2.212  -3.246  -4.310  0.00  0.00    +0.190 A 
ATOM      4  N   LIG    1        3.321  -3.010  -3.594  0.00  0.00    -0.400 NA
ATOM      5  C   LIG    1        2.986  -2.548  -2.420  0.00  0.00    +0.230 A 
ENDROOT
BRANCH   5   6
ATOM      6  N   LIG    1        3.925  -2.166  -1.342  0.00  0.00    +0.070 N 
ATOM      7  O   LIG    1        3.498  -1.744  -0.283  0.00  0.00    -0.150 OA
ATOM      8  O   LIG    1        5.126  -2.274  -1.514  0.00  0.00    -0.100 OA
ENDBRANCH   5   6
BRANCH   1   9
ATOM      9  C   LIG    1        0.849  -2.021  -1.205  0.00  0.00    +0.310 C 
BRANCH   9  10
ATOM     10  C   LIG    1        0.718  -0.497  -1.257  0.00  0.00    -0.020 C 
ATOM     11  C   LIG    1       -0.089  -0.097  -2.493  0.00  0.00    +0.020 C 
BRANCH  10  13
ATOM     12  C   LIG    1       -0.019   1.526   0.010  0.00  0.00    +0.030 C 
ATOM     13  C   LIG    1        0.002  -0.004   0.002  0.00  0.00    +0.030 C 
ENDBRANCH  10  13
ENDBRANCH   9  10
ENDBRANCH   1   9
TORSDOF 4
