REMARK  Name = ZINC000087775042
REMARK                            x       y       z     vdW  Elec       q    Type
REMARK                         _______ _______ _______ _____ _____    ______ ____
ROOT
ATOM      1  C   LIG    1       -1.306   1.936   0.019  0.00  0.00    -0.040 A 
ATOM      2  C   LIG    1       -2.494   1.229   0.026  0.00  0.00    +0.100 A 
ATOM      3  C   LIG    1       -3.700   1.904   0.036  0.00  0.00    +0.030 A 
ATOM      4  C   LIG    1       -3.719   3.286   0.038  0.00  0.00    +0.090 A 
ATOM      5  C   LIG    1       -2.531   3.994   0.031  0.00  0.00    +0.050 A 
ATOM      6  C   LIG    1       -1.325   3.319   0.026  0.00  0.00    -0.020 A 
ENDROOT
BRANCH   1   8
ATOM      7  O   LIG    1        0.002  -0.004   0.002  0.00  0.00    -0.150 OA
ATOM      8  N   LIG    1       -0.014   1.214   0.009  0.00  0.00    +0.030 N 
ATOM      9  O   LIG    1        1.032   1.837   0.002  0.00  0.00    -0.170 OA
ENDBRANCH   1   8
BRANCH   6  10
ATOM     10  C   LIG    1       -0.030   4.090   0.019  0.00  0.00    +0.250 C 
BRANCH  10  11
ATOM     11  N   LIG    1        0.507   4.132  -1.347  0.00  0.00    -0.670 NA
ATOM     12  H   LIG    1        0.622   3.202  -1.720  0.00  0.00    +0.340 HD
BRANCH  11  13
ATOM     13  C   LIG    1        1.772   4.878  -1.393  0.00  0.00    +0.170 C 
BRANCH  13  14
ATOM     14  C   LIG    1        2.299   4.900  -2.829  0.00  0.00    +0.210 C 
ATOM     15  F   LIG    1        3.504   5.610  -2.873  0.00  0.00    -0.210 F 
ENDBRANCH  13  14
ENDBRANCH  11  13
ENDBRANCH  10  11
ENDBRANCH   6  10
TORSDOF 5
