REMARK  Name = ZINC000916731299
REMARK                            x       y       z     vdW  Elec       q    Type
REMARK                         _______ _______ _______ _____ _____    ______ ____
ROOT
ATOM      1  N   LIG    1        2.330  -3.925  -2.008  0.00  0.00    -0.340 N 
ATOM      2  C   LIG    1        2.497  -4.770  -3.040  0.00  0.00    +0.540 A 
ATOM      3  N   LIG    1        2.531  -5.989  -2.565  0.00  0.00    -0.490 NA
ATOM      4  C   LIG    1        2.389  -5.962  -1.240  0.00  0.00    +0.270 A 
ATOM      5  N   LIG    1        2.269  -4.720  -0.852  0.00  0.00    -0.220 NA
ENDROOT
BRANCH   4   6
ATOM      6  N   LIG    1        2.378  -7.146  -0.352  0.00  0.00    +0.060 N 
ATOM      7  O   LIG    1        2.242  -7.004   0.850  0.00  0.00    -0.110 OA
ATOM      8  O   LIG    1        2.505  -8.262  -0.823  0.00  0.00    -0.090 OA
ENDBRANCH   4   6
BRANCH   1   9
ATOM      9  C   LIG    1        2.236  -2.465  -2.076  0.00  0.00    +0.380 C 
BRANCH   9  12
ATOM     10  C   LIG    1        0.718  -0.497  -1.257  0.00  0.00    -0.020 C 
ATOM     11  C   LIG    1       -0.102  -1.305  -2.265  0.00  0.00    +0.030 C 
ATOM     12  C   LIG    1        0.946  -2.004  -1.395  0.00  0.00    -0.060 C 
BRANCH  10  14
ATOM     13  C   LIG    1       -0.019   1.526   0.010  0.00  0.00    +0.030 C 
ATOM     14  C   LIG    1        0.002  -0.004   0.002  0.00  0.00    +0.040 C 
ENDBRANCH  10  14
ENDBRANCH   9  12
ENDBRANCH   1   9
TORSDOF 4
