REMARK  Name = ZINC000334434032
REMARK                            x       y       z     vdW  Elec       q    Type
REMARK                         _______ _______ _______ _____ _____    ______ ____
ROOT
ATOM      1  C   LIG    1        1.246   1.963   0.001  0.00  0.00    +0.010 A 
ATOM      2  C   LIG    1        2.500   1.425  -0.020  0.00  0.00    +0.060 A 
ATOM      3  C   LIG    1        3.401   2.501  -0.021  0.00  0.00    +0.110 A 
ATOM      4  C   LIG    1        2.667   3.635  -0.002  0.00  0.00    +0.030 A 
ATOM      5  O   LIG    1        1.368   3.307   0.006  0.00  0.00    -0.130 OA
ENDROOT
BRANCH   1   7
ATOM      6  O   LIG    1        0.002  -0.004   0.002  0.00  0.00    -0.500 OA
ATOM      7  C   LIG    1       -0.014   1.213   0.009  0.00  0.00    +0.630 C 
ATOM      8  N   LIG    1       -1.191   1.871   0.018  0.00  0.00    -0.640 N 
ATOM      9  C   LIG    1       -1.617   3.278   0.021  0.00  0.00    +0.280 C 
ATOM     10  C   LIG    1       -2.903   2.831   0.730  0.00  0.00    +0.050 C 
ATOM     11  C   LIG    1       -2.613   1.497   0.023  0.00  0.00    +0.300 C 
ENDBRANCH   1   7
BRANCH   4  12
ATOM     12  N   LIG    1        3.208   5.013   0.003  0.00  0.00    +0.060 N 
ATOM     13  O   LIG    1        2.449   5.965   0.021  0.00  0.00    -0.120 OA
ATOM     14  O   LIG    1        4.412   5.194  -0.011  0.00  0.00    -0.110 OA
ENDBRANCH   4  12
TORSDOF 2
