REMARK  Name = ZINC000918386806
REMARK                            x       y       z     vdW  Elec       q    Type
REMARK                         _______ _______ _______ _____ _____    ______ ____
ROOT
ATOM      1  N   LIG    1       -2.034  -3.792  -0.879  0.00  0.00    -0.400 N 
ATOM      2  C   LIG    1       -0.809  -4.388  -1.019  0.00  0.00    +0.220 A 
ATOM      3  C   LIG    1       -1.034  -5.636  -1.473  0.00  0.00    +0.200 A 
ATOM      4  N   LIG    1       -2.358  -5.798  -1.606  0.00  0.00    -0.400 NA
ATOM      5  C   LIG    1       -2.964  -4.699  -1.248  0.00  0.00    +0.230 A 
ENDROOT
BRANCH   1   8
ATOM      6  C   LIG    1       -1.295  -0.603   0.011  0.00  0.00    +0.170 C 
ATOM      7  C   LIG    1       -1.641  -1.344  -1.291  0.00  0.00    +0.030 C 
ATOM      8  C   LIG    1       -2.287  -2.427  -0.411  0.00  0.00    +0.240 C 
ATOM      9  C   LIG    1       -1.337  -1.973   0.709  0.00  0.00    +0.050 C 
BRANCH   6  11
ATOM     10  C   LIG    1       -0.017   1.425   0.010  0.00  0.00    +0.220 C 
ATOM     11  O   LIG    1        0.002  -0.004   0.002  0.00  0.00    -0.370 OA
ENDBRANCH   6  11
ENDBRANCH   1   8
BRANCH   5  12
ATOM     12  N   LIG    1       -4.428  -4.479  -1.252  0.00  0.00    +0.070 N 
ATOM     13  O   LIG    1       -4.885  -3.408  -0.895  0.00  0.00    -0.160 OA
ATOM     14  O   LIG    1       -5.176  -5.370  -1.613  0.00  0.00    -0.090 OA
ENDBRANCH   5  12
TORSDOF 3
