REMARK  Name = ZINC000306174714
REMARK                            x       y       z     vdW  Elec       q    Type
REMARK                         _______ _______ _______ _____ _____    ______ ____
ROOT
ATOM      1  C   LIG    1       -1.308   1.937   0.019  0.00  0.00    -0.230 A 
ATOM      2  C   LIG    1       -2.509   1.360   0.027  0.00  0.00    +0.200 A 
ATOM      3  C   LIG    1       -3.580   2.239   0.036  0.00  0.00    -0.110 A 
ATOM      4  C   LIG    1       -3.241   3.537   0.035  0.00  0.00    +0.160 A 
ATOM      5  S   LIG    1       -1.489   3.686   0.030  0.00  0.00    +0.230 S 
ENDROOT
BRANCH   1   7
ATOM      6  O   LIG    1        0.002  -0.004   0.002  0.00  0.00    -0.160 OA
ATOM      7  N   LIG    1       -0.014   1.214   0.009  0.00  0.00    +0.070 N 
ATOM      8  O   LIG    1        1.032   1.837   0.002  0.00  0.00    -0.170 OA
ENDBRANCH   1   7
BRANCH   4   9
ATOM      9  N   LIG    1       -4.141   4.604   0.044  0.00  0.00    -0.690 N 
ATOM     10  H   LIG    1       -5.095   4.434   0.051  0.00  0.00    +0.420 HD
BRANCH   9  11
ATOM     11  C   LIG    1       -3.642   5.982   0.043  0.00  0.00    +0.280 C 
BRANCH  11  12
ATOM     12  C   LIG    1       -4.825   6.952   0.053  0.00  0.00    +0.200 C 
BRANCH  12  13
ATOM     13  O   LIG    1       -5.545   6.812   1.280  0.00  0.00    -0.570 OA
ATOM     14  H   LIG    1       -6.310   7.398   1.356  0.00  0.00    +0.390 HD
ENDBRANCH  12  13
ENDBRANCH  11  12
ENDBRANCH   9  11
ENDBRANCH   4   9
TORSDOF 5
