REMARK  Name = ZINC000590702759
REMARK                            x       y       z     vdW  Elec       q    Type
REMARK                         _______ _______ _______ _____ _____    ______ ____
ROOT
ATOM      1  C   LIG    1       -2.076  -0.647  -1.187  0.00  0.00    +0.220 A 
ATOM      2  C   LIG    1       -3.385  -1.123  -1.188  0.00  0.00    +0.000 A 
ATOM      3  C   LIG    1       -4.041  -1.240  -2.403  0.00  0.00    +0.130 A 
ATOM      4  C   LIG    1       -3.381  -0.884  -3.564  0.00  0.00    +0.100 A 
ATOM      5  N   LIG    1       -2.141  -0.437  -3.529  0.00  0.00    -0.390 NA
ATOM      6  C   LIG    1       -1.482  -0.305  -2.395  0.00  0.00    +0.230 A 
ENDROOT
BRANCH   4   7
ATOM      7  N   LIG    1       -4.076  -1.007  -4.865  0.00  0.00    +0.040 N 
ATOM      8  O   LIG    1       -3.502  -0.696  -5.894  0.00  0.00    -0.130 OA
ATOM      9  O   LIG    1       -5.221  -1.419  -4.907  0.00  0.00    -0.170 OA
ENDBRANCH   4   7
BRANCH   1  10
ATOM     10  N   LIG    1       -1.372  -0.511   0.012  0.00  0.00    -0.710 N 
ATOM     11  H   LIG    1       -1.794  -0.752   0.852  0.00  0.00    +0.410 HD
BRANCH  10  13
ATOM     12  C   LIG    1       -0.019   1.526   0.010  0.00  0.00    +0.050 C 
ATOM     13  C   LIG    1        0.002  -0.004   0.002  0.00  0.00    +0.210 C 
BRANCH  13  14
ATOM     14  C   LIG    1        0.742  -0.511   1.242  0.00  0.00    +0.230 C 
ATOM     15  F   LIG    1        0.761  -1.910   1.234  0.00  0.00    -0.210 F 
ENDBRANCH  13  14
ENDBRANCH  10  13
ENDBRANCH   1  10
TORSDOF 4
