REMARK  Name = ZINC000125054118
REMARK                            x       y       z     vdW  Elec       q    Type
REMARK                         _______ _______ _______ _____ _____    ______ ____
ROOT
ATOM      1  C   LIG    1       -0.018   1.503   0.010  0.00  0.00    +0.120 C 
ATOM      2  C   LIG    1        0.002  -0.004   0.002  0.00  0.00    -0.080 A 
ATOM      3  C   LIG    1        0.006  -0.686  -1.197  0.00  0.00    +0.150 A 
ATOM      4  C   LIG    1        0.025  -2.082  -1.203  0.00  0.00    -0.130 A 
ATOM      5  C   LIG    1        0.040  -2.778   0.006  0.00  0.00    +0.130 A 
ATOM      6  C   LIG    1        0.036  -2.084   1.199  0.00  0.00    -0.040 A 
ATOM      7  C   LIG    1        0.023  -0.701   1.197  0.00  0.00    +0.130 A 
ENDROOT
BRANCH   4   8
ATOM      8  C   LIG    1        0.029  -2.818  -2.485  0.00  0.00    +0.570 C 
ATOM      9  O   LIG    1        0.016  -2.209  -3.536  0.00  0.00    -0.530 OA
ATOM     10  N   LIG    1        0.047  -4.166  -2.487  0.00  0.00    -0.850 N 
ATOM     11  H   LIG    1        0.050  -4.650  -3.328  0.00  0.00    +0.410 HD
ATOM     12  H   LIG    1        0.058  -4.652  -1.648  0.00  0.00    +0.400 HD
ENDBRANCH   4   8
BRANCH   6  13
ATOM     13  N   LIG    1        0.052  -2.821   2.482  0.00  0.00    +0.030 N 
ATOM     14  O   LIG    1        0.049  -2.210   3.536  0.00  0.00    -0.150 OA
ATOM     15  O   LIG    1        0.069  -4.039   2.485  0.00  0.00    -0.150 OA
ENDBRANCH   6  13
TORSDOF 2
