REMARK  Name = ZINC001117795390
REMARK                            x       y       z     vdW  Elec       q    Type
REMARK                         _______ _______ _______ _____ _____    ______ ____
ROOT
ATOM      1  C   LIG    1       -0.530   1.447   0.084  0.00  0.00    +0.180 C 
ATOM      2  C   LIG    1       -0.241  -0.031   0.037  0.00  0.00    +0.300 A 
ATOM      3  N   LIG    1       -0.329  -0.695  -1.103  0.00  0.00    -0.560 NA
ATOM      4  C   LIG    1       -0.076  -1.994  -1.152  0.00  0.00    +0.600 A 
ATOM      5  N   LIG    1        0.272  -2.674  -0.070  0.00  0.00    -0.550 NA
ATOM      6  C   LIG    1        0.379  -2.071   1.103  0.00  0.00    +0.460 A 
ATOM      7  C   LIG    1        0.127  -0.711   1.188  0.00  0.00    -0.220 A 
ENDROOT
BRANCH   7   8
ATOM      8  N   LIG    1        0.237  -0.001   2.483  0.00  0.00    +0.040 N 
ATOM      9  O   LIG    1       -0.113  -0.553   3.511  0.00  0.00    -0.150 OA
ATOM     10  O   LIG    1        0.677   1.134   2.520  0.00  0.00    -0.150 OA
ENDBRANCH   7   8
BRANCH   4  11
ATOM     11  N   LIG    1       -0.178  -2.658  -2.363  0.00  0.00    -0.650 N 
ATOM     12  H   LIG    1       -0.432  -2.171  -3.162  0.00  0.00    +0.420 HD
BRANCH  11  13
ATOM     13  C   LIG    1        0.098  -4.094  -2.436  0.00  0.00    +0.230 C 
ATOM     14  C   LIG    1       -0.861  -4.957  -3.260  0.00  0.00    +0.020 C 
ATOM     15  C   LIG    1        0.545  -4.660  -3.786  0.00  0.00    +0.030 C 
ENDBRANCH  11  13
ENDBRANCH   4  11
TORSDOF 3
