REMARK  Name = ZINC000014985689
REMARK                            x       y       z     vdW  Elec       q    Type
REMARK                         _______ _______ _______ _____ _____    ______ ____
ROOT
ATOM      1  C   LIG    1       -1.306   1.936   0.019  0.00  0.00    +0.170 A 
ATOM      2  N   LIG    1       -1.307   3.259   0.021  0.00  0.00    -0.460 NA
ATOM      3  C   LIG    1       -2.421   3.961   0.029  0.00  0.00    +0.370 A 
ATOM      4  C   LIG    1       -3.655   3.314   0.038  0.00  0.00    -0.130 A 
ATOM      5  C   LIG    1       -5.051   3.752   0.049  0.00  0.00    -0.010 A 
ATOM      6  C   LIG    1       -5.809   2.644   0.053  0.00  0.00    +0.270 A 
ATOM      7  N   LIG    1       -5.010   1.532   0.045  0.00  0.00    -0.570 N 
ATOM      8  H   LIG    1       -5.331   0.616   0.046  0.00  0.00    +0.430 HD
ATOM      9  C   LIG    1       -3.691   1.904   0.036  0.00  0.00    +0.120 A 
ATOM     10  C   LIG    1       -2.480   1.216   0.020  0.00  0.00    +0.070 A 
ENDROOT
BRANCH   1  12
ATOM     11  O   LIG    1        0.002  -0.004   0.002  0.00  0.00    -0.160 OA
ATOM     12  N   LIG    1       -0.014   1.214   0.009  0.00  0.00    +0.030 N 
ATOM     13  O   LIG    1        1.032   1.837   0.002  0.00  0.00    -0.110 OA
ENDBRANCH   1  12
TORSDOF 1
