REMARK  Name = ZINC000019480356
REMARK                            x       y       z     vdW  Elec       q    Type
REMARK                         _______ _______ _______ _____ _____    ______ ____
ROOT
ATOM      1  C   LIG    1        0.002  -0.004   0.002  0.00  0.00    +0.300 A 
ATOM      2  N   LIG    1       -1.066  -0.797   0.002  0.00  0.00    -0.310 NA
ATOM      3  N   LIG    1       -0.729  -2.036  -0.006  0.00  0.00    -0.350 N 
ATOM      4  H   LIG    1       -1.344  -2.786  -0.008  0.00  0.00    +0.450 HD
ATOM      5  C   LIG    1        0.656  -2.133  -0.013  0.00  0.00    +0.050 A 
ATOM      6  C   LIG    1        1.135  -0.798  -0.013  0.00  0.00    -0.030 A 
ENDROOT
BRANCH   5   7
ATOM      7  C   LIG    1        1.417  -3.299  -0.024  0.00  0.00    +0.150 A 
ATOM      8  C   LIG    1        0.906  -4.678  -0.036  0.00  0.00    -0.020 A 
ATOM      9  C   LIG    1        2.009  -5.486  -0.043  0.00  0.00    +0.140 A 
ATOM     10  C   LIG    1        3.135  -4.665  -0.037  0.00  0.00    +0.020 A 
ATOM     11  O   LIG    1        2.767  -3.380  -0.031  0.00  0.00    -0.110 OA
BRANCH  10  12
ATOM     12  N   LIG    1        4.578  -5.161  -0.042  0.00  0.00    +0.020 N 
ATOM     13  O   LIG    1        5.572  -4.296  -0.035  0.00  0.00    -0.150 OA
ATOM     14  O   LIG    1        4.830  -6.454  -0.053  0.00  0.00    -0.150 OA
ENDBRANCH  10  12
ENDBRANCH   5   7
BRANCH   1  15
ATOM     15  N   LIG    1       -0.017   1.388   0.010  0.00  0.00    -0.840 N 
ATOM     16  H   LIG    1       -0.863   1.861   0.016  0.00  0.00    +0.410 HD
ATOM     17  H   LIG    1        0.817   1.884   0.004  0.00  0.00    +0.410 HD
ENDBRANCH   1  15
TORSDOF 3
