REMARK  Name = ZINC000220330014
REMARK                            x       y       z     vdW  Elec       q    Type
REMARK                         _______ _______ _______ _____ _____    ______ ____
ROOT
ATOM      1  O   LIG    1        0.002  -0.004   0.002  0.00  0.00    -0.510 OA
ATOM      2  C   LIG    1       -0.015   1.216   0.009  0.00  0.00    +0.520 A 
ATOM      3  C   LIG    1       -1.241   1.902   0.030  0.00  0.00    -0.040 A 
ATOM      4  C   LIG    1       -1.243   3.266   0.037  0.00  0.00    +0.160 A 
ATOM      5  C   LIG    1       -0.022   3.954   0.023  0.00  0.00    -0.150 A 
ATOM      6  C   LIG    1        1.142   3.263   0.003  0.00  0.00    +0.430 A 
ATOM      7  N   LIG    1        1.143   1.905   0.001  0.00  0.00    -0.480 N 
ENDROOT
BRANCH   5   8
ATOM      8  N   LIG    1       -0.004   5.434   0.031  0.00  0.00    +0.050 N 
ATOM      9  O   LIG    1       -1.052   6.055   0.050  0.00  0.00    -0.150 OA
ATOM     10  O   LIG    1        1.057   6.030   0.019  0.00  0.00    -0.170 OA
ENDBRANCH   5   8
BRANCH   7  11
ATOM     11  C   LIG    1        2.416   1.181  -0.021  0.00  0.00    +0.340 C 
BRANCH  11  12
ATOM     12  C   LIG    1        2.884   0.928   1.414  0.00  0.00    -0.080 C 
ATOM     13  C   LIG    1        2.990  -0.527   1.875  0.00  0.00    +0.030 C 
ATOM     14  C   LIG    1        4.258   0.284   1.605  0.00  0.00    +0.040 C 
ENDBRANCH  11  12
ENDBRANCH   7  11
TORSDOF 3
