REMARK  Name = ZINC000575442523
REMARK                            x       y       z     vdW  Elec       q    Type
REMARK                         _______ _______ _______ _____ _____    ______ ____
ROOT
ATOM      1  C   LIG    1        0.002  -0.004   0.002  0.00  0.00    +0.390 A 
ATOM      2  N   LIG    1       -1.037  -0.792   0.002  0.00  0.00    -0.340 NA
ATOM      3  O   LIG    1       -0.612  -2.140  -0.007  0.00  0.00    -0.060 OA
ATOM      4  C   LIG    1        0.737  -2.186  -0.013  0.00  0.00    +0.160 A 
ATOM      5  C   LIG    1        1.653  -3.230  -0.022  0.00  0.00    -0.060 A 
ATOM      6  C   LIG    1        3.005  -2.959  -0.026  0.00  0.00    +0.180 A 
ATOM      7  C   LIG    1        3.462  -1.649  -0.021  0.00  0.00    +0.010 A 
ATOM      8  C   LIG    1        2.568  -0.601  -0.011  0.00  0.00    +0.170 A 
ATOM      9  C   LIG    1        1.198  -0.861  -0.014  0.00  0.00    -0.210 A 
ENDROOT
BRANCH   1  10
ATOM     10  N   LIG    1       -0.017   1.383   0.010  0.00  0.00    -0.810 N 
ATOM     11  H   LIG    1       -0.863   1.857   0.016  0.00  0.00    +0.420 HD
ATOM     12  H   LIG    1        0.817   1.880   0.004  0.00  0.00    +0.420 HD
ENDBRANCH   1  10
BRANCH   5  13
ATOM     13  N   LIG    1        1.179  -4.632  -0.029  0.00  0.00    +0.030 N 
ATOM     14  O   LIG    1       -0.015  -4.871  -0.025  0.00  0.00    -0.140 OA
ATOM     15  O   LIG    1        1.983  -5.547  -0.037  0.00  0.00    -0.160 OA
ENDBRANCH   5  13
TORSDOF 2
