REMARK  Name = ZINC000899230827
REMARK                            x       y       z     vdW  Elec       q    Type
REMARK                         _______ _______ _______ _____ _____    ______ ____
ROOT
ATOM      1  C   LIG    1       -0.018   1.503   0.010  0.00  0.00    +0.100 C 
ATOM      2  C   LIG    1        0.002  -0.004   0.002  0.00  0.00    -0.050 A 
ATOM      3  C   LIG    1        0.006  -0.688  -1.199  0.00  0.00    -0.030 A 
ATOM      4  C   LIG    1        0.024  -2.071  -1.210  0.00  0.00    +0.050 A 
ATOM      5  C   LIG    1        0.040  -2.772  -0.020  0.00  0.00    -0.100 A 
ATOM      6  C   LIG    1        0.036  -2.088   1.187  0.00  0.00    +0.130 A 
ATOM      7  C   LIG    1        0.023  -0.701   1.195  0.00  0.00    -0.020 A 
ENDROOT
BRANCH   6   8
ATOM      8  O   LIG    1        0.051  -2.775   2.359  0.00  0.00    -0.300 OA
BRANCH   8   9
ATOM      9  C   LIG    1        0.071  -4.202   2.274  0.00  0.00    +0.230 C 
BRANCH   9  10
ATOM     10  C   LIG    1        0.086  -4.796   3.684  0.00  0.00    +0.290 C 
BRANCH  10  11
ATOM     11  N   LIG    1       -1.167  -4.465   4.367  0.00  0.00    -0.020 N 
ATOM     12  O   LIG    1       -1.614  -3.334   4.306  0.00  0.00    -0.130 OA
ATOM     13  O   LIG    1       -1.763  -5.322   4.995  0.00  0.00    -0.170 OA
ENDBRANCH  10  11
ENDBRANCH   9  10
ENDBRANCH   8   9
ENDBRANCH   6   8
TORSDOF 4
