REMARK  Name = ZINC000591138437
REMARK                            x       y       z     vdW  Elec       q    Type
REMARK                         _______ _______ _______ _____ _____    ______ ____
ROOT
ATOM      1  C   LIG    1       -1.306   1.936   0.019  0.00  0.00    -0.090 A 
ATOM      2  C   LIG    1       -1.333   3.316   0.021  0.00  0.00    +0.390 A 
ATOM      3  N   LIG    1       -2.478   3.972   0.030  0.00  0.00    -0.480 NA
ATOM      4  C   LIG    1       -3.641   3.339   0.037  0.00  0.00    +0.300 A 
ATOM      5  C   LIG    1       -3.689   1.947   0.036  0.00  0.00    +0.060 A 
ATOM      6  F   LIG    1       -4.877   1.303   0.043  0.00  0.00    -0.100 F 
ATOM      7  C   LIG    1       -2.504   1.232   0.021  0.00  0.00    +0.140 A 
ENDROOT
BRANCH   4   8
ATOM      8  N   LIG    1       -4.824   4.071   0.046  0.00  0.00    -0.430 N 
ATOM      9  C   LIG    1       -5.340   4.226   1.419  0.00  0.00    +0.190 C 
ATOM     10  C   LIG    1       -5.685   5.679   1.066  0.00  0.00    +0.050 C 
ATOM     11  C   LIG    1       -4.550   5.520   0.045  0.00  0.00    +0.220 C 
ENDBRANCH   4   8
BRANCH   1  13
ATOM     12  O   LIG    1        0.002  -0.004   0.002  0.00  0.00    -0.150 OA
ATOM     13  N   LIG    1       -0.014   1.214   0.009  0.00  0.00    +0.030 N 
ATOM     14  O   LIG    1        1.032   1.837   0.002  0.00  0.00    -0.140 OA
ENDBRANCH   1  13
TORSDOF 2
