REMARK  Name = ZINC000084238995
REMARK                            x       y       z     vdW  Elec       q    Type
REMARK                         _______ _______ _______ _____ _____    ______ ____
ROOT
ATOM      1  C   LIG    1        0.606  -0.607  -1.056  0.00  0.00    +0.080 A 
ATOM      2  C   LIG    1        0.713  -1.930  -1.232  0.00  0.00    -0.040 A 
ATOM      3  C   LIG    1        1.373  -2.309  -2.391  0.00  0.00    +0.190 A 
ATOM      4  C   LIG    1        1.798  -1.301  -3.151  0.00  0.00    -0.200 A 
ATOM      5  S   LIG    1        1.359   0.230  -2.406  0.00  0.00    +0.210 S 
ENDROOT
BRANCH   4   6
ATOM      6  N   LIG    1        2.526  -1.448  -4.433  0.00  0.00    +0.070 N 
ATOM      7  O   LIG    1        2.872  -0.459  -5.053  0.00  0.00    -0.160 OA
ATOM      8  O   LIG    1        2.778  -2.558  -4.866  0.00  0.00    -0.150 OA
ENDBRANCH   4   6
BRANCH   1  10
ATOM      9  C   LIG    1       -0.017   1.425   0.010  0.00  0.00    +0.270 C 
ATOM     10  O   LIG    1        0.002  -0.004   0.002  0.00  0.00    -0.260 OA
ENDBRANCH   1  10
TORSDOF 2
