REMARK  Name = ZINC000860917425
REMARK                            x       y       z     vdW  Elec       q    Type
REMARK                         _______ _______ _______ _____ _____    ______ ____
ROOT
ATOM      1  O   LIG    1       -2.279  -2.844   0.009  0.00  0.00    -0.350 OA
ENDROOT
BRANCH   1   2
ATOM      2  C   LIG    1       -1.121  -2.154   0.001  0.00  0.00    +0.510 C 
ATOM      3  O   LIG    1       -0.061  -2.748  -0.012  0.00  0.00    -0.510 OA
BRANCH   2   6
ATOM      4  C   LIG    1       -0.018   1.503   0.010  0.00  0.00    +0.090 C 
ATOM      5  C   LIG    1        0.002  -0.004   0.002  0.00  0.00    +0.080 C 
ATOM      6  C   LIG    1       -1.141  -0.685   0.009  0.00  0.00    -0.180 C 
ATOM      7  C   LIG    1       -2.456   0.051   0.026  0.00  0.00    +0.100 C 
ENDBRANCH   2   6
ENDBRANCH   1   2
BRANCH   1   8
ATOM      8  C   LIG    1       -2.184  -4.293  -0.000  0.00  0.00    +0.230 C 
BRANCH   8   9
ATOM      9  C   LIG    1       -3.590  -4.897   0.010  0.00  0.00    +0.070 C 
BRANCH   9  10
ATOM     10  C   LIG    1       -3.489  -6.424   0.001  0.00  0.00    +0.270 C 
BRANCH  10  11
ATOM     11  N   LIG    1       -4.835  -7.002   0.011  0.00  0.00    -0.020 N 
ATOM     12  O   LIG    1       -5.681  -6.561   0.767  0.00  0.00    -0.150 OA
ATOM     13  O   LIG    1       -5.107  -7.924  -0.738  0.00  0.00    -0.160 OA
ENDBRANCH  10  11
ENDBRANCH   9  10
ENDBRANCH   8   9
ENDBRANCH   1   8
TORSDOF 6
