REMARK  Name = ZINC000039088695
REMARK                            x       y       z     vdW  Elec       q    Type
REMARK                         _______ _______ _______ _____ _____    ______ ____
ROOT
ATOM      1  C   LIG    1       -0.018   1.503   0.010  0.00  0.00    +0.160 C 
ATOM      2  C   LIG    1        0.002  -0.004   0.002  0.00  0.00    +0.140 A 
ATOM      3  C   LIG    1        0.006  -0.680  -1.203  0.00  0.00    +0.080 A 
ATOM      4  C   LIG    1        0.025  -2.066  -1.201  0.00  0.00    +0.080 A 
ATOM      5  C   LIG    1        0.040  -2.724   0.021  0.00  0.00    +0.120 A 
ATOM      6  C   LIG    1        0.035  -1.979   1.188  0.00  0.00    +0.140 A 
ATOM      7  F   LIG    1        0.059  -4.074   0.071  0.00  0.00    -0.090 F 
ATOM      8  N   LIG    1        0.022  -0.661   1.145  0.00  0.00    -0.410 NA
ENDROOT
BRANCH   6   9
ATOM      9  N   LIG    1        0.051  -2.669   2.497  0.00  0.00    +0.020 N 
ATOM     10  O   LIG    1        0.047  -2.020   3.527  0.00  0.00    -0.110 OA
ATOM     11  O   LIG    1        0.069  -3.886   2.544  0.00  0.00    -0.140 OA
ENDBRANCH   6   9
TORSDOF 1
