REMARK  Name = ZINC000204830691
REMARK                            x       y       z     vdW  Elec       q    Type
REMARK                         _______ _______ _______ _____ _____    ______ ____
ROOT
ATOM      1  N   LIG    1        0.690  -0.478  -1.207  0.00  0.00    -0.470 N 
ATOM      2  C   LIG    1        2.139  -0.190  -1.139  0.00  0.00    +0.210 C 
ATOM      3  C   LIG    1        2.753  -1.355  -1.950  0.00  0.00    +0.100 C 
ATOM      4  C   LIG    1        1.710  -2.447  -1.813  0.00  0.00    -0.090 A 
ATOM      5  C   LIG    1        1.770  -3.804  -2.050  0.00  0.00    +0.070 A 
ATOM      6  C   LIG    1        0.655  -4.595  -1.837  0.00  0.00    +0.080 A 
ATOM      7  C   LIG    1       -0.520  -4.022  -1.386  0.00  0.00    -0.020 A 
ATOM      8  C   LIG    1       -0.586  -2.664  -1.149  0.00  0.00    +0.070 A 
ATOM      9  C   LIG    1        0.532  -1.860  -1.364  0.00  0.00    +0.100 A 
ENDROOT
BRANCH   7  10
ATOM     10  N   LIG    1       -1.712  -4.869  -1.155  0.00  0.00    +0.030 N 
ATOM     11  O   LIG    1       -2.748  -4.367  -0.757  0.00  0.00    -0.160 OA
ATOM     12  O   LIG    1       -1.656  -6.068  -1.363  0.00  0.00    -0.150 OA
ENDBRANCH   7  10
BRANCH   1  14
ATOM     13  C   LIG    1       -0.019   1.526   0.010  0.00  0.00    +0.050 C 
ATOM     14  C   LIG    1        0.002  -0.004   0.002  0.00  0.00    +0.170 C 
ENDBRANCH   1  14
TORSDOF 2
