REMARK  Name = ZINC000306965018
REMARK                            x       y       z     vdW  Elec       q    Type
REMARK                         _______ _______ _______ _____ _____    ______ ____
ROOT
ATOM      1  C   LIG    1       -1.607  -1.878   0.007  0.00  0.00    +0.310 A 
ATOM      2  C   LIG    1       -0.542  -2.770  -0.002  0.00  0.00    -0.060 A 
ATOM      3  C   LIG    1       -0.778  -4.130  -0.006  0.00  0.00    +0.180 A 
ATOM      4  C   LIG    1       -2.076  -4.618  -0.002  0.00  0.00    -0.120 A 
ATOM      5  C   LIG    1       -3.146  -3.752   0.008  0.00  0.00    +0.220 A 
ATOM      6  C   LIG    1       -2.925  -2.370   0.017  0.00  0.00    -0.270 A 
ENDROOT
BRANCH   4   7
ATOM      7  N   LIG    1       -2.312  -6.079  -0.007  0.00  0.00    +0.040 N 
ATOM      8  O   LIG    1       -3.450  -6.513  -0.003  0.00  0.00    -0.170 OA
ATOM      9  O   LIG    1       -1.368  -6.849  -0.015  0.00  0.00    -0.170 OA
ENDBRANCH   4   7
BRANCH   1  10
ATOM     10  N   LIG    1       -1.372  -0.511   0.012  0.00  0.00    -0.720 N 
ATOM     11  H   LIG    1       -2.118   0.109   0.023  0.00  0.00    +0.410 HD
BRANCH  10  13
ATOM     12  C   LIG    1       -0.019   1.526   0.010  0.00  0.00    +0.050 C 
ATOM     13  C   LIG    1        0.002  -0.004   0.002  0.00  0.00    +0.260 C 
ENDBRANCH  10  13
ENDBRANCH   1  10
BRANCH   6  14
ATOM     14  C   LIG    1       -4.060  -1.440   0.028  0.00  0.00    +0.490 C 
ATOM     15  O   LIG    1       -5.195  -1.869   0.028  0.00  0.00    -0.450 OA
ENDBRANCH   6  14
TORSDOF 4
