REMARK  Name = ZINC000306147630
REMARK                            x       y       z     vdW  Elec       q    Type
REMARK                         _______ _______ _______ _____ _____    ______ ____
ROOT
ATOM      1  C   LIG    1        0.980  -1.887  -1.695  0.00  0.00    +0.100 A 
ATOM      2  C   LIG    1        1.974  -2.675  -1.242  0.00  0.00    +0.060 A 
ATOM      3  N   LIG    1        1.691  -3.940  -1.585  0.00  0.00    -0.440 NA
ATOM      4  C   LIG    1        0.559  -3.966  -2.235  0.00  0.00    +0.470 A 
ATOM      5  N   LIG    1        0.080  -2.707  -2.320  0.00  0.00    -0.440 N 
ATOM      6  C   LIG    1       -1.167  -2.293  -2.970  0.00  0.00    +0.350 C 
ENDROOT
BRANCH   2   7
ATOM      7  N   LIG    1        3.170  -2.223  -0.494  0.00  0.00    +0.070 N 
ATOM      8  O   LIG    1        4.005  -3.033  -0.134  0.00  0.00    -0.130 OA
ATOM      9  O   LIG    1        3.318  -1.041  -0.239  0.00  0.00    -0.150 OA
ENDBRANCH   2   7
BRANCH   1  10
ATOM     10  C   LIG    1        0.877  -0.392  -1.539  0.00  0.00    +0.190 C 
BRANCH  10  12
ATOM     11  C   LIG    1       -0.022   1.810   0.012  0.00  0.00    +0.160 C 
ATOM     12  S   LIG    1        0.002  -0.004   0.002  0.00  0.00    -0.230 S 
ENDBRANCH  10  12
ENDBRANCH   1  10
TORSDOF 3
