REMARK  Name = ZINC000095829833
REMARK                            x       y       z     vdW  Elec       q    Type
REMARK                         _______ _______ _______ _____ _____    ______ ____
ROOT
ATOM      1  C   LIG    1       -0.036  -0.712  -2.369  0.00  0.00    +0.290 A 
ATOM      2  C   LIG    1       -0.222   0.298  -3.311  0.00  0.00    -0.020 A 
ATOM      3  C   LIG    1       -0.946   0.025  -4.453  0.00  0.00    +0.330 A 
ATOM      4  N   LIG    1       -1.458  -1.175  -4.658  0.00  0.00    -0.480 NA
ATOM      5  C   LIG    1       -1.304  -2.157  -3.790  0.00  0.00    +0.360 A 
ATOM      6  C   LIG    1       -0.589  -1.966  -2.626  0.00  0.00    -0.120 A 
ENDROOT
BRANCH   6   7
ATOM      7  N   LIG    1       -0.421  -3.074  -1.659  0.00  0.00    +0.030 N 
ATOM      8  O   LIG    1        0.212  -2.896  -0.634  0.00  0.00    -0.110 OA
ATOM      9  O   LIG    1       -0.916  -4.163  -1.888  0.00  0.00    -0.190 OA
ENDBRANCH   6   7
BRANCH   1  10
ATOM     10  N   LIG    1        0.688  -0.476  -1.203  0.00  0.00    -0.680 N 
BRANCH  10  12
ATOM     11  C   LIG    1       -0.019   1.526   0.010  0.00  0.00    -0.000 C 
ATOM     12  C   LIG    1        0.002  -0.004   0.002  0.00  0.00    +0.290 C 
ENDBRANCH  10  12
BRANCH  10  13
ATOM     13  C   LIG    1        2.135  -0.701  -1.182  0.00  0.00    +0.280 C 
ATOM     14  C   LIG    1        2.421  -2.145  -0.763  0.00  0.00    +0.010 C 
ENDBRANCH  10  13
ENDBRANCH   1  10
TORSDOF 4
