REMARK  Name = ZINC000081948500
REMARK                            x       y       z     vdW  Elec       q    Type
REMARK                         _______ _______ _______ _____ _____    ______ ____
ROOT
ATOM      1  C   LIG    1       -1.306   1.936   0.019  0.00  0.00    +0.000 A 
ATOM      2  C   LIG    1       -1.324   3.319   0.021  0.00  0.00    +0.070 A 
ATOM      3  C   LIG    1       -2.529   3.997   0.030  0.00  0.00    +0.080 A 
ATOM      4  C   LIG    1       -3.719   3.294   0.038  0.00  0.00    -0.010 A 
ATOM      5  C   LIG    1       -3.703   1.907   0.036  0.00  0.00    +0.140 A 
ATOM      6  C   LIG    1       -2.493   1.229   0.021  0.00  0.00    +0.070 A 
ENDROOT
BRANCH   1   8
ATOM      7  O   LIG    1        0.002  -0.004   0.002  0.00  0.00    -0.150 OA
ATOM      8  N   LIG    1       -0.014   1.214   0.009  0.00  0.00    +0.020 N 
ATOM      9  O   LIG    1        1.032   1.837   0.002  0.00  0.00    -0.150 OA
ENDBRANCH   1   8
BRANCH   5  10
ATOM     10  O   LIG    1       -4.872   1.213   0.043  0.00  0.00    -0.300 OA
BRANCH  10  11
ATOM     11  C   LIG    1       -6.079   1.976   0.053  0.00  0.00    +0.190 C 
BRANCH  11  12
ATOM     12  C   LIG    1       -7.281   1.030   0.061  0.00  0.00    +0.260 C 
ATOM     13  F   LIG    1       -7.294   0.301   1.255  0.00  0.00    -0.210 F 
ENDBRANCH  11  12
ENDBRANCH  10  11
ENDBRANCH   5  10
TORSDOF 4
