REMARK  Name = ZINC000306531940
REMARK                            x       y       z     vdW  Elec       q    Type
REMARK                         _______ _______ _______ _____ _____    ______ ____
ROOT
ATOM      1  N   LIG    1       -1.471  -0.183   0.085  0.00  0.00    -0.470 N 
ATOM      2  C   LIG    1       -2.183  -0.273   1.242  0.00  0.00    +0.240 A 
ATOM      3  N   LIG    1       -3.327  -0.844   0.986  0.00  0.00    -0.430 NA
ATOM      4  C   LIG    1       -3.394  -1.140  -0.321  0.00  0.00    +0.000 A 
ATOM      5  C   LIG    1       -1.726   0.210   2.595  0.00  0.00    +0.200 C 
ATOM      6  C   LIG    1       -2.244  -0.729  -0.906  0.00  0.00    +0.290 A 
ENDROOT
BRANCH   4   7
ATOM      7  N   LIG    1       -4.531  -1.796  -1.006  0.00  0.00    +0.080 N 
ATOM      8  O   LIG    1       -4.478  -2.014  -2.204  0.00  0.00    -0.170 OA
ATOM      9  O   LIG    1       -5.521  -2.118  -0.373  0.00  0.00    -0.140 OA
ENDBRANCH   4   7
BRANCH   6  10
ATOM     10  N   LIG    1       -1.907  -0.847  -2.255  0.00  0.00    -0.580 N 
ATOM     11  H   LIG    1       -2.080  -1.783  -2.590  0.00  0.00    +0.390 HD
ATOM     12  C   LIG    1       -0.510  -0.455  -2.485  0.00  0.00    +0.230 C 
ENDBRANCH   6  10
BRANCH   1  14
ATOM     13  C   LIG    1       -0.256   1.857  -0.499  0.00  0.00    +0.050 C 
ATOM     14  C   LIG    1       -0.133   0.393  -0.072  0.00  0.00    +0.300 C 
ENDBRANCH   1  14
TORSDOF 3
