REMARK  Name = ZINC000229552072
REMARK                            x       y       z     vdW  Elec       q    Type
REMARK                         _______ _______ _______ _____ _____    ______ ____
ROOT
ATOM      1  C   LIG    1       -1.081  -2.089   0.091  0.00  0.00    +0.200 A 
ATOM      2  C   LIG    1        0.154  -2.715   0.178  0.00  0.00    +0.030 A 
ATOM      3  C   LIG    1        0.225  -4.094   0.259  0.00  0.00    +0.130 A 
ATOM      4  C   LIG    1       -0.937  -4.849   0.255  0.00  0.00    +0.060 A 
ATOM      5  C   LIG    1       -2.168  -4.226   0.169  0.00  0.00    +0.000 A 
ATOM      6  F   LIG    1        1.426  -4.706   0.344  0.00  0.00    -0.120 F 
ATOM      7  C   LIG    1       -2.244  -2.849   0.093  0.00  0.00    +0.110 A 
ENDROOT
BRANCH   1  12
ATOM      8  N   LIG    1       -2.191   1.311   0.608  0.00  0.00    -0.850 N 
ATOM      9  H   LIG    1       -1.476   1.808   0.182  0.00  0.00    +0.400 HD
ATOM     10  H   LIG    1       -2.921   1.784   1.039  0.00  0.00    +0.420 HD
ATOM     11  C   LIG    1       -2.169  -0.037   0.608  0.00  0.00    +0.710 C 
ATOM     12  N   LIG    1       -1.156  -0.694   0.009  0.00  0.00    -0.680 N 
ATOM     13  H   LIG    1       -0.478  -0.200  -0.478  0.00  0.00    +0.420 HD
ATOM     14  O   LIG    1       -3.063  -0.660   1.147  0.00  0.00    -0.570 OA
ENDBRANCH   1  12
BRANCH   5  15
ATOM     15  N   LIG    1       -3.407  -5.035   0.164  0.00  0.00    +0.020 N 
ATOM     16  O   LIG    1       -4.492  -4.487   0.087  0.00  0.00    -0.140 OA
ATOM     17  O   LIG    1       -3.342  -6.249   0.235  0.00  0.00    -0.150 OA
ENDBRANCH   5  15
TORSDOF 2
