REMARK  Name = ZINC000020370203
REMARK                            x       y       z     vdW  Elec       q    Type
REMARK                         _______ _______ _______ _____ _____    ______ ____
ROOT
ATOM      1  C   LIG    1       -1.306   1.935   0.029  0.00  0.00    -0.180 A 
ATOM      2  C   LIG    1       -2.495   1.244  -0.067  0.00  0.00    +0.400 A 
ATOM      3  N   LIG    1       -3.651   1.881  -0.069  0.00  0.00    -0.510 NA
ATOM      4  C   LIG    1       -3.723   3.196   0.021  0.00  0.00    +0.360 A 
ATOM      5  C   LIG    1       -2.580   3.961   0.121  0.00  0.00    -0.110 A 
ATOM      6  C   LIG    1       -1.338   3.326   0.131  0.00  0.00    +0.310 A 
ENDROOT
BRANCH   1   8
ATOM      7  O   LIG    1        0.001  -0.005   0.055  0.00  0.00    -0.150 OA
ATOM      8  N   LIG    1       -0.015   1.212   0.030  0.00  0.00    +0.060 N 
ATOM      9  O   LIG    1        1.031   1.835   0.001  0.00  0.00    -0.200 OA
ENDBRANCH   1   8
BRANCH   6  10
ATOM     10  N   LIG    1       -0.161   4.062   0.230  0.00  0.00    -0.700 N 
ATOM     11  H   LIG    1        0.697   3.616   0.156  0.00  0.00    +0.420 HD
BRANCH  10  12
ATOM     12  C   LIG    1       -0.218   5.510   0.445  0.00  0.00    +0.300 C 
BRANCH  12  13
ATOM     13  C   LIG    1        1.204   6.071   0.516  0.00  0.00    -0.060 C 
ATOM     14  C   LIG    1        1.627   7.063  -0.570  0.00  0.00    +0.030 C 
ATOM     15  C   LIG    1        1.361   7.555   0.854  0.00  0.00    +0.030 C 
ENDBRANCH  12  13
ENDBRANCH  10  12
ENDBRANCH   6  10
TORSDOF 4
