REMARK  Name = ZINC000899230683
REMARK                            x       y       z     vdW  Elec       q    Type
REMARK                         _______ _______ _______ _____ _____    ______ ____
ROOT
ATOM      1  C   LIG    1       -0.018   1.503   0.010  0.00  0.00    +0.090 C 
ATOM      2  C   LIG    1        0.002  -0.004   0.002  0.00  0.00    -0.120 A 
ATOM      3  C   LIG    1        0.006  -0.688  -1.200  0.00  0.00    +0.050 A 
ATOM      4  C   LIG    1        0.025  -2.069  -1.210  0.00  0.00    -0.080 A 
ATOM      5  C   LIG    1        0.041  -2.770  -0.013  0.00  0.00    +0.120 A 
ATOM      6  C   LIG    1        0.037  -2.082   1.192  0.00  0.00    -0.010 A 
ATOM      7  C   LIG    1        0.023  -0.701   1.196  0.00  0.00    -0.050 A 
ATOM      8  C   LIG    1        0.019   0.048   2.505  0.00  0.00    +0.110 C 
ENDROOT
BRANCH   5   9
ATOM      9  O   LIG    1        0.060  -4.129  -0.021  0.00  0.00    -0.320 OA
BRANCH   9  10
ATOM     10  C   LIG    1        0.063  -4.771  -1.298  0.00  0.00    +0.250 C 
BRANCH  10  11
ATOM     11  C   LIG    1        0.086  -6.288  -1.105  0.00  0.00    +0.290 C 
BRANCH  11  12
ATOM     12  N   LIG    1       -1.157  -6.717  -0.459  0.00  0.00    -0.020 N 
ATOM     13  O   LIG    1       -1.121  -7.514   0.462  0.00  0.00    -0.150 OA
ATOM     14  O   LIG    1       -2.226  -6.278  -0.843  0.00  0.00    -0.160 OA
ENDBRANCH  11  12
ENDBRANCH  10  11
ENDBRANCH   9  10
ENDBRANCH   5   9
TORSDOF 4
