REMARK  Name = ZINC000021983755
REMARK                            x       y       z     vdW  Elec       q    Type
REMARK                         _______ _______ _______ _____ _____    ______ ____
ROOT
ATOM      1  C   LIG    1       -0.018   1.503   0.010  0.00  0.00    +0.120 C 
ATOM      2  C   LIG    1        0.002  -0.004   0.002  0.00  0.00    +0.010 A 
ATOM      3  C   LIG    1        0.006  -0.688  -1.200  0.00  0.00    -0.030 A 
ATOM      4  C   LIG    1        0.024  -2.071  -1.212  0.00  0.00    +0.110 A 
ATOM      5  C   LIG    1        0.040  -2.773  -0.023  0.00  0.00    -0.060 A 
ATOM      6  C   LIG    1        0.036  -2.089   1.186  0.00  0.00    +0.270 A 
ATOM      7  C   LIG    1        0.023  -0.700   1.195  0.00  0.00    -0.110 A 
ENDROOT
BRANCH   7   8
ATOM      8  N   LIG    1        0.019   0.033   2.481  0.00  0.00    +0.020 N 
ATOM      9  O   LIG    1       -1.037   0.324   3.012  0.00  0.00    -0.140 OA
ATOM     10  O   LIG    1        1.072   0.344   3.007  0.00  0.00    -0.140 OA
ENDBRANCH   7   8
BRANCH   6  11
ATOM     11  N   LIG    1        0.051  -2.796   2.391  0.00  0.00    -0.730 N 
ATOM     12  H   LIG    1        0.049  -2.318   3.234  0.00  0.00    +0.400 HD
BRANCH  11  13
ATOM     13  C   LIG    1        0.071  -4.261   2.380  0.00  0.00    +0.280 C 
BRANCH  13  14
ATOM     14  C   LIG    1        0.085  -4.782   3.818  0.00  0.00    +0.190 C 
BRANCH  14  15
ATOM     15  O   LIG    1       -1.138  -4.425   4.466  0.00  0.00    -0.570 OA
ATOM     16  H   LIG    1       -1.199  -4.724   5.383  0.00  0.00    +0.390 HD
ENDBRANCH  14  15
ENDBRANCH  13  14
ENDBRANCH  11  13
ENDBRANCH   6  11
TORSDOF 5
