REMARK  Name = ZINC000592344970
REMARK                            x       y       z     vdW  Elec       q    Type
REMARK                         _______ _______ _______ _____ _____    ______ ____
ROOT
ATOM      1  C   LIG    1       -1.306   1.936   0.019  0.00  0.00    +0.120 A 
ATOM      2  C   LIG    1       -1.469   3.280   0.021  0.00  0.00    +0.020 A 
ATOM      3  C   LIG    1       -2.842   3.547   0.031  0.00  0.00    +0.260 A 
ATOM      4  N   LIG    1       -3.481   2.405   0.035  0.00  0.00    -0.220 NA
ATOM      5  N   LIG    1       -2.533   1.374   0.021  0.00  0.00    -0.330 N 
ENDROOT
BRANCH   1   7
ATOM      6  O   LIG    1        0.002  -0.004   0.002  0.00  0.00    -0.160 OA
ATOM      7  N   LIG    1       -0.014   1.214   0.009  0.00  0.00    +0.050 N 
ATOM      8  O   LIG    1        1.032   1.837   0.002  0.00  0.00    -0.120 OA
ENDBRANCH   1   7
BRANCH   5   9
ATOM      9  C   LIG    1       -2.822  -0.063   0.020  0.00  0.00    +0.400 C 
BRANCH   9  10
ATOM     10  C   LIG    1       -2.937  -0.550  -1.401  0.00  0.00    -0.180 C 
ATOM     11  C   LIG    1       -1.961  -1.093  -2.077  0.00  0.00    +0.020 C 
ATOM     12  C   LIG    1       -2.409  -1.471  -3.470  0.00  0.00    +0.050 C 
ATOM     13  C   LIG    1       -3.953  -1.451  -3.406  0.00  0.00    +0.030 C 
ATOM     14  C   LIG    1       -4.200  -0.482  -2.228  0.00  0.00    +0.050 C 
ENDBRANCH   9  10
ENDBRANCH   5   9
TORSDOF 3
