REMARK  Name = ZINC000228884251
REMARK                            x       y       z     vdW  Elec       q    Type
REMARK                         _______ _______ _______ _____ _____    ______ ____
ROOT
ATOM      1  C   LIG    1       -2.401   0.294  -1.235  0.00  0.00    +0.480 A 
ATOM      2  N   LIG    1       -1.907   1.326  -1.900  0.00  0.00    -0.520 NA
ATOM      3  C   LIG    1       -2.118   1.481  -3.194  0.00  0.00    +0.390 A 
ATOM      4  C   LIG    1       -2.868   0.566  -3.903  0.00  0.00    -0.080 A 
ATOM      5  C   LIG    1       -3.405  -0.532  -3.243  0.00  0.00    +0.200 A 
ATOM      6  C   LIG    1       -3.162  -0.671  -1.889  0.00  0.00    -0.200 A 
ENDROOT
BRANCH   6   7
ATOM      7  N   LIG    1       -3.667  -1.726  -1.205  0.00  0.00    +0.090 N 
ATOM      8  O   LIG    1       -3.006  -2.258  -0.331  0.00  0.00    -0.210 OA
ATOM      9  O   LIG    1       -4.782  -2.143  -1.465  0.00  0.00    -0.170 OA
ENDBRANCH   6   7
BRANCH   1  10
ATOM     10  N   LIG    1       -2.154   0.169   0.127  0.00  0.00    -0.660 N 
ATOM     11  H   LIG    1       -2.510  -0.588   0.618  0.00  0.00    +0.420 HD
BRANCH  10  13
ATOM     12  C   LIG    1       -1.936   2.597   0.820  0.00  0.00    +0.080 C 
ATOM     13  C   LIG    1       -1.355   1.181   0.822  0.00  0.00    +0.100 C 
ATOM     14  C   LIG    1        0.168   1.043   0.762  0.00  0.00    +0.040 C 
ATOM     15  C   LIG    1       -0.578   0.738   2.063  0.00  0.00    +0.040 C 
ENDBRANCH  10  13
ENDBRANCH   1  10
TORSDOF 3
