REMARK  Name = ZINC000336390517
REMARK                            x       y       z     vdW  Elec       q    Type
REMARK                         _______ _______ _______ _____ _____    ______ ____
ROOT
ATOM      1  C   LIG    1       -1.306   1.956  -0.126  0.00  0.00    -0.060 A 
ATOM      2  C   LIG    1       -2.491   1.254  -0.222  0.00  0.00    +0.120 A 
ATOM      3  C   LIG    1       -3.699   1.909  -0.068  0.00  0.00    +0.010 A 
ATOM      4  C   LIG    1       -3.725   3.269   0.182  0.00  0.00    +0.110 A 
ATOM      5  C   LIG    1       -2.543   3.977   0.280  0.00  0.00    -0.020 A 
ATOM      6  C   LIG    1       -1.328   3.321   0.131  0.00  0.00    +0.140 A 
ENDROOT
BRANCH   6   7
ATOM      7  N   LIG    1       -0.131   4.034   0.229  0.00  0.00    -0.410 N 
ATOM      8  C   LIG    1        0.585   3.696   1.474  0.00  0.00    +0.190 C 
ATOM      9  C   LIG    1        0.917   5.188   1.621  0.00  0.00    +0.190 C 
ATOM     10  F   LIG    1        2.089   5.582   0.967  0.00  0.00    -0.180 F 
ATOM     11  C   LIG    1       -0.360   5.378   0.792  0.00  0.00    +0.180 C 
ENDBRANCH   6   7
BRANCH   1  13
ATOM     12  O   LIG    1        0.011   0.040  -0.393  0.00  0.00    -0.180 OA
ATOM     13  N   LIG    1       -0.013   1.253  -0.291  0.00  0.00    +0.030 N 
ATOM     14  O   LIG    1        1.025   1.889  -0.329  0.00  0.00    -0.130 OA
ENDBRANCH   1  13
TORSDOF 2
