REMARK  Name = ZINC000059338300
REMARK                            x       y       z     vdW  Elec       q    Type
REMARK                         _______ _______ _______ _____ _____    ______ ____
ROOT
ATOM      1  C   LIG    1       -1.412  -0.526   0.013  0.00  0.00    -0.070 A 
ATOM      2  C   LIG    1       -2.275  -0.203  -1.017  0.00  0.00    +0.110 A 
ATOM      3  C   LIG    1       -3.572  -0.681  -1.007  0.00  0.00    +0.030 A 
ATOM      4  C   LIG    1       -4.005  -1.483   0.032  0.00  0.00    +0.100 A 
ATOM      5  C   LIG    1       -3.141  -1.807   1.062  0.00  0.00    -0.050 A 
ATOM      6  C   LIG    1       -1.843  -1.332   1.050  0.00  0.00    +0.100 A 
ENDROOT
BRANCH   5   7
ATOM      7  N   LIG    1       -3.605  -2.666   2.175  0.00  0.00    +0.030 N 
ATOM      8  O   LIG    1       -2.844  -2.951   3.081  0.00  0.00    -0.160 OA
ATOM      9  O   LIG    1       -4.748  -3.086   2.184  0.00  0.00    -0.160 OA
ENDBRANCH   5   7
BRANCH   1  11
ATOM     10  C   LIG    1       -0.019   1.526   0.010  0.00  0.00    +0.070 C 
ATOM     11  C   LIG    1        0.002  -0.004   0.002  0.00  0.00    +0.050 C 
BRANCH  11  12
ATOM     12  C   LIG    1        0.707  -0.490  -1.238  0.00  0.00    +0.520 C 
ATOM     13  O   LIG    1        0.120  -1.191  -2.034  0.00  0.00    -0.530 OA
ATOM     14  N   LIG    1        1.991  -0.146  -1.462  0.00  0.00    -0.850 N 
ATOM     15  H   LIG    1        2.445  -0.459  -2.260  0.00  0.00    +0.410 HD
ATOM     16  H   LIG    1        2.461   0.415  -0.825  0.00  0.00    +0.400 HD
ENDBRANCH  11  12
ENDBRANCH   1  11
TORSDOF 3
