REMARK  Name = ZINC000612100650
REMARK                            x       y       z     vdW  Elec       q    Type
REMARK                         _______ _______ _______ _____ _____    ______ ____
ROOT
ATOM      1  C   LIG    1       -1.306   1.936   0.019  0.00  0.00    -0.120 A 
ATOM      2  C   LIG    1       -1.333   3.324   0.021  0.00  0.00    +0.180 A 
ATOM      3  C   LIG    1       -2.561   3.961   0.030  0.00  0.00    +0.010 A 
ATOM      4  C   LIG    1       -3.721   3.193   0.036  0.00  0.00    +0.320 A 
ATOM      5  N   LIG    1       -3.654   1.870   0.034  0.00  0.00    -0.500 NA
ATOM      6  C   LIG    1       -2.496   1.237   0.021  0.00  0.00    +0.390 A 
ENDROOT
BRANCH   4   7
ATOM      7  N   LIG    1       -4.962   3.819   0.045  0.00  0.00    -0.420 N 
ATOM      8  C   LIG    1       -5.360   4.184   1.417  0.00  0.00    +0.200 C 
ATOM      9  C   LIG    1       -6.781   3.718   1.069  0.00  0.00    +0.190 C 
ATOM     10  F   LIG    1       -7.584   4.709   0.494  0.00  0.00    -0.180 F 
ATOM     11  C   LIG    1       -6.054   2.828   0.051  0.00  0.00    +0.210 C 
ENDBRANCH   4   7
BRANCH   1  13
ATOM     12  O   LIG    1        0.002  -0.004   0.002  0.00  0.00    -0.150 OA
ATOM     13  N   LIG    1       -0.014   1.214   0.009  0.00  0.00    +0.030 N 
ATOM     14  O   LIG    1        1.032   1.837   0.002  0.00  0.00    -0.150 OA
ENDBRANCH   1  13
TORSDOF 2
