REMARK  Name = ZINC000149098841
REMARK                            x       y       z     vdW  Elec       q    Type
REMARK                         _______ _______ _______ _____ _____    ______ ____
ROOT
ATOM      1  C   LIG    1       -1.412  -0.526   0.013  0.00  0.00    -0.150 A 
ATOM      2  C   LIG    1       -2.015  -0.864   1.208  0.00  0.00    +0.090 A 
ATOM      3  C   LIG    1       -3.312  -1.342   1.219  0.00  0.00    +0.040 A 
ATOM      4  C   LIG    1       -4.010  -1.484   0.034  0.00  0.00    +0.010 A 
ATOM      5  C   LIG    1       -3.413  -1.147  -1.166  0.00  0.00    +0.010 A 
ATOM      6  C   LIG    1       -2.112  -0.662  -1.180  0.00  0.00    +0.230 A 
ENDROOT
BRANCH   4   7
ATOM      7  N   LIG    1       -5.398  -1.997   0.050  0.00  0.00    +0.030 N 
ATOM      8  O   LIG    1       -6.014  -2.122  -0.994  0.00  0.00    -0.160 OA
ATOM      9  O   LIG    1       -5.926  -2.293   1.107  0.00  0.00    -0.150 OA
ENDBRANCH   4   7
BRANCH   6  10
ATOM     10  N   LIG    1       -1.505  -0.320  -2.390  0.00  0.00    -0.870 N 
ATOM     11  H   LIG    1       -0.597   0.019  -2.399  0.00  0.00    +0.410 HD
ATOM     12  H   LIG    1       -1.993  -0.421  -3.223  0.00  0.00    +0.410 HD
ENDBRANCH   6  10
BRANCH   1  14
ATOM     13  C   LIG    1       -0.019   1.526   0.010  0.00  0.00    +0.030 C 
ATOM     14  C   LIG    1        0.002  -0.004   0.002  0.00  0.00    +0.260 C 
BRANCH  14  15
ATOM     15  O   LIG    1        0.693  -0.477   1.160  0.00  0.00    -0.550 OA
ATOM     16  H   LIG    1        0.294  -0.202   1.996  0.00  0.00    +0.380 HD
ENDBRANCH  14  15
ENDBRANCH   1  14
TORSDOF 4
