REMARK  Name = ZINC000238599648
REMARK                            x       y       z     vdW  Elec       q    Type
REMARK                         _______ _______ _______ _____ _____    ______ ____
ROOT
ATOM      1  C   LIG    1       -1.306   1.936   0.019  0.00  0.00    +0.040 A 
ATOM      2  C   LIG    1       -1.343   3.324   0.021  0.00  0.00    +0.020 A 
ATOM      3  C   LIG    1       -2.565   3.967   0.030  0.00  0.00    +0.350 A 
ATOM      4  N   LIG    1       -3.691   3.279   0.036  0.00  0.00    -0.500 NA
ATOM      5  C   LIG    1       -3.697   1.956   0.035  0.00  0.00    +0.340 A 
ATOM      6  C   LIG    1       -2.505   1.244   0.021  0.00  0.00    +0.040 A 
ENDROOT
BRANCH   1   8
ATOM      7  O   LIG    1        0.002  -0.004   0.002  0.00  0.00    -0.140 OA
ATOM      8  N   LIG    1       -0.014   1.214   0.009  0.00  0.00    +0.020 N 
ATOM      9  O   LIG    1        1.032   1.837   0.002  0.00  0.00    -0.130 OA
ENDBRANCH   1   8
BRANCH   5  10
ATOM     10  O   LIG    1       -4.878   1.289   0.042  0.00  0.00    -0.260 OA
BRANCH  10  11
ATOM     11  C   LIG    1       -6.069   2.079   0.051  0.00  0.00    +0.140 C 
ATOM     12  C   LIG    1       -7.249   1.587  -0.789  0.00  0.00    +0.040 C 
ATOM     13  C   LIG    1       -7.303   1.489   0.737  0.00  0.00    +0.050 C 
ENDBRANCH  10  11
ENDBRANCH   5  10
TORSDOF 3
