REMARK  Name = ZINC000035367453
REMARK                            x       y       z     vdW  Elec       q    Type
REMARK                         _______ _______ _______ _____ _____    ______ ____
ROOT
ATOM      1  C   LIG    1       -1.306   1.936   0.019  0.00  0.00    -0.020 A 
ATOM      2  C   LIG    1       -1.324   3.319   0.021  0.00  0.00    +0.100 A 
ATOM      3  C   LIG    1       -2.529   3.998   0.030  0.00  0.00    +0.060 A 
ATOM      4  C   LIG    1       -3.718   3.298   0.038  0.00  0.00    +0.050 A 
ATOM      5  C   LIG    1       -3.704   1.908   0.036  0.00  0.00    -0.090 A 
ATOM      6  C   LIG    1       -2.492   1.229   0.021  0.00  0.00    +0.120 A 
ENDROOT
BRANCH   1   8
ATOM      7  O   LIG    1        0.002  -0.004   0.002  0.00  0.00    -0.150 OA
ATOM      8  N   LIG    1       -0.014   1.214   0.009  0.00  0.00    +0.030 N 
ATOM      9  O   LIG    1        1.032   1.837   0.002  0.00  0.00    -0.150 OA
ENDBRANCH   1   8
BRANCH   5  10
ATOM     10  S   LIG    1       -5.220   1.010   0.046  0.00  0.00    -0.060 S 
BRANCH  10  11
ATOM     11  C   LIG    1       -6.472   2.322   0.057  0.00  0.00    +0.080 C 
BRANCH  11  12
ATOM     12  C   LIG    1       -7.868   1.695   0.066  0.00  0.00    +0.210 C 
BRANCH  12  13
ATOM     13  O   LIG    1       -8.854   2.729   0.075  0.00  0.00    -0.570 OA
ATOM     14  H   LIG    1       -9.765   2.404   0.081  0.00  0.00    +0.390 HD
ENDBRANCH  12  13
ENDBRANCH  11  12
ENDBRANCH  10  11
ENDBRANCH   5  10
TORSDOF 5
