REMARK  Name = ZINC000905301903
REMARK                            x       y       z     vdW  Elec       q    Type
REMARK                         _______ _______ _______ _____ _____    ______ ____
ROOT
ATOM      1  C   LIG    1       -0.018   1.503   0.010  0.00  0.00    +0.090 C 
ATOM      2  C   LIG    1        0.002  -0.004   0.002  0.00  0.00    -0.040 A 
ATOM      3  C   LIG    1        0.006  -0.688  -1.200  0.00  0.00    -0.050 A 
ATOM      4  C   LIG    1        0.025  -2.071  -1.212  0.00  0.00    +0.050 A 
ATOM      5  C   LIG    1        0.040  -2.773  -0.023  0.00  0.00    -0.160 A 
ATOM      6  C   LIG    1        0.036  -2.089   1.186  0.00  0.00    +0.210 A 
ATOM      7  C   LIG    1        0.061  -4.280  -0.037  0.00  0.00    +0.090 C 
ATOM      8  C   LIG    1        0.023  -0.700   1.195  0.00  0.00    -0.070 A 
ENDROOT
BRANCH   6   9
ATOM      9  N   LIG    1        0.052  -2.796   2.391  0.00  0.00    -0.750 N 
ATOM     10  H   LIG    1        0.066  -3.766   2.383  0.00  0.00    +0.400 HD
BRANCH   9  11
ATOM     11  C   LIG    1        0.048  -2.073   3.665  0.00  0.00    +0.290 C 
BRANCH  11  12
ATOM     12  C   LIG    1        0.068  -3.076   4.820  0.00  0.00    +0.250 C 
BRANCH  12  13
ATOM     13  N   LIG    1        0.064  -2.353   6.094  0.00  0.00    -0.020 N 
ATOM     14  O   LIG    1        0.819  -2.691   6.989  0.00  0.00    -0.150 OA
ATOM     15  O   LIG    1       -0.694  -1.414   6.260  0.00  0.00    -0.150 OA
ENDBRANCH  12  13
ENDBRANCH  11  12
ENDBRANCH   9  11
ENDBRANCH   6   9
TORSDOF 4
