REMARK  Name = ZINC000306711553
REMARK                            x       y       z     vdW  Elec       q    Type
REMARK                         _______ _______ _______ _____ _____    ______ ____
ROOT
ATOM      1  C   LIG    1        0.605  -0.606  -1.054  0.00  0.00    +0.390 A 
ATOM      2  N   LIG    1        1.143   0.133  -2.010  0.00  0.00    -0.530 NA
ATOM      3  C   LIG    1        1.739  -0.412  -3.054  0.00  0.00    +0.210 A 
ATOM      4  C   LIG    1        1.821  -1.784  -3.185  0.00  0.00    -0.040 A 
ATOM      5  C   LIG    1        1.268  -2.595  -2.203  0.00  0.00    +0.050 A 
ATOM      6  C   LIG    1        1.340  -4.096  -2.313  0.00  0.00    +0.140 C 
ATOM      7  C   LIG    1        2.337   0.475  -4.115  0.00  0.00    +0.160 C 
ATOM      8  C   LIG    1        0.656  -1.993  -1.118  0.00  0.00    -0.120 A 
ENDROOT
BRANCH   8   9
ATOM      9  N   LIG    1        0.052  -2.816  -0.046  0.00  0.00    +0.030 N 
ATOM     10  O   LIG    1       -1.115  -3.156  -0.123  0.00  0.00    -0.130 OA
ATOM     11  O   LIG    1        0.723  -3.153   0.913  0.00  0.00    -0.130 OA
ENDBRANCH   8   9
BRANCH   1  13
ATOM     12  C   LIG    1       -0.017   1.425   0.010  0.00  0.00    +0.290 C 
ATOM     13  O   LIG    1        0.002  -0.004   0.002  0.00  0.00    -0.300 OA
ENDBRANCH   1  13
TORSDOF 2
