REMARK  Name = ZINC000040454317
REMARK                            x       y       z     vdW  Elec       q    Type
REMARK                         _______ _______ _______ _____ _____    ______ ____
ROOT
ATOM      1  C   LIG    1        2.978  -0.427  -2.247  0.00  0.00    +0.590 A 
ATOM      2  N   LIG    1        2.504  -1.111  -3.277  0.00  0.00    -0.550 NA
ATOM      3  C   LIG    1        3.292  -1.447  -4.285  0.00  0.00    +0.480 A 
ATOM      4  C   LIG    1        4.627  -1.075  -4.253  0.00  0.00    -0.230 A 
ATOM      5  C   LIG    1        5.089  -0.360  -3.160  0.00  0.00    +0.480 A 
ATOM      6  N   LIG    1        4.247  -0.051  -2.188  0.00  0.00    -0.560 NA
ENDROOT
BRANCH   4   7
ATOM      7  N   LIG    1        5.538  -1.433  -5.363  0.00  0.00    +0.050 N 
ATOM      8  O   LIG    1        6.709  -1.099  -5.322  0.00  0.00    -0.160 OA
ATOM      9  O   LIG    1        5.118  -2.062  -6.318  0.00  0.00    -0.160 OA
ENDBRANCH   4   7
BRANCH   1  10
ATOM     10  N   LIG    1        2.125  -0.091  -1.209  0.00  0.00    -0.670 N 
ATOM     11  H   LIG    1        2.459   0.413  -0.451  0.00  0.00    +0.420 HD
BRANCH  10  12
ATOM     12  C   LIG    1        0.718  -0.497  -1.257  0.00  0.00    +0.290 C 
BRANCH  12  14
ATOM     13  C   LIG    1       -0.019   1.526   0.010  0.00  0.00    +0.020 C 
ATOM     14  C   LIG    1        0.002  -0.004   0.002  0.00  0.00    -0.030 C 
ATOM     15  C   LIG    1       -1.433  -0.534   0.013  0.00  0.00    +0.030 C 
ENDBRANCH  12  14
ENDBRANCH  10  12
ENDBRANCH   1  10
TORSDOF 4
