REMARK  Name = ZINC000899859701
REMARK                            x       y       z     vdW  Elec       q    Type
REMARK                         _______ _______ _______ _____ _____    ______ ____
ROOT
ATOM      1  C   LIG    1       -4.441   1.405   2.021  0.00  0.00    +0.240 C 
ENDROOT
BRANCH   1   2
ATOM      2  C   LIG    1       -5.742   2.165   2.002  0.00  0.00    -0.130 A 
ATOM      3  C   LIG    1       -6.002   3.114   2.973  0.00  0.00    +0.050 A 
ATOM      4  C   LIG    1       -7.195   3.812   2.956  0.00  0.00    +0.000 A 
ATOM      5  C   LIG    1       -8.131   3.561   1.970  0.00  0.00    +0.050 A 
ATOM      6  C   LIG    1       -7.873   2.611   0.999  0.00  0.00    -0.020 A 
ATOM      7  C   LIG    1       -6.676   1.917   1.010  0.00  0.00    +0.130 A 
ATOM      8  F   LIG    1       -6.424   0.989   0.061  0.00  0.00    -0.130 F 
ENDBRANCH   1   2
BRANCH   1   9
ATOM      9  N   LIG    1       -3.513   1.999   1.050  0.00  0.00    -0.680 NA
ATOM     10  H   LIG    1       -3.377   2.982   1.235  0.00  0.00    +0.350 HD
BRANCH   9  11
ATOM     11  C   LIG    1       -2.231   1.282   1.040  0.00  0.00    +0.210 C 
BRANCH  11  12
ATOM     12  C   LIG    1       -1.293   1.929   0.019  0.00  0.00    +0.270 C 
BRANCH  12  14
ATOM     13  O   LIG    1        0.002  -0.004   0.002  0.00  0.00    -0.160 OA
ATOM     14  N   LIG    1       -0.014   1.214   0.009  0.00  0.00    -0.020 N 
ATOM     15  O   LIG    1        1.032   1.837   0.002  0.00  0.00    -0.160 OA
ENDBRANCH  12  14
ENDBRANCH  11  12
ENDBRANCH   9  11
ENDBRANCH   1   9
TORSDOF 5
