REMARK  Name = ZINC000146062184
REMARK                            x       y       z     vdW  Elec       q    Type
REMARK                         _______ _______ _______ _____ _____    ______ ____
ROOT
ATOM      1  C   LIG    1       -1.315   1.932   0.136  0.00  0.00    -0.050 A 
ATOM      2  C   LIG    1       -1.387   3.271   0.120  0.00  0.00    +0.080 A 
ATOM      3  S   LIG    1       -3.066   3.766  -0.057  0.00  0.00    +0.260 S 
ATOM      4  C   LIG    1       -3.589   2.088  -0.100  0.00  0.00    +0.000 A 
ATOM      5  C   LIG    1       -2.531   1.284   0.009  0.00  0.00    +0.080 A 
ENDROOT
BRANCH   2   6
ATOM      6  N   LIG    1       -0.295   4.140   0.226  0.00  0.00    -0.410 N 
ATOM      7  C   LIG    1        0.810   4.163  -0.585  0.00  0.00    +0.160 A 
ATOM      8  C   LIG    1        1.606   5.150  -0.131  0.00  0.00    +0.170 A 
ATOM      9  N   LIG    1        1.008   5.717   0.927  0.00  0.00    -0.470 NA
ATOM     10  C   LIG    1       -0.134   5.124   1.148  0.00  0.00    +0.410 A 
ENDBRANCH   2   6
BRANCH   1  12
ATOM     11  O   LIG    1       -0.007  -0.009   0.169  0.00  0.00    -0.140 OA
ATOM     12  N   LIG    1       -0.033   1.204   0.273  0.00  0.00    +0.040 N 
ATOM     13  O   LIG    1        0.997   1.819   0.485  0.00  0.00    -0.140 OA
ENDBRANCH   1  12
TORSDOF 2
