REMARK  Name = ZINC000139519384
REMARK                            x       y       z     vdW  Elec       q    Type
REMARK                         _______ _______ _______ _____ _____    ______ ____
ROOT
ATOM      1  N   LIG    1       -3.262  -0.386  -1.100  0.00  0.00    -0.410 N 
ATOM      2  C   LIG    1       -3.351   0.211  -2.329  0.00  0.00    +0.220 A 
ATOM      3  C   LIG    1       -4.215  -0.522  -3.057  0.00  0.00    +0.190 A 
ATOM      4  N   LIG    1       -4.641  -1.540  -2.294  0.00  0.00    -0.400 NA
ATOM      5  C   LIG    1       -4.071  -1.467  -1.122  0.00  0.00    +0.230 A 
ENDROOT
BRANCH   5   6
ATOM      6  N   LIG    1       -4.283  -2.409   0.000  0.00  0.00    +0.070 N 
ATOM      7  O   LIG    1       -3.694  -2.243   1.054  0.00  0.00    -0.150 OA
ATOM      8  O   LIG    1       -5.045  -3.350  -0.130  0.00  0.00    -0.100 OA
ENDBRANCH   5   6
BRANCH   1   9
ATOM      9  C   LIG    1       -2.438   0.061   0.026  0.00  0.00    +0.350 C 
BRANCH   9  12
ATOM     10  C   LIG    1       -0.018   1.503   0.010  0.00  0.00    +0.080 C 
ATOM     11  C   LIG    1        0.002  -0.004   0.002  0.00  0.00    -0.080 C 
ATOM     12  C   LIG    1       -1.123  -0.674   0.009  0.00  0.00    -0.080 C 
ATOM     13  C   LIG    1        1.317  -0.740  -0.015  0.00  0.00    +0.100 C 
ENDBRANCH   9  12
ENDBRANCH   1   9
TORSDOF 3
