REMARK  Name = ZINC000200724964
REMARK                            x       y       z     vdW  Elec       q    Type
REMARK                         _______ _______ _______ _____ _____    ______ ____
ROOT
ATOM      1  C   LIG    1        0.352  -0.096   1.117  0.00  0.00    +0.380 A 
ATOM      2  N   LIG    1       -0.586  -0.909   1.514  0.00  0.00    -0.330 NA
ATOM      3  O   LIG    1       -0.276  -2.227   1.108  0.00  0.00    -0.080 OA
ATOM      4  C   LIG    1        0.894  -2.228   0.437  0.00  0.00    +0.110 A 
ATOM      5  C   LIG    1        1.645  -3.229  -0.167  0.00  0.00    +0.080 A 
ATOM      6  C   LIG    1        2.832  -2.915  -0.793  0.00  0.00    +0.110 A 
ATOM      7  C   LIG    1        3.288  -1.605  -0.827  0.00  0.00    +0.080 A 
ATOM      8  C   LIG    1        2.558  -0.600  -0.234  0.00  0.00    +0.040 A 
ATOM      9  C   LIG    1        1.351  -0.901   0.397  0.00  0.00    -0.170 A 
ENDROOT
BRANCH   1  10
ATOM     10  N   LIG    1        0.398   1.275   1.328  0.00  0.00    -0.810 N 
ATOM     11  H   LIG    1       -0.151   1.677   2.019  0.00  0.00    +0.420 HD
ATOM     12  H   LIG    1        0.975   1.831   0.782  0.00  0.00    +0.420 HD
ENDBRANCH   1  10
BRANCH   8  13
ATOM     13  N   LIG    1        3.048   0.797  -0.273  0.00  0.00    +0.020 N 
ATOM     14  O   LIG    1        2.918   1.515   0.702  0.00  0.00    -0.160 OA
ATOM     15  O   LIG    1        3.580   1.227  -1.280  0.00  0.00    -0.120 OA
ENDBRANCH   8  13
TORSDOF 2
