REMARK  Name = ZINC000224135189
REMARK                            x       y       z     vdW  Elec       q    Type
REMARK                         _______ _______ _______ _____ _____    ______ ____
ROOT
ATOM      1  O   LIG    1        1.583  -3.830  -2.726  0.00  0.00    -0.360 OA
ENDROOT
BRANCH   1   2
ATOM      2  C   LIG    1        1.444  -2.513  -2.505  0.00  0.00    +0.460 C 
ATOM      3  O   LIG    1        1.885  -1.718  -3.300  0.00  0.00    -0.500 OA
BRANCH   2   4
ATOM      4  C   LIG    1        0.739  -2.027  -1.265  0.00  0.00    +0.110 C 
BRANCH   4   5
ATOM      5  C   LIG    1        0.718  -0.497  -1.257  0.00  0.00    +0.030 C 
BRANCH   5   7
ATOM      6  C   LIG    1       -0.019   1.526   0.010  0.00  0.00    +0.030 C 
ATOM      7  C   LIG    1        0.002  -0.004   0.002  0.00  0.00    +0.020 C 
ENDBRANCH   5   7
ENDBRANCH   4   5
ENDBRANCH   2   4
ENDBRANCH   1   2
BRANCH   1   8
ATOM      8  C   LIG    1        2.273  -4.226  -3.941  0.00  0.00    +0.230 C 
BRANCH   8   9
ATOM      9  C   LIG    1        2.333  -5.753  -4.019  0.00  0.00    +0.070 C 
BRANCH   9  10
ATOM     10  C   LIG    1        3.060  -6.170  -5.299  0.00  0.00    +0.270 C 
BRANCH  10  11
ATOM     11  N   LIG    1        3.118  -7.631  -5.373  0.00  0.00    -0.020 N 
ATOM     12  O   LIG    1        4.157  -8.185  -5.686  0.00  0.00    -0.160 OA
ATOM     13  O   LIG    1        2.127  -8.294  -5.123  0.00  0.00    -0.150 OA
ENDBRANCH  10  11
ENDBRANCH   9  10
ENDBRANCH   8   9
ENDBRANCH   1   8
TORSDOF 8
