REMARK  Name = ZINC000020348852
REMARK                            x       y       z     vdW  Elec       q    Type
REMARK                         _______ _______ _______ _____ _____    ______ ____
ROOT
ATOM      1  C   LIG    1       -0.018   1.503   0.010  0.00  0.00    +0.110 C 
ATOM      2  C   LIG    1        0.002  -0.004   0.002  0.00  0.00    -0.120 A 
ATOM      3  C   LIG    1        0.006  -0.688  -1.200  0.00  0.00    +0.120 A 
ATOM      4  C   LIG    1        0.024  -2.069  -1.210  0.00  0.00    -0.060 A 
ATOM      5  C   LIG    1        0.039  -2.770  -0.013  0.00  0.00    +0.190 A 
ATOM      6  C   LIG    1        0.036  -2.082   1.192  0.00  0.00    -0.080 A 
ATOM      7  C   LIG    1        0.023  -0.701   1.196  0.00  0.00    +0.140 A 
ENDROOT
BRANCH   6   8
ATOM      8  N   LIG    1        0.052  -2.827   2.470  0.00  0.00    +0.030 N 
ATOM      9  O   LIG    1        0.068  -4.045   2.465  0.00  0.00    -0.130 OA
ATOM     10  O   LIG    1        0.049  -2.222   3.527  0.00  0.00    -0.180 OA
ENDBRANCH   6   8
BRANCH   5  11
ATOM     11  O   LIG    1        0.058  -4.129  -0.021  0.00  0.00    -0.270 OA
BRANCH  11  12
ATOM     12  C   LIG    1        0.060  -4.771  -1.298  0.00  0.00    +0.210 C 
BRANCH  12  13
ATOM     13  C   LIG    1        0.082  -6.288  -1.105  0.00  0.00    +0.210 C 
BRANCH  13  14
ATOM     14  O   LIG    1       -1.131  -6.706  -0.475  0.00  0.00    -0.570 OA
ATOM     15  H   LIG    1       -1.186  -7.659  -0.322  0.00  0.00    +0.390 HD
ENDBRANCH  13  14
ENDBRANCH  12  13
ENDBRANCH  11  12
ENDBRANCH   5  11
TORSDOF 5
