REMARK  Name = ZINC000842320986
REMARK                            x       y       z     vdW  Elec       q    Type
REMARK                         _______ _______ _______ _____ _____    ______ ____
ROOT
ATOM      1  C   LIG    1       -2.247  -0.207   0.763  0.00  0.00    +0.500 C 
ATOM      2  O   LIG    1       -1.988   0.650   1.574  0.00  0.00    -0.490 OA
ENDROOT
BRANCH   1   3
ATOM      3  C   LIG    1       -3.610  -0.851   0.756  0.00  0.00    +0.030 C 
ATOM      4  C   LIG    1       -4.798   0.014   0.331  0.00  0.00    +0.190 C 
ATOM      5  C   LIG    1       -4.621  -0.375   1.800  0.00  0.00    +0.130 C 
BRANCH   5   6
ATOM      6  N   LIG    1       -5.543  -1.371   2.352  0.00  0.00    +0.010 N 
ATOM      7  O   LIG    1       -5.548  -1.600   3.548  0.00  0.00    -0.140 OA
ATOM      8  O   LIG    1       -6.305  -1.971   1.614  0.00  0.00    -0.150 OA
ENDBRANCH   5   6
ENDBRANCH   1   3
BRANCH   1   9
ATOM      9  O   LIG    1       -1.322  -0.585  -0.133  0.00  0.00    -0.330 OA
BRANCH   9  11
ATOM     10  C   LIG    1       -0.268   1.634  -0.506  0.00  0.00    +0.070 C 
ATOM     11  C   LIG    1       -0.075   0.159  -0.147  0.00  0.00    +0.090 C 
ATOM     12  C   LIG    1        1.046  -0.528  -0.945  0.00  0.00    +0.060 C 
ATOM     13  C   LIG    1        2.007  -0.076   0.168  0.00  0.00    +0.030 C 
ATOM     14  C   LIG    1        0.788  -0.062   1.106  0.00  0.00    +0.020 C 
ENDBRANCH   9  11
ENDBRANCH   1   9
TORSDOF 4
