REMARK  Name = ZINC000687808064
REMARK                            x       y       z     vdW  Elec       q    Type
REMARK                         _______ _______ _______ _____ _____    ______ ____
ROOT
ATOM      1  C   LIG    1       -0.018   1.503   0.010  0.00  0.00    +0.090 C 
ATOM      2  C   LIG    1        0.002  -0.004   0.002  0.00  0.00    -0.160 A 
ATOM      3  C   LIG    1        0.006  -0.689  -1.197  0.00  0.00    +0.040 A 
ATOM      4  C   LIG    1        0.024  -2.072  -1.206  0.00  0.00    -0.050 A 
ATOM      5  C   LIG    1        0.039  -2.773  -0.014  0.00  0.00    +0.040 A 
ATOM      6  C   LIG    1        0.036  -2.095   1.189  0.00  0.00    -0.070 A 
ATOM      7  C   LIG    1        0.023  -0.706   1.201  0.00  0.00    +0.210 A 
ENDROOT
BRANCH   7   8
ATOM      8  N   LIG    1        0.020  -0.017   2.416  0.00  0.00    -0.750 N 
ATOM      9  H   LIG    1        0.011   0.953   2.423  0.00  0.00    +0.400 HD
BRANCH   8  10
ATOM     10  C   LIG    1        0.030  -0.758   3.679  0.00  0.00    +0.290 C 
BRANCH  10  11
ATOM     11  C   LIG    1        0.024   0.227   4.849  0.00  0.00    +0.250 C 
BRANCH  11  12
ATOM     12  N   LIG    1        0.035  -0.515   6.112  0.00  0.00    -0.020 N 
ATOM     13  O   LIG    1       -0.702  -1.473   6.262  0.00  0.00    -0.150 OA
ATOM     14  O   LIG    1        0.780  -0.173   7.013  0.00  0.00    -0.150 OA
ENDBRANCH  11  12
ENDBRANCH  10  11
ENDBRANCH   8  10
ENDBRANCH   7   8
TORSDOF 4
