REMARK  Name = ZINC000604495119
REMARK                            x       y       z     vdW  Elec       q    Type
REMARK                         _______ _______ _______ _____ _____    ______ ____
ROOT
ATOM      1  C   LIG    1        1.160  -2.410   2.547  0.00  0.00    +0.380 A 
ATOM      2  N   LIG    1        2.262  -1.966   3.132  0.00  0.00    -0.510 NA
ATOM      3  C   LIG    1        2.627  -2.386   4.328  0.00  0.00    +0.350 A 
ATOM      4  C   LIG    1        1.867  -3.310   5.017  0.00  0.00    -0.020 A 
ATOM      5  C   LIG    1        0.704  -3.801   4.439  0.00  0.00    +0.180 A 
ATOM      6  C   LIG    1        0.344  -3.338   3.186  0.00  0.00    -0.110 A 
ENDROOT
BRANCH   6   7
ATOM      7  N   LIG    1       -0.783  -3.791   2.584  0.00  0.00    +0.070 N 
ATOM      8  O   LIG    1       -1.038  -3.458   1.441  0.00  0.00    -0.110 OA
ATOM      9  O   LIG    1       -1.540  -4.530   3.188  0.00  0.00    -0.220 OA
ENDBRANCH   6   7
BRANCH   1  10
ATOM     10  N   LIG    1        0.813  -1.941   1.285  0.00  0.00    -0.480 N 
ATOM     11  C   LIG    1        1.756  -2.422   0.267  0.00  0.00    +0.230 C 
BRANCH  10  12
ATOM     12  C   LIG    1        0.730  -0.474   1.274  0.00  0.00    +0.180 C 
BRANCH  12  14
ATOM     13  C   LIG    1        0.023   1.519  -0.057  0.00  0.00    +0.010 C 
ATOM     14  C   LIG    1        0.109  -0.009  -0.045  0.00  0.00    +0.030 C 
ENDBRANCH  12  14
ENDBRANCH  10  12
ENDBRANCH   1  10
TORSDOF 4
