REMARK  Name = ZINC000899883405
REMARK                            x       y       z     vdW  Elec       q    Type
REMARK                         _______ _______ _______ _____ _____    ______ ____
ROOT
ATOM      1  S   LIG    1        1.277  -0.424  -3.463  0.00  0.00    -0.220 S 
ENDROOT
BRANCH   1   2
ATOM      2  C   LIG    1       -0.122   0.102  -2.434  0.00  0.00    +0.130 C 
BRANCH   2   5
ATOM      3  C   LIG    1        0.191   1.490   0.000  0.00  0.00    +0.080 C 
ATOM      4  C   LIG    1        0.104  -0.014  -0.006  0.00  0.00    -0.090 C 
ATOM      5  C   LIG    1       -0.099  -0.654  -1.131  0.00  0.00    -0.050 C 
ATOM      6  C   LIG    1        0.249  -0.783   1.282  0.00  0.00    +0.090 C 
ENDBRANCH   2   5
ENDBRANCH   1   2
BRANCH   1   7
ATOM      7  C   LIG    1        1.081   0.580  -4.961  0.00  0.00    +0.090 C 
BRANCH   7   8
ATOM      8  C   LIG    1        2.204   0.248  -5.947  0.00  0.00    +0.290 C 
BRANCH   8   9
ATOM      9  N   LIG    1        2.046   1.059  -7.157  0.00  0.00    -0.020 N 
ATOM     10  O   LIG    1        2.165   0.544  -8.255  0.00  0.00    -0.150 OA
ATOM     11  O   LIG    1        1.795   2.247  -7.066  0.00  0.00    -0.160 OA
ENDBRANCH   8   9
ENDBRANCH   7   8
ENDBRANCH   1   7
TORSDOF 5
