REMARK  Name = ZINC000118418797
REMARK                            x       y       z     vdW  Elec       q    Type
REMARK                         _______ _______ _______ _____ _____    ______ ____
ROOT
ATOM      1  N   LIG    1        0.713  -0.491   1.192  0.00  0.00    -0.500 NA
ATOM      2  C   LIG    1        2.068   0.098   1.278  0.00  0.00    +0.250 C 
ATOM      3  C   LIG    1        2.936  -0.965   1.913  0.00  0.00    -0.050 A 
ATOM      4  C   LIG    1        4.173  -0.900   2.523  0.00  0.00    +0.050 A 
ATOM      5  C   LIG    1        4.756  -2.047   3.030  0.00  0.00    +0.110 A 
ATOM      6  C   LIG    1        4.101  -3.259   2.925  0.00  0.00    -0.040 A 
ATOM      7  C   LIG    1        2.862  -3.325   2.314  0.00  0.00    +0.120 A 
ATOM      8  C   LIG    1        2.279  -2.180   1.808  0.00  0.00    -0.100 A 
ATOM      9  C   LIG    1        0.963  -1.947   1.102  0.00  0.00    +0.250 C 
ENDROOT
BRANCH   6  10
ATOM     10  N   LIG    1        4.725  -4.487   3.467  0.00  0.00    +0.030 N 
ATOM     11  O   LIG    1        4.148  -5.556   3.374  0.00  0.00    -0.160 OA
ATOM     12  O   LIG    1        5.816  -4.429   4.005  0.00  0.00    -0.160 OA
ENDBRANCH   6  10
BRANCH   1  14
ATOM     13  C   LIG    1       -0.019   1.526   0.010  0.00  0.00    +0.040 C 
ATOM     14  C   LIG    1        0.002  -0.004   0.002  0.00  0.00    +0.170 C 
ENDBRANCH   1  14
TORSDOF 2
