REMARK  Name = ZINC001118425479
REMARK                            x       y       z     vdW  Elec       q    Type
REMARK                         _______ _______ _______ _____ _____    ______ ____
ROOT
ATOM      1  C   LIG    1       -1.412  -0.526   0.013  0.00  0.00    +0.190 A 
ATOM      2  N   LIG    1       -2.310  -0.300   0.929  0.00  0.00    -0.280 NA
ATOM      3  N   LIG    1       -3.403  -0.901   0.613  0.00  0.00    -0.260 NA
ATOM      4  C   LIG    1       -3.239  -1.530  -0.516  0.00  0.00    +0.170 A 
ATOM      5  O   LIG    1       -1.979  -1.304  -0.924  0.00  0.00    -0.210 OA
ENDROOT
BRANCH   1   7
ATOM      6  C   LIG    1       -0.019   1.526   0.010  0.00  0.00    +0.060 C 
ATOM      7  C   LIG    1        0.002  -0.004   0.002  0.00  0.00    +0.110 C 
ATOM      8  C   LIG    1        0.742  -0.511   1.242  0.00  0.00    +0.060 C 
ENDBRANCH   1   7
BRANCH   4   9
ATOM      9  C   LIG    1       -4.275  -2.356  -1.235  0.00  0.00    +0.130 C 
ATOM     10  C   LIG    1       -5.708  -2.312  -0.702  0.00  0.00    +0.200 C 
ATOM     11  C   LIG    1       -4.853  -3.564  -0.495  0.00  0.00    +0.110 C 
BRANCH  11  12
ATOM     12  N   LIG    1       -5.185  -4.749  -1.290  0.00  0.00    +0.010 N 
ATOM     13  O   LIG    1       -4.642  -5.813  -1.053  0.00  0.00    -0.150 OA
ATOM     14  O   LIG    1       -6.005  -4.670  -2.187  0.00  0.00    -0.150 OA
ENDBRANCH  11  12
ENDBRANCH   4   9
TORSDOF 3
