REMARK  Name = ZINC000096550138
REMARK                            x       y       z     vdW  Elec       q    Type
REMARK                         _______ _______ _______ _____ _____    ______ ____
ROOT
ATOM      1  C   LIG    1       -1.580  -1.639  -0.686  0.00  0.00    +0.170 A 
ATOM      2  C   LIG    1       -0.534  -2.337  -1.281  0.00  0.00    -0.010 A 
ATOM      3  C   LIG    1       -0.830  -3.495  -1.983  0.00  0.00    +0.100 A 
ATOM      4  C   LIG    1       -2.144  -3.915  -2.068  0.00  0.00    +0.270 A 
ATOM      5  N   LIG    1       -3.113  -3.230  -1.492  0.00  0.00    -0.380 NA
ATOM      6  C   LIG    1       -2.873  -2.127  -0.812  0.00  0.00    +0.100 A 
ENDROOT
BRANCH   6   7
ATOM      7  N   LIG    1       -3.901  -1.457  -0.238  0.00  0.00    +0.070 N 
ATOM      8  O   LIG    1       -3.687  -0.437   0.393  0.00  0.00    -0.160 OA
ATOM      9  O   LIG    1       -5.040  -1.874  -0.352  0.00  0.00    -0.160 OA
ENDBRANCH   6   7
BRANCH   1  10
ATOM     10  O   LIG    1       -1.339  -0.499   0.012  0.00  0.00    -0.260 OA
BRANCH  10  12
ATOM     11  C   LIG    1       -0.012   1.507   0.252  0.00  0.00    +0.080 C 
ATOM     12  C   LIG    1        0.001  -0.002   0.000  0.00  0.00    +0.150 C 
ATOM     13  C   LIG    1        0.812  -0.695   1.097  0.00  0.00    +0.040 C 
ENDBRANCH  10  12
ENDBRANCH   1  10
TORSDOF 3
