REMARK  Name = ZINC000610167350
REMARK                            x       y       z     vdW  Elec       q    Type
REMARK                         _______ _______ _______ _____ _____    ______ ____
ROOT
ATOM      1  N   LIG    1       -4.415  -4.263   0.021  0.00  0.00    -0.450 N 
ATOM      2  C   LIG    1       -5.178  -4.480   1.115  0.00  0.00    +0.460 A 
ATOM      3  N   LIG    1       -6.377  -4.817   0.727  0.00  0.00    -0.450 NA
ATOM      4  C   LIG    1       -6.423  -4.827  -0.613  0.00  0.00    +0.040 A 
ATOM      5  C   LIG    1       -5.207  -4.477  -1.074  0.00  0.00    +0.270 A 
ENDROOT
BRANCH   4   6
ATOM      6  N   LIG    1       -7.606  -5.157  -1.440  0.00  0.00    +0.060 N 
ATOM      7  O   LIG    1       -7.525  -5.131  -2.656  0.00  0.00    -0.160 OA
ATOM      8  O   LIG    1       -8.659  -5.454  -0.906  0.00  0.00    -0.130 OA
ENDBRANCH   4   6
BRANCH   1   9
ATOM      9  C   LIG    1       -3.005  -3.866   0.010  0.00  0.00    +0.320 C 
BRANCH   9  10
ATOM     10  C   LIG    1       -2.905  -2.339   0.017  0.00  0.00    +0.020 C 
BRANCH  10  11
ATOM     11  C   LIG    1       -1.432  -1.925   0.005  0.00  0.00    +0.190 C 
BRANCH  11  12
ATOM     12  O   LIG    1       -1.339  -0.499   0.012  0.00  0.00    -0.390 OA
BRANCH  12  14
ATOM     13  C   LIG    1       -0.019   1.526   0.010  0.00  0.00    +0.040 C 
ATOM     14  C   LIG    1        0.002  -0.004   0.002  0.00  0.00    +0.160 C 
ENDBRANCH  12  14
ENDBRANCH  11  12
ENDBRANCH  10  11
ENDBRANCH   9  10
ENDBRANCH   1   9
TORSDOF 6
