REMARK  Name = ZINC000905294017
REMARK                            x       y       z     vdW  Elec       q    Type
REMARK                         _______ _______ _______ _____ _____    ______ ____
ROOT
ATOM      1  N   LIG    1       -3.510   1.997   1.050  0.00  0.00    -0.740 N 
ATOM      2  H   LIG    1       -3.646   2.756   0.460  0.00  0.00    +0.410 HD
ENDROOT
BRANCH   1   3
ATOM      3  C   LIG    1       -4.533   1.587   1.907  0.00  0.00    +0.240 A 
ATOM      4  C   LIG    1       -4.337   0.505   2.756  0.00  0.00    -0.070 A 
ATOM      5  C   LIG    1       -5.350   0.101   3.604  0.00  0.00    +0.100 A 
ATOM      6  C   LIG    1       -6.559   0.772   3.609  0.00  0.00    -0.060 A 
ATOM      7  C   LIG    1       -6.758   1.851   2.764  0.00  0.00    +0.150 A 
ATOM      8  F   LIG    1       -7.941   2.505   2.772  0.00  0.00    -0.140 F 
ATOM      9  C   LIG    1       -5.745   2.264   1.918  0.00  0.00    -0.100 A 
ENDBRANCH   1   3
BRANCH   1  10
ATOM     10  C   LIG    1       -2.231   1.282   1.040  0.00  0.00    +0.290 C 
BRANCH  10  11
ATOM     11  C   LIG    1       -1.293   1.929   0.019  0.00  0.00    +0.260 C 
BRANCH  11  13
ATOM     12  O   LIG    1        0.002  -0.004   0.002  0.00  0.00    -0.150 OA
ATOM     13  N   LIG    1       -0.014   1.214   0.009  0.00  0.00    -0.020 N 
ATOM     14  O   LIG    1        1.032   1.837   0.002  0.00  0.00    -0.150 OA
ENDBRANCH  11  13
ENDBRANCH  10  11
ENDBRANCH   1  10
TORSDOF 4
