REMARK  Name = ZINC000105037462
REMARK                            x       y       z     vdW  Elec       q    Type
REMARK                         _______ _______ _______ _____ _____    ______ ____
ROOT
ATOM      1  C   LIG    1       -0.898   1.353   0.189  0.00  0.00    +0.350 C 
ATOM      2  N   LIG    1       -0.570  -0.073   0.117  0.00  0.00    -0.480 N 
ATOM      3  C   LIG    1       -0.708  -0.881  -0.970  0.00  0.00    +0.450 A 
ATOM      4  N   LIG    1       -0.314  -2.082  -0.650  0.00  0.00    -0.420 NA
ATOM      5  C   LIG    1        0.085  -2.094   0.631  0.00  0.00    -0.040 A 
ATOM      6  C   LIG    1       -0.062  -0.843   1.129  0.00  0.00    +0.390 A 
ENDROOT
BRANCH   5   7
ATOM      7  N   LIG    1        0.601  -3.269   1.370  0.00  0.00    +0.080 N 
ATOM      8  O   LIG    1        0.935  -3.157   2.536  0.00  0.00    -0.200 OA
ATOM      9  O   LIG    1        0.693  -4.347   0.812  0.00  0.00    -0.140 OA
ENDBRANCH   5   7
BRANCH   6  10
ATOM     10  N   LIG    1        0.238  -0.423   2.426  0.00  0.00    -0.680 N 
ATOM     11  H   LIG    1        0.507  -1.071   3.096  0.00  0.00    +0.430 HD
BRANCH  10  12
ATOM     12  C   LIG    1        0.146   0.997   2.775  0.00  0.00    +0.200 C 
ATOM     13  C   LIG    1       -1.107   1.351   3.593  0.00  0.00    +0.010 C 
ATOM     14  C   LIG    1       -0.279   1.040   4.851  0.00  0.00    +0.020 C 
ATOM     15  C   LIG    1        0.968   1.380   4.017  0.00  0.00    +0.040 C 
ENDBRANCH  10  12
ENDBRANCH   6  10
TORSDOF 3
