REMARK  Name = ZINC000087200361
REMARK                            x       y       z     vdW  Elec       q    Type
REMARK                         _______ _______ _______ _____ _____    ______ ____
ROOT
ATOM      1  C   LIG    1       -1.306   1.936   0.019  0.00  0.00    -0.040 A 
ATOM      2  C   LIG    1       -1.325   3.318   0.021  0.00  0.00    +0.090 A 
ATOM      3  C   LIG    1       -2.532   3.993   0.030  0.00  0.00    +0.040 A 
ATOM      4  C   LIG    1       -3.719   3.286   0.037  0.00  0.00    +0.070 A 
ATOM      5  C   LIG    1       -3.700   1.904   0.034  0.00  0.00    -0.070 A 
ATOM      6  C   LIG    1       -2.494   1.229   0.021  0.00  0.00    +0.100 A 
ENDROOT
BRANCH   5   7
ATOM      7  C   LIG    1       -4.995   1.133   0.043  0.00  0.00    +0.030 C 
ATOM      8  C   LIG    1       -6.090   1.776   0.910  0.00  0.00    +0.060 C 
ATOM      9  C   LIG    1       -7.084   1.389  -0.198  0.00  0.00    +0.170 C 
ATOM     10  C   LIG    1       -5.894   1.425  -1.171  0.00  0.00    +0.010 C 
BRANCH   9  11
ATOM     11  O   LIG    1       -8.068   2.392  -0.460  0.00  0.00    -0.560 OA
ATOM     12  H   LIG    1       -8.696   2.155  -1.155  0.00  0.00    +0.380 HD
ENDBRANCH   9  11
ENDBRANCH   5   7
BRANCH   1  14
ATOM     13  O   LIG    1        0.002  -0.004   0.002  0.00  0.00    -0.160 OA
ATOM     14  N   LIG    1       -0.014   1.214   0.009  0.00  0.00    +0.030 N 
ATOM     15  O   LIG    1        1.032   1.837   0.002  0.00  0.00    -0.160 OA
ENDBRANCH   1  14
TORSDOF 3
