REMARK  Name = ZINC000228887481
REMARK                            x       y       z     vdW  Elec       q    Type
REMARK                         _______ _______ _______ _____ _____    ______ ____
ROOT
ATOM      1  C   LIG    1       -1.817   0.097  -1.662  0.00  0.00    +0.600 A 
ATOM      2  N   LIG    1       -1.205   1.136  -2.212  0.00  0.00    -0.540 NA
ATOM      3  C   LIG    1       -1.743   1.771  -3.241  0.00  0.00    +0.470 A 
ATOM      4  C   LIG    1       -2.961   1.337  -3.741  0.00  0.00    -0.230 A 
ATOM      5  C   LIG    1       -3.574   0.248  -3.142  0.00  0.00    +0.470 A 
ATOM      6  N   LIG    1       -2.979  -0.345  -2.120  0.00  0.00    -0.560 NA
ENDROOT
BRANCH   4   7
ATOM      7  N   LIG    1       -3.593   2.022  -4.891  0.00  0.00    +0.050 N 
ATOM      8  O   LIG    1       -4.663   1.630  -5.320  0.00  0.00    -0.160 OA
ATOM      9  O   LIG    1       -3.043   2.978  -5.408  0.00  0.00    -0.160 OA
ENDBRANCH   4   7
BRANCH   1  10
ATOM     10  N   LIG    1       -1.226  -0.544  -0.588  0.00  0.00    -0.640 N 
ATOM     11  H   LIG    1       -1.696  -1.259  -0.131  0.00  0.00    +0.420 HD
BRANCH  10  13
ATOM     12  C   LIG    1        1.239  -0.367  -1.148  0.00  0.00    +0.090 C 
ATOM     13  C   LIG    1        0.110  -0.142  -0.140  0.00  0.00    +0.100 C 
ATOM     14  C   LIG    1        0.442  -0.320   1.343  0.00  0.00    +0.040 C 
ATOM     15  C   LIG    1        0.211   1.081   0.773  0.00  0.00    +0.050 C 
ENDBRANCH  10  13
ENDBRANCH   1  10
TORSDOF 3
