REMARK  Name = ZINC000095830697
REMARK                            x       y       z     vdW  Elec       q    Type
REMARK                         _______ _______ _______ _____ _____    ______ ____
ROOT
ATOM      1  C   LIG    1       -0.000  -0.733  -1.276  0.00  0.00    -0.170 A 
ATOM      2  C   LIG    1       -0.015  -0.031  -2.486  0.00  0.00    +0.140 A 
ATOM      3  C   LIG    1       -0.017  -0.721  -3.680  0.00  0.00    +0.060 A 
ATOM      4  C   LIG    1       -0.005  -2.105  -3.683  0.00  0.00    +0.000 A 
ATOM      5  C   LIG    1        0.011  -2.807  -2.490  0.00  0.00    -0.050 A 
ATOM      6  C   LIG    1        0.019  -2.131  -1.288  0.00  0.00    +0.170 A 
ENDROOT
BRANCH   1   8
ATOM      7  C   LIG    1       -0.018   1.503   0.010  0.00  0.00    +0.090 C 
ATOM      8  C   LIG    1        0.002  -0.004   0.002  0.00  0.00    +0.400 C 
ATOM      9  O   LIG    1        0.020  -0.616   1.049  0.00  0.00    -0.440 OA
ENDBRANCH   1   8
BRANCH   5  10
ATOM     10  N   LIG    1        0.025  -4.287  -2.505  0.00  0.00    +0.030 N 
ATOM     11  O   LIG    1        0.023  -4.886  -3.566  0.00  0.00    -0.160 OA
ATOM     12  O   LIG    1        0.039  -4.907  -1.456  0.00  0.00    -0.150 OA
ENDBRANCH   5  10
BRANCH   4  13
ATOM     13  C   LIG    1       -0.008  -2.851  -4.992  0.00  0.00    +0.290 C 
BRANCH  13  14
ATOM     14  O   LIG    1       -0.024  -1.917  -6.073  0.00  0.00    -0.570 OA
ATOM     15  H   LIG    1       -0.027  -2.328  -6.948  0.00  0.00    +0.400 HD
ENDBRANCH  13  14
ENDBRANCH   4  13
TORSDOF 4
