REMARK  Name = ZINC000082563334
REMARK                            x       y       z     vdW  Elec       q    Type
REMARK                         _______ _______ _______ _____ _____    ______ ____
ROOT
ATOM      1  N   LIG    1       -3.480  -1.280  -1.009  0.00  0.00    -0.350 N 
ATOM      2  C   LIG    1       -4.633  -0.751  -1.470  0.00  0.00    +0.360 A 
ATOM      3  C   LIG    1       -5.651  -1.501  -0.988  0.00  0.00    -0.190 A 
ATOM      4  C   LIG    1       -5.102  -2.522  -0.206  0.00  0.00    +0.320 A 
ATOM      5  N   LIG    1       -3.800  -2.394  -0.223  0.00  0.00    -0.250 NA
ENDROOT
BRANCH   3   6
ATOM      6  N   LIG    1       -7.092  -1.280  -1.244  0.00  0.00    +0.070 N 
ATOM      7  O   LIG    1       -7.920  -2.026  -0.752  0.00  0.00    -0.160 OA
ATOM      8  O   LIG    1       -7.451  -0.351  -1.947  0.00  0.00    -0.170 OA
ENDBRANCH   3   6
BRANCH   1   9
ATOM      9  C   LIG    1       -2.131  -0.779  -1.287  0.00  0.00    +0.350 C 
BRANCH   9  10
ATOM     10  C   LIG    1       -1.412  -0.526   0.013  0.00  0.00    +0.340 C 
ATOM     11  O   LIG    1       -1.968  -0.740   1.063  0.00  0.00    -0.410 OA
BRANCH  10  13
ATOM     12  C   LIG    1       -0.019   1.526   0.010  0.00  0.00    +0.060 C 
ATOM     13  C   LIG    1        0.002  -0.004   0.002  0.00  0.00    -0.030 C 
ATOM     14  C   LIG    1        0.742  -0.511   1.242  0.00  0.00    +0.060 C 
ENDBRANCH  10  13
ENDBRANCH   9  10
ENDBRANCH   1   9
TORSDOF 4
