REMARK  Name = ZINC000601169282
REMARK                            x       y       z     vdW  Elec       q    Type
REMARK                         _______ _______ _______ _____ _____    ______ ____
ROOT
ATOM      1  C   LIG    1        0.000  -0.693  -1.206  0.00  0.00    +0.440 A 
ATOM      2  C   LIG    1        0.090   0.013  -2.401  0.00  0.00    -0.070 A 
ATOM      3  C   LIG    1        0.087  -0.685  -3.596  0.00  0.00    +0.190 A 
ATOM      4  C   LIG    1       -0.006  -2.070  -3.554  0.00  0.00    -0.160 A 
ATOM      5  C   LIG    1       -0.092  -2.705  -2.331  0.00  0.00    +0.430 A 
ATOM      6  N   LIG    1       -0.082  -2.014  -1.207  0.00  0.00    -0.530 NA
ENDROOT
BRANCH   4   7
ATOM      7  N   LIG    1       -0.012  -2.857  -4.807  0.00  0.00    +0.040 N 
ATOM      8  O   LIG    1       -0.094  -4.071  -4.764  0.00  0.00    -0.160 OA
ATOM      9  O   LIG    1        0.065  -2.290  -5.883  0.00  0.00    -0.170 OA
ENDBRANCH   4   7
BRANCH   1  11
ATOM     10  C   LIG    1       -0.018   1.461   0.010  0.00  0.00    +0.310 C 
ATOM     11  N   LIG    1        0.002  -0.004   0.002  0.00  0.00    -0.590 N 
BRANCH  11  12
ATOM     12  C   LIG    1        0.024  -0.743   1.267  0.00  0.00    +0.280 C 
BRANCH  12  13
ATOM     13  C   LIG    1       -1.411  -1.020   1.720  0.00  0.00    +0.200 C 
ATOM     14  F   LIG    1       -1.389  -1.726   2.928  0.00  0.00    -0.210 F 
ENDBRANCH  12  13
ENDBRANCH  11  12
ENDBRANCH   1  11
TORSDOF 4
