REMARK  Name = ZINC000899232067
REMARK                            x       y       z     vdW  Elec       q    Type
REMARK                         _______ _______ _______ _____ _____    ______ ____
ROOT
ATOM      1  C   LIG    1       -2.411   0.929   3.384  0.00  0.00    +0.120 A 
ATOM      2  C   LIG    1       -3.603   0.265   3.135  0.00  0.00    -0.040 A 
ATOM      3  C   LIG    1       -4.331  -0.264   4.184  0.00  0.00    +0.030 A 
ATOM      4  C   LIG    1       -3.870  -0.131   5.483  0.00  0.00    +0.070 A 
ATOM      5  C   LIG    1       -2.680   0.530   5.733  0.00  0.00    +0.040 A 
ATOM      6  F   LIG    1       -4.583  -0.648   6.508  0.00  0.00    -0.140 F 
ATOM      7  C   LIG    1       -1.948   1.055   4.686  0.00  0.00    +0.020 A 
ENDROOT
BRANCH   1   8
ATOM      8  O   LIG    1       -1.694   1.450   2.353  0.00  0.00    -0.320 OA
BRANCH   8   9
ATOM      9  C   LIG    1       -2.231   1.282   1.040  0.00  0.00    +0.240 C 
BRANCH   9  10
ATOM     10  C   LIG    1       -1.293   1.929   0.019  0.00  0.00    +0.290 C 
BRANCH  10  12
ATOM     11  O   LIG    1        0.002  -0.004   0.002  0.00  0.00    -0.160 OA
ATOM     12  N   LIG    1       -0.014   1.214   0.009  0.00  0.00    -0.020 N 
ATOM     13  O   LIG    1        1.032   1.837   0.002  0.00  0.00    -0.150 OA
ENDBRANCH  10  12
ENDBRANCH   9  10
ENDBRANCH   8   9
ENDBRANCH   1   8
TORSDOF 4
