REMARK  Name = ZINC000039270484
REMARK                            x       y       z     vdW  Elec       q    Type
REMARK                         _______ _______ _______ _____ _____    ______ ____
ROOT
ATOM      1  C   LIG    1       -1.669  -1.885  -0.151  0.00  0.00    +0.380 A 
ATOM      2  C   LIG    1       -0.585  -2.739  -0.319  0.00  0.00    +0.020 A 
ATOM      3  C   LIG    1       -0.765  -4.100  -0.152  0.00  0.00    +0.060 A 
ATOM      4  C   LIG    1       -2.037  -4.565   0.180  0.00  0.00    +0.200 A 
ATOM      5  C   LIG    1       -3.072  -3.654   0.331  0.00  0.00    +0.130 A 
ATOM      6  N   LIG    1       -2.862  -2.361   0.170  0.00  0.00    -0.470 NA
ENDROOT
BRANCH   5   7
ATOM      7  N   LIG    1       -4.425  -4.138   0.684  0.00  0.00    +0.040 N 
ATOM      8  O   LIG    1       -5.406  -3.487   0.368  0.00  0.00    -0.120 OA
ATOM      9  O   LIG    1       -4.559  -5.186   1.290  0.00  0.00    -0.180 OA
ENDBRANCH   5   7
BRANCH   4  10
ATOM     10  N   LIG    1       -2.266  -5.935   0.359  0.00  0.00    -0.850 N 
ATOM     11  H   LIG    1       -3.173  -6.268   0.441  0.00  0.00    +0.410 HD
ATOM     12  H   LIG    1       -1.517  -6.550   0.401  0.00  0.00    +0.410 HD
ENDBRANCH   4  10
BRANCH   1  13
ATOM     13  N   LIG    1       -1.498  -0.513  -0.317  0.00  0.00    -0.730 N 
ATOM     14  H   LIG    1       -2.250   0.088  -0.198  0.00  0.00    +0.410 HD
BRANCH  13  16
ATOM     15  C   LIG    1       -0.267   1.546  -0.792  0.00  0.00    +0.040 C 
ATOM     16  C   LIG    1       -0.182   0.024  -0.672  0.00  0.00    +0.250 C 
ENDBRANCH  13  16
ENDBRANCH   1  13
TORSDOF 4
