REMARK  Name = ZINC000019776788
REMARK                            x       y       z     vdW  Elec       q    Type
REMARK                         _______ _______ _______ _____ _____    ______ ____
ROOT
ATOM      1  C   LIG    1        0.710  -1.985  -1.215  0.00  0.00    -0.310 A 
ATOM      2  C   LIG    1        1.760  -2.664  -0.625  0.00  0.00    +0.080 A 
ATOM      3  C   LIG    1        1.781  -4.045  -0.631  0.00  0.00    -0.090 A 
ATOM      4  C   LIG    1        0.748  -4.751  -1.230  0.00  0.00    +0.310 A 
ATOM      5  C   LIG    1       -0.305  -4.067  -1.822  0.00  0.00    -0.190 A 
ATOM      6  O   LIG    1        0.766  -6.110  -1.238  0.00  0.00    -0.600 OA
ATOM      7  C   LIG    1       -0.324  -2.686  -1.808  0.00  0.00    +0.160 A 
ENDROOT
BRANCH   5   8
ATOM      8  N   LIG    1       -1.409  -4.816  -2.462  0.00  0.00    +0.060 N 
ATOM      9  O   LIG    1       -1.393  -6.034  -2.470  0.00  0.00    -0.140 OA
ATOM     10  O   LIG    1       -2.332  -4.215  -2.981  0.00  0.00    -0.250 OA
ENDBRANCH   5   8
BRANCH   1  11
ATOM     11  C   LIG    1        0.690  -0.478  -1.207  0.00  0.00    +0.320 C 
BRANCH  11  13
ATOM     12  C   LIG    1       -0.018   1.465   0.010  0.00  0.00    +0.310 C 
ATOM     13  N   LIG    1        0.002  -0.004   0.002  0.00  0.00    -0.510 N 
ATOM     14  H   LIG    1       -0.945  -0.353   0.009  0.00  0.00    +0.430 HD
ATOM     15  H   LIG    1        0.490  -0.338   0.820  0.00  0.00    +0.430 HD
ENDBRANCH  11  13
ENDBRANCH   1  11
TORSDOF 3
