REMARK  Name = ZINC000087774799
REMARK                            x       y       z     vdW  Elec       q    Type
REMARK                         _______ _______ _______ _____ _____    ______ ____
ROOT
ATOM      1  C   LIG    1       -1.306   1.936   0.019  0.00  0.00    -0.040 A 
ATOM      2  C   LIG    1       -1.325   3.319   0.021  0.00  0.00    +0.110 A 
ATOM      3  C   LIG    1       -2.531   3.993   0.030  0.00  0.00    +0.040 A 
ATOM      4  C   LIG    1       -3.719   3.286   0.037  0.00  0.00    -0.040 A 
ATOM      5  C   LIG    1       -3.700   1.904   0.034  0.00  0.00    +0.060 A 
ATOM      6  C   LIG    1       -2.494   1.229   0.021  0.00  0.00    +0.110 A 
ENDROOT
BRANCH   1   8
ATOM      7  O   LIG    1        0.002  -0.004   0.002  0.00  0.00    -0.160 OA
ATOM      8  N   LIG    1       -0.014   1.214   0.009  0.00  0.00    +0.030 N 
ATOM      9  O   LIG    1        1.032   1.837   0.002  0.00  0.00    -0.160 OA
ENDBRANCH   1   8
BRANCH   4  10
ATOM     10  C   LIG    1       -5.034   4.022   0.048  0.00  0.00    +0.230 C 
BRANCH  10  11
ATOM     11  N   LIG    1       -5.471   4.263  -1.334  0.00  0.00    -0.680 NA
ATOM     12  H   LIG    1       -4.766   4.763  -1.854  0.00  0.00    +0.350 HD
BRANCH  11  13
ATOM     13  C   LIG    1       -6.753   4.980  -1.362  0.00  0.00    +0.170 C 
BRANCH  13  14
ATOM     14  C   LIG    1       -7.175   5.213  -2.815  0.00  0.00    +0.220 C 
ATOM     15  F   LIG    1       -8.396   5.896  -2.842  0.00  0.00    -0.210 F 
ENDBRANCH  13  14
ENDBRANCH  11  13
ENDBRANCH  10  11
ENDBRANCH   4  10
TORSDOF 5
