REMARK  Name = ZINC000039213980
REMARK                            x       y       z     vdW  Elec       q    Type
REMARK                         _______ _______ _______ _____ _____    ______ ____
ROOT
ATOM      1  C   LIG    1        1.226  -2.525  -2.389  0.00  0.00    +0.180 A 
ATOM      2  C   LIG    1        1.876  -1.761  -3.348  0.00  0.00    -0.060 A 
ATOM      3  C   LIG    1        2.476  -2.376  -4.430  0.00  0.00    +0.150 A 
ATOM      4  C   LIG    1        2.429  -3.752  -4.558  0.00  0.00    -0.090 A 
ATOM      5  C   LIG    1        1.782  -4.516  -3.604  0.00  0.00    +0.150 A 
ATOM      6  C   LIG    1        1.185  -3.906  -2.518  0.00  0.00    +0.010 A 
ENDROOT
BRANCH   4   7
ATOM      7  N   LIG    1        3.072  -4.408  -5.718  0.00  0.00    +0.030 N 
ATOM      8  O   LIG    1        3.031  -5.620  -5.832  0.00  0.00    -0.160 OA
ATOM      9  O   LIG    1        3.643  -3.736  -6.559  0.00  0.00    -0.160 OA
ENDBRANCH   4   7
BRANCH   1  10
ATOM     10  O   LIG    1        0.636  -1.923  -1.324  0.00  0.00    -0.290 OA
BRANCH  10  11
ATOM     11  C   LIG    1        0.718  -0.497  -1.257  0.00  0.00    +0.170 C 
BRANCH  11  13
ATOM     12  C   LIG    1       -0.019   1.526   0.010  0.00  0.00    +0.030 C 
ATOM     13  C   LIG    1        0.002  -0.004   0.002  0.00  0.00    +0.220 C 
BRANCH  13  14
ATOM     14  O   LIG    1        0.693  -0.477   1.160  0.00  0.00    -0.550 OA
ATOM     15  H   LIG    1        1.611  -0.180   1.219  0.00  0.00    +0.380 HD
ENDBRANCH  13  14
ENDBRANCH  11  13
ENDBRANCH  10  11
ENDBRANCH   1  10
TORSDOF 5
