REMARK  Name = ZINC000068575564
REMARK                            x       y       z     vdW  Elec       q    Type
REMARK                         _______ _______ _______ _____ _____    ______ ____
ROOT
ATOM      1  O   LIG    1        0.002  -0.004   0.002  0.00  0.00    -0.440 OA
ATOM      2  C   LIG    1       -0.014   1.209   0.009  0.00  0.00    +0.400 C 
ATOM      3  C   LIG    1       -1.321   1.977   0.032  0.00  0.00    +0.040 C 
ATOM      4  C   LIG    1       -1.195   3.147  -0.955  0.00  0.00    +0.290 C 
ATOM      5  N   LIG    1       -0.040   3.968  -0.570  0.00  0.00    -0.730 N 
ATOM      6  H   LIG    1       -0.129   4.932  -0.505  0.00  0.00    +0.410 HD
ATOM      7  C   LIG    1        1.179   3.363  -0.301  0.00  0.00    +0.260 A 
ATOM      8  C   LIG    1        2.353   4.104  -0.320  0.00  0.00    +0.020 A 
ATOM      9  C   LIG    1        3.559   3.489  -0.047  0.00  0.00    +0.030 A 
ATOM     10  C   LIG    1        3.613   2.135   0.247  0.00  0.00    +0.040 A 
ATOM     11  C   LIG    1        2.460   1.381   0.270  0.00  0.00    +0.150 A 
ATOM     12  C   LIG    1        1.232   1.988   0.001  0.00  0.00    -0.200 A 
ENDROOT
BRANCH   9  13
ATOM     13  N   LIG    1        4.808   4.285  -0.069  0.00  0.00    +0.020 N 
ATOM     14  O   LIG    1        5.875   3.749   0.171  0.00  0.00    -0.150 OA
ATOM     15  O   LIG    1        4.768   5.474  -0.326  0.00  0.00    -0.150 OA
ENDBRANCH   9  13
TORSDOF 1
