REMARK  Name = ZINC000074942303
REMARK                            x       y       z     vdW  Elec       q    Type
REMARK                         _______ _______ _______ _____ _____    ______ ____
ROOT
ATOM      1  C   LIG    1       -1.306   1.936   0.019  0.00  0.00    -0.070 A 
ATOM      2  C   LIG    1       -1.320   3.325   0.021  0.00  0.00    +0.170 A 
ATOM      3  C   LIG    1       -2.516   4.011   0.030  0.00  0.00    +0.080 A 
ATOM      4  C   LIG    1       -3.719   3.303   0.038  0.00  0.00    +0.100 A 
ATOM      5  N   LIG    1       -5.029   3.672   0.048  0.00  0.00    -0.490 NA
ATOM      6  C   LIG    1       -5.765   2.602   0.052  0.00  0.00    +0.550 A 
ATOM      7  O   LIG    1       -4.992   1.505   0.045  0.00  0.00    -0.200 OA
ATOM      8  C   LIG    1       -3.700   1.900   0.036  0.00  0.00    -0.010 A 
ATOM      9  F   LIG    1       -0.154   4.008   0.013  0.00  0.00    -0.090 F 
ATOM     10  C   LIG    1       -2.489   1.226   0.021  0.00  0.00    +0.200 A 
ENDROOT
BRANCH   1  12
ATOM     11  O   LIG    1        0.002  -0.004   0.002  0.00  0.00    -0.140 OA
ATOM     12  N   LIG    1       -0.014   1.214   0.009  0.00  0.00    +0.030 N 
ATOM     13  O   LIG    1        1.032   1.837   0.002  0.00  0.00    -0.130 OA
ENDBRANCH   1  12
TORSDOF 1
