REMARK  Name = ZINC000035206274
REMARK                            x       y       z     vdW  Elec       q    Type
REMARK                         _______ _______ _______ _____ _____    ______ ____
ROOT
ATOM      1  C   LIG    1        0.006   1.462   0.009  0.00  0.00    +0.340 C 
ATOM      2  N   LIG    1        0.021  -0.003   0.001  0.00  0.00    -0.480 N 
ATOM      3  C   LIG    1       -0.063  -0.807  -1.095  0.00  0.00    +0.450 A 
ATOM      4  N   LIG    1       -0.017  -2.050  -0.706  0.00  0.00    -0.420 NA
ATOM      5  C   LIG    1        0.096  -2.095   0.631  0.00  0.00    -0.040 A 
ATOM      6  C   LIG    1        0.128  -0.822   1.093  0.00  0.00    +0.390 A 
ENDROOT
BRANCH   5   7
ATOM      7  N   LIG    1        0.178  -3.322   1.456  0.00  0.00    +0.080 N 
ATOM      8  O   LIG    1        0.280  -3.236   2.667  0.00  0.00    -0.200 OA
ATOM      9  O   LIG    1        0.144  -4.417   0.924  0.00  0.00    -0.140 OA
ENDBRANCH   5   7
BRANCH   6  10
ATOM     10  N   LIG    1        0.238  -0.423   2.426  0.00  0.00    -0.700 N 
ATOM     11  H   LIG    1        0.376  -1.085   3.121  0.00  0.00    +0.430 HD
BRANCH  10  12
ATOM     12  C   LIG    1        0.146   0.997   2.775  0.00  0.00    +0.280 C 
BRANCH  12  13
ATOM     13  C   LIG    1        0.431   1.175   4.268  0.00  0.00    -0.060 C 
ATOM     14  C   LIG    1        1.667   1.988   4.660  0.00  0.00    +0.030 C 
ATOM     15  C   LIG    1        0.269   2.578   4.856  0.00  0.00    +0.030 C 
ENDBRANCH  12  13
ENDBRANCH  10  12
ENDBRANCH   6  10
TORSDOF 4
