REMARK  Name = ZINC000307013040
REMARK                            x       y       z     vdW  Elec       q    Type
REMARK                         _______ _______ _______ _____ _____    ______ ____
ROOT
ATOM      1  C   LIG    1       -1.307   1.937   0.019  0.00  0.00    -0.280 A 
ATOM      2  C   LIG    1       -1.446   3.267   0.021  0.00  0.00    +0.290 A 
ATOM      3  C   LIG    1       -2.760   3.714   0.031  0.00  0.00    -0.030 A 
ATOM      4  C   LIG    1       -3.681   2.749   0.037  0.00  0.00    +0.060 A 
ATOM      5  S   LIG    1       -2.893   1.177   0.022  0.00  0.00    +0.230 S 
ENDROOT
BRANCH   1   7
ATOM      6  O   LIG    1        0.002  -0.004   0.002  0.00  0.00    -0.170 OA
ATOM      7  N   LIG    1       -0.014   1.214   0.009  0.00  0.00    +0.090 N 
ATOM      8  O   LIG    1        1.032   1.837   0.002  0.00  0.00    -0.200 OA
ENDBRANCH   1   7
BRANCH   2   9
ATOM      9  N   LIG    1       -0.345   4.145   0.014  0.00  0.00    -0.700 N 
ATOM     10  H   LIG    1        0.557   3.791   0.007  0.00  0.00    +0.420 HD
BRANCH   9  11
ATOM     11  C   LIG    1       -0.564   5.593   0.017  0.00  0.00    +0.270 C 
BRANCH  11  12
ATOM     12  C   LIG    1        0.786   6.313   0.008  0.00  0.00    +0.190 C 
BRANCH  12  13
ATOM     13  O   LIG    1        1.465   6.036  -1.218  0.00  0.00    -0.570 OA
ATOM     14  H   LIG    1        2.330   6.461  -1.294  0.00  0.00    +0.390 HD
ENDBRANCH  12  13
ENDBRANCH  11  12
ENDBRANCH   9  11
ENDBRANCH   2   9
TORSDOF 5
