REMARK  Name = ZINC001515265825
REMARK                            x       y       z     vdW  Elec       q    Type
REMARK                         _______ _______ _______ _____ _____    ______ ____
ROOT
ATOM      1  C   LIG    1       -1.140   1.144   0.059  0.00  0.00    +0.370 C 
ATOM      2  N   LIG    1       -0.433  -0.139   0.019  0.00  0.00    -0.380 N 
ATOM      3  N   LIG    1       -0.247  -0.942  -1.114  0.00  0.00    -0.270 NA
ATOM      4  C   LIG    1        0.429  -2.005  -0.759  0.00  0.00    +0.340 A 
ATOM      5  C   LIG    1        0.698  -1.918   0.609  0.00  0.00    -0.200 A 
ATOM      6  C   LIG    1        0.160  -0.754   1.067  0.00  0.00    +0.360 A 
ENDROOT
BRANCH   5   7
ATOM      7  N   LIG    1        1.441  -2.912   1.417  0.00  0.00    +0.070 N 
ATOM      8  O   LIG    1        1.613  -2.723   2.608  0.00  0.00    -0.150 OA
ATOM      9  O   LIG    1        1.881  -3.918   0.890  0.00  0.00    -0.180 OA
ENDBRANCH   5   7
BRANCH   6  10
ATOM     10  N   LIG    1        0.205  -0.286   2.377  0.00  0.00    -0.570 N 
ATOM     11  H   LIG    1       -0.502  -0.730   2.944  0.00  0.00    +0.380 HD
BRANCH  10  12
ATOM     12  C   LIG    1        0.070   1.176   2.419  0.00  0.00    +0.140 C 
ATOM     13  C   LIG    1       -1.213   1.657   3.115  0.00  0.00    -0.000 C 
ATOM     14  C   LIG    1       -0.359   2.769   3.749  0.00  0.00    +0.030 C 
ATOM     15  C   LIG    1        0.848   1.833   3.571  0.00  0.00    +0.060 C 
ENDBRANCH  10  12
ENDBRANCH   6  10
TORSDOF 3
