REMARK  Name = ZINC000308308995
REMARK                            x       y       z     vdW  Elec       q    Type
REMARK                         _______ _______ _______ _____ _____    ______ ____
ROOT
ATOM      1  N   LIG    1        1.447  -2.249  -2.514  0.00  0.00    -0.440 N 
ATOM      2  C   LIG    1        0.884  -2.452  -3.725  0.00  0.00    +0.300 A 
ATOM      3  N   LIG    1        1.825  -2.757  -4.577  0.00  0.00    -0.480 NA
ATOM      4  C   LIG    1        3.009  -2.760  -3.947  0.00  0.00    +0.330 A 
ATOM      5  C   LIG    1       -0.585  -2.343  -4.040  0.00  0.00    +0.210 C 
ATOM      6  C   LIG    1        2.795  -2.439  -2.657  0.00  0.00    +0.000 A 
ENDROOT
BRANCH   6   7
ATOM      7  N   LIG    1        3.820  -2.324  -1.595  0.00  0.00    +0.070 N 
ATOM      8  O   LIG    1        3.490  -2.024  -0.461  0.00  0.00    -0.170 OA
ATOM      9  O   LIG    1        4.992  -2.529  -1.855  0.00  0.00    -0.130 OA
ENDBRANCH   6   7
BRANCH   1  10
ATOM     10  C   LIG    1        0.746  -1.888  -1.280  0.00  0.00    +0.470 C 
BRANCH  10  11
ATOM     11  O   LIG    1        0.671  -0.465  -1.174  0.00  0.00    -0.400 OA
BRANCH  11  13
ATOM     12  C   LIG    1       -0.019   1.526   0.010  0.00  0.00    +0.060 C 
ATOM     13  C   LIG    1        0.002  -0.004   0.002  0.00  0.00    +0.190 C 
ENDBRANCH  11  13
ENDBRANCH  10  11
ENDBRANCH   1  10
TORSDOF 4
