REMARK  Name = ZINC000899886926
REMARK                            x       y       z     vdW  Elec       q    Type
REMARK                         _______ _______ _______ _____ _____    ______ ____
ROOT
ATOM      1  C   LIG    1       -0.018   1.503   0.010  0.00  0.00    +0.110 C 
ATOM      2  C   LIG    1        0.002  -0.004   0.002  0.00  0.00    -0.110 A 
ATOM      3  C   LIG    1        0.006  -0.698  -1.194  0.00  0.00    +0.080 A 
ATOM      4  C   LIG    1        0.025  -2.087  -1.154  0.00  0.00    -0.030 A 
ATOM      5  C   LIG    1        0.039  -2.728   0.068  0.00  0.00    +0.270 A 
ATOM      6  N   LIG    1        0.035  -2.041   1.194  0.00  0.00    -0.490 NA
ATOM      7  C   LIG    1        0.023  -0.716   1.198  0.00  0.00    +0.110 A 
ENDROOT
BRANCH   7   8
ATOM      8  S   LIG    1        0.019   0.152   2.731  0.00  0.00    -0.030 S 
BRANCH   8   9
ATOM      9  C   LIG    1        0.034  -1.185   3.957  0.00  0.00    +0.100 C 
BRANCH   9  10
ATOM     10  C   LIG    1        0.032  -0.586   5.365  0.00  0.00    +0.290 C 
BRANCH  10  11
ATOM     11  N   LIG    1        0.044  -1.665   6.355  0.00  0.00    -0.020 N 
ATOM     12  O   LIG    1       -0.694  -2.625   6.219  0.00  0.00    -0.150 OA
ATOM     13  O   LIG    1        0.791  -1.603   7.315  0.00  0.00    -0.150 OA
ENDBRANCH  10  11
ENDBRANCH   9  10
ENDBRANCH   8   9
ENDBRANCH   7   8
TORSDOF 4
