REMARK  Name = ZINC000038324952
REMARK                            x       y       z     vdW  Elec       q    Type
REMARK                         _______ _______ _______ _____ _____    ______ ____
ROOT
ATOM      1  C   LIG    1       -1.306   1.936   0.019  0.00  0.00    +0.040 A 
ATOM      2  C   LIG    1       -1.465   3.274   0.021  0.00  0.00    +0.270 A 
ATOM      3  N   LIG    1       -2.813   3.513   0.031  0.00  0.00    -0.450 N 
ATOM      4  C   LIG    1       -3.431   2.312   0.034  0.00  0.00    +0.460 A 
ATOM      5  N   LIG    1       -2.524   1.374   0.021  0.00  0.00    -0.450 NA
ENDROOT
BRANCH   1   7
ATOM      6  O   LIG    1        0.002  -0.004   0.002  0.00  0.00    -0.130 OA
ATOM      7  N   LIG    1       -0.014   1.214   0.009  0.00  0.00    +0.060 N 
ATOM      8  O   LIG    1        1.032   1.837   0.002  0.00  0.00    -0.160 OA
ENDBRANCH   1   7
BRANCH   3   9
ATOM      9  C   LIG    1       -3.463   4.825   0.037  0.00  0.00    +0.320 C 
BRANCH   9  10
ATOM     10  C   LIG    1       -3.700   5.284  -1.403  0.00  0.00    +0.000 C 
BRANCH  10  11
ATOM     11  C   LIG    1       -4.379   6.654  -1.397  0.00  0.00    +0.230 C 
ATOM     12  F   LIG    1       -4.595   7.073  -2.715  0.00  0.00    -0.210 F 
ENDBRANCH  10  11
ENDBRANCH   9  10
ENDBRANCH   3   9
TORSDOF 4
