REMARK  Name = ZINC000860911659
REMARK                            x       y       z     vdW  Elec       q    Type
REMARK                         _______ _______ _______ _____ _____    ______ ____
ROOT
ATOM      1  O   LIG    1       -0.327  -0.586  -3.578  0.00  0.00    -0.350 OA
ENDROOT
BRANCH   1   2
ATOM      2  C   LIG    1       -0.123   0.073  -2.420  0.00  0.00    +0.500 C 
ATOM      3  O   LIG    1        0.044   1.277  -2.427  0.00  0.00    -0.510 OA
BRANCH   2   6
ATOM      4  C   LIG    1       -0.018   1.499   0.017  0.00  0.00    +0.100 C 
ATOM      5  C   LIG    1        0.037  -0.007  -0.000  0.00  0.00    -0.010 C 
ATOM      6  C   LIG    1       -0.100  -0.665  -1.149  0.00  0.00    -0.090 C 
ATOM      7  C   LIG    1        0.249  -0.768   1.283  0.00  0.00    +0.120 C 
ENDBRANCH   2   6
ENDBRANCH   1   2
BRANCH   1   8
ATOM      8  C   LIG    1       -0.337   0.206  -4.794  0.00  0.00    +0.230 C 
BRANCH   8   9
ATOM      9  C   LIG    1       -0.581  -0.708  -5.997  0.00  0.00    +0.070 C 
BRANCH   9  10
ATOM     10  C   LIG    1       -0.591   0.127  -7.279  0.00  0.00    +0.270 C 
BRANCH  10  11
ATOM     11  N   LIG    1       -0.825  -0.748  -8.430  0.00  0.00    -0.020 N 
ATOM     12  O   LIG    1       -0.150  -0.625  -9.436  0.00  0.00    -0.160 OA
ATOM     13  O   LIG    1       -1.695  -1.600  -8.381  0.00  0.00    -0.150 OA
ENDBRANCH  10  11
ENDBRANCH   9  10
ENDBRANCH   8   9
ENDBRANCH   1   8
TORSDOF 6
