REMARK  Name = ZINC000600551527
REMARK                            x       y       z     vdW  Elec       q    Type
REMARK                         _______ _______ _______ _____ _____    ______ ____
ROOT
ATOM      1  N   LIG    1        1.350  -3.954  -2.312  0.00  0.00    -0.360 N 
ATOM      2  C   LIG    1        0.789  -4.673  -1.317  0.00  0.00    +0.390 A 
ATOM      3  C   LIG    1        0.967  -5.983  -1.603  0.00  0.00    -0.200 A 
ATOM      4  C   LIG    1        1.661  -6.068  -2.815  0.00  0.00    +0.150 A 
ATOM      5  C   LIG    1        2.072  -7.341  -3.510  0.00  0.00    +0.190 C 
ATOM      6  N   LIG    1        1.885  -4.853  -3.244  0.00  0.00    -0.270 NA
ENDROOT
BRANCH   3   7
ATOM      7  N   LIG    1        0.509  -7.125  -0.780  0.00  0.00    +0.070 N 
ATOM      8  O   LIG    1        0.729  -8.266  -1.144  0.00  0.00    -0.160 OA
ATOM      9  O   LIG    1       -0.089  -6.923   0.262  0.00  0.00    -0.170 OA
ENDBRANCH   3   7
BRANCH   1  10
ATOM     10  C   LIG    1        1.387  -2.493  -2.405  0.00  0.00    +0.490 C 
BRANCH  10  11
ATOM     11  O   LIG    1        0.738  -1.926  -1.265  0.00  0.00    -0.400 OA
BRANCH  11  12
ATOM     12  C   LIG    1        0.718  -0.497  -1.257  0.00  0.00    +0.190 C 
BRANCH  12  14
ATOM     13  C   LIG    1       -0.019   1.526   0.010  0.00  0.00    +0.040 C 
ATOM     14  C   LIG    1        0.002  -0.004   0.002  0.00  0.00    +0.020 C 
ENDBRANCH  12  14
ENDBRANCH  11  12
ENDBRANCH  10  11
ENDBRANCH   1  10
TORSDOF 5
