REMARK  Name = ZINC000308247868
REMARK                            x       y       z     vdW  Elec       q    Type
REMARK                         _______ _______ _______ _____ _____    ______ ____
ROOT
ATOM      1  C   LIG    1       -1.306   1.936   0.019  0.00  0.00    +0.110 A 
ATOM      2  C   LIG    1       -1.469   3.280   0.021  0.00  0.00    +0.020 A 
ATOM      3  C   LIG    1       -2.842   3.547   0.031  0.00  0.00    +0.260 A 
ATOM      4  N   LIG    1       -3.481   2.405   0.035  0.00  0.00    -0.220 NA
ATOM      5  N   LIG    1       -2.533   1.374   0.021  0.00  0.00    -0.330 N 
ENDROOT
BRANCH   1   7
ATOM      6  O   LIG    1        0.002  -0.004   0.002  0.00  0.00    -0.150 OA
ATOM      7  N   LIG    1       -0.014   1.214   0.009  0.00  0.00    +0.050 N 
ATOM      8  O   LIG    1        1.032   1.837   0.002  0.00  0.00    -0.120 OA
ENDBRANCH   1   7
BRANCH   5   9
ATOM      9  C   LIG    1       -2.822  -0.063   0.020  0.00  0.00    +0.340 C 
BRANCH   9  10
ATOM     10  C   LIG    1       -2.939  -0.558  -1.423  0.00  0.00    +0.020 C 
BRANCH  10  11
ATOM     11  C   LIG    1       -3.241  -2.058  -1.424  0.00  0.00    +0.020 C 
BRANCH  11  12
ATOM     12  C   LIG    1       -3.358  -2.553  -2.867  0.00  0.00    +0.220 C 
ATOM     13  F   LIG    1       -3.634  -3.925  -2.868  0.00  0.00    -0.220 F 
ENDBRANCH  11  12
ENDBRANCH  10  11
ENDBRANCH   9  10
ENDBRANCH   5   9
TORSDOF 5
