REMARK  Name = ZINC000899230822
REMARK                            x       y       z     vdW  Elec       q    Type
REMARK                         _______ _______ _______ _____ _____    ______ ____
ROOT
ATOM      1  C   LIG    1       -0.018   1.503   0.010  0.00  0.00    +0.110 C 
ATOM      2  C   LIG    1        0.002  -0.004   0.002  0.00  0.00    -0.080 A 
ATOM      3  C   LIG    1        0.006  -0.688  -1.198  0.00  0.00    +0.030 A 
ATOM      4  C   LIG    1        0.025  -2.073  -1.206  0.00  0.00    +0.070 A 
ATOM      5  C   LIG    1        0.040  -2.773  -0.012  0.00  0.00    +0.020 A 
ATOM      6  C   LIG    1        0.036  -2.091   1.190  0.00  0.00    -0.030 A 
ATOM      7  F   LIG    1        0.028  -2.741  -2.380  0.00  0.00    -0.140 F 
ATOM      8  C   LIG    1        0.023  -0.704   1.199  0.00  0.00    +0.120 A 
ENDROOT
BRANCH   8   9
ATOM      9  O   LIG    1        0.020  -0.032   2.381  0.00  0.00    -0.310 OA
BRANCH   9  10
ATOM     10  C   LIG    1        0.031  -0.818   3.575  0.00  0.00    +0.240 C 
BRANCH  10  11
ATOM     11  C   LIG    1        0.025   0.107   4.794  0.00  0.00    +0.290 C 
BRANCH  11  12
ATOM     12  N   LIG    1       -1.234   0.855   4.834  0.00  0.00    -0.020 N 
ATOM     13  O   LIG    1       -1.224   2.050   5.064  0.00  0.00    -0.150 OA
ATOM     14  O   LIG    1       -2.290   0.280   4.636  0.00  0.00    -0.160 OA
ENDBRANCH  11  12
ENDBRANCH  10  11
ENDBRANCH   9  10
ENDBRANCH   8   9
TORSDOF 4
