REMARK  Name = ZINC000780659930
REMARK                            x       y       z     vdW  Elec       q    Type
REMARK                         _______ _______ _______ _____ _____    ______ ____
ROOT
ATOM      1  C   LIG    1        2.196  -2.262  -1.189  0.00  0.00    +0.360 A 
ATOM      2  N   LIG    1        3.036  -1.722  -2.059  0.00  0.00    -0.480 NA
ATOM      3  C   LIG    1        4.324  -2.009  -2.045  0.00  0.00    +0.350 A 
ATOM      4  C   LIG    1        4.844  -2.887  -1.116  0.00  0.00    +0.000 A 
ATOM      5  C   LIG    1        3.997  -3.474  -0.186  0.00  0.00    +0.190 A 
ATOM      6  C   LIG    1        2.652  -3.151  -0.222  0.00  0.00    -0.100 A 
ENDROOT
BRANCH   6   7
ATOM      7  N   LIG    1        1.790  -3.701   0.667  0.00  0.00    +0.070 N 
ATOM      8  O   LIG    1        0.628  -3.337   0.694  0.00  0.00    -0.120 OA
ATOM      9  O   LIG    1        2.177  -4.560   1.439  0.00  0.00    -0.200 OA
ENDBRANCH   6   7
BRANCH   1  10
ATOM     10  N   LIG    1        0.846  -1.932  -1.239  0.00  0.00    -0.310 N 
ATOM     11  C   LIG    1        0.230  -2.424  -2.479  0.00  0.00    +0.270 C 
BRANCH  10  12
ATOM     12  O   LIG    1        0.654  -0.489  -1.095  0.00  0.00    -0.230 OA
BRANCH  12  14
ATOM     13  C   LIG    1       -0.081   1.414   0.201  0.00  0.00    +0.050 C 
ATOM     14  C   LIG    1       -0.045  -0.111   0.093  0.00  0.00    +0.170 C 
ENDBRANCH  12  14
ENDBRANCH  10  12
ENDBRANCH   1  10
TORSDOF 4
