REMARK  Name = ZINC000784189689
REMARK                            x       y       z     vdW  Elec       q    Type
REMARK                         _______ _______ _______ _____ _____    ______ ____
ROOT
ATOM      1  C   LIG    1       -1.306   1.936   0.019  0.00  0.00    -0.050 A 
ATOM      2  C   LIG    1       -1.325   3.317  -0.062  0.00  0.00    +0.120 A 
ATOM      3  C   LIG    1       -2.529   3.994  -0.053  0.00  0.00    +0.070 A 
ATOM      4  C   LIG    1       -3.721   3.287   0.038  0.00  0.00    +0.110 A 
ATOM      5  C   LIG    1       -3.698   1.901   0.119  0.00  0.00    -0.010 A 
ATOM      6  C   LIG    1       -2.491   1.229   0.104  0.00  0.00    +0.120 A 
ENDROOT
BRANCH   4   7
ATOM      7  N   LIG    1       -4.940   3.969   0.048  0.00  0.00    -0.440 N 
ATOM      8  C   LIG    1       -5.719   3.642   1.256  0.00  0.00    +0.190 C 
ATOM      9  C   LIG    1       -6.969   3.583   0.368  0.00  0.00    +0.190 C 
ATOM     10  F   LIG    1       -7.610   4.815   0.198  0.00  0.00    -0.180 F 
ATOM     11  C   LIG    1       -5.957   3.244  -0.736  0.00  0.00    +0.180 C 
ENDBRANCH   4   7
BRANCH   1  13
ATOM     12  O   LIG    1        0.004  -0.002   0.075  0.00  0.00    -0.160 OA
ATOM     13  N   LIG    1       -0.015   1.214   0.009  0.00  0.00    +0.030 N 
ATOM     14  O   LIG    1        1.030   1.835  -0.071  0.00  0.00    -0.150 OA
ENDBRANCH   1  13
TORSDOF 2
