REMARK  Name = ZINC000217023881
REMARK                            x       y       z     vdW  Elec       q    Type
REMARK                         _______ _______ _______ _____ _____    ______ ____
ROOT
ATOM      1  C   LIG    1       -1.306   1.936   0.019  0.00  0.00    -0.090 A 
ATOM      2  C   LIG    1       -2.534   1.377   0.027  0.00  0.00    +0.320 A 
ATOM      3  N   LIG    1       -3.458   2.379   0.035  0.00  0.00    -0.530 N 
ATOM      4  H   LIG    1       -4.421   2.260   0.042  0.00  0.00    +0.440 HD
ATOM      5  C   LIG    1       -2.806   3.577   0.031  0.00  0.00    +0.300 A 
ATOM      6  C   LIG    1       -1.480   3.335   0.027  0.00  0.00    -0.220 A 
ENDROOT
BRANCH   6   7
ATOM      7  C   LIG    1       -0.384   4.369   0.022  0.00  0.00    +0.540 C 
ATOM      8  F   LIG    1        0.405   4.208  -1.122  0.00  0.00    -0.160 F 
ATOM      9  F   LIG    1        0.411   4.212   1.162  0.00  0.00    -0.160 F 
ATOM     10  F   LIG    1       -0.951   5.648   0.021  0.00  0.00    -0.180 F 
ENDBRANCH   6   7
BRANCH   1  12
ATOM     11  O   LIG    1        0.002  -0.004   0.002  0.00  0.00    -0.160 OA
ATOM     12  N   LIG    1       -0.014   1.214   0.009  0.00  0.00    +0.050 N 
ATOM     13  O   LIG    1        1.032   1.837   0.002  0.00  0.00    -0.140 OA
ENDBRANCH   1  12
TORSDOF 2
