REMARK  Name = ZINC000334658200
REMARK                            x       y       z     vdW  Elec       q    Type
REMARK                         _______ _______ _______ _____ _____    ______ ____
ROOT
ATOM      1  C   LIG    1        0.163  -1.610  -3.437  0.00  0.00    +0.000 A 
ATOM      2  C   LIG    1       -0.636  -1.938  -4.494  0.00  0.00    +0.060 A 
ATOM      3  C   LIG    1        0.162  -2.660  -5.394  0.00  0.00    +0.110 A 
ATOM      4  C   LIG    1        1.398  -2.741  -4.853  0.00  0.00    +0.030 A 
ATOM      5  O   LIG    1        1.396  -2.102  -3.676  0.00  0.00    -0.130 OA
ENDROOT
BRANCH   1   7
ATOM      6  N   LIG    1        0.673  -0.484  -1.335  0.00  0.00    -0.600 N 
ATOM      7  C   LIG    1       -0.246  -0.849  -2.251  0.00  0.00    +0.600 C 
ATOM      8  O   LIG    1       -1.415  -0.549  -2.094  0.00  0.00    -0.500 OA
ATOM      9  C   LIG    1        2.094  -0.743  -1.579  0.00  0.00    +0.310 C 
BRANCH   6  11
ATOM     10  C   LIG    1        0.228   1.689  -0.303  0.00  0.00    +0.020 C 
ATOM     11  C   LIG    1        0.250   0.173  -0.096  0.00  0.00    +0.290 C 
ENDBRANCH   6  11
ENDBRANCH   1   7
BRANCH   4  12
ATOM     12  N   LIG    1        2.564  -3.418  -5.465  0.00  0.00    +0.060 N 
ATOM     13  O   LIG    1        3.635  -3.428  -4.885  0.00  0.00    -0.120 OA
ATOM     14  O   LIG    1        2.452  -3.965  -6.547  0.00  0.00    -0.120 OA
ENDBRANCH   4  12
TORSDOF 3
