REMARK  Name = ZINC000039039305
REMARK                            x       y       z     vdW  Elec       q    Type
REMARK                         _______ _______ _______ _____ _____    ______ ____
ROOT
ATOM      1  C   LIG    1        0.633  -2.085   1.012  0.00  0.00    -0.060 A 
ATOM      2  C   LIG    1        0.012  -2.681  -0.069  0.00  0.00    +0.100 A 
ATOM      3  C   LIG    1       -0.027  -4.058  -0.173  0.00  0.00    -0.010 A 
ATOM      4  C   LIG    1        0.559  -4.843   0.809  0.00  0.00    +0.130 A 
ATOM      5  C   LIG    1        1.183  -4.242   1.894  0.00  0.00    +0.070 A 
ATOM      6  C   LIG    1        1.223  -2.865   1.990  0.00  0.00    +0.000 A 
ENDROOT
BRANCH   6   7
ATOM      7  N   LIG    1        1.888  -2.224   3.146  0.00  0.00    +0.030 N 
ATOM      8  O   LIG    1        1.924  -1.009   3.232  0.00  0.00    -0.160 OA
ATOM      9  O   LIG    1        2.400  -2.911   4.012  0.00  0.00    -0.150 OA
ENDBRANCH   6   7
BRANCH   4  10
ATOM     10  O   LIG    1        0.523  -6.198   0.710  0.00  0.00    -0.310 OA
ATOM     11  C   LIG    1       -0.135  -6.747  -0.434  0.00  0.00    +0.250 C 
ENDBRANCH   4  10
BRANCH   1  12
ATOM     12  C   LIG    1        0.673  -0.582   1.123  0.00  0.00    +0.260 C 
BRANCH  12  14
ATOM     13  C   LIG    1       -0.017   1.425   0.010  0.00  0.00    +0.220 C 
ATOM     14  O   LIG    1        0.002  -0.004   0.002  0.00  0.00    -0.390 OA
ENDBRANCH  12  14
ENDBRANCH   1  12
TORSDOF 4
