REMARK  Name = ZINC000612779306
REMARK                            x       y       z     vdW  Elec       q    Type
REMARK                         _______ _______ _______ _____ _____    ______ ____
ROOT
ATOM      1  C   LIG    1       -1.415  -2.684  -1.198  0.00  0.00    +0.590 A 
ATOM      2  N   LIG    1       -1.430  -2.000  -2.332  0.00  0.00    -0.550 NA
ATOM      3  C   LIG    1       -1.432  -2.624  -3.498  0.00  0.00    +0.470 A 
ATOM      4  C   LIG    1       -1.419  -4.010  -3.523  0.00  0.00    -0.230 A 
ATOM      5  C   LIG    1       -1.403  -4.694  -2.318  0.00  0.00    +0.470 A 
ATOM      6  N   LIG    1       -1.397  -4.009  -1.187  0.00  0.00    -0.560 NA
ENDROOT
BRANCH   4   7
ATOM      7  N   LIG    1       -1.420  -4.743  -4.809  0.00  0.00    +0.050 N 
ATOM      8  O   LIG    1       -1.408  -5.961  -4.816  0.00  0.00    -0.160 OA
ATOM      9  O   LIG    1       -1.433  -4.128  -5.860  0.00  0.00    -0.160 OA
ENDBRANCH   4   7
BRANCH   1  10
ATOM     10  N   LIG    1       -1.413  -1.998   0.005  0.00  0.00    -0.560 N 
ATOM     11  C   LIG    1       -1.391  -2.738   1.269  0.00  0.00    +0.320 C 
BRANCH  10  12
ATOM     12  C   LIG    1       -1.433  -0.534   0.013  0.00  0.00    +0.300 C 
BRANCH  12  14
ATOM     13  C   LIG    1       -0.019   1.526   0.010  0.00  0.00    +0.030 C 
ATOM     14  C   LIG    1        0.002  -0.004   0.002  0.00  0.00    -0.010 C 
ENDBRANCH  12  14
ENDBRANCH  10  12
ENDBRANCH   1  10
TORSDOF 4
