REMARK  Name = ZINC000590696922
REMARK                            x       y       z     vdW  Elec       q    Type
REMARK                         _______ _______ _______ _____ _____    ______ ____
ROOT
ATOM      1  C   LIG    1       -1.306   1.936   0.024  0.00  0.00    +0.170 A 
ATOM      2  C   LIG    1       -1.315   3.317  -0.051  0.00  0.00    +0.090 A 
ATOM      3  C   LIG    1       -2.528   3.987  -0.045  0.00  0.00    +0.050 A 
ATOM      4  C   LIG    1       -3.698   3.236   0.037  0.00  0.00    +0.050 A 
ATOM      5  C   LIG    1       -3.607   1.852   0.109  0.00  0.00    +0.340 A 
ATOM      6  N   LIG    1       -2.432   1.254   0.095  0.00  0.00    -0.420 NA
ENDROOT
BRANCH   4   7
ATOM      7  N   LIG    1       -4.945   3.866   0.046  0.00  0.00    -0.430 N 
ATOM      8  C   LIG    1       -5.124   4.702  -1.155  0.00  0.00    +0.190 C 
ATOM      9  C   LIG    1       -5.763   5.766  -0.252  0.00  0.00    +0.190 C 
ATOM     10  F   LIG    1       -7.141   5.607  -0.067  0.00  0.00    -0.180 F 
ATOM     11  C   LIG    1       -4.903   5.110   0.837  0.00  0.00    +0.180 C 
ENDBRANCH   4   7
BRANCH   1  13
ATOM     12  O   LIG    1        0.004  -0.002   0.078  0.00  0.00    -0.110 OA
ATOM     13  N   LIG    1       -0.014   1.214   0.018  0.00  0.00    +0.020 N 
ATOM     14  O   LIG    1        1.031   1.835  -0.053  0.00  0.00    -0.150 OA
ENDBRANCH   1  13
TORSDOF 2
