REMARK  Name = ZINC000200283561
REMARK                            x       y       z     vdW  Elec       q    Type
REMARK                         _______ _______ _______ _____ _____    ______ ____
ROOT
ATOM      1  C   LIG    1       -1.306   1.936   0.019  0.00  0.00    -0.070 A 
ATOM      2  C   LIG    1       -2.501   1.236   0.026  0.00  0.00    +0.150 A 
ATOM      3  C   LIG    1       -3.691   1.957   0.036  0.00  0.00    +0.070 A 
ATOM      4  C   LIG    1       -3.639   3.343   0.037  0.00  0.00    +0.340 A 
ATOM      5  N   LIG    1       -2.481   3.973   0.029  0.00  0.00    -0.440 NA
ATOM      6  C   LIG    1       -1.335   3.320   0.026  0.00  0.00    +0.220 A 
ATOM      7 CL   LIG    1        0.157   4.208   0.017  0.00  0.00    +0.040 Cl
ENDROOT
BRANCH   1   9
ATOM      8  O   LIG    1        0.002  -0.004   0.002  0.00  0.00    -0.150 OA
ATOM      9  N   LIG    1       -0.014   1.214   0.009  0.00  0.00    +0.030 N 
ATOM     10  O   LIG    1        1.032   1.837   0.002  0.00  0.00    -0.120 OA
ENDBRANCH   1   9
BRANCH   3  11
ATOM     11  O   LIG    1       -4.888   1.312   0.044  0.00  0.00    -0.470 OA
ATOM     12  H   LIG    1       -5.227   1.125   0.929  0.00  0.00    +0.410 HD
ENDBRANCH   3  11
TORSDOF 2
