REMARK  Name = ZINC000307399154
REMARK                            x       y       z     vdW  Elec       q    Type
REMARK                         _______ _______ _______ _____ _____    ______ ____
ROOT
ATOM      1  N   LIG    1       -0.008  -0.140   2.444  0.00  0.00    -0.410 N 
ATOM      2  C   LIG    1        0.194   0.971   3.217  0.00  0.00    +0.220 A 
ATOM      3  C   LIG    1       -0.710   0.922   4.214  0.00  0.00    +0.190 A 
ATOM      4  N   LIG    1       -1.444  -0.190   4.055  0.00  0.00    -0.400 NA
ATOM      5  C   LIG    1       -1.032  -0.828   2.993  0.00  0.00    +0.230 A 
ENDROOT
BRANCH   5   6
ATOM      6  N   LIG    1       -1.590  -2.100   2.482  0.00  0.00    +0.070 N 
ATOM      7  O   LIG    1       -1.126  -2.608   1.477  0.00  0.00    -0.150 OA
ATOM      8  O   LIG    1       -2.513  -2.639   3.066  0.00  0.00    -0.100 OA
ENDBRANCH   5   6
BRANCH   1   9
ATOM      9  C   LIG    1        0.742  -0.511   1.242  0.00  0.00    +0.310 C 
BRANCH   9  11
ATOM     10  C   LIG    1       -0.019   1.526   0.010  0.00  0.00    +0.020 C 
ATOM     11  C   LIG    1        0.002  -0.004   0.002  0.00  0.00    -0.030 C 
ATOM     12  C   LIG    1        0.718  -0.497  -1.257  0.00  0.00    +0.060 C 
ENDBRANCH   9  11
ENDBRANCH   1   9
TORSDOF 3
