REMARK  Name = ZINC000899885952
REMARK                            x       y       z     vdW  Elec       q    Type
REMARK                         _______ _______ _______ _____ _____    ______ ____
ROOT
ATOM      1  C   LIG    1       -0.019   1.526   0.010  0.00  0.00    +0.040 C 
ATOM      2  C   LIG    1        0.002  -0.004   0.002  0.00  0.00    -0.080 C 
ATOM      3  C   LIG    1        1.132  -0.604  -0.855  0.00  0.00    +0.170 C 
ATOM      4  N   LIG    1        1.319  -1.573   0.247  0.00  0.00    -0.470 NA
ATOM      5  C   LIG    1       -1.373  -0.618  -0.271  0.00  0.00    +0.070 C 
ATOM      6  C   LIG    1        0.727  -0.621   1.212  0.00  0.00    +0.160 C 
ENDROOT
BRANCH   6   7
ATOM      7  C   LIG    1       -0.212  -1.275   2.228  0.00  0.00    -0.030 C 
ATOM      8  C   LIG    1       -0.141  -2.796   2.378  0.00  0.00    +0.030 C 
ATOM      9  C   LIG    1        0.419  -1.892   3.478  0.00  0.00    +0.000 C 
ENDBRANCH   6   7
BRANCH   4  10
ATOM     10  C   LIG    1        2.745  -1.786   0.525  0.00  0.00    +0.180 C 
BRANCH  10  11
ATOM     11  C   LIG    1        3.256  -2.965  -0.305  0.00  0.00    +0.270 C 
BRANCH  11  12
ATOM     12  N   LIG    1        4.679  -3.177  -0.028  0.00  0.00    -0.020 N 
ATOM     13  O   LIG    1        5.440  -2.227   0.012  0.00  0.00    -0.160 OA
ATOM     14  O   LIG    1        5.101  -4.303   0.162  0.00  0.00    -0.160 OA
ENDBRANCH  11  12
ENDBRANCH  10  11
ENDBRANCH   4  10
TORSDOF 4
