REMARK  Name = ZINC000765000190
REMARK                            x       y       z     vdW  Elec       q    Type
REMARK                         _______ _______ _______ _____ _____    ______ ____
ROOT
ATOM      1  C   LIG    1        0.425  -1.912  -3.186  0.00  0.00    -0.080 A 
ATOM      2  C   LIG    1        0.341  -1.165  -4.345  0.00  0.00    +0.110 A 
ATOM      3  C   LIG    1        0.966  -1.605  -5.498  0.00  0.00    +0.040 A 
ATOM      4  C   LIG    1        1.675  -2.791  -5.489  0.00  0.00    +0.110 A 
ATOM      5  C   LIG    1        1.760  -3.537  -4.329  0.00  0.00    -0.040 A 
ATOM      6  C   LIG    1        1.139  -3.096  -3.176  0.00  0.00    +0.100 A 
ENDROOT
BRANCH   5   7
ATOM      7  N   LIG    1        2.520  -4.808  -4.320  0.00  0.00    +0.030 N 
ATOM      8  O   LIG    1        2.595  -5.466  -3.298  0.00  0.00    -0.160 OA
ATOM      9  O   LIG    1        3.070  -5.196  -5.336  0.00  0.00    -0.150 OA
ENDBRANCH   5   7
BRANCH   1  10
ATOM     10  C   LIG    1       -0.256  -1.433  -1.930  0.00  0.00    +0.240 C 
BRANCH  10  11
ATOM     11  N   LIG    1        0.667  -0.584  -1.165  0.00  0.00    -0.370 NA
ATOM     12  C   LIG    1        1.867  -1.334  -0.769  0.00  0.00    +0.210 C 
BRANCH  11  14
ATOM     13  C   LIG    1       -0.017   1.425   0.010  0.00  0.00    +0.230 C 
ATOM     14  O   LIG    1        0.002  -0.004   0.002  0.00  0.00    -0.260 OA
ENDBRANCH  11  14
ENDBRANCH  10  11
ENDBRANCH   1  10
TORSDOF 4
