REMARK  Name = ZINC000609090452
REMARK                            x       y       z     vdW  Elec       q    Type
REMARK                         _______ _______ _______ _____ _____    ______ ____
ROOT
ATOM      1  C   LIG    1       -1.306   1.936   0.019  0.00  0.00    +0.270 A 
ATOM      2  N   LIG    1       -1.450   3.236   0.021  0.00  0.00    -0.220 NA
ATOM      3  N   LIG    1       -2.831   3.491   0.031  0.00  0.00    -0.340 N 
ATOM      4  C   LIG    1       -3.438   2.292   0.033  0.00  0.00    +0.530 A 
ATOM      5  N   LIG    1       -2.511   1.368   0.021  0.00  0.00    -0.490 NA
ENDROOT
BRANCH   3   6
ATOM      6  C   LIG    1       -3.481   4.804   0.036  0.00  0.00    +0.310 C 
ATOM      7  C   LIG    1       -4.732   4.736   0.862  0.00  0.00    -0.080 C 
ATOM      8  C   LIG    1       -5.856   5.279   0.520  0.00  0.00    +0.030 C 
ATOM      9  C   LIG    1       -6.068   6.045  -0.753  0.00  0.00    +0.070 C 
ATOM     10  C   LIG    1       -4.721   6.449  -1.355  0.00  0.00    +0.030 C 
ATOM     11  C   LIG    1       -3.821   5.208  -1.400  0.00  0.00    +0.030 C 
ENDBRANCH   3   6
BRANCH   1  13
ATOM     12  O   LIG    1        0.002  -0.004   0.002  0.00  0.00    -0.090 OA
ATOM     13  N   LIG    1       -0.014   1.214   0.009  0.00  0.00    +0.060 N 
ATOM     14  O   LIG    1        1.032   1.837   0.002  0.00  0.00    -0.110 OA
ENDBRANCH   1  13
TORSDOF 2
