REMARK  Name = ZINC000918397084
REMARK                            x       y       z     vdW  Elec       q    Type
REMARK                         _______ _______ _______ _____ _____    ______ ____
ROOT
ATOM      1  N   LIG    1        2.330  -3.925  -2.008  0.00  0.00    -0.410 N 
ATOM      2  C   LIG    1        2.993  -4.653  -1.058  0.00  0.00    +0.210 A 
ATOM      3  C   LIG    1        2.823  -5.951  -1.372  0.00  0.00    +0.190 A 
ATOM      4  N   LIG    1        2.077  -6.014  -2.485  0.00  0.00    -0.400 NA
ATOM      5  C   LIG    1        1.773  -4.804  -2.869  0.00  0.00    +0.230 A 
ENDROOT
BRANCH   5   6
ATOM      6  N   LIG    1        0.961  -4.454  -4.055  0.00  0.00    +0.070 N 
ATOM      7  O   LIG    1        0.739  -3.286  -4.318  0.00  0.00    -0.150 OA
ATOM      8  O   LIG    1        0.513  -5.334  -4.768  0.00  0.00    -0.100 OA
ENDBRANCH   5   6
BRANCH   1   9
ATOM      9  C   LIG    1        2.236  -2.465  -2.076  0.00  0.00    +0.340 C 
BRANCH   9  12
ATOM     10  C   LIG    1        0.718  -0.497  -1.257  0.00  0.00    -0.020 C 
ATOM     11  C   LIG    1       -0.102  -1.305  -2.265  0.00  0.00    +0.050 C 
ATOM     12  C   LIG    1        0.946  -2.004  -1.395  0.00  0.00    -0.080 C 
BRANCH  10  14
ATOM     13  C   LIG    1       -0.019   1.526   0.010  0.00  0.00    +0.030 C 
ATOM     14  C   LIG    1        0.002  -0.004   0.002  0.00  0.00    +0.030 C 
ENDBRANCH  10  14
ENDBRANCH   9  12
ENDBRANCH   1   9
TORSDOF 4
