REMARK  Name = ZINC000336069504
REMARK                            x       y       z     vdW  Elec       q    Type
REMARK                         _______ _______ _______ _____ _____    ______ ____
ROOT
ATOM      1  C   LIG    1       -0.018   1.503   0.010  0.00  0.00    +0.170 C 
ATOM      2  C   LIG    1        0.002  -0.004   0.002  0.00  0.00    +0.130 A 
ATOM      3  N   LIG    1        0.008  -0.765  -1.062  0.00  0.00    -0.270 NA
ATOM      4  N   LIG    1        0.028  -2.102  -0.644  0.00  0.00    -0.340 N 
ATOM      5  C   LIG    1        0.034  -2.115   0.706  0.00  0.00    +0.170 A 
ATOM      6  C   LIG    1        0.055  -3.340   1.583  0.00  0.00    +0.170 C 
ATOM      7  C   LIG    1        0.024  -0.830   1.131  0.00  0.00    -0.190 A 
ENDROOT
BRANCH   7   8
ATOM      8  N   LIG    1        0.027  -0.379   2.540  0.00  0.00    +0.050 N 
ATOM      9  O   LIG    1       -1.027  -0.203   3.125  0.00  0.00    -0.140 OA
ATOM     10  O   LIG    1        1.083  -0.184   3.115  0.00  0.00    -0.140 OA
ENDBRANCH   7   8
BRANCH   4  11
ATOM     11  C   LIG    1        0.041  -3.278  -1.517  0.00  0.00    +0.370 C 
BRANCH  11  12
ATOM     12  C   LIG    1        1.488  -3.668  -1.827  0.00  0.00    -0.080 C 
ATOM     13  C   LIG    1        1.974  -5.031  -1.331  0.00  0.00    +0.020 C 
ATOM     14  C   LIG    1        1.715  -4.807  -2.823  0.00  0.00    +0.040 C 
ENDBRANCH  11  12
ENDBRANCH   4  11
TORSDOF 3
