REMARK  Name = ZINC000774663902
REMARK                            x       y       z     vdW  Elec       q    Type
REMARK                         _______ _______ _______ _____ _____    ______ ____
ROOT
ATOM      1  C   LIG    1       -0.232  -1.037  -2.163  0.00  0.00    +0.450 A 
ATOM      2  C   LIG    1       -1.524  -0.562  -2.365  0.00  0.00    -0.070 A 
ATOM      3  C   LIG    1       -2.089  -0.664  -3.623  0.00  0.00    +0.190 A 
ATOM      4  C   LIG    1       -1.340  -1.238  -4.641  0.00  0.00    -0.160 A 
ATOM      5  C   LIG    1       -0.064  -1.688  -4.371  0.00  0.00    +0.260 A 
ATOM      6  C   LIG    1        0.754  -2.313  -5.472  0.00  0.00    +0.170 C 
ATOM      7  N   LIG    1        0.452  -1.574  -3.161  0.00  0.00    -0.520 NA
ENDROOT
BRANCH   4   8
ATOM      8  N   LIG    1       -1.905  -1.366  -6.003  0.00  0.00    +0.040 N 
ATOM      9  O   LIG    1       -3.086  -1.626  -6.151  0.00  0.00    -0.160 OA
ATOM     10  O   LIG    1       -1.189  -1.212  -6.977  0.00  0.00    -0.150 OA
ENDBRANCH   4   8
BRANCH   1  11
ATOM     11  N   LIG    1        0.348  -0.941  -0.903  0.00  0.00    -0.470 N 
ATOM     12  C   LIG    1        1.711  -1.433  -0.685  0.00  0.00    +0.340 C 
BRANCH  11  14
ATOM     13  C   LIG    1       -0.202   1.044   0.301  0.00  0.00    +0.230 C 
ATOM     14  O   LIG    1       -0.378  -0.368   0.169  0.00  0.00    -0.120 OA
ENDBRANCH  11  14
ENDBRANCH   1  11
TORSDOF 3
