REMARK  Name = ZINC000306404686
REMARK                            x       y       z     vdW  Elec       q    Type
REMARK                         _______ _______ _______ _____ _____    ______ ____
ROOT
ATOM      1  C   LIG    1        2.102  -0.875   1.118  0.00  0.00    +0.480 A 
ATOM      2  N   LIG    1        2.768  -0.634  -0.001  0.00  0.00    -0.530 NA
ATOM      3  C   LIG    1        4.078  -0.476  -0.006  0.00  0.00    +0.390 A 
ATOM      4  C   LIG    1        4.805  -0.557   1.164  0.00  0.00    -0.080 A 
ATOM      5  C   LIG    1        4.145  -0.809   2.360  0.00  0.00    +0.200 A 
ATOM      6  C   LIG    1        2.771  -0.965   2.335  0.00  0.00    -0.190 A 
ENDROOT
BRANCH   6   7
ATOM      7  N   LIG    1        2.087  -1.211   3.478  0.00  0.00    +0.080 N 
ATOM      8  O   LIG    1        2.563  -1.944   4.327  0.00  0.00    -0.170 OA
ATOM      9  O   LIG    1        0.997  -0.699   3.658  0.00  0.00    -0.210 OA
ENDBRANCH   6   7
BRANCH   1  10
ATOM     10  N   LIG    1        0.722  -1.034   1.078  0.00  0.00    -0.690 N 
ATOM     11  H   LIG    1        0.239  -1.286   1.881  0.00  0.00    +0.420 HD
BRANCH  10  13
ATOM     12  C   LIG    1       -0.318   0.666  -0.340  0.00  0.00    +0.060 C 
ATOM     13  C   LIG    1       -0.004  -0.823  -0.177  0.00  0.00    +0.220 C 
BRANCH  13  14
ATOM     14  C   LIG    1       -1.310  -1.620  -0.152  0.00  0.00    +0.240 C 
ATOM     15  F   LIG    1       -1.022  -2.981  -0.003  0.00  0.00    -0.210 F 
ENDBRANCH  13  14
ENDBRANCH  10  13
ENDBRANCH   1  10
TORSDOF 4
