REMARK  Name = ZINC000095093467
REMARK                            x       y       z     vdW  Elec       q    Type
REMARK                         _______ _______ _______ _____ _____    ______ ____
ROOT
ATOM      1  C   LIG    1       -1.306   1.936   0.019  0.00  0.00    -0.060 A 
ATOM      2  C   LIG    1       -1.327   3.325   0.021  0.00  0.00    +0.140 A 
ATOM      3  O   LIG    1       -0.363   4.268   0.016  0.00  0.00    -0.070 OA
ATOM      4  N   LIG    1       -0.961   5.549   0.022  0.00  0.00    -0.270 NA
ATOM      5  C   LIG    1       -2.253   5.430   0.030  0.00  0.00    +0.350 A 
ATOM      6  C   LIG    1       -2.561   3.997   0.030  0.00  0.00    -0.200 A 
ATOM      7  C   LIG    1       -3.751   3.266   0.037  0.00  0.00    +0.180 A 
ATOM      8  C   LIG    1       -3.708   1.900   0.035  0.00  0.00    +0.010 A 
ATOM      9  C   LIG    1       -2.492   1.233   0.021  0.00  0.00    +0.180 A 
ENDROOT
BRANCH   1  11
ATOM     10  O   LIG    1        0.002  -0.004   0.002  0.00  0.00    -0.150 OA
ATOM     11  N   LIG    1       -0.014   1.214   0.009  0.00  0.00    +0.030 N 
ATOM     12  O   LIG    1        1.032   1.837   0.002  0.00  0.00    -0.140 OA
ENDBRANCH   1  11
TORSDOF 1
