REMARK  Name = ZINC000585814477
REMARK                            x       y       z     vdW  Elec       q    Type
REMARK                         _______ _______ _______ _____ _____    ______ ____
ROOT
ATOM      1  C   LIG    1       -0.018   1.503   0.010  0.00  0.00    +0.160 C 
ATOM      2  C   LIG    1        0.002  -0.004   0.002  0.00  0.00    -0.170 A 
ATOM      3  C   LIG    1        0.008  -0.794  -1.097  0.00  0.00    +0.260 A 
ATOM      4  N   LIG    1        0.028  -2.078  -0.680  0.00  0.00    -0.320 N 
ATOM      5  N   LIG    1        0.034  -2.076   0.721  0.00  0.00    -0.210 NA
ATOM      6  C   LIG    1        0.025  -0.833   1.128  0.00  0.00    +0.120 A 
ENDROOT
BRANCH   4   7
ATOM      7  C   LIG    1        0.041  -3.263  -1.541  0.00  0.00    +0.250 C 
ATOM      8  C   LIG    1        1.483  -3.580  -2.005  0.00  0.00    +0.020 C 
ATOM      9  C   LIG    1        1.266  -3.982  -3.486  0.00  0.00    +0.230 C 
ATOM     10  O   LIG    1        0.219  -3.092  -3.928  0.00  0.00    -0.370 OA
ATOM     11  C   LIG    1       -0.729  -2.989  -2.848  0.00  0.00    +0.230 C 
ENDBRANCH   4   7
BRANCH   6  12
ATOM     12  N   LIG    1        0.027  -0.382   2.538  0.00  0.00    +0.060 N 
ATOM     13  O   LIG    1        0.017   0.808   2.797  0.00  0.00    -0.130 OA
ATOM     14  O   LIG    1        0.038  -1.201   3.440  0.00  0.00    -0.130 OA
ENDBRANCH   6  12
TORSDOF 2
