REMARK  Name = ZINC000609669086
REMARK                            x       y       z     vdW  Elec       q    Type
REMARK                         _______ _______ _______ _____ _____    ______ ____
ROOT
ATOM      1  C   LIG    1       -0.018   1.503   0.010  0.00  0.00    +0.140 C 
ATOM      2  C   LIG    1        0.002  -0.004   0.002  0.00  0.00    +0.030 A 
ATOM      3  C   LIG    1        0.006  -0.707  -1.195  0.00  0.00    -0.030 A 
ATOM      4  C   LIG    1        0.025  -2.088  -1.169  0.00  0.00    +0.350 A 
ATOM      5  N   LIG    1        0.040  -2.742  -0.023  0.00  0.00    -0.500 NA
ATOM      6  C   LIG    1        0.037  -2.108   1.139  0.00  0.00    +0.340 A 
ATOM      7  C   LIG    1        0.023  -0.718   1.187  0.00  0.00    -0.110 A 
ENDROOT
BRANCH   6   8
ATOM      8  N   LIG    1        0.053  -2.837   2.322  0.00  0.00    -0.440 N 
ATOM      9  C   LIG    1       -1.311  -3.012   2.854  0.00  0.00    +0.190 C 
ATOM     10  C   LIG    1       -0.932  -4.460   3.197  0.00  0.00    +0.050 C 
ATOM     11  C   LIG    1        0.072  -4.287   2.049  0.00  0.00    +0.220 C 
ENDBRANCH   6   8
BRANCH   7  12
ATOM     12  N   LIG    1        0.020  -0.071   2.378  0.00  0.00    +0.070 N 
ATOM     13  O   LIG    1       -1.037   0.209   2.916  0.00  0.00    -0.160 OA
ATOM     14  O   LIG    1        1.073   0.230   2.910  0.00  0.00    -0.130 OA
ENDBRANCH   7  12
TORSDOF 2
