REMARK  Name = ZINC000168601244
REMARK                            x       y       z     vdW  Elec       q    Type
REMARK                         _______ _______ _______ _____ _____    ______ ____
ROOT
ATOM      1  C   LIG    1        0.023  -0.706   1.202  0.00  0.00    +0.440 A 
ATOM      2  C   LIG    1       -0.086  -0.016   2.405  0.00  0.00    -0.080 A 
ATOM      3  C   LIG    1       -0.064  -0.727   3.592  0.00  0.00    +0.190 A 
ATOM      4  C   LIG    1        0.066  -2.108   3.535  0.00  0.00    -0.170 A 
ATOM      5  C   LIG    1        0.170  -2.727   2.305  0.00  0.00    +0.430 A 
ATOM      6  N   LIG    1        0.141  -2.024   1.189  0.00  0.00    -0.530 NA
ENDROOT
BRANCH   4   7
ATOM      7  N   LIG    1        0.094  -2.908   4.780  0.00  0.00    +0.040 N 
ATOM      8  O   LIG    1        0.209  -4.119   4.723  0.00  0.00    -0.170 OA
ATOM      9  O   LIG    1        0.002  -2.356   5.861  0.00  0.00    -0.170 OA
ENDBRANCH   4   7
BRANCH   1  11
ATOM     10  C   LIG    1       -0.018   1.461   0.010  0.00  0.00    +0.320 C 
ATOM     11  N   LIG    1        0.002  -0.004   0.002  0.00  0.00    -0.560 N 
BRANCH  11  12
ATOM     12  C   LIG    1       -0.000  -0.730  -1.271  0.00  0.00    +0.220 C 
ATOM     13  C   LIG    1       -0.227   0.083  -2.547  0.00  0.00    +0.020 C 
ATOM     14  C   LIG    1        1.163  -0.474  -2.232  0.00  0.00    +0.020 C 
ENDBRANCH  11  12
ENDBRANCH   1  11
TORSDOF 3
