REMARK  Name = ZINC000083842843
REMARK                            x       y       z     vdW  Elec       q    Type
REMARK                         _______ _______ _______ _____ _____    ______ ____
ROOT
ATOM      1  C   LIG    1        0.833  -2.163  -0.936  0.00  0.00    -0.060 A 
ATOM      2  C   LIG    1        0.336  -2.876   0.156  0.00  0.00    +0.060 A 
ATOM      3  C   LIG    1        0.131  -4.237   0.052  0.00  0.00    -0.030 A 
ATOM      4  C   LIG    1        0.418  -4.894  -1.132  0.00  0.00    +0.050 A 
ATOM      5  C   LIG    1        0.911  -4.192  -2.218  0.00  0.00    +0.110 A 
ATOM      6  C   LIG    1       -0.406  -5.009   1.229  0.00  0.00    +0.120 C 
ATOM      7  C   LIG    1        1.114  -2.831  -2.129  0.00  0.00    -0.020 A 
ENDROOT
BRANCH   1  11
ATOM      8  C   LIG    1        0.267   1.549  -0.346  0.00  0.00    +0.300 C 
ATOM      9  N   LIG    1        0.047   0.104  -0.450  0.00  0.00    -0.720 N 
ATOM     10  H   LIG    1       -0.824  -0.270  -0.244  0.00  0.00    +0.400 HD
ATOM     11  C   LIG    1        1.055  -0.705  -0.831  0.00  0.00    +0.550 C 
ATOM     12  O   LIG    1        2.146  -0.236  -1.089  0.00  0.00    -0.490 OA
ENDBRANCH   1  11
BRANCH   7  13
ATOM     13  N   LIG    1        1.641  -2.082  -3.292  0.00  0.00    +0.020 N 
ATOM     14  O   LIG    1        1.706  -0.866  -3.255  0.00  0.00    -0.120 OA
ATOM     15  O   LIG    1        2.010  -2.682  -4.286  0.00  0.00    -0.160 OA
ENDBRANCH   7  13
TORSDOF 2
