REMARK  Name = ZINC000306159678
REMARK                            x       y       z     vdW  Elec       q    Type
REMARK                         _______ _______ _______ _____ _____    ______ ____
ROOT
ATOM      1  C   LIG    1       -1.307   1.937   0.019  0.00  0.00    -0.070 A 
ATOM      2  C   LIG    1       -1.387   3.276   0.021  0.00  0.00    +0.040 A 
ATOM      3  S   LIG    1       -3.077   3.763   0.033  0.00  0.00    +0.180 S 
ATOM      4  C   LIG    1       -3.595   2.083   0.034  0.00  0.00    -0.020 A 
ATOM      5  C   LIG    1       -2.529   1.283   0.021  0.00  0.00    +0.080 A 
ENDROOT
BRANCH   2   6
ATOM      6  N   LIG    1       -0.297   4.148   0.015  0.00  0.00    -0.380 N 
ATOM      7  C   LIG    1        0.196   4.368  -1.358  0.00  0.00    +0.200 C 
ATOM      8  C   LIG    1        0.364   5.851  -1.000  0.00  0.00    +0.070 C 
ATOM      9  C   LIG    1       -0.744   5.553   0.020  0.00  0.00    +0.180 C 
ENDBRANCH   2   6
BRANCH   1  11
ATOM     10  O   LIG    1        0.002  -0.004   0.002  0.00  0.00    -0.170 OA
ATOM     11  N   LIG    1       -0.014   1.214   0.009  0.00  0.00    +0.050 N 
ATOM     12  O   LIG    1        1.032   1.837   0.002  0.00  0.00    -0.140 OA
ENDBRANCH   1  11
TORSDOF 2
