REMARK  Name = ZINC000089203935
REMARK                            x       y       z     vdW  Elec       q    Type
REMARK                         _______ _______ _______ _____ _____    ______ ____
ROOT
ATOM      1  C   LIG    1       -1.306   1.936   0.019  0.00  0.00    -0.060 A 
ATOM      2  C   LIG    1       -1.328   3.327   0.021  0.00  0.00    +0.150 A 
ATOM      3  N   LIG    1       -0.344   4.290   0.015  0.00  0.00    -0.570 N 
ATOM      4  H   LIG    1        0.610   4.113   0.008  0.00  0.00    +0.430 HD
ATOM      5  C   LIG    1       -0.912   5.535   0.021  0.00  0.00    +0.280 A 
ATOM      6  C   LIG    1       -2.250   5.428   0.030  0.00  0.00    -0.170 A 
ATOM      7  C   LIG    1       -2.565   3.997   0.030  0.00  0.00    -0.100 A 
ATOM      8  C   LIG    1       -3.753   3.265   0.038  0.00  0.00    +0.130 A 
ATOM      9  C   LIG    1       -3.709   1.899   0.036  0.00  0.00    +0.000 A 
ATOM     10  C   LIG    1       -2.491   1.234   0.021  0.00  0.00    +0.140 A 
ENDROOT
BRANCH   1  12
ATOM     11  O   LIG    1        0.002  -0.004   0.002  0.00  0.00    -0.150 OA
ATOM     12  N   LIG    1       -0.014   1.214   0.009  0.00  0.00    +0.040 N 
ATOM     13  O   LIG    1        1.032   1.837   0.002  0.00  0.00    -0.190 OA
ENDBRANCH   1  12
BRANCH   6  14
ATOM     14  C   LIG    1       -3.240   6.564   0.040  0.00  0.00    +0.270 C 
BRANCH  14  15
ATOM     15  O   LIG    1       -2.538   7.808   0.038  0.00  0.00    -0.570 OA
ATOM     16  H   LIG    1       -3.114   8.585   0.043  0.00  0.00    +0.390 HD
ENDBRANCH  14  15
ENDBRANCH   6  14
TORSDOF 3
