REMARK  Name = ZINC000307144991
REMARK                            x       y       z     vdW  Elec       q    Type
REMARK                         _______ _______ _______ _____ _____    ______ ____
ROOT
ATOM      1  C   LIG    1       -1.303  -0.526  -0.079  0.00  0.00    +0.170 A 
ATOM      2  C   LIG    1       -1.703  -1.314  -1.083  0.00  0.00    -0.170 A 
ATOM      3  S   LIG    1       -3.386  -1.766  -0.843  0.00  0.00    +0.260 S 
ATOM      4  C   LIG    1       -3.457  -0.835   0.647  0.00  0.00    +0.030 A 
ATOM      5  C   LIG    1       -2.273  -0.267   0.879  0.00  0.00    -0.020 A 
ENDROOT
BRANCH   1   7
ATOM      6  C   LIG    1       -0.018   1.465   0.010  0.00  0.00    +0.230 C 
ATOM      7  N   LIG    1        0.002  -0.004   0.002  0.00  0.00    -0.490 N 
ATOM      8  C   LIG    1        0.706  -0.527   1.180  0.00  0.00    +0.230 C 
ENDBRANCH   1   7
BRANCH   2   9
ATOM      9  N   LIG    1       -0.858  -1.742  -2.221  0.00  0.00    +0.060 N 
ATOM     10  O   LIG    1       -1.321  -2.463  -3.086  0.00  0.00    -0.180 OA
ATOM     11  O   LIG    1        0.300  -1.371  -2.293  0.00  0.00    -0.100 OA
ENDBRANCH   2   9
TORSDOF 2
