REMARK  Name = ZINC000096553093
REMARK                            x       y       z     vdW  Elec       q    Type
REMARK                         _______ _______ _______ _____ _____    ______ ____
ROOT
ATOM      1  N   LIG    1        0.772  -0.303   1.247  0.00  0.00    -0.490 N 
ATOM      2  C   LIG    1        2.033  -0.786   1.106  0.00  0.00    +0.230 A 
ATOM      3  C   LIG    1        2.648  -1.421   2.131  0.00  0.00    -0.080 A 
ATOM      4  C   LIG    1        1.982  -1.586   3.354  0.00  0.00    +0.260 A 
ATOM      5  C   LIG    1        0.715  -1.100   3.493  0.00  0.00    -0.200 A 
ATOM      6  C   LIG    1        2.755  -0.613  -0.205  0.00  0.00    +0.150 C 
ATOM      7  C   LIG    1        0.108  -0.441   2.410  0.00  0.00    +0.540 A 
ATOM      8  O   LIG    1       -1.026  -0.001   2.522  0.00  0.00    -0.490 OA
ENDROOT
BRANCH   5   9
ATOM      9  N   LIG    1       -0.011  -1.260   4.773  0.00  0.00    +0.050 N 
ATOM     10  O   LIG    1       -1.142  -0.824   4.891  0.00  0.00    -0.130 OA
ATOM     11  O   LIG    1        0.523  -1.829   5.709  0.00  0.00    -0.190 OA
ENDBRANCH   5   9
BRANCH   1  13
ATOM     12  C   LIG    1       -0.661  -0.634  -0.707  0.00  0.00    +0.050 C 
ATOM     13  C   LIG    1        0.129   0.381   0.122  0.00  0.00    +0.290 C 
ENDBRANCH   1  13
TORSDOF 2
