REMARK  Name = ZINC001343427525
REMARK                            x       y       z     vdW  Elec       q    Type
REMARK                         _______ _______ _______ _____ _____    ______ ____
ROOT
ATOM      1  C   LIG    1       -0.018   1.503   0.010  0.00  0.00    +0.140 C 
ATOM      2  C   LIG    1        0.002  -0.004   0.002  0.00  0.00    +0.010 A 
ATOM      3  C   LIG    1        0.008  -0.789  -1.092  0.00  0.00    -0.030 A 
ATOM      4  N   LIG    1        0.028  -2.085  -0.650  0.00  0.00    -0.460 N 
ATOM      5  C   LIG    1        0.034  -2.046   0.700  0.00  0.00    +0.210 A 
ATOM      6  C   LIG    1        0.056  -3.244   1.613  0.00  0.00    +0.180 C 
ATOM      7  C   LIG    1       -0.005  -0.331  -2.527  0.00  0.00    +0.150 C 
ATOM      8  N   LIG    1        0.024  -0.798   1.083  0.00  0.00    -0.480 NA
ENDROOT
BRANCH   4   9
ATOM      9  C   LIG    1        0.041  -3.288  -1.484  0.00  0.00    +0.330 C 
BRANCH   9  10
ATOM     10  C   LIG    1        1.488  -3.687  -1.782  0.00  0.00    +0.250 C 
BRANCH  10  11
ATOM     11  N   LIG    1        1.501  -4.891  -2.617  0.00  0.00    -0.020 N 
ATOM     12  O   LIG    1        2.261  -5.806  -2.355  0.00  0.00    -0.150 OA
ATOM     13  O   LIG    1        0.751  -4.977  -3.574  0.00  0.00    -0.150 OA
ENDBRANCH  10  11
ENDBRANCH   9  10
ENDBRANCH   4   9
TORSDOF 3
