REMARK  Name = ZINC000197371998
REMARK                            x       y       z     vdW  Elec       q    Type
REMARK                         _______ _______ _______ _____ _____    ______ ____
ROOT
ATOM      1  N   LIG    1       -2.790  -2.565  -0.111  0.00  0.00    -0.350 N 
ATOM      2  C   LIG    1       -3.367  -3.348  -1.039  0.00  0.00    +0.530 A 
ATOM      3  N   LIG    1       -4.599  -3.580  -0.665  0.00  0.00    -0.490 NA
ATOM      4  C   LIG    1       -4.844  -2.964   0.491  0.00  0.00    +0.270 A 
ATOM      5  N   LIG    1       -3.765  -2.334   0.874  0.00  0.00    -0.220 NA
ENDROOT
BRANCH   4   6
ATOM      6  N   LIG    1       -6.129  -2.995   1.226  0.00  0.00    +0.060 N 
ATOM      7  O   LIG    1       -6.242  -2.394   2.279  0.00  0.00    -0.110 OA
ATOM      8  O   LIG    1       -7.072  -3.622   0.778  0.00  0.00    -0.090 OA
ENDBRANCH   4   6
BRANCH   1   9
ATOM      9  C   LIG    1       -1.416  -2.058  -0.121  0.00  0.00    +0.350 C 
BRANCH   9  10
ATOM     10  C   LIG    1       -1.433  -0.534   0.013  0.00  0.00    +0.020 C 
BRANCH  10  12
ATOM     11  C   LIG    1       -0.019   1.526   0.010  0.00  0.00    +0.030 C 
ATOM     12  C   LIG    1        0.002  -0.004   0.002  0.00  0.00    -0.010 C 
ATOM     13  C   LIG    1        0.742  -0.511   1.242  0.00  0.00    +0.020 C 
ENDBRANCH  10  12
ENDBRANCH   9  10
ENDBRANCH   1   9
TORSDOF 4
