REMARK  Name = ZINC000071515193
REMARK                            x       y       z     vdW  Elec       q    Type
REMARK                         _______ _______ _______ _____ _____    ______ ____
ROOT
ATOM      1  N   LIG    1       -0.008  -0.140   2.444  0.00  0.00    -0.480 N 
ATOM      2  C   LIG    1        0.241   1.048   3.051  0.00  0.00    +0.430 A 
ATOM      3  C   LIG    1       -0.439   1.413   4.163  0.00  0.00    -0.150 A 
ATOM      4  C   LIG    1       -1.413   0.559   4.699  0.00  0.00    +0.160 A 
ATOM      5  C   LIG    1       -1.662  -0.635   4.088  0.00  0.00    -0.050 A 
ATOM      6  C   LIG    1       -0.941  -0.980   2.932  0.00  0.00    +0.520 A 
ATOM      7  O   LIG    1       -1.155  -2.045   2.375  0.00  0.00    -0.510 OA
ENDROOT
BRANCH   3   8
ATOM      8  N   LIG    1       -0.155   2.712   4.812  0.00  0.00    +0.050 N 
ATOM      9  O   LIG    1       -0.767   3.039   5.813  0.00  0.00    -0.150 OA
ATOM     10  O   LIG    1        0.691   3.454   4.346  0.00  0.00    -0.170 OA
ENDBRANCH   3   8
BRANCH   1  11
ATOM     11  C   LIG    1        0.742  -0.511   1.242  0.00  0.00    +0.300 C 
BRANCH  11  13
ATOM     12  C   LIG    1       -0.019   1.526   0.010  0.00  0.00    +0.030 C 
ATOM     13  C   LIG    1        0.002  -0.004   0.002  0.00  0.00    -0.030 C 
ATOM     14  C   LIG    1        0.718  -0.497  -1.257  0.00  0.00    +0.040 C 
ENDBRANCH  11  13
ENDBRANCH   1  11
TORSDOF 3
