REMARK  Name = ZINC000612100647
REMARK                            x       y       z     vdW  Elec       q    Type
REMARK                         _______ _______ _______ _____ _____    ______ ____
ROOT
ATOM      1  C   LIG    1       -1.197   1.875   0.018  0.00  0.00    -0.130 A 
ATOM      2  C   LIG    1       -2.391   1.177   0.025  0.00  0.00    +0.190 A 
ATOM      3  C   LIG    1       -3.579   1.896   0.035  0.00  0.00    -0.040 A 
ATOM      4  C   LIG    1       -3.535   3.275   0.036  0.00  0.00    +0.370 A 
ATOM      5  N   LIG    1       -2.381   3.915   0.028  0.00  0.00    -0.510 NA
ATOM      6  C   LIG    1       -1.227   3.266   0.026  0.00  0.00    +0.360 A 
ENDROOT
BRANCH   6   7
ATOM      7  N   LIG    1       -0.035   3.981   0.017  0.00  0.00    -0.410 N 
ATOM      8  C   LIG    1        0.499   4.135   1.384  0.00  0.00    +0.200 C 
ATOM      9  C   LIG    1        0.860   5.582   1.019  0.00  0.00    +0.190 C 
ATOM     10  F   LIG    1        2.122   5.726   0.431  0.00  0.00    -0.180 F 
ATOM     11  C   LIG    1       -0.289   5.434   0.013  0.00  0.00    +0.210 C 
ENDBRANCH   6   7
BRANCH   1  13
ATOM     12  O   LIG    1        0.002  -0.004   0.002  0.00  0.00    -0.210 OA
ATOM     13  N   LIG    1       -0.014   1.214   0.009  0.00  0.00    +0.070 N 
ATOM     14  O   LIG    1        1.032   1.837   0.002  0.00  0.00    -0.140 OA
ENDBRANCH   1  13
TORSDOF 2
