REMARK  Name = ZINC000238575280
REMARK                            x       y       z     vdW  Elec       q    Type
REMARK                         _______ _______ _______ _____ _____    ______ ____
ROOT
ATOM      1  C   LIG    1        0.621  -0.491  -1.283  0.00  0.00    -0.060 A 
ATOM      2  C   LIG    1        0.687   0.348  -2.380  0.00  0.00    +0.020 A 
ATOM      3  C   LIG    1        1.254  -0.099  -3.558  0.00  0.00    +0.090 A 
ATOM      4  C   LIG    1        1.755  -1.384  -3.641  0.00  0.00    +0.030 A 
ATOM      5  C   LIG    1        1.690  -2.223  -2.544  0.00  0.00    +0.110 A 
ATOM      6  C   LIG    1        1.127  -1.775  -1.364  0.00  0.00    -0.040 A 
ENDROOT
BRANCH   6   7
ATOM      7  N   LIG    1        1.057  -2.673  -0.189  0.00  0.00    +0.030 N 
ATOM      8  O   LIG    1        0.560  -2.278   0.851  0.00  0.00    -0.160 OA
ATOM      9  O   LIG    1        1.495  -3.807  -0.263  0.00  0.00    -0.150 OA
ENDBRANCH   6   7
BRANCH   1  10
ATOM     10  C   LIG    1        0.002  -0.004   0.002  0.00  0.00    +0.220 C 
BRANCH  10  11
ATOM     11  N   LIG    1       -0.018   1.465   0.010  0.00  0.00    -0.830 NA
ATOM     12  H   LIG    1       -0.556   1.823  -0.764  0.00  0.00    +0.340 HD
ATOM     13  H   LIG    1        0.919   1.839   0.003  0.00  0.00    +0.350 HD
ENDBRANCH  10  11
BRANCH  10  14
ATOM     14  C   LIG    1       -1.429  -0.534   0.112  0.00  0.00    +0.240 C 
ATOM     15  F   LIG    1       -2.003  -0.082   1.305  0.00  0.00    -0.200 F 
ENDBRANCH  10  14
ENDBRANCH   1  10
TORSDOF 4
