REMARK  Name = ZINC000036458818
REMARK                            x       y       z     vdW  Elec       q    Type
REMARK                         _______ _______ _______ _____ _____    ______ ____
ROOT
ATOM      1  C   LIG    1       -1.354  -0.742  -0.039  0.00  0.00    -0.010 A 
ATOM      2  C   LIG    1       -1.941  -1.174   1.141  0.00  0.00    -0.010 A 
ATOM      3  C   LIG    1       -3.300  -1.423   1.164  0.00  0.00    +0.340 A 
ATOM      4  N   LIG    1       -4.036  -1.256   0.083  0.00  0.00    -0.470 NA
ATOM      5  C   LIG    1       -3.511  -0.846  -1.056  0.00  0.00    +0.370 A 
ATOM      6  C   LIG    1       -2.160  -0.571  -1.154  0.00  0.00    -0.100 A 
ENDROOT
BRANCH   6   7
ATOM      7  N   LIG    1       -1.580  -0.112  -2.435  0.00  0.00    +0.030 N 
ATOM      8  O   LIG    1       -0.413   0.234  -2.486  0.00  0.00    -0.150 OA
ATOM      9  O   LIG    1       -2.269  -0.078  -3.439  0.00  0.00    -0.140 OA
ENDBRANCH   6   7
BRANCH   1  11
ATOM     10  C   LIG    1        0.366   1.040   0.083  0.00  0.00    +0.050 C 
ATOM     11  C   LIG    1        0.125  -0.459  -0.105  0.00  0.00    +0.270 C 
BRANCH  11  12
ATOM     12  O   LIG    1        0.795  -1.183   0.928  0.00  0.00    -0.550 OA
ATOM     13  H   LIG    1        0.502  -0.957   1.821  0.00  0.00    +0.370 HD
ENDBRANCH  11  12
ENDBRANCH   1  11
TORSDOF 3
