REMARK  Name = ZINC000306599928
REMARK                            x       y       z     vdW  Elec       q    Type
REMARK                         _______ _______ _______ _____ _____    ______ ____
ROOT
ATOM      1  C   LIG    1       -0.018   1.503   0.010  0.00  0.00    +0.170 C 
ATOM      2  C   LIG    1        0.002  -0.004   0.002  0.00  0.00    +0.160 A 
ATOM      3  N   LIG    1        0.005  -0.650  -1.147  0.00  0.00    -0.440 NA
ATOM      4  C   LIG    1        0.023  -1.967  -1.203  0.00  0.00    +0.370 A 
ATOM      5  C   LIG    1        0.038  -2.725  -0.048  0.00  0.00    -0.080 A 
ATOM      6  C   LIG    1        0.035  -2.083   1.181  0.00  0.00    +0.140 A 
ATOM      7  C   LIG    1        0.023  -0.695   1.202  0.00  0.00    +0.050 A 
ATOM      8  F   LIG    1        0.020  -0.028   2.376  0.00  0.00    -0.110 F 
ENDROOT
BRANCH   5   9
ATOM      9  N   LIG    1        0.058  -4.203  -0.121  0.00  0.00    +0.030 N 
ATOM     10  O   LIG    1        0.071  -4.863   0.902  0.00  0.00    -0.150 OA
ATOM     11  O   LIG    1        0.061  -4.759  -1.205  0.00  0.00    -0.140 OA
ENDBRANCH   5   9
TORSDOF 1
