REMARK  Name = ZINC000086002012
REMARK                            x       y       z     vdW  Elec       q    Type
REMARK                         _______ _______ _______ _____ _____    ______ ____
ROOT
ATOM      1  C   LIG    1        0.489   1.216   0.378  0.00  0.00    +0.130 C 
ATOM      2  C   LIG    1        0.407  -0.281   0.223  0.00  0.00    +0.060 A 
ATOM      3  C   LIG    1        0.153  -0.850  -1.012  0.00  0.00    -0.090 A 
ATOM      4  C   LIG    1        0.084  -2.236  -1.117  0.00  0.00    +0.450 A 
ATOM      5  N   LIG    1        0.259  -3.002  -0.051  0.00  0.00    -0.530 NA
ATOM      6  C   LIG    1        0.503  -2.486   1.139  0.00  0.00    +0.410 A 
ATOM      7  C   LIG    1        0.590  -1.120   1.314  0.00  0.00    -0.160 A 
ENDROOT
BRANCH   7   8
ATOM      8  N   LIG    1        0.863  -0.554   2.654  0.00  0.00    +0.040 N 
ATOM      9  O   LIG    1        0.385  -1.076   3.645  0.00  0.00    -0.160 OA
ATOM     10  O   LIG    1        1.566   0.434   2.766  0.00  0.00    -0.160 OA
ENDBRANCH   7   8
BRANCH   4  11
ATOM     11  N   LIG    1       -0.170  -2.822  -2.352  0.00  0.00    -0.680 N 
ATOM     12  H   LIG    1       -0.311  -3.779  -2.414  0.00  0.00    +0.410 HD
BRANCH  11  13
ATOM     13  C   LIG    1       -0.224  -1.993  -3.558  0.00  0.00    +0.210 C 
ATOM     14  C   LIG    1        0.534  -2.489  -4.791  0.00  0.00    +0.020 C 
ATOM     15  C   LIG    1       -0.995  -2.543  -4.760  0.00  0.00    +0.030 C 
ENDBRANCH  11  13
ENDBRANCH   4  11
TORSDOF 3
