REMARK  Name = ZINC000308661886
REMARK                            x       y       z     vdW  Elec       q    Type
REMARK                         _______ _______ _______ _____ _____    ______ ____
ROOT
ATOM      1  C   LIG    1       -0.019   1.526   0.010  0.00  0.00    +0.010 C 
ATOM      2  C   LIG    1        0.002  -0.004   0.002  0.00  0.00    +0.220 C 
ENDROOT
BRANCH   2   3
ATOM      3  C   LIG    1        0.731  -0.503   1.223  0.00  0.00    -0.130 A 
ATOM      4  C   LIG    1        0.024  -0.954   2.327  0.00  0.00    +0.060 A 
ATOM      5  C   LIG    1        0.737  -1.405   3.428  0.00  0.00    -0.030 A 
ATOM      6  C   LIG    1        2.118  -1.390   3.388  0.00  0.00    +0.260 A 
ATOM      7  N   LIG    1        2.757  -0.954   2.320  0.00  0.00    -0.480 NA
ATOM      8  C   LIG    1        2.113  -0.523   1.254  0.00  0.00    +0.270 A 
ENDBRANCH   2   3
BRANCH   2   9
ATOM      9  N   LIG    1        0.690  -0.478  -1.207  0.00  0.00    -0.680 NA
ATOM     10  H   LIG    1        1.485   0.104  -1.422  0.00  0.00    +0.350 HD
BRANCH   9  11
ATOM     11  C   LIG    1       -0.235  -0.547  -2.346  0.00  0.00    +0.210 C 
BRANCH  11  12
ATOM     12  C   LIG    1        0.515  -1.043  -3.583  0.00  0.00    +0.270 C 
BRANCH  12  13
ATOM     13  N   LIG    1       -0.407  -1.112  -4.719  0.00  0.00    -0.020 N 
ATOM     14  O   LIG    1       -0.405  -2.089  -5.447  0.00  0.00    -0.150 OA
ATOM     15  O   LIG    1       -1.176  -0.193  -4.936  0.00  0.00    -0.160 OA
ENDBRANCH  12  13
ENDBRANCH  11  12
ENDBRANCH   9  11
ENDBRANCH   2   9
TORSDOF 5
