REMARK  Name = ZINC000588825075
REMARK                            x       y       z     vdW  Elec       q    Type
REMARK                         _______ _______ _______ _____ _____    ______ ____
ROOT
ATOM      1  C   LIG    1       -1.306   1.936   0.019  0.00  0.00    +0.050 A 
ATOM      2  C   LIG    1       -1.465   3.274   0.021  0.00  0.00    +0.280 A 
ATOM      3  N   LIG    1       -2.813   3.513   0.031  0.00  0.00    -0.450 N 
ATOM      4  C   LIG    1       -3.431   2.312   0.034  0.00  0.00    +0.470 A 
ATOM      5  N   LIG    1       -2.524   1.374   0.021  0.00  0.00    -0.450 NA
ENDROOT
BRANCH   1   7
ATOM      6  O   LIG    1        0.002  -0.004   0.002  0.00  0.00    -0.130 OA
ATOM      7  N   LIG    1       -0.014   1.214   0.009  0.00  0.00    +0.060 N 
ATOM      8  O   LIG    1        1.032   1.837   0.002  0.00  0.00    -0.160 OA
ENDBRANCH   1   7
BRANCH   3   9
ATOM      9  C   LIG    1       -3.463   4.825   0.037  0.00  0.00    +0.480 C 
BRANCH   9  10
ATOM     10  O   LIG    1       -3.684   5.253  -1.308  0.00  0.00    -0.380 OA
BRANCH  10  11
ATOM     11  C   LIG    1       -4.317   6.530  -1.416  0.00  0.00    +0.150 C 
ATOM     12  C   LIG    1       -3.409   7.620  -2.008  0.00  0.00    +0.020 C 
ATOM     13  C   LIG    1       -3.924   7.189  -3.391  0.00  0.00    +0.010 C 
ATOM     14  C   LIG    1       -5.187   6.682  -2.674  0.00  0.00    +0.040 C 
ENDBRANCH  10  11
ENDBRANCH   9  10
ENDBRANCH   3   9
TORSDOF 4
