REMARK  Name = ZINC000081145073
REMARK                            x       y       z     vdW  Elec       q    Type
REMARK                         _______ _______ _______ _____ _____    ______ ____
ROOT
ATOM      1  C   LIG    1       -2.287  -3.047   0.007  0.00  0.00    -0.080 A 
ATOM      2  C   LIG    1       -2.873  -3.402   1.208  0.00  0.00    +0.080 A 
ATOM      3  C   LIG    1       -4.060  -4.109   1.216  0.00  0.00    +0.040 A 
ATOM      4  C   LIG    1       -4.663  -4.461   0.023  0.00  0.00    +0.090 A 
ATOM      5  C   LIG    1       -4.078  -4.105  -1.178  0.00  0.00    -0.040 A 
ATOM      6  C   LIG    1       -2.893  -3.394  -1.186  0.00  0.00    +0.100 A 
ENDROOT
BRANCH   5   7
ATOM      7  N   LIG    1       -4.723  -4.482  -2.456  0.00  0.00    +0.030 N 
ATOM      8  O   LIG    1       -4.208  -4.168  -3.514  0.00  0.00    -0.160 OA
ATOM      9  O   LIG    1       -5.769  -5.106  -2.450  0.00  0.00    -0.160 OA
ENDBRANCH   5   7
BRANCH   1  10
ATOM     10  C   LIG    1       -0.993  -2.276  -0.001  0.00  0.00    +0.110 C 
BRANCH  10  11
ATOM     11  C   LIG    1       -1.293  -0.775   0.010  0.00  0.00    +0.060 C 
BRANCH  11  15
ATOM     12  N   LIG    1       -0.016   1.344   0.009  0.00  0.00    -0.860 N 
ATOM     13  H   LIG    1       -0.863   1.817   0.016  0.00  0.00    +0.400 HD
ATOM     14  H   LIG    1        0.817   1.840   0.004  0.00  0.00    +0.400 HD
ATOM     15  C   LIG    1        0.002  -0.004   0.002  0.00  0.00    +0.520 C 
ATOM     16  O   LIG    1        1.060  -0.596  -0.011  0.00  0.00    -0.540 OA
ENDBRANCH  11  15
ENDBRANCH  10  11
ENDBRANCH   1  10
TORSDOF 4
