REMARK  Name = ZINC000035118580
REMARK                            x       y       z     vdW  Elec       q    Type
REMARK                         _______ _______ _______ _____ _____    ______ ____
ROOT
ATOM      1  C   LIG    1       -0.018   1.503   0.010  0.00  0.00    +0.120 C 
ATOM      2  C   LIG    1        0.002  -0.004   0.002  0.00  0.00    +0.010 A 
ATOM      3  C   LIG    1        0.006  -0.688  -1.199  0.00  0.00    -0.010 A 
ATOM      4  C   LIG    1        0.024  -2.071  -1.210  0.00  0.00    +0.150 A 
ATOM      5  C   LIG    1        0.039  -2.772  -0.020  0.00  0.00    -0.090 A 
ATOM      6  C   LIG    1        0.035  -2.088   1.187  0.00  0.00    +0.200 A 
ATOM      7  C   LIG    1        0.023  -0.701   1.195  0.00  0.00    -0.070 A 
ENDROOT
BRANCH   5   8
ATOM      8  N   LIG    1        0.058  -4.252  -0.033  0.00  0.00    +0.040 N 
ATOM      9  O   LIG    1        0.071  -4.870   1.017  0.00  0.00    -0.130 OA
ATOM     10  O   LIG    1        0.061  -4.852  -1.093  0.00  0.00    -0.180 OA
ENDBRANCH   5   8
BRANCH   6  11
ATOM     11  O   LIG    1        0.050  -2.775   2.359  0.00  0.00    -0.270 OA
BRANCH  11  12
ATOM     12  C   LIG    1        0.046  -2.005   3.563  0.00  0.00    +0.210 C 
BRANCH  12  13
ATOM     13  C   LIG    1        0.064  -2.946   4.770  0.00  0.00    +0.210 C 
BRANCH  13  14
ATOM     14  O   LIG    1        1.295  -3.671   4.789  0.00  0.00    -0.570 OA
ATOM     15  H   LIG    1        1.376  -4.288   5.529  0.00  0.00    +0.390 HD
ENDBRANCH  13  14
ENDBRANCH  12  13
ENDBRANCH  11  12
ENDBRANCH   6  11
TORSDOF 5
