REMARK  Name = ZINC000590596058
REMARK                            x       y       z     vdW  Elec       q    Type
REMARK                         _______ _______ _______ _____ _____    ______ ____
ROOT
ATOM      1  N   LIG    1        0.603  -2.072  -1.117  0.00  0.00    -0.340 N 
ATOM      2  C   LIG    1       -0.034  -3.182  -0.690  0.00  0.00    +0.370 A 
ATOM      3  C   LIG    1        0.871  -4.187  -0.649  0.00  0.00    -0.190 A 
ATOM      4  C   LIG    1        2.103  -3.674  -1.065  0.00  0.00    +0.150 A 
ATOM      5  C   LIG    1        3.392  -4.448  -1.172  0.00  0.00    +0.190 C 
ATOM      6  N   LIG    1        1.943  -2.407  -1.352  0.00  0.00    -0.270 NA
ENDROOT
BRANCH   3   7
ATOM      7  N   LIG    1        0.603  -5.584  -0.238  0.00  0.00    +0.070 N 
ATOM      8  O   LIG    1        1.504  -6.403  -0.243  0.00  0.00    -0.160 OA
ATOM      9  O   LIG    1       -0.518  -5.913   0.106  0.00  0.00    -0.180 OA
ENDBRANCH   3   7
BRANCH   1  10
ATOM     10  C   LIG    1       -0.000  -0.750  -1.307  0.00  0.00    +0.250 C 
ATOM     11  C   LIG    1       -1.440  -0.913  -1.799  0.00  0.00    +0.100 C 
BRANCH  10  13
ATOM     12  C   LIG    1       -0.018   1.503   0.010  0.00  0.00    +0.100 C 
ATOM     13  C   LIG    1        0.002  -0.004   0.002  0.00  0.00    +0.340 C 
ATOM     14  O   LIG    1        0.020  -0.613   1.044  0.00  0.00    -0.430 OA
ENDBRANCH  10  13
ENDBRANCH   1  10
TORSDOF 3
