REMARK  Name = ZINC000034091028
REMARK                            x       y       z     vdW  Elec       q    Type
REMARK                         _______ _______ _______ _____ _____    ______ ____
ROOT
ATOM      1  C   LIG    1        0.623  -0.696   1.035  0.00  0.00    +0.460 A 
ATOM      2  N   LIG    1        1.190  -0.026   2.026  0.00  0.00    -0.530 NA
ATOM      3  C   LIG    1        1.790  -0.645   3.026  0.00  0.00    +0.380 A 
ATOM      4  C   LIG    1        1.847  -2.023   3.073  0.00  0.00    -0.070 A 
ATOM      5  C   LIG    1        1.264  -2.764   2.053  0.00  0.00    +0.060 A 
ATOM      6  C   LIG    1        1.308  -4.270   2.072  0.00  0.00    +0.140 C 
ATOM      7  C   LIG    1        0.638  -2.088   1.021  0.00  0.00    -0.190 A 
ENDROOT
BRANCH   1   9
ATOM      8  C   LIG    1       -0.018   1.461   0.010  0.00  0.00    +0.320 C 
ATOM      9  N   LIG    1        0.002  -0.004   0.002  0.00  0.00    -0.720 N 
ATOM     10  H   LIG    1       -0.418  -0.491  -0.724  0.00  0.00    +0.410 HD
ENDBRANCH   1   9
BRANCH   7  11
ATOM     11  N   LIG    1        0.057  -2.771   0.006  0.00  0.00    +0.060 N 
ATOM     12  O   LIG    1        0.704  -3.054  -0.987  0.00  0.00    -0.150 OA
ATOM     13  O   LIG    1       -1.113  -3.101   0.085  0.00  0.00    -0.150 OA
ENDBRANCH   7  11
TORSDOF 2
