REMARK  Name = ZINC000039240406
REMARK                            x       y       z     vdW  Elec       q    Type
REMARK                         _______ _______ _______ _____ _____    ______ ____
ROOT
ATOM      1  C   LIG    1       -1.306   1.936   0.019  0.00  0.00    -0.030 A 
ATOM      2  C   LIG    1       -2.494   1.229   0.026  0.00  0.00    +0.120 A 
ATOM      3  C   LIG    1       -3.702   1.900   0.035  0.00  0.00    +0.070 A 
ATOM      4  C   LIG    1       -3.728   3.282   0.037  0.00  0.00    +0.110 A 
ATOM      5  C   LIG    1       -2.542   3.998   0.030  0.00  0.00    +0.040 A 
ATOM      6  O   LIG    1       -2.295   5.341   0.030  0.00  0.00    -0.300 OA
ATOM      7  C   LIG    1       -0.924   5.478  -0.394  0.00  0.00    +0.460 C 
ATOM      8  O   LIG    1       -0.315   4.240   0.019  0.00  0.00    -0.280 OA
ATOM      9  C   LIG    1       -1.325   3.322   0.026  0.00  0.00    +0.100 A 
ENDROOT
BRANCH   1  11
ATOM     10  O   LIG    1        0.002  -0.004   0.002  0.00  0.00    -0.160 OA
ATOM     11  N   LIG    1       -0.014   1.214   0.009  0.00  0.00    +0.030 N 
ATOM     12  O   LIG    1        1.032   1.837   0.002  0.00  0.00    -0.140 OA
ENDBRANCH   1  11
TORSDOF 1
