REMARK  Name = ZINC000899231906
REMARK                            x       y       z     vdW  Elec       q    Type
REMARK                         _______ _______ _______ _____ _____    ______ ____
ROOT
ATOM      1  C   LIG    1       -1.412  -0.526   0.013  0.00  0.00    -0.100 A 
ATOM      2  C   LIG    1       -2.015  -0.864   1.208  0.00  0.00    +0.050 A 
ATOM      3  C   LIG    1       -3.312  -1.343   1.219  0.00  0.00    -0.020 A 
ATOM      4  C   LIG    1       -4.008  -1.484   0.033  0.00  0.00    +0.040 A 
ATOM      5  C   LIG    1       -3.410  -1.147  -1.165  0.00  0.00    -0.090 A 
ATOM      6  C   LIG    1       -2.111  -0.661  -1.178  0.00  0.00    +0.130 A 
ENDROOT
BRANCH   1   8
ATOM      7  C   LIG    1       -0.019   1.526   0.010  0.00  0.00    +0.020 C 
ATOM      8  C   LIG    1        0.002  -0.004   0.002  0.00  0.00    +0.070 C 
ENDBRANCH   1   8
BRANCH   6   9
ATOM      9  O   LIG    1       -1.520  -0.329  -2.356  0.00  0.00    -0.300 OA
BRANCH   9  10
ATOM     10  C   LIG    1       -2.295  -0.505  -3.543  0.00  0.00    +0.230 C 
BRANCH  10  11
ATOM     11  C   LIG    1       -1.469  -0.082  -4.759  0.00  0.00    +0.290 C 
BRANCH  11  12
ATOM     12  N   LIG    1       -0.322  -0.981  -4.908  0.00  0.00    -0.020 N 
ATOM     13  O   LIG    1        0.342  -1.287  -3.934  0.00  0.00    -0.130 OA
ATOM     14  O   LIG    1       -0.033  -1.423  -6.006  0.00  0.00    -0.170 OA
ENDBRANCH  11  12
ENDBRANCH  10  11
ENDBRANCH   9  10
ENDBRANCH   6   9
TORSDOF 5
