REMARK  Name = ZINC000261508795
REMARK                            x       y       z     vdW  Elec       q    Type
REMARK                         _______ _______ _______ _____ _____    ______ ____
ROOT
ATOM      1  C   LIG    1       -0.051  -0.004  -0.325  0.00  0.00    +0.160 A 
ATOM      2  C   LIG    1       -1.222  -0.744  -0.052  0.00  0.00    -0.040 A 
ATOM      3  C   LIG    1       -1.139  -2.160  -0.064  0.00  0.00    -0.080 A 
ATOM      4  C   LIG    1       -2.290  -2.919   0.205  0.00  0.00    +0.120 A 
ATOM      5  C   LIG    1       -3.464  -2.284   0.472  0.00  0.00    +0.030 A 
ATOM      6  C   LIG    1       -3.544  -0.892   0.483  0.00  0.00    +0.120 A 
ATOM      7  C   LIG    1        0.099  -2.761  -0.346  0.00  0.00    +0.280 A 
ATOM      8  N   LIG    1        1.152  -2.018  -0.593  0.00  0.00    -0.440 NA
ATOM      9  C   LIG    1       -2.447  -0.125   0.227  0.00  0.00    -0.020 A 
ATOM     10  C   LIG    1        1.114  -0.694  -0.596  0.00  0.00    +0.200 A 
ENDROOT
BRANCH   1  11
ATOM     11  N   LIG    1       -0.071   1.389  -0.328  0.00  0.00    -0.870 N 
ATOM     12  H   LIG    1       -0.608   1.868   0.323  0.00  0.00    +0.390 HD
ATOM     13  H   LIG    1        0.449   1.881  -0.984  0.00  0.00    +0.410 HD
ENDBRANCH   1  11
BRANCH   9  14
ATOM     14  N   LIG    1       -2.550   1.352   0.243  0.00  0.00    +0.020 N 
ATOM     15  O   LIG    1       -2.237   1.994  -0.743  0.00  0.00    -0.120 OA
ATOM     16  O   LIG    1       -2.948   1.924   1.242  0.00  0.00    -0.150 OA
ENDBRANCH   9  14
TORSDOF 2
