REMARK  Name = ZINC000148624663
REMARK                            x       y       z     vdW  Elec       q    Type
REMARK                         _______ _______ _______ _____ _____    ______ ____
ROOT
ATOM      1  C   LIG    1       -1.306   1.936   0.019  0.00  0.00    -0.190 A 
ATOM      2  C   LIG    1       -2.535   1.370   0.027  0.00  0.00    +0.370 A 
ATOM      3  N   LIG    1       -3.447   2.365   0.035  0.00  0.00    -0.450 N 
ATOM      4  H   LIG    1       -4.410   2.256   0.042  0.00  0.00    +0.460 HD
ATOM      5  N   LIG    1       -2.755   3.583   0.031  0.00  0.00    -0.260 NA
ATOM      6  C   LIG    1       -1.472   3.325   0.027  0.00  0.00    +0.160 A 
ENDROOT
BRANCH   6   7
ATOM      7  C   LIG    1       -0.365   4.348   0.022  0.00  0.00    +0.080 C 
ATOM      8  C   LIG    1       -0.674   5.585  -0.837  0.00  0.00    +0.040 C 
ATOM      9  C   LIG    1       -0.017   6.422   0.274  0.00  0.00    +0.020 C 
ATOM     10  C   LIG    1       -0.386   5.285   1.241  0.00  0.00    +0.040 C 
ENDBRANCH   6   7
BRANCH   1  12
ATOM     11  O   LIG    1        0.002  -0.004   0.002  0.00  0.00    -0.170 OA
ATOM     12  N   LIG    1       -0.014   1.214   0.009  0.00  0.00    +0.070 N 
ATOM     13  O   LIG    1        1.032   1.837   0.002  0.00  0.00    -0.160 OA
ENDBRANCH   1  12
TORSDOF 2
