REMARK  Name = ZINC000612778516
REMARK                            x       y       z     vdW  Elec       q    Type
REMARK                         _______ _______ _______ _____ _____    ______ ____
ROOT
ATOM      1  C   LIG    1       -1.824  -1.307  -1.026  0.00  0.00    +0.590 A 
ATOM      2  N   LIG    1       -0.999  -1.606  -2.018  0.00  0.00    -0.560 NA
ATOM      3  C   LIG    1       -1.399  -2.365  -3.025  0.00  0.00    +0.480 A 
ATOM      4  C   LIG    1       -2.698  -2.848  -3.033  0.00  0.00    -0.230 A 
ATOM      5  C   LIG    1       -3.534  -2.517  -1.979  0.00  0.00    +0.480 A 
ATOM      6  N   LIG    1       -3.070  -1.758  -1.000  0.00  0.00    -0.560 NA
ENDROOT
BRANCH   4   7
ATOM      7  N   LIG    1       -3.180  -3.700  -4.143  0.00  0.00    +0.050 N 
ATOM      8  O   LIG    1       -4.324  -4.118  -4.136  0.00  0.00    -0.160 OA
ATOM      9  O   LIG    1       -2.433  -3.984  -5.062  0.00  0.00    -0.160 OA
ENDBRANCH   4   7
BRANCH   1  10
ATOM     10  N   LIG    1       -1.372  -0.511   0.012  0.00  0.00    -0.550 N 
ATOM     11  C   LIG    1       -2.269  -0.175   1.122  0.00  0.00    +0.320 C 
BRANCH  10  13
ATOM     12  C   LIG    1       -0.019   1.526   0.010  0.00  0.00    +0.040 C 
ATOM     13  C   LIG    1        0.002  -0.004   0.002  0.00  0.00    +0.240 C 
ATOM     14  C   LIG    1        0.742  -0.511   1.242  0.00  0.00    +0.040 C 
ENDBRANCH  10  13
ENDBRANCH   1  10
TORSDOF 3
