REMARK  Name = ZINC000591338312
REMARK                            x       y       z     vdW  Elec       q    Type
REMARK                         _______ _______ _______ _____ _____    ______ ____
ROOT
ATOM      1  N   LIG    1        2.451  -2.013   2.223  0.00  0.00    -0.440 N 
ATOM      2  C   LIG    1        3.768  -1.760   2.064  0.00  0.00    +0.450 A 
ATOM      3  N   LIG    1        4.371  -1.948   3.206  0.00  0.00    -0.450 NA
ATOM      4  C   LIG    1        3.470  -2.323   4.125  0.00  0.00    +0.040 A 
ATOM      5  C   LIG    1        2.261  -2.364   3.532  0.00  0.00    +0.290 A 
ENDROOT
BRANCH   4   6
ATOM      6  N   LIG    1        3.752  -2.631   5.545  0.00  0.00    +0.060 N 
ATOM      7  O   LIG    1        2.846  -2.963   6.288  0.00  0.00    -0.160 OA
ATOM      8  O   LIG    1        4.891  -2.553   5.971  0.00  0.00    -0.130 OA
ENDBRANCH   4   6
BRANCH   1   9
ATOM      9  C   LIG    1        1.418  -1.922   1.188  0.00  0.00    +0.330 C 
BRANCH   9  10
ATOM     10  C   LIG    1        0.840  -0.506   1.168  0.00  0.00    +0.140 C 
BRANCH  10  12
ATOM     11  C   LIG    1       -0.621   1.076  -0.099  0.00  0.00    +0.010 C 
ATOM     12  C   LIG    1       -0.149  -0.375   0.008  0.00  0.00    +0.020 C 
ENDBRANCH  10  12
BRANCH  10  13
ATOM     13  O   LIG    1        0.164  -0.249   2.401  0.00  0.00    -0.380 OA
ATOM     14  C   LIG    1        0.383   1.063   2.922  0.00  0.00    +0.210 C 
ENDBRANCH  10  13
ENDBRANCH   9  10
ENDBRANCH   1   9
TORSDOF 5
