REMARK  Name = ZINC000034960426
REMARK                            x       y       z     vdW  Elec       q    Type
REMARK                         _______ _______ _______ _____ _____    ______ ____
ROOT
ATOM      1  C   LIG    1       -1.335  -0.696   0.282  0.00  0.00    -0.140 A 
ATOM      2  C   LIG    1       -2.560  -0.080   0.012  0.00  0.00    +0.120 A 
ATOM      3  C   LIG    1       -3.674  -0.847  -0.252  0.00  0.00    +0.100 A 
ATOM      4  C   LIG    1       -3.578  -2.242  -0.252  0.00  0.00    -0.110 A 
ATOM      5  C   LIG    1       -2.352  -2.858   0.018  0.00  0.00    +0.000 A 
ATOM      6  C   LIG    1       -1.238  -2.091   0.277  0.00  0.00    +0.150 A 
ENDROOT
BRANCH   1   8
ATOM      7  C   LIG    1       -0.248   1.628   0.569  0.00  0.00    +0.090 C 
ATOM      8  C   LIG    1       -0.143   0.125   0.565  0.00  0.00    +0.390 C 
ATOM      9  O   LIG    1        0.921  -0.410   0.793  0.00  0.00    -0.430 OA
ENDBRANCH   1   8
BRANCH   5  10
ATOM     10  N   LIG    1       -2.250  -4.335   0.018  0.00  0.00    +0.020 N 
ATOM     11  O   LIG    1       -1.257  -4.877  -0.432  0.00  0.00    -0.130 OA
ATOM     12  O   LIG    1       -3.159  -5.008   0.469  0.00  0.00    -0.150 OA
ENDBRANCH   5  10
BRANCH   4  13
ATOM     13  C   LIG    1       -4.769  -3.063  -0.535  0.00  0.00    +0.500 C 
ATOM     14  O   LIG    1       -5.851  -2.534  -0.670  0.00  0.00    -0.420 OA
ENDBRANCH   4  13
TORSDOF 3
