REMARK  Name = ZINC000601101340
REMARK                            x       y       z     vdW  Elec       q    Type
REMARK                         _______ _______ _______ _____ _____    ______ ____
ROOT
ATOM      1  C   LIG    1       -1.307   1.937   0.019  0.00  0.00    -0.170 A 
ATOM      2  C   LIG    1       -1.446   3.267   0.021  0.00  0.00    +0.140 A 
ATOM      3  C   LIG    1       -2.760   3.714   0.031  0.00  0.00    -0.010 A 
ATOM      4  C   LIG    1       -3.681   2.749   0.037  0.00  0.00    +0.030 A 
ATOM      5  S   LIG    1       -2.893   1.177   0.022  0.00  0.00    +0.260 S 
ENDROOT
BRANCH   2   6
ATOM      6  N   LIG    1       -0.345   4.145   0.014  0.00  0.00    -0.420 N 
ATOM      7  C   LIG    1       -0.633   5.346  -0.791  0.00  0.00    +0.180 C 
ATOM      8  C   LIG    1        0.064   6.175   0.297  0.00  0.00    +0.050 C 
ATOM      9  C   LIG    1       -0.353   5.011   1.208  0.00  0.00    +0.180 C 
ENDBRANCH   2   6
BRANCH   1  11
ATOM     10  O   LIG    1        0.002  -0.004   0.002  0.00  0.00    -0.180 OA
ATOM     11  N   LIG    1       -0.014   1.214   0.009  0.00  0.00    +0.060 N 
ATOM     12  O   LIG    1        1.032   1.837   0.002  0.00  0.00    -0.100 OA
ENDBRANCH   1  11
TORSDOF 2
