REMARK  Name = ZINC000054613551
REMARK                            x       y       z     vdW  Elec       q    Type
REMARK                         _______ _______ _______ _____ _____    ______ ____
ROOT
ATOM      1  C   LIG    1        2.080  -0.591  -1.215  0.00  0.00    +0.220 A 
ATOM      2  C   LIG    1        2.743  -1.034  -2.357  0.00  0.00    +0.000 A 
ATOM      3  C   LIG    1        4.125  -1.130  -2.321  0.00  0.00    +0.120 A 
ATOM      4  C   LIG    1        4.795  -0.787  -1.161  0.00  0.00    +0.100 A 
ATOM      5  N   LIG    1        4.138  -0.371  -0.097  0.00  0.00    -0.390 NA
ATOM      6  C   LIG    1        2.825  -0.260  -0.090  0.00  0.00    +0.230 A 
ENDROOT
BRANCH   4   7
ATOM      7  N   LIG    1        6.271  -0.887  -1.115  0.00  0.00    +0.040 N 
ATOM      8  O   LIG    1        6.870  -0.587  -0.098  0.00  0.00    -0.130 OA
ATOM      9  O   LIG    1        6.886  -1.270  -2.094  0.00  0.00    -0.170 OA
ENDBRANCH   4   7
BRANCH   1  10
ATOM     10  N   LIG    1        0.688  -0.476  -1.203  0.00  0.00    -0.710 N 
ATOM     11  H   LIG    1        0.175  -0.710  -1.993  0.00  0.00    +0.410 HD
BRANCH  10  13
ATOM     12  C   LIG    1       -0.019   1.526   0.010  0.00  0.00    +0.020 C 
ATOM     13  C   LIG    1        0.002  -0.004   0.002  0.00  0.00    +0.220 C 
ATOM     14  C   LIG    1       -1.433  -0.534   0.013  0.00  0.00    +0.050 C 
ENDBRANCH  10  13
ENDBRANCH   1  10
TORSDOF 3
