REMARK  Name = ZINC000085223407
REMARK                            x       y       z     vdW  Elec       q    Type
REMARK                         _______ _______ _______ _____ _____    ______ ____
ROOT
ATOM      1  C   LIG    1        0.626  -0.618   1.042  0.00  0.00    +0.200 A 
ATOM      2  C   LIG    1        1.202   0.138   2.051  0.00  0.00    -0.060 A 
ATOM      3  C   LIG    1        1.835  -0.489   3.107  0.00  0.00    +0.010 A 
ATOM      4  C   LIG    1        1.895  -1.869   3.158  0.00  0.00    +0.000 A 
ATOM      5  C   LIG    1        1.321  -2.626   2.152  0.00  0.00    +0.150 A 
ATOM      6  C   LIG    1        0.682  -2.004   1.098  0.00  0.00    -0.090 A 
ENDROOT
BRANCH   6   7
ATOM      7  N   LIG    1        0.068  -2.814   0.022  0.00  0.00    +0.030 N 
ATOM      8  O   LIG    1       -0.495  -2.265  -0.908  0.00  0.00    -0.140 OA
ATOM      9  O   LIG    1        0.126  -4.030   0.067  0.00  0.00    -0.180 OA
ENDBRANCH   6   7
BRANCH   1  11
ATOM     10  C   LIG    1       -0.017   1.425   0.010  0.00  0.00    +0.250 C 
ATOM     11  O   LIG    1        0.002  -0.004   0.002  0.00  0.00    -0.280 OA
ENDBRANCH   1  11
BRANCH   3  12
ATOM     12  C   LIG    1        2.461   0.333   4.205  0.00  0.00    +0.090 C 
BRANCH  12  13
ATOM     13  C   LIG    1        1.429   0.584   5.306  0.00  0.00    +0.180 C 
BRANCH  13  14
ATOM     14  O   LIG    1        2.023   1.363   6.346  0.00  0.00    -0.570 OA
ATOM     15  H   LIG    1        1.424   1.560   7.080  0.00  0.00    +0.390 HD
ENDBRANCH  13  14
ENDBRANCH  12  13
ENDBRANCH   3  12
TORSDOF 5
