REMARK  Name = ZINC000038810483
REMARK                            x       y       z     vdW  Elec       q    Type
REMARK                         _______ _______ _______ _____ _____    ______ ____
ROOT
ATOM      1  C   LIG    1       -0.018   1.503   0.010  0.00  0.00    +0.120 C 
ATOM      2  C   LIG    1        0.002  -0.004   0.002  0.00  0.00    -0.060 A 
ATOM      3  C   LIG    1        0.006  -0.689  -1.200  0.00  0.00    +0.020 A 
ATOM      4  C   LIG    1        0.024  -2.073  -1.211  0.00  0.00    +0.140 A 
ATOM      5  C   LIG    1        0.040  -2.778  -0.020  0.00  0.00    -0.110 A 
ATOM      6  C   LIG    1        0.037  -2.098   1.188  0.00  0.00    +0.230 A 
ATOM      7  F   LIG    1        0.027  -2.737  -2.388  0.00  0.00    -0.120 F 
ATOM      8  C   LIG    1        0.023  -0.703   1.199  0.00  0.00    +0.150 A 
ENDROOT
BRANCH   6   9
ATOM      9  N   LIG    1        0.053  -2.809   2.394  0.00  0.00    -0.860 N 
ATOM     10  H   LIG    1        0.051  -2.332   3.238  0.00  0.00    +0.410 HD
ATOM     11  H   LIG    1        0.066  -3.779   2.385  0.00  0.00    +0.410 HD
ENDBRANCH   6   9
BRANCH   5  12
ATOM     12  N   LIG    1        0.060  -4.258  -0.036  0.00  0.00    +0.020 N 
ATOM     13  O   LIG    1       -0.986  -4.882  -0.038  0.00  0.00    -0.130 OA
ATOM     14  O   LIG    1        1.123  -4.852  -0.048  0.00  0.00    -0.130 OA
ENDBRANCH   5  12
BRANCH   8  15
ATOM     15  N   LIG    1        0.020  -0.011   2.417  0.00  0.00    -0.870 N 
ATOM     16  H   LIG    1        0.011   0.960   2.424  0.00  0.00    +0.410 HD
ATOM     17  H   LIG    1        0.028  -0.501   3.254  0.00  0.00    +0.400 HD
ENDBRANCH   8  15
TORSDOF 3
