REMARK  Name = ZINC000067799837
REMARK                            x       y       z     vdW  Elec       q    Type
REMARK                         _______ _______ _______ _____ _____    ______ ____
ROOT
ATOM      1  C   LIG    1       -1.306   1.936   0.019  0.00  0.00    -0.190 A 
ATOM      2  C   LIG    1       -1.467   3.280   0.021  0.00  0.00    +0.360 A 
ATOM      3  N   LIG    1       -2.792   3.536   0.031  0.00  0.00    -0.340 N 
ATOM      4  N   LIG    1       -3.468   2.309   0.034  0.00  0.00    -0.260 NA
ATOM      5  C   LIG    1       -2.577   1.351   0.021  0.00  0.00    +0.320 A 
ENDROOT
BRANCH   1   7
ATOM      6  O   LIG    1        0.002  -0.004   0.002  0.00  0.00    -0.160 OA
ATOM      7  N   LIG    1       -0.014   1.214   0.009  0.00  0.00    +0.070 N 
ATOM      8  O   LIG    1        1.032   1.837   0.002  0.00  0.00    -0.170 OA
ENDBRANCH   1   7
BRANCH   3   9
ATOM      9  C   LIG    1       -3.413   4.862   0.036  0.00  0.00    +0.370 C 
BRANCH   9  10
ATOM     10  C   LIG    1       -4.387   4.974  -1.139  0.00  0.00    -0.070 C 
ATOM     11  C   LIG    1       -5.870   5.166  -0.812  0.00  0.00    +0.030 C 
ATOM     12  C   LIG    1       -5.054   6.330  -1.378  0.00  0.00    +0.030 C 
ENDBRANCH   9  10
ENDBRANCH   3   9
TORSDOF 3
