REMARK  Name = ZINC000032220260
REMARK                            x       y       z     vdW  Elec       q    Type
REMARK                         _______ _______ _______ _____ _____    ______ ____
ROOT
ATOM      1  C   LIG    1       -1.306   1.936   0.019  0.00  0.00    -0.040 A 
ATOM      2  C   LIG    1       -1.330   3.338   0.021  0.00  0.00    +0.200 A 
ATOM      3  N   LIG    1       -0.208   4.068   0.013  0.00  0.00    -0.490 NA
ATOM      4  C   LIG    1       -0.272   5.378   0.015  0.00  0.00    +0.540 A 
ATOM      5  N   LIG    1       -1.418   6.042   0.024  0.00  0.00    -0.520 NA
ATOM      6  C   LIG    1       -2.579   5.418   0.032  0.00  0.00    +0.410 A 
ATOM      7  C   LIG    1       -2.580   4.011   0.030  0.00  0.00    -0.180 A 
ATOM      8  C   LIG    1       -3.768   3.266   0.038  0.00  0.00    +0.150 A 
ATOM      9  C   LIG    1       -3.705   1.905   0.035  0.00  0.00    +0.020 A 
ATOM     10  C   LIG    1       -2.479   1.243   0.021  0.00  0.00    +0.180 A 
ENDROOT
BRANCH   1  12
ATOM     11  O   LIG    1        0.002  -0.004   0.002  0.00  0.00    -0.180 OA
ATOM     12  N   LIG    1       -0.014   1.214   0.009  0.00  0.00    +0.030 N 
ATOM     13  O   LIG    1        1.032   1.837   0.002  0.00  0.00    -0.100 OA
ENDBRANCH   1  12
TORSDOF 1
