REMARK  Name = ZINC000078237573
REMARK                            x       y       z     vdW  Elec       q    Type
REMARK                         _______ _______ _______ _____ _____    ______ ____
ROOT
ATOM      1  C   LIG    1       -1.306   1.936   0.019  0.00  0.00    +0.140 A 
ATOM      2  C   LIG    1       -1.325   3.319   0.021  0.00  0.00    +0.350 A 
ATOM      3  N   LIG    1       -2.478   3.966   0.030  0.00  0.00    -0.400 NA
ATOM      4  C   LIG    1       -3.613   3.291   0.037  0.00  0.00    +0.340 A 
ATOM      5  C   LIG    1       -3.595   1.905   0.035  0.00  0.00    +0.140 A 
ATOM      6 CL   LIG    1       -5.087   1.018   0.044  0.00  0.00    +0.030 Cl
ATOM      7  N   LIG    1       -2.442   1.260   0.021  0.00  0.00    -0.380 NA
ENDROOT
BRANCH   1   9
ATOM      8  O   LIG    1        0.002  -0.004   0.002  0.00  0.00    -0.100 OA
ATOM      9  N   LIG    1       -0.014   1.214   0.009  0.00  0.00    +0.020 N 
ATOM     10  O   LIG    1        1.032   1.837   0.002  0.00  0.00    -0.130 OA
ENDBRANCH   1   9
TORSDOF 1
