REMARK  Name = ZINC000791052010
REMARK                            x       y       z     vdW  Elec       q    Type
REMARK                         _______ _______ _______ _____ _____    ______ ____
ROOT
ATOM      1  N   LIG    1       -3.513   1.999   1.050  0.00  0.00    -0.490 NA
ATOM      2  C   LIG    1       -3.315   3.443   1.357  0.00  0.00    +0.230 C 
ATOM      3  C   LIG    1       -4.635   3.877   1.961  0.00  0.00    -0.100 A 
ATOM      4  C   LIG    1       -5.241   5.110   2.075  0.00  0.00    +0.020 A 
ATOM      5  C   LIG    1       -6.476   5.219   2.689  0.00  0.00    +0.020 A 
ATOM      6  C   LIG    1       -7.102   4.092   3.188  0.00  0.00    +0.020 A 
ATOM      7  C   LIG    1       -6.495   2.855   3.073  0.00  0.00    +0.030 A 
ATOM      8  C   LIG    1       -5.263   2.746   2.461  0.00  0.00    -0.100 A 
ATOM      9  C   LIG    1       -4.363   1.558   2.190  0.00  0.00    +0.240 C 
ENDROOT
BRANCH   1  10
ATOM     10  C   LIG    1       -2.231   1.282   1.040  0.00  0.00    +0.200 C 
BRANCH  10  11
ATOM     11  C   LIG    1       -1.293   1.929   0.019  0.00  0.00    +0.270 C 
BRANCH  11  13
ATOM     12  O   LIG    1        0.002  -0.004   0.002  0.00  0.00    -0.150 OA
ATOM     13  N   LIG    1       -0.014   1.214   0.009  0.00  0.00    -0.020 N 
ATOM     14  O   LIG    1        1.032   1.837   0.002  0.00  0.00    -0.160 OA
ENDBRANCH  11  13
ENDBRANCH  10  11
ENDBRANCH   1  10
TORSDOF 3
