REMARK  Name = ZINC000225096273
REMARK                            x       y       z     vdW  Elec       q    Type
REMARK                         _______ _______ _______ _____ _____    ______ ____
ROOT
ATOM      1  C   LIG    1       -3.747   2.002   0.031  0.00  0.00    +0.310 C 
ATOM      2  F   LIG    1       -4.481   1.660  -1.110  0.00  0.00    -0.140 F 
ATOM      3  F   LIG    1       -3.510   3.381   0.037  0.00  0.00    -0.150 F 
ENDROOT
BRANCH   1   4
ATOM      4  C   LIG    1       -4.538   1.615   1.282  0.00  0.00    +0.440 C 
ATOM      5  F   LIG    1       -4.775   0.236   1.275  0.00  0.00    -0.150 F 
ATOM      6  F   LIG    1       -5.759   2.297   1.291  0.00  0.00    -0.150 F 
ATOM      7  F   LIG    1       -3.804   1.956   2.422  0.00  0.00    -0.150 F 
ENDBRANCH   1   4
BRANCH   1   9
ATOM      8  C   LIG    1       -1.306   1.936   0.019  0.00  0.00    +0.190 C 
ATOM      9  C   LIG    1       -2.432   1.266   0.021  0.00  0.00    +0.050 C 
BRANCH   8  11
ATOM     10  O   LIG    1        0.002  -0.004   0.002  0.00  0.00    -0.140 OA
ATOM     11  N   LIG    1       -0.014   1.214   0.009  0.00  0.00    +0.000 N 
ATOM     12  O   LIG    1        1.032   1.837   0.002  0.00  0.00    -0.120 OA
ENDBRANCH   8  11
ENDBRANCH   1   9
TORSDOF 3
