REMARK  Name = ZINC000591136789
REMARK                            x       y       z     vdW  Elec       q    Type
REMARK                         _______ _______ _______ _____ _____    ______ ____
ROOT
ATOM      1  C   LIG    1       -1.306   1.936   0.019  0.00  0.00    -0.140 A 
ATOM      2  C   LIG    1       -1.333   3.316   0.021  0.00  0.00    +0.420 A 
ATOM      3  N   LIG    1       -2.478   3.972   0.030  0.00  0.00    -0.500 NA
ATOM      4  C   LIG    1       -3.641   3.339   0.037  0.00  0.00    +0.430 A 
ATOM      5  C   LIG    1       -3.689   1.947   0.036  0.00  0.00    -0.010 A 
ATOM      6  F   LIG    1       -4.877   1.303   0.043  0.00  0.00    -0.120 F 
ATOM      7  C   LIG    1       -2.504   1.232   0.021  0.00  0.00    +0.180 A 
ENDROOT
BRANCH   1   9
ATOM      8  O   LIG    1        0.002  -0.004   0.002  0.00  0.00    -0.160 OA
ATOM      9  N   LIG    1       -0.014   1.214   0.009  0.00  0.00    +0.040 N 
ATOM     10  O   LIG    1        1.032   1.837   0.002  0.00  0.00    -0.160 OA
ENDBRANCH   1   9
BRANCH   4  11
ATOM     11  N   LIG    1       -4.824   4.071   0.046  0.00  0.00    -0.670 N 
ATOM     12  H   LIG    1       -5.678   3.611   0.051  0.00  0.00    +0.420 HD
BRANCH  11  13
ATOM     13  C   LIG    1       -4.780   5.535   0.047  0.00  0.00    +0.230 C 
ATOM     14  C   LIG    1       -5.747   6.272  -0.882  0.00  0.00    +0.020 C 
ATOM     15  C   LIG    1       -5.984   6.278   0.630  0.00  0.00    +0.020 C 
ENDBRANCH  11  13
ENDBRANCH   4  11
TORSDOF 3
