REMARK  Name = ZINC000059338302
REMARK                            x       y       z     vdW  Elec       q    Type
REMARK                         _______ _______ _______ _____ _____    ______ ____
ROOT
ATOM      1  C   LIG    1        0.707  -0.490  -1.238  0.00  0.00    -0.070 A 
ATOM      2  C   LIG    1        0.222  -0.151  -2.487  0.00  0.00    +0.110 A 
ATOM      3  C   LIG    1        0.869  -0.597  -3.624  0.00  0.00    +0.030 A 
ATOM      4  C   LIG    1        2.002  -1.381  -3.513  0.00  0.00    +0.100 A 
ATOM      5  C   LIG    1        2.488  -1.720  -2.263  0.00  0.00    -0.050 A 
ATOM      6  C   LIG    1        1.843  -1.270  -1.126  0.00  0.00    +0.100 A 
ENDROOT
BRANCH   5   7
ATOM      7  N   LIG    1        3.700  -2.560  -2.143  0.00  0.00    +0.030 N 
ATOM      8  O   LIG    1        4.129  -2.858  -1.043  0.00  0.00    -0.160 OA
ATOM      9  O   LIG    1        4.270  -2.953  -3.146  0.00  0.00    -0.160 OA
ENDBRANCH   5   7
BRANCH   1  11
ATOM     10  C   LIG    1       -0.019   1.526   0.010  0.00  0.00    +0.070 C 
ATOM     11  C   LIG    1        0.002  -0.004   0.002  0.00  0.00    +0.050 C 
BRANCH  11  12
ATOM     12  C   LIG    1       -1.412  -0.526   0.013  0.00  0.00    +0.520 C 
ATOM     13  O   LIG    1       -1.808  -1.223  -0.897  0.00  0.00    -0.530 OA
ATOM     14  N   LIG    1       -2.236  -0.217   1.033  0.00  0.00    -0.850 N 
ATOM     15  H   LIG    1       -3.146  -0.553   1.040  0.00  0.00    +0.410 HD
ATOM     16  H   LIG    1       -1.920   0.341   1.761  0.00  0.00    +0.400 HD
ENDBRANCH  11  12
ENDBRANCH   1  11
TORSDOF 3
