REMARK  Name = ZINC000035606921
REMARK                            x       y       z     vdW  Elec       q    Type
REMARK                         _______ _______ _______ _____ _____    ______ ____
ROOT
ATOM      1  C   UNK A  0        0.027  -0.639   2.398  0.00  0.00    +0.270 A 
ATOM      2  C   UNK A  0       -1.326  -0.333   2.475  0.00  0.00    -0.060 A 
ATOM      3  C   UNK A  0       -1.998  -0.482   3.672  0.00  0.00    +0.150 A 
ATOM      4  C   UNK A  0       -1.327  -0.934   4.793  0.00  0.00    -0.110 A 
ATOM      5  C   UNK A  0        0.020  -1.240   4.719  0.00  0.00    +0.150 A 
ATOM      6  C   UNK A  0        0.698  -1.099   3.524  0.00  0.00    -0.060 A 
ENDROOT
BRANCH   4   7
ATOM      7  N   UNK A  0       -2.051  -1.093   6.074  0.00  0.00    +0.040 N 
ATOM      8  O   UNK A  0       -1.461  -1.492   7.062  0.00  0.00    -0.180 OA
ATOM      9  O   UNK A  0       -3.237  -0.825   6.140  0.00  0.00    -0.180 OA
ENDBRANCH   4   7
BRANCH   1  10
ATOM     10  N   ALA A  1        0.711  -0.489   1.189  0.00  0.00    -0.720 N 
ATOM     11  H   ALA A  1        1.654  -0.707   1.135  0.00  0.00    +0.410 HD
BRANCH  10  13
ATOM     12  CB  ALA A  1       -0.019   1.526   0.010  0.00  0.00    +0.030 C 
ATOM     13  CA  ALA A  1        0.002  -0.004   0.002  0.00  0.00    +0.240 C 
BRANCH  13  14
ATOM     14  C   ALA A  1        0.718  -0.497  -1.257  0.00  0.00    +0.200 C 
BRANCH  14  15
ATOM     15  O   ALA A  1        2.019   0.090  -1.326  0.00  0.00    -0.570 OA
ATOM     16  H   ALA A  1        2.531  -0.178  -2.101  0.00  0.00    +0.390 HD
ENDBRANCH  14  15
ENDBRANCH  13  14
ENDBRANCH  10  13
ENDBRANCH   1  10
TORSDOF 5
