REMARK  Name = ZINC000899231274
REMARK                            x       y       z     vdW  Elec       q    Type
REMARK                         _______ _______ _______ _____ _____    ______ ____
ROOT
ATOM      1  C   LIG    1        0.707  -0.490  -1.238  0.00  0.00    -0.040 A 
ATOM      2  C   LIG    1       -0.011  -0.718  -2.397  0.00  0.00    -0.030 A 
ATOM      3  C   LIG    1        0.633  -1.164  -3.536  0.00  0.00    +0.050 A 
ATOM      4  C   LIG    1        1.997  -1.383  -3.519  0.00  0.00    -0.100 A 
ATOM      5  C   LIG    1        2.720  -1.155  -2.357  0.00  0.00    +0.130 A 
ATOM      6  C   LIG    1        2.073  -0.702  -1.217  0.00  0.00    -0.010 A 
ENDROOT
BRANCH   1   8
ATOM      7  C   LIG    1       -0.019   1.526   0.010  0.00  0.00    +0.030 C 
ATOM      8  C   LIG    1        0.002  -0.004   0.002  0.00  0.00    +0.070 C 
ENDBRANCH   1   8
BRANCH   5   9
ATOM      9  O   LIG    1        4.062  -1.368  -2.338  0.00  0.00    -0.300 OA
BRANCH   9  10
ATOM     10  C   LIG    1        4.663  -1.829  -3.550  0.00  0.00    +0.230 C 
BRANCH  10  11
ATOM     11  C   LIG    1        6.167  -2.011  -3.336  0.00  0.00    +0.290 C 
BRANCH  11  12
ATOM     12  N   LIG    1        6.396  -3.079  -2.360  0.00  0.00    -0.020 N 
ATOM     13  O   LIG    1        5.737  -3.121  -1.337  0.00  0.00    -0.130 OA
ATOM     14  O   LIG    1        7.245  -3.926  -2.572  0.00  0.00    -0.170 OA
ENDBRANCH  11  12
ENDBRANCH  10  11
ENDBRANCH   9  10
ENDBRANCH   5   9
TORSDOF 5
