REMARK  Name = ZINC000238478692
REMARK                            x       y       z     vdW  Elec       q    Type
REMARK                         _______ _______ _______ _____ _____    ______ ____
ROOT
ATOM      1  C   LIG    1       -0.018   1.503   0.010  0.00  0.00    +0.140 C 
ATOM      2  C   LIG    1        0.002  -0.004   0.002  0.00  0.00    -0.100 A 
ATOM      3  C   LIG    1        0.006  -0.688  -1.198  0.00  0.00    +0.090 A 
ATOM      4  C   LIG    1        0.025  -2.075  -1.205  0.00  0.00    +0.110 A 
ATOM      5  C   LIG    1        0.041  -2.773  -0.007  0.00  0.00    +0.100 A 
ATOM      6  C   LIG    1        0.037  -2.087   1.192  0.00  0.00    -0.060 A 
ATOM      7  C   LIG    1        0.023  -0.703   1.198  0.00  0.00    +0.160 A 
ATOM      8  F   LIG    1        0.019  -0.033   2.371  0.00  0.00    -0.100 F 
ENDROOT
BRANCH   6   9
ATOM      9  N   LIG    1        0.054  -2.832   2.471  0.00  0.00    +0.030 N 
ATOM     10  O   LIG    1        0.051  -2.227   3.528  0.00  0.00    -0.140 OA
ATOM     11  O   LIG    1        0.071  -4.050   2.466  0.00  0.00    -0.150 OA
ENDBRANCH   6   9
BRANCH   4  12
ATOM     12  O   LIG    1        0.029  -2.749  -2.386  0.00  0.00    -0.480 OA
ATOM     13  H   LIG    1        0.914  -2.932  -2.731  0.00  0.00    +0.400 HD
ENDBRANCH   4  12
TORSDOF 2
