REMARK  Name = ZINC000612739725
REMARK                            x       y       z     vdW  Elec       q    Type
REMARK                         _______ _______ _______ _____ _____    ______ ____
ROOT
ATOM      1  N   LIG    1        0.722  -0.363  -1.227  0.00  0.00    -0.470 N 
ATOM      2  C   LIG    1        0.965  -1.821  -1.292  0.00  0.00    +0.220 C 
ATOM      3  C   LIG    1        0.941  -2.099  -2.813  0.00  0.00    +0.110 C 
ATOM      4  C   LIG    1        0.078  -0.974  -3.348  0.00  0.00    -0.080 A 
ATOM      5  C   LIG    1       -0.565  -0.808  -4.557  0.00  0.00    +0.000 A 
ATOM      6  C   LIG    1       -1.307   0.334  -4.796  0.00  0.00    +0.080 A 
ATOM      7  C   LIG    1       -1.405   1.310  -3.821  0.00  0.00    +0.060 A 
ATOM      8  C   LIG    1       -0.762   1.150  -2.611  0.00  0.00    +0.050 A 
ATOM      9  C   LIG    1       -0.010   0.003  -2.363  0.00  0.00    +0.100 A 
ENDROOT
BRANCH   5  10
ATOM     10  N   LIG    1       -0.459  -1.854  -5.599  0.00  0.00    +0.030 N 
ATOM     11  O   LIG    1        0.195  -2.859  -5.389  0.00  0.00    -0.160 OA
ATOM     12  O   LIG    1       -1.026  -1.708  -6.667  0.00  0.00    -0.160 OA
ENDBRANCH   5  10
BRANCH   1  14
ATOM     13  C   LIG    1        0.963  -0.059   1.191  0.00  0.00    +0.050 C 
ATOM     14  C   LIG    1        0.002  -0.004   0.002  0.00  0.00    +0.170 C 
ENDBRANCH   1  14
TORSDOF 2
