REMARK  Name = ZINC000594886498
REMARK                            x       y       z     vdW  Elec       q    Type
REMARK                         _______ _______ _______ _____ _____    ______ ____
ROOT
ATOM      1  C   LIG    1       -3.235   2.388  -0.165  0.00  0.00    +0.120 A 
ATOM      2  C   LIG    1       -2.485   3.514  -0.166  0.00  0.00    +0.020 A 
ATOM      3  C   LIG    1       -1.167   3.153   0.133  0.00  0.00    +0.260 A 
ATOM      4  N   LIG    1       -1.128   1.857   0.307  0.00  0.00    -0.220 NA
ATOM      5  N   LIG    1       -2.422   1.352   0.130  0.00  0.00    -0.330 N 
ENDROOT
BRANCH   1   7
ATOM      6  O   LIG    1       -5.235   1.222  -0.511  0.00  0.00    -0.150 OA
ATOM      7  N   LIG    1       -4.689   2.308  -0.432  0.00  0.00    +0.050 N 
ATOM      8  O   LIG    1       -5.340   3.328  -0.569  0.00  0.00    -0.120 OA
ENDBRANCH   1   7
BRANCH   5   9
ATOM      9  C   LIG    1       -2.822  -0.053   0.237  0.00  0.00    +0.350 C 
BRANCH   9  10
ATOM     10  C   LIG    1       -2.801  -0.696  -1.151  0.00  0.00    -0.020 C 
ATOM     11  C   LIG    1       -1.351  -0.929  -1.634  0.00  0.00    +0.060 C 
ATOM     12  C   LIG    1       -1.398  -2.247  -2.372  0.00  0.00    -0.040 C 
ATOM     13  C   LIG    1       -2.484  -2.909  -2.081  0.00  0.00    -0.030 C 
ATOM     14  C   LIG    1       -3.343  -2.144  -1.101  0.00  0.00    +0.070 C 
ENDBRANCH   9  10
ENDBRANCH   5   9
TORSDOF 3
