REMARK  Name = ZINC000610166970
REMARK                            x       y       z     vdW  Elec       q    Type
REMARK                         _______ _______ _______ _____ _____    ______ ____
ROOT
ATOM      1  N   LIG    1        2.333  -4.192   3.833  0.00  0.00    -0.330 N 
ATOM      2  N   LIG    1        3.717  -4.381   3.943  0.00  0.00    -0.220 NA
ATOM      3  C   LIG    1        3.987  -4.707   5.181  0.00  0.00    +0.260 A 
ATOM      4  C   LIG    1        2.787  -4.737   5.897  0.00  0.00    +0.020 A 
ATOM      5  C   LIG    1        1.786  -4.411   5.047  0.00  0.00    +0.120 A 
ENDROOT
BRANCH   5   6
ATOM      6  N   LIG    1        0.348  -4.320   5.385  0.00  0.00    +0.050 N 
ATOM      7  O   LIG    1       -0.462  -4.015   4.527  0.00  0.00    -0.150 OA
ATOM      8  O   LIG    1       -0.026  -4.550   6.521  0.00  0.00    -0.120 OA
ENDBRANCH   5   6
BRANCH   1   9
ATOM      9  C   LIG    1        1.609  -3.818   2.616  0.00  0.00    +0.350 C 
BRANCH   9  10
ATOM     10  C   LIG    1        1.526  -2.293   2.520  0.00  0.00    +0.030 C 
BRANCH  10  11
ATOM     11  C   LIG    1        0.770  -1.902   1.249  0.00  0.00    +0.180 C 
BRANCH  11  12
ATOM     12  O   LIG    1        0.693  -0.477   1.160  0.00  0.00    -0.390 OA
BRANCH  12  14
ATOM     13  C   LIG    1       -0.019   1.526   0.010  0.00  0.00    +0.040 C 
ATOM     14  C   LIG    1        0.002  -0.004   0.002  0.00  0.00    +0.160 C 
ENDBRANCH  12  14
ENDBRANCH  11  12
ENDBRANCH  10  11
ENDBRANCH   9  10
ENDBRANCH   1   9
TORSDOF 6
