REMARK  Name = ZINC000005760824
REMARK                            x       y       z     vdW  Elec       q    Type
REMARK                         _______ _______ _______ _____ _____    ______ ____
ROOT
ATOM      1  C   LIG    1       -2.930  -2.260  -0.621  0.00  0.00    +0.020 A 
ATOM      2  C   LIG    1       -3.289  -3.449  -1.193  0.00  0.00    +0.080 A 
ATOM      3  C   LIG    1       -4.669  -3.595  -0.986  0.00  0.00    +0.100 A 
ATOM      4  C   LIG    1       -5.087  -2.504  -0.306  0.00  0.00    +0.050 A 
ATOM      5  O   LIG    1       -4.036  -1.705  -0.083  0.00  0.00    -0.120 OA
ENDROOT
BRANCH   4   6
ATOM      6  N   LIG    1       -6.478  -2.239   0.128  0.00  0.00    +0.060 N 
ATOM      7  O   LIG    1       -6.742  -1.218   0.738  0.00  0.00    -0.110 OA
ATOM      8  O   LIG    1       -7.358  -3.042  -0.125  0.00  0.00    -0.110 OA
ENDBRANCH   4   6
BRANCH   1   9
ATOM      9  C   LIG    1       -1.580  -1.692  -0.593  0.00  0.00    +0.550 C 
ATOM     10  O   LIG    1       -0.658  -2.289  -1.115  0.00  0.00    -0.460 OA
BRANCH   9  11
ATOM     11  O   LIG    1       -1.360  -0.507   0.012  0.00  0.00    -0.340 OA
BRANCH  11  13
ATOM     12  C   LIG    1       -0.019   1.526   0.010  0.00  0.00    +0.080 C 
ATOM     13  C   LIG    1        0.002  -0.004   0.002  0.00  0.00    +0.170 C 
ATOM     14  C   LIG    1        0.742  -0.511   1.242  0.00  0.00    +0.040 C 
ENDBRANCH  11  13
ENDBRANCH   9  11
ENDBRANCH   1   9
TORSDOF 4
