REMARK  Name = ZINC000115018884
REMARK                            x       y       z     vdW  Elec       q    Type
REMARK                         _______ _______ _______ _____ _____    ______ ____
ROOT
ATOM      1  C   LIG    1       -0.913  -2.239  -2.947  0.00  0.00    +0.140 A 
ATOM      2  C   LIG    1       -0.070  -1.596  -3.841  0.00  0.00    +0.000 A 
ATOM      3  C   LIG    1       -0.458  -1.428  -5.156  0.00  0.00    +0.070 A 
ATOM      4  C   LIG    1       -1.685  -1.901  -5.582  0.00  0.00    +0.070 A 
ATOM      5  C   LIG    1       -2.528  -2.542  -4.692  0.00  0.00    -0.010 A 
ATOM      6  C   LIG    1       -2.142  -2.717  -3.377  0.00  0.00    +0.070 A 
ENDROOT
BRANCH   5   7
ATOM      7  N   LIG    1       -3.841  -3.046  -5.151  0.00  0.00    +0.030 N 
ATOM      8  O   LIG    1       -4.584  -3.611  -4.368  0.00  0.00    -0.150 OA
ATOM      9  O   LIG    1       -4.180  -2.896  -6.311  0.00  0.00    -0.150 OA
ENDBRANCH   5   7
BRANCH   1  10
ATOM     10  O   LIG    1       -0.533  -2.406  -1.653  0.00  0.00    -0.320 OA
BRANCH  10  11
ATOM     11  C   LIG    1        0.746  -1.888  -1.280  0.00  0.00    +0.430 C 
BRANCH  11  12
ATOM     12  O   LIG    1        0.671  -0.465  -1.174  0.00  0.00    -0.390 OA
BRANCH  12  14
ATOM     13  C   LIG    1       -0.019   1.526   0.010  0.00  0.00    +0.050 C 
ATOM     14  C   LIG    1        0.002  -0.004   0.002  0.00  0.00    +0.170 C 
ENDBRANCH  12  14
ENDBRANCH  11  12
ENDBRANCH  10  11
ENDBRANCH   1  10
TORSDOF 5
