REMARK  Name = ZINC000020448735
REMARK                            x       y       z     vdW  Elec       q    Type
REMARK                         _______ _______ _______ _____ _____    ______ ____
ROOT
ATOM      1  C   LIG    1       -3.019  -2.242  -0.474  0.00  0.00    +0.000 A 
ATOM      2  C   LIG    1       -3.429  -3.459  -0.939  0.00  0.00    +0.060 A 
ATOM      3  C   LIG    1       -4.816  -3.524  -0.732  0.00  0.00    +0.100 A 
ATOM      4  C   LIG    1       -5.187  -2.358  -0.157  0.00  0.00    +0.030 A 
ATOM      5  O   LIG    1       -4.101  -1.591   0.001  0.00  0.00    -0.140 OA
ENDROOT
BRANCH   1   8
ATOM      6  N   LIG    1       -1.372  -0.511   0.012  0.00  0.00    -0.710 N 
ATOM      7  H   LIG    1       -2.087   0.033   0.377  0.00  0.00    +0.410 HD
ATOM      8  C   LIG    1       -1.643  -1.734  -0.485  0.00  0.00    +0.600 C 
ATOM      9  O   LIG    1       -0.746  -2.417  -0.943  0.00  0.00    -0.500 OA
BRANCH   6  11
ATOM     10  C   LIG    1       -0.019   1.526   0.010  0.00  0.00    +0.040 C 
ATOM     11  C   LIG    1        0.002  -0.004   0.002  0.00  0.00    +0.230 C 
ATOM     12  C   LIG    1        0.742  -0.511   1.242  0.00  0.00    +0.020 C 
ENDBRANCH   6  11
ENDBRANCH   1   8
BRANCH   4  13
ATOM     13  N   LIG    1       -6.566  -1.993   0.239  0.00  0.00    +0.060 N 
ATOM     14  O   LIG    1       -6.785  -0.910   0.752  0.00  0.00    -0.120 OA
ATOM     15  O   LIG    1       -7.480  -2.775   0.052  0.00  0.00    -0.110 OA
ENDBRANCH   4  13
TORSDOF 3
