REMARK  Name = ZINC000899861221
REMARK                            x       y       z     vdW  Elec       q    Type
REMARK                         _______ _______ _______ _____ _____    ______ ____
ROOT
ATOM      1  C   LIG    1        0.020   0.045   2.505  0.00  0.00    +0.240 C 
ENDROOT
BRANCH   1   8
ATOM      2  C   LIG    1       -0.018   1.503   0.010  0.00  0.00    +0.080 C 
ATOM      3  C   LIG    1        0.002  -0.004   0.002  0.00  0.00    -0.080 A 
ATOM      4  C   LIG    1        0.006  -0.689  -1.199  0.00  0.00    +0.000 A 
ATOM      5  C   LIG    1        0.025  -2.071  -1.206  0.00  0.00    +0.010 A 
ATOM      6  C   LIG    1        0.040  -2.768  -0.013  0.00  0.00    -0.010 A 
ATOM      7  C   LIG    1        0.037  -2.084   1.188  0.00  0.00    +0.030 A 
ATOM      8  C   LIG    1        0.023  -0.702   1.196  0.00  0.00    -0.090 A 
ENDBRANCH   1   8
BRANCH   1   9
ATOM      9  N   LIG    1       -1.347   0.482   2.816  0.00  0.00    -0.680 NA
ATOM     10  H   LIG    1       -1.729   1.038   2.066  0.00  0.00    +0.350 HD
BRANCH   9  11
ATOM     11  C   LIG    1       -1.389   1.215   4.088  0.00  0.00    +0.210 C 
BRANCH  11  12
ATOM     12  C   LIG    1       -2.826   1.653   4.378  0.00  0.00    +0.270 C 
BRANCH  12  13
ATOM     13  N   LIG    1       -2.868   2.383   5.647  0.00  0.00    -0.020 N 
ATOM     14  O   LIG    1       -3.742   2.143   6.460  0.00  0.00    -0.150 OA
ATOM     15  O   LIG    1       -2.028   3.232   5.889  0.00  0.00    -0.160 OA
ENDBRANCH  12  13
ENDBRANCH  11  12
ENDBRANCH   9  11
ENDBRANCH   1   9
TORSDOF 5
