REMARK  Name = ZINC000388225166
REMARK                            x       y       z     vdW  Elec       q    Type
REMARK                         _______ _______ _______ _____ _____    ______ ____
ROOT
ATOM      1  C   LIG    1        2.457   1.002  -0.016  0.00  0.00    +0.040 C 
ENDROOT
BRANCH   1   2
ATOM      2  C   LIG    1        1.280   1.980   0.001  0.00  0.00    +0.070 C 
BRANCH   2   4
ATOM      3  O   LIG    1        0.002  -0.004   0.002  0.00  0.00    -0.520 OA
ATOM      4  C   LIG    1       -0.014   1.209   0.009  0.00  0.00    +0.520 C 
ATOM      5  N   LIG    1       -1.191   1.867   0.018  0.00  0.00    -0.600 N 
ATOM      6  H   LIG    1       -1.204   2.837   0.023  0.00  0.00    +0.410 HD
BRANCH   5   7
ATOM      7  O   LIG    1       -2.407   1.142   0.020  0.00  0.00    -0.320 OA
ATOM      8  H   LIG    1       -3.197   1.700   0.026  0.00  0.00    +0.390 HD
ENDBRANCH   5   7
ENDBRANCH   2   4
ENDBRANCH   1   2
BRANCH   1   9
ATOM      9  C   LIG    1        3.771   1.784  -0.024  0.00  0.00    +0.030 C 
BRANCH   9  10
ATOM     10  C   LIG    1        4.947   0.806  -0.041  0.00  0.00    -0.020 C 
ATOM     11  C   LIG    1        4.945   0.024  -1.358  0.00  0.00    +0.000 C 
ATOM     12  C   LIG    1        6.169  -0.894  -1.399  0.00  0.00    +0.200 C 
ATOM     13  O   LIG    1        7.356  -0.112  -1.254  0.00  0.00    -0.380 OA
ATOM     14  C   LIG    1        7.435   0.604  -0.020  0.00  0.00    +0.200 C 
ATOM     15  C   LIG    1        6.262   1.583   0.077  0.00  0.00    -0.010 C 
ENDBRANCH   9  10
ENDBRANCH   1   9
TORSDOF 5
