REMARK  Name = ZINC000336269773
REMARK                            x       y       z     vdW  Elec       q    Type
REMARK                         _______ _______ _______ _____ _____    ______ ____
ROOT
ATOM      1  N   LIG    1       -1.905  -1.894   0.010  0.00  0.00    -0.340 N 
ATOM      2  C   LIG    1       -1.989  -2.679  -1.085  0.00  0.00    +0.380 A 
ATOM      3  C   LIG    1       -2.114  -3.959  -0.666  0.00  0.00    -0.190 A 
ATOM      4  C   LIG    1       -2.107  -3.957   0.733  0.00  0.00    +0.150 A 
ATOM      5  C   LIG    1       -2.223  -5.170   1.619  0.00  0.00    +0.190 C 
ATOM      6  N   LIG    1       -1.976  -2.720   1.139  0.00  0.00    -0.260 NA
ENDROOT
BRANCH   3   7
ATOM      7  N   LIG    1       -2.237  -5.152  -1.534  0.00  0.00    +0.070 N 
ATOM      8  O   LIG    1       -2.344  -6.258  -1.037  0.00  0.00    -0.160 OA
ATOM      9  O   LIG    1       -2.230  -5.026  -2.745  0.00  0.00    -0.170 OA
ENDBRANCH   3   7
BRANCH   1  10
ATOM     10  C   LIG    1       -1.760  -0.436   0.017  0.00  0.00    +0.410 C 
BRANCH  10  12
ATOM     11  C   LIG    1       -0.022   1.810   0.012  0.00  0.00    +0.170 C 
ATOM     12  S   LIG    1        0.002  -0.004   0.002  0.00  0.00    -0.250 S 
ENDBRANCH  10  12
ENDBRANCH   1  10
TORSDOF 3
