REMARK  Name = ZINC000891405459
REMARK                            x       y       z     vdW  Elec       q    Type
REMARK                         _______ _______ _______ _____ _____    ______ ____
ROOT
ATOM      1  C   LIG    1       -2.907  -3.986   0.048  0.00  0.00    +0.340 A 
ATOM      2  C   LIG    1       -3.802  -4.711  -0.678  0.00  0.00    -0.170 A 
ATOM      3  C   LIG    1       -3.331  -6.025  -0.749  0.00  0.00    +0.330 A 
ATOM      4  N   LIG    1       -2.199  -6.092  -0.096  0.00  0.00    -0.260 NA
ATOM      5  N   LIG    1       -1.906  -4.820   0.412  0.00  0.00    -0.380 N 
ATOM      6  C   LIG    1       -0.729  -4.458   1.205  0.00  0.00    +0.380 C 
ENDROOT
BRANCH   2   7
ATOM      7  N   LIG    1       -5.052  -4.199  -1.284  0.00  0.00    +0.070 N 
ATOM      8  O   LIG    1       -5.357  -3.027  -1.152  0.00  0.00    -0.140 OA
ATOM      9  O   LIG    1       -5.776  -4.949  -1.914  0.00  0.00    -0.180 OA
ENDBRANCH   2   7
BRANCH   1  10
ATOM     10  N   LIG    1       -3.001  -2.631   0.354  0.00  0.00    -0.600 N 
ATOM     11  H   LIG    1       -2.914  -2.478   1.347  0.00  0.00    +0.370 HD
BRANCH  10  12
ATOM     12  C   LIG    1       -2.000  -1.853  -0.388  0.00  0.00    +0.190 C 
BRANCH  12  13
ATOM     13  C   LIG    1       -2.139  -0.371  -0.031  0.00  0.00    +0.030 C 
BRANCH  13  15
ATOM     14  C   LIG    1       -1.235   1.921  -0.447  0.00  0.00    +0.020 C 
ATOM     15  C   LIG    1       -1.096   0.439  -0.803  0.00  0.00    +0.010 C 
ENDBRANCH  13  15
ENDBRANCH  12  13
ENDBRANCH  10  12
ENDBRANCH   1  10
TORSDOF 5
