REMARK  Name = ZINC000609342489
REMARK                            x       y       z     vdW  Elec       q    Type
REMARK                         _______ _______ _______ _____ _____    ______ ____
ROOT
ATOM      1  N   LIG    1       -3.149  -2.165  -0.418  0.00  0.00    -0.330 N 
ATOM      2  N   LIG    1       -3.781  -2.767   0.678  0.00  0.00    -0.220 NA
ATOM      3  C   LIG    1       -5.062  -2.839   0.422  0.00  0.00    +0.270 A 
ATOM      4  C   LIG    1       -5.286  -2.286  -0.843  0.00  0.00    +0.020 A 
ATOM      5  C   LIG    1       -4.095  -1.874  -1.335  0.00  0.00    +0.120 A 
ENDROOT
BRANCH   5   6
ATOM      6  N   LIG    1       -3.869  -1.229  -2.648  0.00  0.00    +0.050 N 
ATOM      7  O   LIG    1       -2.744  -0.901  -2.980  0.00  0.00    -0.160 OA
ATOM      8  O   LIG    1       -4.808  -1.025  -3.397  0.00  0.00    -0.110 OA
ENDBRANCH   5   6
BRANCH   1   9
ATOM      9  C   LIG    1       -1.715  -1.893  -0.543  0.00  0.00    +0.350 C 
BRANCH   9  10
ATOM     10  C   LIG    1       -1.412  -0.526   0.013  0.00  0.00    +0.350 C 
ATOM     11  O   LIG    1       -2.302   0.152   0.467  0.00  0.00    -0.430 OA
BRANCH  10  13
ATOM     12  C   LIG    1       -0.019   1.526   0.010  0.00  0.00    +0.050 C 
ATOM     13  C   LIG    1        0.002  -0.004   0.002  0.00  0.00    -0.020 C 
ATOM     14  C   LIG    1        0.742  -0.511   1.242  0.00  0.00    +0.060 C 
ENDBRANCH  10  13
ENDBRANCH   9  10
ENDBRANCH   1   9
TORSDOF 4
