REMARK  Name = ZINC000774664537
REMARK                            x       y       z     vdW  Elec       q    Type
REMARK                         _______ _______ _______ _____ _____    ______ ____
ROOT
ATOM      1  C   LIG    1       -0.189  -1.016  -2.186  0.00  0.00    +0.440 A 
ATOM      2  C   LIG    1       -1.563  -0.825  -2.283  0.00  0.00    -0.070 A 
ATOM      3  C   LIG    1       -2.173  -0.941  -3.519  0.00  0.00    +0.060 A 
ATOM      4  C   LIG    1       -1.385  -1.246  -4.621  0.00  0.00    -0.160 A 
ATOM      5  C   LIG    1       -0.026  -1.424  -4.452  0.00  0.00    +0.410 A 
ATOM      6  C   LIG    1       -3.659  -0.741  -3.668  0.00  0.00    +0.130 C 
ATOM      7  N   LIG    1        0.529  -1.302  -3.261  0.00  0.00    -0.530 NA
ENDROOT
BRANCH   4   8
ATOM      8  N   LIG    1       -1.995  -1.380  -5.963  0.00  0.00    +0.040 N 
ATOM      9  O   LIG    1       -2.913  -0.650  -6.290  0.00  0.00    -0.160 OA
ATOM     10  O   LIG    1       -1.578  -2.220  -6.740  0.00  0.00    -0.160 OA
ENDBRANCH   4   8
BRANCH   1  11
ATOM     11  N   LIG    1        0.436  -0.902  -0.950  0.00  0.00    -0.470 N 
ATOM     12  C   LIG    1        1.884  -1.097  -0.841  0.00  0.00    +0.350 C 
BRANCH  11  14
ATOM     13  C   LIG    1       -0.451   0.802   0.465  0.00  0.00    +0.230 C 
ATOM     14  O   LIG    1       -0.326  -0.597   0.204  0.00  0.00    -0.130 OA
ENDBRANCH  11  14
ENDBRANCH   1  11
TORSDOF 3
