REMARK  Name = ZINC000035454971
REMARK                            x       y       z     vdW  Elec       q    Type
REMARK                         _______ _______ _______ _____ _____    ______ ____
ROOT
ATOM      1  C   LIG    1        1.395  -4.010  -2.389  0.00  0.00    +0.040 A 
ATOM      2  C   LIG    1        1.978  -4.753  -3.395  0.00  0.00    +0.080 A 
ATOM      3  C   LIG    1        1.801  -6.099  -3.062  0.00  0.00    +0.090 A 
ATOM      4  C   LIG    1        1.129  -6.152  -1.887  0.00  0.00    +0.090 A 
ATOM      5  N   LIG    1        0.882  -4.893  -1.466  0.00  0.00    -0.500 N 
ATOM      6  H   LIG    1        0.415  -4.651  -0.651  0.00  0.00    +0.440 HD
ENDROOT
BRANCH   4   7
ATOM      7  N   LIG    1        0.735  -7.389  -1.176  0.00  0.00    +0.050 N 
ATOM      8  O   LIG    1        1.014  -8.477  -1.647  0.00  0.00    -0.120 OA
ATOM      9  O   LIG    1        0.131  -7.319  -0.121  0.00  0.00    -0.160 OA
ENDBRANCH   4   7
BRANCH   1  10
ATOM     10  C   LIG    1        1.337  -2.548  -2.315  0.00  0.00    +0.540 C 
ATOM     11  O   LIG    1        1.830  -1.874  -3.199  0.00  0.00    -0.470 OA
BRANCH  10  12
ATOM     12  O   LIG    1        0.738  -1.949  -1.265  0.00  0.00    -0.360 OA
BRANCH  12  13
ATOM     13  C   LIG    1        0.718  -0.497  -1.257  0.00  0.00    +0.230 C 
BRANCH  13  15
ATOM     14  C   LIG    1       -0.019   1.526   0.010  0.00  0.00    +0.040 C 
ATOM     15  C   LIG    1        0.002  -0.004   0.002  0.00  0.00    +0.030 C 
ENDBRANCH  13  15
ENDBRANCH  12  13
ENDBRANCH  10  12
ENDBRANCH   1  10
TORSDOF 5
