REMARK  Name = ZINC000098180459
REMARK                            x       y       z     vdW  Elec       q    Type
REMARK                         _______ _______ _______ _____ _____    ______ ____
ROOT
ATOM      1  O   LIG    1        0.003  -0.004   0.053  0.00  0.00    -0.520 OA
ATOM      2  C   LIG    1       -0.014   1.219   0.048  0.00  0.00    +0.470 A 
ATOM      3  C   LIG    1       -1.240   1.896   0.057  0.00  0.00    +0.040 A 
ATOM      4  C   LIG    1       -1.193   3.291   0.050  0.00  0.00    -0.010 A 
ATOM      5  C   LIG    1        0.131   3.936   0.034  0.00  0.00    +0.070 A 
ATOM      6  C   LIG    1        0.192   5.348   0.027  0.00  0.00    +0.180 A 
ATOM      7  C   LIG    1       -0.962   6.063   0.035  0.00  0.00    +0.020 A 
ATOM      8  C   LIG    1       -2.215   5.447   0.050  0.00  0.00    +0.210 A 
ATOM      9  N   LIG    1        1.214   3.182   0.027  0.00  0.00    -0.160 NA
ATOM     10  C   LIG    1       -2.346   4.094   0.058  0.00  0.00    -0.060 A 
ATOM     11  N   LIG    1        1.143   1.900   0.039  0.00  0.00    -0.410 N 
ATOM     12  H   LIG    1        1.971   1.395   0.033  0.00  0.00    +0.450 HD
ENDROOT
BRANCH  10  13
ATOM     13  N   LIG    1       -3.690   3.473   0.073  0.00  0.00    +0.040 N 
ATOM     14  O   LIG    1       -3.803   2.264  -0.023  0.00  0.00    -0.160 OA
ATOM     15  O   LIG    1       -4.682   4.170   0.182  0.00  0.00    -0.150 OA
ENDBRANCH  10  13
TORSDOF 1
