REMARK  Name = ZINC000336276515
REMARK                            x       y       z     vdW  Elec       q    Type
REMARK                         _______ _______ _______ _____ _____    ______ ____
ROOT
ATOM      1  N   LIG    1       -1.966   0.006  -1.450  0.00  0.00    -0.440 N 
ATOM      2  C   LIG    1       -2.742   1.111  -1.474  0.00  0.00    +0.460 A 
ATOM      3  N   LIG    1       -3.078   1.359  -2.711  0.00  0.00    -0.450 NA
ATOM      4  C   LIG    1       -2.534   0.431  -3.512  0.00  0.00    +0.040 A 
ATOM      5  C   LIG    1       -1.829  -0.421  -2.743  0.00  0.00    +0.270 A 
ENDROOT
BRANCH   4   6
ATOM      6  N   LIG    1       -2.677   0.360  -4.983  0.00  0.00    +0.060 N 
ATOM      7  O   LIG    1       -2.132  -0.534  -5.606  0.00  0.00    -0.160 OA
ATOM      8  O   LIG    1       -3.339   1.196  -5.572  0.00  0.00    -0.130 OA
ENDBRANCH   4   6
BRANCH   1   9
ATOM      9  C   LIG    1       -1.375  -0.616  -0.262  0.00  0.00    +0.330 C 
BRANCH   9  11
ATOM     10  C   LIG    1       -0.019   1.526   0.010  0.00  0.00    +0.060 C 
ATOM     11  C   LIG    1        0.002  -0.004   0.002  0.00  0.00    -0.110 C 
ATOM     12  C   LIG    1        1.120  -0.600  -0.870  0.00  0.00    +0.010 C 
ATOM     13  C   LIG    1        2.017  -0.542   0.378  0.00  0.00    +0.010 C 
ATOM     14  C   LIG    1        0.727  -0.617   1.212  0.00  0.00    +0.050 C 
ENDBRANCH   9  11
ENDBRANCH   1   9
TORSDOF 3
