REMARK  Name = ZINC000931502029
REMARK                            x       y       z     vdW  Elec       q    Type
REMARK                         _______ _______ _______ _____ _____    ______ ____
ROOT
ATOM      1  C   LIG    1       -0.019   1.526   0.010  0.00  0.00    +0.050 C 
ATOM      2  C   LIG    1        0.002  -0.004   0.002  0.00  0.00    +0.110 C 
ATOM      3  C   LIG    1        0.726  -0.499  -1.253  0.00  0.00    +0.040 C 
ATOM      4  C   LIG    1        0.797  -2.028  -1.226  0.00  0.00    +0.190 C 
ATOM      5  N   LIG    1        1.514  -2.464  -0.021  0.00  0.00    -0.530 NA
ATOM      6  C   LIG    1        0.813  -2.041   1.197  0.00  0.00    +0.170 C 
ATOM      7  F   LIG    1       -1.310  -0.489   0.009  0.00  0.00    -0.210 F 
ATOM      8  C   LIG    1        0.742  -0.513   1.242  0.00  0.00    +0.040 C 
ENDROOT
BRANCH   5   9
ATOM      9  C   LIG    1        1.723  -3.918  -0.031  0.00  0.00    +0.220 C 
BRANCH   9  10
ATOM     10  C   LIG    1        2.244  -4.367   1.336  0.00  0.00    +0.260 C 
BRANCH  10  11
ATOM     11  N   LIG    1        2.452  -5.817   1.327  0.00  0.00    -0.020 N 
ATOM     12  O   LIG    1        1.605  -6.551   0.848  0.00  0.00    -0.160 OA
ATOM     13  O   LIG    1        3.471  -6.290   1.798  0.00  0.00    -0.150 OA
ENDBRANCH  10  11
ENDBRANCH   9  10
ENDBRANCH   5   9
TORSDOF 3
