REMARK  Name = ZINC000899894411
REMARK                            x       y       z     vdW  Elec       q    Type
REMARK                         _______ _______ _______ _____ _____    ______ ____
ROOT
ATOM      1  C   LIG    1        0.707  -0.490  -1.238  0.00  0.00    +0.030 A 
ATOM      2  C   LIG    1        2.037  -0.474  -1.450  0.00  0.00    +0.120 A 
ATOM      3  N   LIG    1        2.247  -1.004  -2.694  0.00  0.00    -0.460 N 
ATOM      4  C   LIG    1        1.037  -1.325  -3.200  0.00  0.00    +0.400 A 
ATOM      5  N   LIG    1        0.121  -1.020  -2.322  0.00  0.00    -0.480 NA
ENDROOT
BRANCH   1   7
ATOM      6  C   LIG    1       -0.019   1.526   0.010  0.00  0.00    +0.030 C 
ATOM      7  C   LIG    1        0.002  -0.004   0.002  0.00  0.00    +0.010 C 
ATOM      8  C   LIG    1       -1.433  -0.534   0.013  0.00  0.00    +0.030 C 
ATOM      9  C   LIG    1        0.742  -0.511   1.242  0.00  0.00    +0.030 C 
ENDBRANCH   1   7
BRANCH   3  10
ATOM     10  C   LIG    1        3.542  -1.187  -3.354  0.00  0.00    +0.330 C 
BRANCH  10  11
ATOM     11  C   LIG    1        4.101  -2.568  -3.005  0.00  0.00    +0.250 C 
BRANCH  11  12
ATOM     12  N   LIG    1        5.396  -2.751  -3.665  0.00  0.00    -0.020 N 
ATOM     13  O   LIG    1        5.646  -3.798  -4.235  0.00  0.00    -0.150 OA
ATOM     14  O   LIG    1        6.222  -1.857  -3.644  0.00  0.00    -0.150 OA
ENDBRANCH  11  12
ENDBRANCH  10  11
ENDBRANCH   3  10
TORSDOF 4
