REMARK  Name = ZINC000860911406
REMARK                            x       y       z     vdW  Elec       q    Type
REMARK                         _______ _______ _______ _____ _____    ______ ____
ROOT
ATOM      1  O   LIG    1        0.002  -0.004   0.002  0.00  0.00    -0.480 OA
ATOM      2  C   LIG    1       -0.014   1.212   0.009  0.00  0.00    +0.560 C 
ENDROOT
BRANCH   2   3
ATOM      3  C   LIG    1       -1.293   1.927   0.019  0.00  0.00    -0.080 A 
ATOM      4  C   LIG    1       -2.533   1.354   0.027  0.00  0.00    +0.070 A 
ATOM      5  C   LIG    1       -3.463   2.405   0.035  0.00  0.00    -0.070 A 
ATOM      6  C   LIG    1       -2.759   3.559   0.031  0.00  0.00    +0.240 A 
ATOM      7  O   LIG    1       -1.452   3.267   0.027  0.00  0.00    -0.150 OA
ENDBRANCH   2   3
BRANCH   2   8
ATOM      8  O   LIG    1        1.145   1.902   0.001  0.00  0.00    -0.340 OA
BRANCH   8   9
ATOM      9  C   LIG    1        2.373   1.128  -0.015  0.00  0.00    +0.230 C 
BRANCH   9  10
ATOM     10  C   LIG    1        3.573   2.077  -0.021  0.00  0.00    +0.080 C 
BRANCH  10  11
ATOM     11  C   LIG    1        4.868   1.261  -0.038  0.00  0.00    +0.270 C 
BRANCH  11  12
ATOM     12  N   LIG    1        6.017   2.169  -0.044  0.00  0.00    -0.020 N 
ATOM     13  O   LIG    1        6.950   1.965  -0.800  0.00  0.00    -0.160 OA
ATOM     14  O   LIG    1        6.040   3.128   0.707  0.00  0.00    -0.150 OA
ENDBRANCH  11  12
ENDBRANCH  10  11
ENDBRANCH   9  10
ENDBRANCH   8   9
ENDBRANCH   2   8
TORSDOF 6
