REMARK  Name = ZINC000096548089
REMARK                            x       y       z     vdW  Elec       q    Type
REMARK                         _______ _______ _______ _____ _____    ______ ____
ROOT
ATOM      1  N   LIG    1        0.671  -1.981   1.264  0.00  0.00    -0.480 N 
ATOM      2  C   LIG    1       -0.388  -2.751   1.624  0.00  0.00    +0.430 A 
ATOM      3  C   LIG    1       -0.303  -4.101   1.592  0.00  0.00    -0.150 A 
ATOM      4  C   LIG    1        0.888  -4.719   1.184  0.00  0.00    +0.040 A 
ATOM      5  C   LIG    1        1.950  -3.944   0.823  0.00  0.00    -0.060 A 
ATOM      6  C   LIG    1        0.992  -6.221   1.144  0.00  0.00    +0.130 C 
ATOM      7  C   LIG    1        1.826  -2.544   0.863  0.00  0.00    +0.520 A 
ATOM      8  O   LIG    1        2.770  -1.839   0.542  0.00  0.00    -0.510 OA
ENDROOT
BRANCH   3   9
ATOM      9  N   LIG    1       -1.467  -4.926   1.987  0.00  0.00    +0.050 N 
ATOM     10  O   LIG    1       -1.430  -6.136   1.852  0.00  0.00    -0.150 OA
ATOM     11  O   LIG    1       -2.462  -4.395   2.446  0.00  0.00    -0.170 OA
ENDBRANCH   3   9
BRANCH   1  12
ATOM     12  C   LIG    1        0.553  -0.522   1.308  0.00  0.00    +0.290 C 
BRANCH  12  14
ATOM     13  C   LIG    1       -0.083   1.514   0.006  0.00  0.00    +0.040 C 
ATOM     14  C   LIG    1        0.040  -0.011  -0.039  0.00  0.00    +0.000 C 
ENDBRANCH  12  14
ENDBRANCH   1  12
TORSDOF 3
