REMARK  Name = ZINC000082046589
REMARK                            x       y       z     vdW  Elec       q    Type
REMARK                         _______ _______ _______ _____ _____    ______ ____
ROOT
ATOM      1  C   LIG    1       -1.306   1.936   0.019  0.00  0.00    -0.020 A 
ATOM      2  C   LIG    1       -1.311   3.330   0.021  0.00  0.00    +0.090 A 
ATOM      3  C   LIG    1       -2.483   4.026   0.030  0.00  0.00    +0.080 A 
ATOM      4  C   LIG    1       -3.699   3.329   0.037  0.00  0.00    -0.050 A 
ATOM      5  C   LIG    1       -4.942   3.990   0.046  0.00  0.00    +0.080 A 
ATOM      6  C   LIG    1       -6.068   3.216   0.053  0.00  0.00    +0.210 A 
ATOM      7  N   LIG    1       -5.982   1.893   0.051  0.00  0.00    -0.210 NA
ATOM      8  N   LIG    1       -4.864   1.259   0.043  0.00  0.00    -0.180 NA
ATOM      9  C   LIG    1       -3.697   1.909   0.036  0.00  0.00    +0.050 A 
ATOM     10  C   LIG    1       -2.469   1.228   0.020  0.00  0.00    +0.190 A 
ENDROOT
BRANCH   1  12
ATOM     11  O   LIG    1        0.002  -0.004   0.002  0.00  0.00    -0.150 OA
ATOM     12  N   LIG    1       -0.014   1.214   0.009  0.00  0.00    +0.020 N 
ATOM     13  O   LIG    1        1.032   1.837   0.002  0.00  0.00    -0.140 OA
ENDBRANCH   1  12
TORSDOF 1
