REMARK  Name = ZINC000224922902
REMARK                            x       y       z     vdW  Elec       q    Type
REMARK                         _______ _______ _______ _____ _____    ______ ____
ROOT
ATOM      1  C   LIG    1       -1.306   1.936   0.019  0.00  0.00    +0.220 A 
ATOM      2  C   LIG    1       -1.308   3.322   0.021  0.00  0.00    +0.080 A 
ATOM      3  C   LIG    1       -2.513   4.002   0.029  0.00  0.00    +0.060 A 
ATOM      4  C   LIG    1       -3.694   3.252   0.036  0.00  0.00    +0.050 A 
ATOM      5  N   LIG    1       -5.013   3.573   0.046  0.00  0.00    -0.480 NA
ATOM      6  C   LIG    1       -5.725   2.484   0.050  0.00  0.00    +0.560 A 
ATOM      7  N   LIG    1       -4.911   1.393   0.043  0.00  0.00    -0.580 N 
ATOM      8  H   LIG    1       -5.194   0.466   0.044  0.00  0.00    +0.440 HD
ATOM      9  C   LIG    1       -3.610   1.848   0.034  0.00  0.00    +0.270 A 
ATOM     10 CL   LIG    1       -2.558   5.737   0.031  0.00  0.00    +0.010 Cl
ATOM     11  N   LIG    1       -2.430   1.249   0.020  0.00  0.00    -0.420 NA
ENDROOT
BRANCH   1  13
ATOM     12  O   LIG    1        0.002  -0.004   0.002  0.00  0.00    -0.110 OA
ATOM     13  N   LIG    1       -0.014   1.214   0.009  0.00  0.00    +0.030 N 
ATOM     14  O   LIG    1        1.032   1.837   0.002  0.00  0.00    -0.130 OA
ENDBRANCH   1  13
TORSDOF 1
