REMARK  Name = ZINC000034266500
REMARK                            x       y       z     vdW  Elec       q    Type
REMARK                         _______ _______ _______ _____ _____    ______ ____
ROOT
ATOM      1  C   LIG    1        0.109  -2.066  -1.232  0.00  0.00    +0.110 A 
ATOM      2  C   LIG    1        0.119  -2.817  -0.064  0.00  0.00    +0.120 A 
ATOM      3  C   LIG    1        0.227  -4.193  -0.130  0.00  0.00    +0.060 A 
ATOM      4  C   LIG    1        0.325  -4.824  -1.356  0.00  0.00    +0.130 A 
ATOM      5  C   LIG    1        0.315  -4.080  -2.522  0.00  0.00    -0.070 A 
ATOM      6  C   LIG    1        0.202  -2.703  -2.465  0.00  0.00    +0.140 A 
ATOM      7  F   LIG    1        0.192  -1.977  -3.604  0.00  0.00    -0.100 F 
ENDROOT
BRANCH   1  10
ATOM      8  C   LIG    1        0.542   1.511  -0.138  0.00  0.00    +0.120 C 
ATOM      9  C   LIG    1        0.573   0.004  -0.153  0.00  0.00    +0.520 C 
ATOM     10  N   LIG    1        0.000  -0.672  -1.169  0.00  0.00    -0.670 N 
ATOM     11  H   LIG    1       -0.488  -0.192  -1.856  0.00  0.00    +0.420 HD
ATOM     12  O   LIG    1        1.114  -0.601   0.749  0.00  0.00    -0.520 OA
ENDBRANCH   1  10
BRANCH   5  13
ATOM     13  N   LIG    1        0.420  -4.760  -3.833  0.00  0.00    +0.030 N 
ATOM     14  O   LIG    1        0.412  -4.106  -4.860  0.00  0.00    -0.140 OA
ATOM     15  O   LIG    1        0.514  -5.973  -3.884  0.00  0.00    -0.150 OA
ENDBRANCH   5  13
TORSDOF 2
