REMARK  Name = ZINC000039088316
REMARK                            x       y       z     vdW  Elec       q    Type
REMARK                         _______ _______ _______ _____ _____    ______ ____
ROOT
ATOM      1  C   LIG    1       -1.306   1.937   0.019  0.00  0.00    -0.240 A 
ATOM      2  C   LIG    1       -1.445   3.264   0.021  0.00  0.00    +0.200 A 
ATOM      3  C   LIG    1       -2.756   3.713   0.030  0.00  0.00    +0.000 A 
ATOM      4  C   LIG    1       -3.679   2.750   0.035  0.00  0.00    +0.060 A 
ATOM      5  F   LIG    1       -0.389   4.106   0.015  0.00  0.00    -0.090 F 
ATOM      6  S   LIG    1       -2.893   1.177   0.021  0.00  0.00    +0.300 S 
ENDROOT
BRANCH   1   8
ATOM      7  O   LIG    1        0.002  -0.004   0.002  0.00  0.00    -0.150 OA
ATOM      8  N   LIG    1       -0.014   1.214   0.009  0.00  0.00    +0.060 N 
ATOM      9  O   LIG    1        1.032   1.837   0.002  0.00  0.00    -0.130 OA
ENDBRANCH   1   8
TORSDOF 1
