REMARK  Name = ZINC000141692371
REMARK                            x       y       z     vdW  Elec       q    Type
REMARK                         _______ _______ _______ _____ _____    ______ ____
ROOT
ATOM      1  C   LIG    1        0.718  -0.497  -1.257  0.00  0.00    +0.290 C 
ENDROOT
BRANCH   1   2
ATOM      2  C   LIG    1        2.165  -0.079  -1.208  0.00  0.00    -0.160 A 
ATOM      3  C   LIG    1        2.569   1.087  -1.829  0.00  0.00    +0.060 A 
ATOM      4  C   LIG    1        3.897   1.471  -1.784  0.00  0.00    +0.020 A 
ATOM      5  C   LIG    1        4.821   0.688  -1.119  0.00  0.00    +0.060 A 
ATOM      6  C   LIG    1        4.420  -0.479  -0.498  0.00  0.00    -0.010 A 
ATOM      7  C   LIG    1        3.090  -0.861  -0.536  0.00  0.00    +0.110 A 
ATOM      8  F   LIG    1        2.696  -2.002   0.070  0.00  0.00    -0.130 F 
ENDBRANCH   1   2
BRANCH   1  10
ATOM      9  C   LIG    1       -0.019   1.526   0.010  0.00  0.00    +0.100 C 
ATOM     10  C   LIG    1        0.002  -0.004   0.002  0.00  0.00    +0.120 C 
BRANCH  10  11
ATOM     11  N   LIG    1       -1.372  -0.511   0.012  0.00  0.00    -0.020 N 
ATOM     12  O   LIG    1       -1.752  -1.222   0.926  0.00  0.00    -0.170 OA
ATOM     13  O   LIG    1       -2.135  -0.222  -0.892  0.00  0.00    -0.130 OA
ENDBRANCH  10  11
ENDBRANCH   1  10
BRANCH   1  14
ATOM     14  O   LIG    1        0.097   0.070  -2.412  0.00  0.00    -0.520 OA
ATOM     15  H   LIG    1        0.116   1.037  -2.433  0.00  0.00    +0.380 HD
ENDBRANCH   1  14
TORSDOF 4
