REMARK  Name = ZINC000087807347
REMARK                            x       y       z     vdW  Elec       q    Type
REMARK                         _______ _______ _______ _____ _____    ______ ____
ROOT
ATOM      1  C   LIG    1        0.606  -0.689  -1.055  0.00  0.00    +0.300 A 
ATOM      2  C   LIG    1        1.194   0.019  -2.097  0.00  0.00    -0.100 A 
ATOM      3  C   LIG    1        1.791  -0.657  -3.143  0.00  0.00    +0.150 A 
ATOM      4  C   LIG    1        1.807  -2.038  -3.157  0.00  0.00    -0.100 A 
ATOM      5  C   LIG    1        1.221  -2.752  -2.119  0.00  0.00    +0.300 A 
ATOM      6  C   LIG    1        0.625  -2.076  -1.063  0.00  0.00    -0.190 A 
ENDROOT
BRANCH   1   8
ATOM      7  C   LIG    1       -0.018   1.461   0.010  0.00  0.00    +0.290 C 
ATOM      8  N   LIG    1        0.002  -0.004   0.002  0.00  0.00    -0.740 N 
ATOM      9  H   LIG    1       -0.404  -0.499   0.731  0.00  0.00    +0.400 HD
ENDBRANCH   1   8
BRANCH   5  10
ATOM     10  N   LIG    1        1.238  -4.149  -2.134  0.00  0.00    -0.740 N 
ATOM     11  H   LIG    1        0.829  -4.646  -1.409  0.00  0.00    +0.400 HD
ATOM     12  C   LIG    1        1.872  -4.862  -3.245  0.00  0.00    +0.290 C 
ENDBRANCH   5  10
BRANCH   6  13
ATOM     13  N   LIG    1        0.001  -2.833   0.045  0.00  0.00    +0.030 N 
ATOM     14  O   LIG    1       -1.175  -3.146  -0.018  0.00  0.00    -0.150 OA
ATOM     15  O   LIG    1        0.663  -3.144   1.019  0.00  0.00    -0.150 OA
ENDBRANCH   6  13
TORSDOF 3
