REMARK  Name = ZINC000071526659
REMARK                            x       y       z     vdW  Elec       q    Type
REMARK                         _______ _______ _______ _____ _____    ______ ____
ROOT
ATOM      1  N   LIG    1       -1.403  -1.998  -0.001  0.00  0.00    -0.480 N 
ATOM      2  C   LIG    1       -1.406  -2.663  -1.172  0.00  0.00    +0.520 A 
ATOM      3  C   LIG    1       -1.398  -4.068  -1.184  0.00  0.00    -0.040 A 
ATOM      4  C   LIG    1       -1.387  -4.745  -0.000  0.00  0.00    +0.150 A 
ATOM      5  C   LIG    1       -1.384  -4.024   1.202  0.00  0.00    -0.140 A 
ATOM      6  O   LIG    1       -1.416  -2.044  -2.224  0.00  0.00    -0.520 OA
ATOM      7  C   LIG    1       -1.386  -2.671   1.178  0.00  0.00    +0.240 A 
ATOM      8  C   LIG    1       -1.383  -1.903   2.475  0.00  0.00    +0.160 C 
ENDROOT
BRANCH   5   9
ATOM      9  N   LIG    1       -1.371  -4.742   2.496  0.00  0.00    +0.030 N 
ATOM     10  O   LIG    1       -0.315  -5.111   2.978  0.00  0.00    -0.130 OA
ATOM     11  O   LIG    1       -2.417  -4.965   3.079  0.00  0.00    -0.130 OA
ENDBRANCH   5   9
BRANCH   1  12
ATOM     12  C   LIG    1       -1.412  -0.533   0.001  0.00  0.00    +0.290 C 
BRANCH  12  14
ATOM     13  C   LIG    1        0.018   1.515  -0.012  0.00  0.00    +0.040 C 
ATOM     14  C   LIG    1        0.027  -0.015  -0.014  0.00  0.00    +0.010 C 
ENDBRANCH  12  14
ENDBRANCH   1  12
TORSDOF 3
