REMARK  Name = ZINC000307504032
REMARK                            x       y       z     vdW  Elec       q    Type
REMARK                         _______ _______ _______ _____ _____    ______ ____
ROOT
ATOM      1  C   LIG    1       -0.018   1.503   0.010  0.00  0.00    +0.150 C 
ATOM      2  C   LIG    1        0.002  -0.004   0.002  0.00  0.00    +0.200 A 
ATOM      3  C   LIG    1       -1.165  -0.690   0.004  0.00  0.00    -0.050 A 
ATOM      4  C   LIG    1       -1.153  -2.091  -0.004  0.00  0.00    +0.080 A 
ATOM      5  C   LIG    1        0.042  -2.748  -0.013  0.00  0.00    +0.020 A 
ATOM      6  C   LIG    1        1.235  -2.005  -0.015  0.00  0.00    +0.530 A 
ATOM      7  O   LIG    1        2.312  -2.580  -0.024  0.00  0.00    -0.510 OA
ATOM      8  N   LIG    1        1.191  -0.659  -0.013  0.00  0.00    -0.600 N 
ATOM      9  H   LIG    1        2.018  -0.153  -0.014  0.00  0.00    +0.430 HD
ENDROOT
BRANCH   4  10
ATOM     10  N   LIG    1       -2.424  -2.850  -0.002  0.00  0.00    +0.010 N 
ATOM     11  O   LIG    1       -3.488  -2.257   0.006  0.00  0.00    -0.130 OA
ATOM     12  O   LIG    1       -2.406  -4.068  -0.009  0.00  0.00    -0.140 OA
ENDBRANCH   4  10
TORSDOF 1
