REMARK  Name = ZINC000035205652
REMARK                            x       y       z     vdW  Elec       q    Type
REMARK                         _______ _______ _______ _____ _____    ______ ____
ROOT
ATOM      1  C   UNK A  0        2.107  -0.859   1.121  0.00  0.00    +0.280 A 
ATOM      2  C   UNK A  0        2.812  -0.606  -0.049  0.00  0.00    -0.060 A 
ATOM      3  C   UNK A  0        4.186  -0.466  -0.008  0.00  0.00    +0.120 A 
ATOM      4  C   UNK A  0        4.858  -0.577   1.196  0.00  0.00    -0.040 A 
ATOM      5  C   UNK A  0        4.158  -0.828   2.362  0.00  0.00    +0.140 A 
ATOM      6  C   UNK A  0        2.785  -0.964   2.329  0.00  0.00    -0.120 A 
ENDROOT
BRANCH   6   7
ATOM      7  N   UNK A  0        2.037  -1.233   3.577  0.00  0.00    +0.040 N 
ATOM      8  O   UNK A  0        2.511  -1.967   4.426  0.00  0.00    -0.160 OA
ATOM      9  O   UNK A  0        0.946  -0.721   3.756  0.00  0.00    -0.180 OA
ENDBRANCH   6   7
BRANCH   1  10
ATOM     10  N   ALA A  1        0.718  -1.000   1.083  0.00  0.00    -0.720 N 
ATOM     11  H   ALA A  1        0.234  -1.258   1.884  0.00  0.00    +0.420 HD
BRANCH  10  13
ATOM     12  CB  ALA A  1       -0.305   0.734  -0.305  0.00  0.00    +0.030 C 
ATOM     13  CA  ALA A  1       -0.010  -0.760  -0.166  0.00  0.00    +0.240 C 
BRANCH  13  14
ATOM     14  C   ALA A  1       -1.325  -1.541  -0.148  0.00  0.00    +0.190 C 
BRANCH  14  15
ATOM     15  O   ALA A  1       -2.169  -1.029   0.885  0.00  0.00    -0.570 OA
ATOM     16  H   ALA A  1       -3.023  -1.478   0.954  0.00  0.00    +0.390 HD
ENDBRANCH  14  15
ENDBRANCH  13  14
ENDBRANCH  10  13
ENDBRANCH   1  10
TORSDOF 5
