REMARK  Name = ZINC000306973583
REMARK                            x       y       z     vdW  Elec       q    Type
REMARK                         _______ _______ _______ _____ _____    ______ ____
ROOT
ATOM      1  N   LIG    1       -1.905  -1.894   0.010  0.00  0.00    -0.440 N 
ATOM      2  C   LIG    1       -1.989  -2.686  -1.080  0.00  0.00    +0.470 A 
ATOM      3  N   LIG    1       -2.111  -3.925  -0.689  0.00  0.00    -0.440 NA
ATOM      4  C   LIG    1       -2.109  -3.968   0.651  0.00  0.00    +0.050 A 
ATOM      5  C   LIG    1       -1.975  -2.708   1.108  0.00  0.00    +0.280 A 
ENDROOT
BRANCH   4   6
ATOM      6  N   LIG    1       -2.226  -5.187   1.483  0.00  0.00    +0.060 N 
ATOM      7  O   LIG    1       -2.211  -5.099   2.698  0.00  0.00    -0.160 OA
ATOM      8  O   LIG    1       -2.337  -6.278   0.952  0.00  0.00    -0.130 OA
ENDBRANCH   4   6
BRANCH   1   9
ATOM      9  C   LIG    1       -1.760  -0.436   0.017  0.00  0.00    +0.380 C 
BRANCH   9  11
ATOM     10  C   LIG    1       -0.022   1.810   0.012  0.00  0.00    +0.170 C 
ATOM     11  S   LIG    1        0.002  -0.004   0.002  0.00  0.00    -0.240 S 
ENDBRANCH   9  11
ENDBRANCH   1   9
TORSDOF 3
