REMARK  Name = ZINC000006528043
REMARK                            x       y       z     vdW  Elec       q    Type
REMARK                         _______ _______ _______ _____ _____    ______ ____
ROOT
ATOM      1  C   LIG    1       -1.306   1.936   0.019  0.00  0.00    -0.090 A 
ATOM      2  C   LIG    1       -1.323   3.319   0.021  0.00  0.00    +0.150 A 
ATOM      3  C   LIG    1       -2.528   3.996   0.030  0.00  0.00    +0.010 A 
ATOM      4  C   LIG    1       -3.720   3.287   0.038  0.00  0.00    +0.190 A 
ATOM      5  C   LIG    1       -3.700   1.900   0.036  0.00  0.00    -0.060 A 
ATOM      6  C   LIG    1       -2.493   1.228   0.021  0.00  0.00    +0.150 A 
ENDROOT
BRANCH   1   8
ATOM      7  O   LIG    1        0.002  -0.004   0.002  0.00  0.00    -0.160 OA
ATOM      8  N   LIG    1       -0.014   1.214   0.009  0.00  0.00    +0.030 N 
ATOM      9  O   LIG    1        1.032   1.837   0.002  0.00  0.00    -0.160 OA
ENDBRANCH   1   8
BRANCH   4  10
ATOM     10  O   LIG    1       -4.906   3.950   0.046  0.00  0.00    -0.300 OA
BRANCH  10  11
ATOM     11  C   LIG    1       -6.094   3.156   0.054  0.00  0.00    +0.200 C 
BRANCH  11  12
ATOM     12  C   LIG    1       -7.320   4.071   0.063  0.00  0.00    +0.060 C 
BRANCH  12  13
ATOM     13  C   LIG    1       -8.592   3.220   0.071  0.00  0.00    +0.180 C 
BRANCH  13  14
ATOM     14  O   LIG    1       -9.737   4.075   0.080  0.00  0.00    -0.570 OA
ATOM     15  H   LIG    1      -10.580   3.603   0.085  0.00  0.00    +0.390 HD
ENDBRANCH  13  14
ENDBRANCH  12  13
ENDBRANCH  11  12
ENDBRANCH  10  11
ENDBRANCH   4  10
TORSDOF 6
