REMARK  Name = ZINC000034371409
REMARK                            x       y       z     vdW  Elec       q    Type
REMARK                         _______ _______ _______ _____ _____    ______ ____
ROOT
ATOM      1  C   LIG    1       -1.412  -0.526   0.013  0.00  0.00    -0.160 A 
ATOM      2  C   LIG    1       -2.015  -0.864   1.208  0.00  0.00    +0.150 A 
ATOM      3  C   LIG    1       -3.312  -1.342   1.219  0.00  0.00    -0.100 A 
ATOM      4  C   LIG    1       -4.010  -1.483   0.034  0.00  0.00    +0.140 A 
ATOM      5  C   LIG    1       -3.413  -1.147  -1.166  0.00  0.00    -0.050 A 
ATOM      6  C   LIG    1       -2.112  -0.662  -1.180  0.00  0.00    +0.270 A 
ENDROOT
BRANCH   3   7
ATOM      7  N   LIG    1       -3.955  -1.703   2.502  0.00  0.00    +0.040 N 
ATOM      8  O   LIG    1       -5.098  -2.125   2.513  0.00  0.00    -0.170 OA
ATOM      9  O   LIG    1       -3.342  -1.579   3.547  0.00  0.00    -0.170 OA
ENDBRANCH   3   7
BRANCH   6  10
ATOM     10  N   LIG    1       -1.505  -0.321  -2.390  0.00  0.00    -0.860 N 
ATOM     11  H   LIG    1       -0.596   0.018  -2.399  0.00  0.00    +0.410 HD
ATOM     12  H   LIG    1       -1.992  -0.423  -3.223  0.00  0.00    +0.410 HD
ENDBRANCH   6  10
BRANCH   1  14
ATOM     13  C   LIG    1       -0.019   1.526   0.010  0.00  0.00    +0.020 C 
ATOM     14  C   LIG    1        0.002  -0.004   0.002  0.00  0.00    +0.070 C 
ENDBRANCH   1  14
TORSDOF 3
