REMARK  Name = ZINC000306544167
REMARK                            x       y       z     vdW  Elec       q    Type
REMARK                         _______ _______ _______ _____ _____    ______ ____
ROOT
ATOM      1  C   LIG    1       -0.018   1.503   0.010  0.00  0.00    +0.170 C 
ATOM      2  C   LIG    1        0.002  -0.004   0.002  0.00  0.00    +0.130 A 
ATOM      3  N   LIG    1        0.008  -0.765  -1.062  0.00  0.00    -0.260 NA
ATOM      4  N   LIG    1        0.028  -2.102  -0.644  0.00  0.00    -0.340 N 
ATOM      5  C   LIG    1        0.034  -2.115   0.706  0.00  0.00    +0.160 A 
ATOM      6  C   LIG    1        0.055  -3.340   1.583  0.00  0.00    +0.170 C 
ATOM      7  C   LIG    1        0.024  -0.830   1.131  0.00  0.00    -0.190 A 
ENDROOT
BRANCH   4   8
ATOM      8  C   LIG    1        0.041  -3.278  -1.517  0.00  0.00    +0.260 C 
ATOM      9  C   LIG    1        1.286  -3.241  -2.405  0.00  0.00    +0.050 C 
ATOM     10  C   LIG    1       -1.212  -3.276  -2.395  0.00  0.00    +0.060 C 
ENDBRANCH   4   8
BRANCH   7  11
ATOM     11  N   LIG    1        0.027  -0.379   2.540  0.00  0.00    +0.050 N 
ATOM     12  O   LIG    1       -1.027  -0.203   3.125  0.00  0.00    -0.140 OA
ATOM     13  O   LIG    1        1.083  -0.184   3.115  0.00  0.00    -0.140 OA
ENDBRANCH   7  11
TORSDOF 2
