REMARK  Name = ZINC000892121631
REMARK                            x       y       z     vdW  Elec       q    Type
REMARK                         _______ _______ _______ _____ _____    ______ ____
ROOT
ATOM      1  C   LIG    1        1.210  -2.662   2.395  0.00  0.00    +0.340 A 
ATOM      2  C   LIG    1        0.469  -3.564   3.097  0.00  0.00    -0.170 A 
ATOM      3  C   LIG    1        1.285  -4.101   4.097  0.00  0.00    +0.330 A 
ATOM      4  N   LIG    1        2.467  -3.549   4.005  0.00  0.00    -0.260 NA
ATOM      5  N   LIG    1        2.449  -2.642   2.937  0.00  0.00    -0.370 N 
ATOM      6  C   LIG    1        3.571  -1.812   2.492  0.00  0.00    +0.370 C 
ENDROOT
BRANCH   2   7
ATOM      7  N   LIG    1       -0.947  -3.914   2.845  0.00  0.00    +0.070 N 
ATOM      8  O   LIG    1       -1.587  -3.299   2.010  0.00  0.00    -0.140 OA
ATOM      9  O   LIG    1       -1.472  -4.816   3.471  0.00  0.00    -0.180 OA
ENDBRANCH   2   7
BRANCH   1  10
ATOM     10  N   LIG    1        0.773  -1.903   1.313  0.00  0.00    -0.460 N 
ATOM     11  C   LIG    1        1.580  -2.177   0.117  0.00  0.00    +0.230 C 
BRANCH  10  12
ATOM     12  C   LIG    1        0.782  -0.470   1.638  0.00  0.00    +0.180 C 
BRANCH  12  14
ATOM     13  C   LIG    1       -0.116   1.772   0.999  0.00  0.00    +0.020 C 
ATOM     14  C   LIG    1       -0.126   0.280   0.661  0.00  0.00    +0.030 C 
ENDBRANCH  12  14
ENDBRANCH  10  12
ENDBRANCH   1  10
TORSDOF 4
