REMARK  Name = ZINC000905293659
REMARK                            x       y       z     vdW  Elec       q    Type
REMARK                         _______ _______ _______ _____ _____    ______ ____
ROOT
ATOM      1  C   LIG    1       -4.441   1.405   2.021  0.00  0.00    +0.140 C 
ATOM      2  C   LIG    1       -5.894   1.208   1.581  0.00  0.00    +0.070 C 
ATOM      3  C   LIG    1       -5.541   2.304   2.589  0.00  0.00    +0.050 C 
ENDROOT
BRANCH   3   4
ATOM      4  C   LIG    1       -5.946   2.086   4.024  0.00  0.00    +0.010 A 
ATOM      5  C   LIG    1       -5.874   2.999   5.010  0.00  0.00    -0.050 A 
ATOM      6  C   LIG    1       -6.353   2.373   6.184  0.00  0.00    -0.060 A 
ATOM      7  C   LIG    1       -6.689   1.115   5.845  0.00  0.00    +0.170 A 
ATOM      8  O   LIG    1       -6.446   0.949   4.535  0.00  0.00    -0.180 OA
ENDBRANCH   3   4
BRANCH   1   9
ATOM      9  N   LIG    1       -3.513   1.999   1.050  0.00  0.00    -0.650 NA
ATOM     10  H   LIG    1       -3.377   2.982   1.235  0.00  0.00    +0.350 HD
BRANCH   9  11
ATOM     11  C   LIG    1       -2.231   1.282   1.040  0.00  0.00    +0.210 C 
BRANCH  11  12
ATOM     12  C   LIG    1       -1.293   1.929   0.019  0.00  0.00    +0.270 C 
BRANCH  12  14
ATOM     13  O   LIG    1        0.002  -0.004   0.002  0.00  0.00    -0.150 OA
ATOM     14  N   LIG    1       -0.014   1.214   0.009  0.00  0.00    -0.020 N 
ATOM     15  O   LIG    1        1.032   1.837   0.002  0.00  0.00    -0.160 OA
ENDBRANCH  12  14
ENDBRANCH  11  12
ENDBRANCH   9  11
ENDBRANCH   1   9
TORSDOF 5
