REMARK  Name = ZINC000899861737
REMARK                            x       y       z     vdW  Elec       q    Type
REMARK                         _______ _______ _______ _____ _____    ______ ____
ROOT
ATOM      1  S   LIG    1       -3.814   2.168   1.052  0.00  0.00    -0.040 S 
ENDROOT
BRANCH   1   2
ATOM      2  C   LIG    1       -4.747   1.295   2.266  0.00  0.00    +0.110 A 
ATOM      3  C   LIG    1       -6.049   1.694   2.553  0.00  0.00    -0.010 A 
ATOM      4  C   LIG    1       -6.770   1.000   3.508  0.00  0.00    +0.080 A 
ATOM      5  C   LIG    1       -6.162  -0.074   4.146  0.00  0.00    -0.030 A 
ATOM      6  C   LIG    1       -4.867  -0.415   3.812  0.00  0.00    +0.280 A 
ATOM      7  N   LIG    1       -4.205   0.262   2.893  0.00  0.00    -0.490 NA
ENDBRANCH   1   2
BRANCH   1   8
ATOM      8  C   LIG    1       -2.231   1.282   1.040  0.00  0.00    +0.110 C 
BRANCH   8   9
ATOM      9  C   LIG    1       -1.293   1.929   0.019  0.00  0.00    +0.290 C 
BRANCH   9  11
ATOM     10  O   LIG    1        0.002  -0.004   0.002  0.00  0.00    -0.150 OA
ATOM     11  N   LIG    1       -0.014   1.214   0.009  0.00  0.00    -0.020 N 
ATOM     12  O   LIG    1        1.032   1.837   0.002  0.00  0.00    -0.150 OA
ENDBRANCH   9  11
ENDBRANCH   8   9
ENDBRANCH   1   8
TORSDOF 4
