REMARK  Name = ZINC000902325671
REMARK                            x       y       z     vdW  Elec       q    Type
REMARK                         _______ _______ _______ _____ _____    ______ ____
ROOT
ATOM      1  N   LIG    1        0.641  -3.975   2.944  0.00  0.00    -0.340 N 
ATOM      2  C   LIG    1        1.477  -4.810   3.597  0.00  0.00    +0.360 A 
ATOM      3  C   LIG    1        1.061  -6.076   3.362  0.00  0.00    -0.190 A 
ATOM      4  C   LIG    1       -0.067  -6.013   2.538  0.00  0.00    +0.320 A 
ATOM      5  N   LIG    1       -0.324  -4.754   2.292  0.00  0.00    -0.260 NA
ENDROOT
BRANCH   3   6
ATOM      6  N   LIG    1        1.690  -7.310   3.886  0.00  0.00    +0.070 N 
ATOM      7  O   LIG    1        1.222  -8.398   3.604  0.00  0.00    -0.160 OA
ATOM      8  O   LIG    1        2.674  -7.236   4.599  0.00  0.00    -0.170 OA
ENDBRANCH   3   6
BRANCH   1   9
ATOM      9  C   LIG    1        0.724  -2.513   2.926  0.00  0.00    +0.370 C 
BRANCH   9  12
ATOM     10  C   LIG    1        0.742  -0.511   1.242  0.00  0.00    -0.020 C 
ATOM     11  C   LIG    1        2.038  -1.294   1.020  0.00  0.00    +0.030 C 
ATOM     12  C   LIG    1        0.772  -2.022   1.478  0.00  0.00    -0.060 C 
BRANCH  10  14
ATOM     13  C   LIG    1       -0.019   1.526   0.010  0.00  0.00    +0.030 C 
ATOM     14  C   LIG    1        0.002  -0.004   0.002  0.00  0.00    +0.040 C 
ENDBRANCH  10  14
ENDBRANCH   9  12
ENDBRANCH   1   9
TORSDOF 4
