REMARK  Name = ZINC000379269540
REMARK                            x       y       z     vdW  Elec       q    Type
REMARK                         _______ _______ _______ _____ _____    ______ ____
ROOT
ATOM      1  C   LIG    1        0.172  -0.419   5.417  0.00  0.00    +0.110 C 
ENDROOT
BRANCH   1   2
ATOM      2  C   LIG    1        1.017  -0.980   6.531  0.00  0.00    +0.530 C 
ATOM      3  N   LIG    1        0.631  -0.828   7.813  0.00  0.00    -0.600 N 
ATOM      4  H   LIG    1       -0.192  -0.357   8.019  0.00  0.00    +0.410 HD
ATOM      5  O   LIG    1        2.046  -1.570   6.274  0.00  0.00    -0.520 OA
BRANCH   3   6
ATOM      6  O   LIG    1        1.425  -1.355   8.860  0.00  0.00    -0.320 OA
ATOM      7  H   LIG    1        1.067  -1.197   9.744  0.00  0.00    +0.390 HD
ENDBRANCH   3   6
ENDBRANCH   1   2
BRANCH   1   8
ATOM      8  C   LIG    1        0.831  -0.728   4.071  0.00  0.00    +0.100 C 
BRANCH   8   9
ATOM      9  S   LIG    1       -0.187  -0.052   2.730  0.00  0.00    -0.260 S 
BRANCH   9  10
ATOM     10  C   LIG    1        0.742  -0.511   1.242  0.00  0.00    +0.080 C 
BRANCH  10  12
ATOM     11  C   LIG    1       -0.019   1.526   0.010  0.00  0.00    +0.040 C 
ATOM     12  C   LIG    1        0.002  -0.004   0.002  0.00  0.00    +0.000 C 
ATOM     13  C   LIG    1        0.718  -0.497  -1.257  0.00  0.00    +0.030 C 
ENDBRANCH  10  12
ENDBRANCH   9  10
ENDBRANCH   8   9
ENDBRANCH   1   8
TORSDOF 6
