REMARK  Name = ZINC000085344377
REMARK                            x       y       z     vdW  Elec       q    Type
REMARK                         _______ _______ _______ _____ _____    ______ ____
ROOT
ATOM      1  C   LIG    1        1.253   2.002   0.258  0.00  0.00    -0.170 A 
ATOM      2  C   LIG    1        2.480   1.324   0.340  0.00  0.00    +0.180 A 
ATOM      3  C   LIG    1        3.659   2.004   0.074  0.00  0.00    +0.050 A 
ATOM      4  C   LIG    1        3.625   3.341  -0.269  0.00  0.00    +0.100 A 
ATOM      5  C   LIG    1        2.417   4.015  -0.351  0.00  0.00    +0.080 A 
ATOM      6  C   LIG    1        1.234   3.357  -0.097  0.00  0.00    +0.020 A 
ENDROOT
BRANCH   6   7
ATOM      7  N   LIG    1       -0.052   4.082  -0.187  0.00  0.00    +0.020 N 
ATOM      8  O   LIG    1       -0.127   5.239   0.187  0.00  0.00    -0.130 OA
ATOM      9  O   LIG    1       -1.037   3.523  -0.634  0.00  0.00    -0.150 OA
ENDBRANCH   6   7
BRANCH   1  11
ATOM     10  O   LIG    1        0.008   0.100   0.747  0.00  0.00    -0.420 OA
ATOM     11  C   LIG    1       -0.003   1.295   0.537  0.00  0.00    +0.500 C 
ENDBRANCH   1  11
BRANCH   2  12
ATOM     12  O   LIG    1        2.511   0.011   0.677  0.00  0.00    -0.470 OA
ATOM     13  H   LIG    1        2.456  -0.590  -0.078  0.00  0.00    +0.410 HD
ENDBRANCH   2  12
TORSDOF 3
