REMARK  Name = ZINC000006072175
REMARK                            x       y       z     vdW  Elec       q    Type
REMARK                         _______ _______ _______ _____ _____    ______ ____
ROOT
ATOM      1  C   LIG    1       -0.018   1.503   0.010  0.00  0.00    +0.200 C 
ATOM      2  C   LIG    1        0.002  -0.004   0.002  0.00  0.00    +0.080 A 
ATOM      3  N   LIG    1        0.008  -0.737  -1.060  0.00  0.00    -0.470 NA
ATOM      4  C   LIG    1        0.026  -2.043  -0.889  0.00  0.00    +0.360 A 
ATOM      5  C   LIG    1        0.038  -2.434   0.389  0.00  0.00    -0.240 A 
ATOM      6  S   LIG    1        0.029  -0.990   1.399  0.00  0.00    +0.270 S 
ENDROOT
BRANCH   5   7
ATOM      7  N   LIG    1        0.059  -3.834   0.872  0.00  0.00    +0.070 N 
ATOM      8  O   LIG    1        0.068  -4.066   2.067  0.00  0.00    -0.150 OA
ATOM      9  O   LIG    1        0.069  -4.753   0.073  0.00  0.00    -0.140 OA
ENDBRANCH   5   7
TORSDOF 1
