REMARK  Name = ZINC000334390649
REMARK                            x       y       z     vdW  Elec       q    Type
REMARK                         _______ _______ _______ _____ _____    ______ ____
ROOT
ATOM      1  C   LIG    1       -0.018   1.503   0.010  0.00  0.00    +0.210 C 
ATOM      2  C   LIG    1        0.002  -0.004   0.002  0.00  0.00    +0.280 A 
ATOM      3  N   LIG    1        0.008  -0.759  -1.063  0.00  0.00    -0.480 NA
ATOM      4  C   LIG    1        0.028  -2.047  -0.691  0.00  0.00    +0.310 A 
ATOM      5  C   LIG    1        0.035  -2.093   0.655  0.00  0.00    -0.010 A 
ATOM      6  N   LIG    1        0.023  -0.797   1.095  0.00  0.00    -0.430 N 
ENDROOT
BRANCH   5   7
ATOM      7  N   LIG    1        0.055  -3.311   1.496  0.00  0.00    +0.070 N 
ATOM      8  O   LIG    1        0.060  -3.212   2.710  0.00  0.00    -0.170 OA
ATOM      9  O   LIG    1        0.068  -4.411   0.975  0.00  0.00    -0.140 OA
ENDBRANCH   5   7
BRANCH   6  10
ATOM     10  C   LIG    1        0.025  -0.353   2.491  0.00  0.00    +0.320 C 
BRANCH  10  11
ATOM     11  C   LIG    1        1.468  -0.184   2.971  0.00  0.00    -0.040 C 
ATOM     12  C   LIG    1        2.054   1.208   2.682  0.00  0.00    +0.020 C 
ATOM     13  C   LIG    1        2.711   1.133   4.071  0.00  0.00    +0.010 C 
ATOM     14  C   LIG    1        1.584   0.163   4.464  0.00  0.00    +0.040 C 
ENDBRANCH  10  11
ENDBRANCH   6  10
TORSDOF 3
