REMARK  Name = ZINC000238531635
REMARK                            x       y       z     vdW  Elec       q    Type
REMARK                         _______ _______ _______ _____ _____    ______ ____
ROOT
ATOM      1  C   LIG    1       -1.306   1.936   0.019  0.00  0.00    -0.120 A 
ATOM      2  C   LIG    1       -2.497   1.240   0.026  0.00  0.00    +0.410 A 
ATOM      3  N   LIG    1       -3.653   1.877   0.035  0.00  0.00    -0.480 NA
ATOM      4  C   LIG    1       -3.722   3.194   0.037  0.00  0.00    +0.380 A 
ATOM      5  C   LIG    1       -2.576   3.963   0.030  0.00  0.00    -0.080 A 
ATOM      6  C   LIG    1       -1.336   3.329   0.026  0.00  0.00    +0.220 A 
ENDROOT
BRANCH   1   8
ATOM      7  O   LIG    1        0.002  -0.004   0.002  0.00  0.00    -0.160 OA
ATOM      8  N   LIG    1       -0.014   1.214   0.009  0.00  0.00    +0.040 N 
ATOM      9  O   LIG    1        1.032   1.837   0.002  0.00  0.00    -0.130 OA
ENDBRANCH   1   8
BRANCH   6  10
ATOM     10  O   LIG    1       -0.186   4.050   0.019  0.00  0.00    -0.290 OA
BRANCH  10  11
ATOM     11  C   LIG    1       -0.312   5.473   0.015  0.00  0.00    +0.610 C 
ATOM     12  F   LIG    1       -1.006   5.883   1.159  0.00  0.00    -0.190 F 
ATOM     13  F   LIG    1       -1.015   5.876  -1.125  0.00  0.00    -0.190 F 
ENDBRANCH  10  11
ENDBRANCH   6  10
TORSDOF 3
