REMARK  Name = ZINC000604559127
REMARK                            x       y       z     vdW  Elec       q    Type
REMARK                         _______ _______ _______ _____ _____    ______ ____
ROOT
ATOM      1  N   LIG    1        1.471  -2.526   2.420  0.00  0.00    -0.490 N 
ATOM      2  C   LIG    1        2.813  -2.726   2.366  0.00  0.00    +0.380 A 
ATOM      3  C   LIG    1        3.490  -3.174   3.449  0.00  0.00    -0.080 A 
ATOM      4  C   LIG    1        2.804  -3.436   4.643  0.00  0.00    +0.260 A 
ATOM      5  C   LIG    1        1.456  -3.234   4.696  0.00  0.00    -0.190 A 
ATOM      6  C   LIG    1        0.785  -2.764   3.554  0.00  0.00    +0.530 A 
ATOM      7  O   LIG    1       -0.421  -2.578   3.588  0.00  0.00    -0.490 OA
ENDROOT
BRANCH   5   8
ATOM      8  N   LIG    1        0.708  -3.503   5.944  0.00  0.00    +0.050 N 
ATOM      9  O   LIG    1       -0.496  -3.321   5.985  0.00  0.00    -0.130 OA
ATOM     10  O   LIG    1        1.296  -3.907   6.932  0.00  0.00    -0.180 OA
ENDBRANCH   5   8
BRANCH   1  11
ATOM     11  C   LIG    1        0.763  -2.041   1.233  0.00  0.00    +0.300 C 
BRANCH  11  12
ATOM     12  C   LIG    1        0.742  -0.511   1.242  0.00  0.00    +0.000 C 
BRANCH  12  14
ATOM     13  C   LIG    1       -0.019   1.526   0.010  0.00  0.00    +0.020 C 
ATOM     14  C   LIG    1        0.002  -0.004   0.002  0.00  0.00    +0.020 C 
ENDBRANCH  12  14
ENDBRANCH  11  12
ENDBRANCH   1  11
TORSDOF 4
