REMARK  Name = ZINC000899867407
REMARK                            x       y       z     vdW  Elec       q    Type
REMARK                         _______ _______ _______ _____ _____    ______ ____
ROOT
ATOM      1  C   LIG    1        0.054  -2.844   2.489  0.00  0.00    +0.240 C 
ENDROOT
BRANCH   1   7
ATOM      2  C   LIG    1       -0.018   1.503   0.010  0.00  0.00    +0.090 C 
ATOM      3  C   LIG    1        0.002  -0.004   0.002  0.00  0.00    -0.090 A 
ATOM      4  C   LIG    1        0.006  -0.689  -1.199  0.00  0.00    +0.000 A 
ATOM      5  C   LIG    1        0.025  -2.071  -1.206  0.00  0.00    +0.000 A 
ATOM      6  C   LIG    1        0.040  -2.768  -0.013  0.00  0.00    +0.000 A 
ATOM      7  C   LIG    1        0.037  -2.084   1.188  0.00  0.00    -0.090 A 
ATOM      8  C   LIG    1        0.023  -0.702   1.196  0.00  0.00    +0.020 A 
ENDBRANCH   1   7
BRANCH   1   9
ATOM      9  N   LIG    1        1.444  -3.074   2.905  0.00  0.00    -0.680 NA
ATOM     10  H   LIG    1        1.963  -3.552   2.183  0.00  0.00    +0.350 HD
BRANCH   9  11
ATOM     11  C   LIG    1        1.499  -3.814   4.172  0.00  0.00    +0.210 C 
BRANCH  11  12
ATOM     12  C   LIG    1        2.960  -4.033   4.571  0.00  0.00    +0.270 C 
BRANCH  12  13
ATOM     13  N   LIG    1        3.015  -4.772   5.835  0.00  0.00    -0.020 N 
ATOM     14  O   LIG    1        2.286  -4.455   6.758  0.00  0.00    -0.160 OA
ATOM     15  O   LIG    1        3.790  -5.703   5.963  0.00  0.00    -0.160 OA
ENDBRANCH  12  13
ENDBRANCH  11  12
ENDBRANCH   9  11
ENDBRANCH   1   9
TORSDOF 5
