REMARK  Name = ZINC000612647359
REMARK                            x       y       z     vdW  Elec       q    Type
REMARK                         _______ _______ _______ _____ _____    ______ ____
ROOT
ATOM      1  N   LIG    1        1.312  -4.188   2.103  0.00  0.00    -0.350 N 
ATOM      2  C   LIG    1        2.378  -5.014   2.133  0.00  0.00    +0.370 A 
ATOM      3  C   LIG    1        1.921  -6.282   2.005  0.00  0.00    -0.190 A 
ATOM      4  C   LIG    1        0.528  -6.227   1.892  0.00  0.00    +0.140 A 
ATOM      5  C   LIG    1       -0.392  -7.409   1.731  0.00  0.00    +0.190 C 
ATOM      6  N   LIG    1        0.162  -4.973   1.957  0.00  0.00    -0.270 NA
ENDROOT
BRANCH   3   7
ATOM      7  N   LIG    1        2.749  -7.508   1.987  0.00  0.00    +0.070 N 
ATOM      8  O   LIG    1        2.220  -8.599   1.865  0.00  0.00    -0.160 OA
ATOM      9  O   LIG    1        3.960  -7.428   2.094  0.00  0.00    -0.180 OA
ENDBRANCH   3   7
BRANCH   1  10
ATOM     10  C   LIG    1        1.351  -2.727   2.211  0.00  0.00    +0.340 C 
BRANCH  10  11
ATOM     11  C   LIG    1        0.633  -2.108   1.011  0.00  0.00    +0.030 C 
BRANCH  11  12
ATOM     12  C   LIG    1        0.673  -0.582   1.123  0.00  0.00    +0.170 C 
BRANCH  12  14
ATOM     13  C   LIG    1       -0.017   1.425   0.010  0.00  0.00    +0.200 C 
ATOM     14  O   LIG    1        0.002  -0.004   0.002  0.00  0.00    -0.390 OA
ENDBRANCH  12  14
ENDBRANCH  11  12
ENDBRANCH  10  11
ENDBRANCH   1  10
TORSDOF 5
