REMARK  Name = ZINC000036447607
REMARK                            x       y       z     vdW  Elec       q    Type
REMARK                         _______ _______ _______ _____ _____    ______ ____
ROOT
ATOM      1  C   LIG    1       -1.262  -0.757   0.010  0.00  0.00    -0.150 A 
ATOM      2  C   LIG    1       -2.484  -0.078   0.019  0.00  0.00    +0.110 A 
ATOM      3  C   LIG    1       -3.668  -0.794   0.026  0.00  0.00    +0.110 A 
ATOM      4  C   LIG    1       -3.642  -2.183   0.024  0.00  0.00    +0.110 A 
ATOM      5  C   LIG    1       -2.434  -2.857   0.015  0.00  0.00    -0.040 A 
ATOM      6  C   LIG    1       -1.247  -2.156   0.002  0.00  0.00    +0.160 A 
ENDROOT
BRANCH   1   8
ATOM      7  C   LIG    1       -0.018   1.503   0.010  0.00  0.00    +0.090 C 
ATOM      8  C   LIG    1        0.002  -0.004   0.002  0.00  0.00    +0.400 C 
ATOM      9  O   LIG    1        1.060  -0.596  -0.011  0.00  0.00    -0.440 OA
ENDBRANCH   1   8
BRANCH   5  10
ATOM     10  N   LIG    1       -2.416  -4.337   0.012  0.00  0.00    +0.020 N 
ATOM     11  O   LIG    1       -1.354  -4.934   0.004  0.00  0.00    -0.150 OA
ATOM     12  O   LIG    1       -3.464  -4.959   0.017  0.00  0.00    -0.150 OA
ENDBRANCH   5  10
BRANCH   3  13
ATOM     13  O   LIG    1       -4.859  -0.138   0.036  0.00  0.00    -0.480 OA
ATOM     14  H   LIG    1       -5.209   0.053  -0.845  0.00  0.00    +0.400 HD
ENDBRANCH   3  13
TORSDOF 3
