REMARK  Name = ZINC000114967933
REMARK                            x       y       z     vdW  Elec       q    Type
REMARK                         _______ _______ _______ _____ _____    ______ ____
ROOT
ATOM      1  C   LIG    1        1.295  -2.384  -2.228  0.00  0.00    +0.160 A 
ATOM      2  C   LIG    1        1.860  -1.474  -3.109  0.00  0.00    +0.050 A 
ATOM      3  C   LIG    1        2.513  -1.924  -4.241  0.00  0.00    +0.110 A 
ATOM      4  C   LIG    1        2.604  -3.280  -4.495  0.00  0.00    +0.050 A 
ATOM      5  C   LIG    1        2.042  -4.189  -3.617  0.00  0.00    +0.130 A 
ATOM      6  C   LIG    1        1.392  -3.745  -2.482  0.00  0.00    -0.040 A 
ENDROOT
BRANCH   6   7
ATOM      7  N   LIG    1        0.791  -4.718  -1.544  0.00  0.00    +0.030 N 
ATOM      8  O   LIG    1        0.218  -4.326  -0.543  0.00  0.00    -0.150 OA
ATOM      9  O   LIG    1        0.868  -5.912  -1.772  0.00  0.00    -0.140 OA
ENDBRANCH   6   7
BRANCH   1  10
ATOM     10  O   LIG    1        0.653  -1.944  -1.114  0.00  0.00    -0.250 OA
BRANCH  10  11
ATOM     11  C   LIG    1        1.379  -1.855   0.015  0.00  0.00    +0.610 C 
ATOM     12  O   LIG    1        2.528  -2.247   0.031  0.00  0.00    -0.530 OA
BRANCH  11  14
ATOM     13  C   LIG    1        1.675  -1.266   2.308  0.00  0.00    +0.310 C 
ATOM     14  O   LIG    1        0.832  -1.331   1.127  0.00  0.00    -0.320 OA
ENDBRANCH  11  14
ENDBRANCH  10  11
ENDBRANCH   1  10
TORSDOF 4
