REMARK  Name = ZINC000899884263
REMARK                            x       y       z     vdW  Elec       q    Type
REMARK                         _______ _______ _______ _____ _____    ______ ____
ROOT
ATOM      1  C   LIG    1       -0.018   1.503   0.010  0.00  0.00    +0.160 C 
ATOM      2  C   LIG    1        0.002  -0.004   0.002  0.00  0.00    +0.090 A 
ATOM      3  N   LIG    1        0.008  -0.765  -1.062  0.00  0.00    -0.290 NA
ATOM      4  N   LIG    1        0.029  -2.102  -0.644  0.00  0.00    -0.380 N 
ATOM      5  C   LIG    1        0.034  -2.115   0.706  0.00  0.00    +0.080 A 
ATOM      6  C   LIG    1        0.055  -3.340   1.583  0.00  0.00    +0.140 C 
ATOM      7  C   LIG    1        0.024  -0.830   1.131  0.00  0.00    -0.230 A 
ATOM      8  C   LIG    1        0.027  -0.371   2.566  0.00  0.00    +0.120 C 
ENDROOT
BRANCH   4   9
ATOM      9  C   LIG    1        0.041  -3.278  -1.517  0.00  0.00    +0.370 C 
BRANCH   9  10
ATOM     10  C   LIG    1        1.488  -3.667  -1.827  0.00  0.00    +0.260 C 
BRANCH  10  11
ATOM     11  N   LIG    1        1.500  -4.844  -2.701  0.00  0.00    -0.020 N 
ATOM     12  O   LIG    1        2.260  -5.767  -2.468  0.00  0.00    -0.150 OA
ATOM     13  O   LIG    1        0.751  -4.899  -3.659  0.00  0.00    -0.150 OA
ENDBRANCH  10  11
ENDBRANCH   9  10
ENDBRANCH   4   9
TORSDOF 3
