REMARK  Name = ZINC000306761493
REMARK                            x       y       z     vdW  Elec       q    Type
REMARK                         _______ _______ _______ _____ _____    ______ ____
ROOT
ATOM      1  N   LIG    1        2.248  -0.098  -1.541  0.00  0.00    -0.300 N 
ATOM      2  N   LIG    1        2.676   1.114  -2.100  0.00  0.00    -0.220 NA
ATOM      3  C   LIG    1        3.967   1.217  -1.913  0.00  0.00    +0.260 A 
ATOM      4  C   LIG    1        4.402   0.077  -1.231  0.00  0.00    +0.010 A 
ATOM      5  C   LIG    1        3.326  -0.713  -1.009  0.00  0.00    +0.110 A 
ENDROOT
BRANCH   5   6
ATOM      6  N   LIG    1        3.330  -2.020  -0.316  0.00  0.00    +0.050 N 
ATOM      7  O   LIG    1        2.290  -2.640  -0.177  0.00  0.00    -0.150 OA
ATOM      8  O   LIG    1        4.373  -2.477   0.116  0.00  0.00    -0.120 OA
ENDBRANCH   5   6
BRANCH   1   9
ATOM      9  C   LIG    1        0.874  -0.605  -1.531  0.00  0.00    +0.040 C 
BRANCH   9  11
ATOM     10  C   LIG    1       -0.023   1.859   0.012  0.00  0.00    -0.240 C 
ATOM     11 SI   LIG    1        0.002  -0.004   0.002  0.00  0.00    +1.020 Si
ATOM     12  C   LIG    1       -1.746  -0.649   0.015  0.00  0.00    -0.210 C 
ATOM     13  C   LIG    1        0.903  -0.621   1.511  0.00  0.00    -0.240 C 
ENDBRANCH   9  11
ENDBRANCH   1   9
TORSDOF 3
