REMARK  Name = ZINC000014984629
REMARK                            x       y       z     vdW  Elec       q    Type
REMARK                         _______ _______ _______ _____ _____    ______ ____
ROOT
ATOM      1  C   LIG    1       -0.018   1.503   0.010  0.00  0.00    +0.120 C 
ATOM      2  C   LIG    1        0.002  -0.004   0.002  0.00  0.00    -0.040 A 
ATOM      3  C   LIG    1        0.006  -0.683  -1.210  0.00  0.00    +0.080 A 
ATOM      4  C   LIG    1        0.024  -2.048  -1.242  0.00  0.00    +0.030 A 
ATOM      5  C   LIG    1        0.040  -2.768  -0.043  0.00  0.00    -0.150 A 
ATOM      6  C   LIG    1        0.061  -4.190   0.287  0.00  0.00    +0.310 A 
ATOM      7  N   LIG    1        0.069  -4.297   1.585  0.00  0.00    -0.230 NA
ATOM      8  N   LIG    1        0.055  -3.028   2.172  0.00  0.00    -0.500 N 
ATOM      9  H   LIG    1        0.057  -2.849   3.126  0.00  0.00    +0.450 HD
ATOM     10  C   LIG    1        0.037  -2.078   1.185  0.00  0.00    +0.140 A 
ATOM     11  C   LIG    1        0.023  -0.685   1.186  0.00  0.00    +0.060 A 
ENDROOT
BRANCH   4  12
ATOM     12  N   LIG    1        0.028  -2.762  -2.539  0.00  0.00    +0.030 N 
ATOM     13  O   LIG    1        0.044  -3.979  -2.564  0.00  0.00    -0.150 OA
ATOM     14  O   LIG    1        0.014  -2.131  -3.581  0.00  0.00    -0.160 OA
ENDBRANCH   4  12
TORSDOF 1
