REMARK  Name = ZINC000098179527
REMARK                            x       y       z     vdW  Elec       q    Type
REMARK                         _______ _______ _______ _____ _____    ______ ____
ROOT
ATOM      1  C   LIG    1       -1.198  -0.719   0.010  0.00  0.00    +0.170 A 
ATOM      2  C   LIG    1       -2.416  -0.051   0.019  0.00  0.00    +0.250 A 
ATOM      3  N   LIG    1       -3.550  -0.723   0.027  0.00  0.00    -0.430 NA
ATOM      4  C   LIG    1       -3.578  -2.041   0.025  0.00  0.00    +0.290 A 
ATOM      5  C   LIG    1       -2.407  -2.776   0.016  0.00  0.00    -0.050 A 
ATOM      6  C   LIG    1       -1.191  -2.112   0.002  0.00  0.00    +0.060 A 
ENDROOT
BRANCH   1   8
ATOM      7  C   LIG    1       -0.018   1.461   0.010  0.00  0.00    +0.290 C 
ATOM      8  N   LIG    1        0.002  -0.004   0.002  0.00  0.00    -0.740 N 
ATOM      9  H   LIG    1        0.849  -0.478  -0.009  0.00  0.00    +0.410 HD
ENDBRANCH   1   8
BRANCH   5  10
ATOM     10  N   LIG    1       -2.451  -4.255   0.015  0.00  0.00    +0.030 N 
ATOM     11  O   LIG    1       -1.416  -4.896   0.007  0.00  0.00    -0.160 OA
ATOM     12  O   LIG    1       -3.524  -4.832   0.022  0.00  0.00    -0.140 OA
ENDBRANCH   5  10
TORSDOF 2
