REMARK  Name = ZINC000036749211
REMARK                            x       y       z     vdW  Elec       q    Type
REMARK                         _______ _______ _______ _____ _____    ______ ____
ROOT
ATOM      1  C   LIG    1        1.108   1.419  -0.066  0.00  0.00    +0.170 C 
ATOM      2  C   LIG    1        0.577   0.011   0.012  0.00  0.00    +0.140 A 
ATOM      3  N   LIG    1       -0.379  -0.490  -0.728  0.00  0.00    -0.260 NA
ATOM      4  N   LIG    1       -0.578  -1.824  -0.349  0.00  0.00    -0.340 N 
ATOM      5  C   LIG    1        0.293  -2.109   0.645  0.00  0.00    +0.350 A 
ATOM      6  C   LIG    1       -1.557  -2.747  -0.929  0.00  0.00    +0.380 C 
ATOM      7  C   LIG    1        1.026  -0.986   0.884  0.00  0.00    -0.230 A 
ENDROOT
BRANCH   7   8
ATOM      8  N   LIG    1        2.099  -0.843   1.893  0.00  0.00    +0.050 N 
ATOM      9  O   LIG    1        1.830  -0.471   3.021  0.00  0.00    -0.140 OA
ATOM     10  O   LIG    1        3.253  -1.098   1.595  0.00  0.00    -0.130 OA
ENDBRANCH   7   8
BRANCH   5  11
ATOM     11  N   LIG    1        0.421  -3.329   1.302  0.00  0.00    -0.590 N 
ATOM     12  H   LIG    1        0.831  -3.207   2.216  0.00  0.00    +0.380 HD
BRANCH  11  13
ATOM     13  C   LIG    1        1.200  -4.281   0.498  0.00  0.00    +0.120 C 
ATOM     14  C   LIG    1        2.256  -5.118   1.222  0.00  0.00    +0.020 C 
ATOM     15  C   LIG    1        0.959  -5.772   0.740  0.00  0.00    +0.060 C 
ENDBRANCH  11  13
ENDBRANCH   5  11
TORSDOF 3
