REMARK  Name = ZINC000307064171
REMARK                            x       y       z     vdW  Elec       q    Type
REMARK                         _______ _______ _______ _____ _____    ______ ____
ROOT
ATOM      1  C   LIG    1        0.777  -1.808  -1.336  0.00  0.00    +0.390 A 
ATOM      2  N   LIG    1        0.265  -2.620  -0.426  0.00  0.00    -0.530 NA
ATOM      3  C   LIG    1        0.345  -3.932  -0.545  0.00  0.00    +0.370 A 
ATOM      4  C   LIG    1        0.972  -4.506  -1.632  0.00  0.00    -0.180 A 
ATOM      5  C   LIG    1        1.522  -3.688  -2.610  0.00  0.00    +0.190 A 
ATOM      6  C   LIG    1        1.057  -6.006  -1.757  0.00  0.00    +0.130 C 
ATOM      7  C   LIG    1        1.416  -2.317  -2.459  0.00  0.00    -0.120 A 
ENDROOT
BRANCH   7   8
ATOM      8  N   LIG    1        1.987  -1.405  -3.475  0.00  0.00    +0.040 N 
ATOM      9  O   LIG    1        1.889  -0.199  -3.334  0.00  0.00    -0.130 OA
ATOM     10  O   LIG    1        2.555  -1.860  -4.452  0.00  0.00    -0.170 OA
ENDBRANCH   7   8
BRANCH   1  11
ATOM     11  O   LIG    1        0.671  -0.465  -1.174  0.00  0.00    -0.270 OA
BRANCH  11  13
ATOM     12  C   LIG    1       -0.019   1.526   0.010  0.00  0.00    +0.070 C 
ATOM     13  C   LIG    1        0.002  -0.004   0.002  0.00  0.00    +0.200 C 
ENDBRANCH  11  13
ENDBRANCH   1  11
TORSDOF 3
