REMARK  Name = ZINC000226769303
REMARK                            x       y       z     vdW  Elec       q    Type
REMARK                         _______ _______ _______ _____ _____    ______ ____
ROOT
ATOM      1  C   LIG    1       -1.307   1.937   0.019  0.00  0.00    -0.270 A 
ATOM      2  C   LIG    1       -2.517   1.377   0.027  0.00  0.00    +0.410 A 
ATOM      3  N   LIG    1       -3.520   2.236   0.035  0.00  0.00    -0.540 NA
ATOM      4  C   LIG    1       -3.212   3.496   0.034  0.00  0.00    +0.340 A 
ATOM      5  S   LIG    1       -1.513   3.686   0.030  0.00  0.00    +0.230 S 
ENDROOT
BRANCH   1   7
ATOM      6  O   LIG    1        0.002  -0.004   0.002  0.00  0.00    -0.150 OA
ATOM      7  N   LIG    1       -0.014   1.214   0.009  0.00  0.00    +0.080 N 
ATOM      8  O   LIG    1        1.032   1.837   0.002  0.00  0.00    -0.160 OA
ENDBRANCH   1   7
BRANCH   4   9
ATOM      9  N   LIG    1       -4.127   4.537   0.042  0.00  0.00    -0.670 N 
ATOM     10  H   LIG    1       -3.817   5.456   0.041  0.00  0.00    +0.420 HD
BRANCH   9  11
ATOM     11  C   LIG    1       -5.564   4.250   0.052  0.00  0.00    +0.320 C 
BRANCH  11  12
ATOM     12  C   LIG    1       -6.347   5.564   0.060  0.00  0.00    -0.070 C 
ATOM     13  C   LIG    1       -7.236   5.864  -1.149  0.00  0.00    +0.030 C 
ATOM     14  C   LIG    1       -7.869   5.478   0.189  0.00  0.00    +0.040 C 
ENDBRANCH  11  12
ENDBRANCH   9  11
ENDBRANCH   4   9
TORSDOF 4
