REMARK  Name = ZINC000774664567
REMARK                            x       y       z     vdW  Elec       q    Type
REMARK                         _______ _______ _______ _____ _____    ______ ____
ROOT
ATOM      1  C   LIG    1       -1.327  -1.537   1.192  0.00  0.00    +0.130 A 
ATOM      2  C   LIG    1       -1.921  -2.788   1.078  0.00  0.00    +0.020 A 
ATOM      3  C   LIG    1       -1.962  -3.634   2.169  0.00  0.00    -0.030 A 
ATOM      4  C   LIG    1       -1.412  -3.238   3.374  0.00  0.00    +0.030 A 
ATOM      5  C   LIG    1       -0.820  -1.993   3.491  0.00  0.00    +0.110 A 
ATOM      6  C   LIG    1       -2.606  -4.991   2.045  0.00  0.00    +0.120 C 
ATOM      7  C   LIG    1       -0.771  -1.144   2.404  0.00  0.00    -0.030 A 
ENDROOT
BRANCH   7   8
ATOM      8  N   LIG    1       -0.137   0.187   2.530  0.00  0.00    +0.030 N 
ATOM      9  O   LIG    1       -0.006   0.895   1.548  0.00  0.00    -0.110 OA
ATOM     10  O   LIG    1        0.254   0.574   3.617  0.00  0.00    -0.180 OA
ENDBRANCH   7   8
BRANCH   1  11
ATOM     11  N   LIG    1       -1.284  -0.679   0.091  0.00  0.00    -0.330 N 
ATOM     12  C   LIG    1       -2.634  -0.241  -0.287  0.00  0.00    +0.250 C 
BRANCH  11  14
ATOM     13  C   LIG    1        0.620  -0.668  -1.411  0.00  0.00    +0.230 C 
ATOM     14  O   LIG    1       -0.602  -1.310  -1.038  0.00  0.00    -0.250 OA
ENDBRANCH  11  14
ENDBRANCH   1  11
TORSDOF 3
