REMARK  Name = ZINC000335909785
REMARK                            x       y       z     vdW  Elec       q    Type
REMARK                         _______ _______ _______ _____ _____    ______ ____
ROOT
ATOM      1  N   LIG    1       -2.265  -0.093   0.914  0.00  0.00    -0.340 N 
ATOM      2  C   LIG    1       -3.497   0.429   0.739  0.00  0.00    +0.350 A 
ATOM      3  C   LIG    1       -3.967   0.795   1.954  0.00  0.00    -0.190 A 
ATOM      4  C   LIG    1       -2.989   0.484   2.905  0.00  0.00    +0.320 A 
ATOM      5  N   LIG    1       -1.971  -0.054   2.283  0.00  0.00    -0.260 NA
ENDROOT
BRANCH   3   6
ATOM      6  N   LIG    1       -5.284   1.413   2.228  0.00  0.00    +0.070 N 
ATOM      7  O   LIG    1       -5.596   1.699   3.371  0.00  0.00    -0.160 OA
ATOM      8  O   LIG    1       -6.055   1.635   1.312  0.00  0.00    -0.170 OA
ENDBRANCH   3   6
BRANCH   1   9
ATOM      9  C   LIG    1       -1.393  -0.616  -0.140  0.00  0.00    +0.350 C 
BRANCH   9  11
ATOM     10  C   LIG    1       -0.180   1.624  -0.237  0.00  0.00    +0.060 C 
ATOM     11  C   LIG    1       -0.045   0.107  -0.092  0.00  0.00    -0.100 C 
ATOM     12  C   LIG    1        1.019  -0.508  -1.016  0.00  0.00    +0.040 C 
ATOM     13  C   LIG    1        2.032  -0.258   0.114  0.00  0.00    +0.010 C 
ATOM     14  C   LIG    1        0.843  -0.324   1.087  0.00  0.00    +0.030 C 
ENDBRANCH   9  11
ENDBRANCH   1   9
TORSDOF 3
