REMARK  Name = ZINC000052812165
REMARK                            x       y       z     vdW  Elec       q    Type
REMARK                         _______ _______ _______ _____ _____    ______ ____
ROOT
ATOM      1  C   LIG    1       -0.018   1.503   0.010  0.00  0.00    +0.120 C 
ATOM      2  C   LIG    1        0.002  -0.004   0.002  0.00  0.00    -0.200 A 
ATOM      3  C   LIG    1        0.006  -0.698  -1.194  0.00  0.00    +0.180 A 
ATOM      4  C   LIG    1        0.025  -2.087  -1.155  0.00  0.00    -0.160 A 
ATOM      5  C   LIG    1        0.039  -2.728   0.068  0.00  0.00    +0.420 A 
ATOM      6  N   LIG    1        0.035  -2.039   1.193  0.00  0.00    -0.530 NA
ATOM      7  C   LIG    1        0.023  -0.716   1.198  0.00  0.00    +0.450 A 
ENDROOT
BRANCH   4   8
ATOM      8  N   LIG    1        0.030  -2.870  -2.410  0.00  0.00    +0.040 N 
ATOM      9  O   LIG    1        0.047  -4.087  -2.368  0.00  0.00    -0.170 OA
ATOM     10  O   LIG    1        0.018  -2.298  -3.485  0.00  0.00    -0.170 OA
ENDBRANCH   4   8
BRANCH   7  11
ATOM     11  N   LIG    1        0.019  -0.030   2.407  0.00  0.00    -0.670 N 
ATOM     12  H   LIG    1        0.010   0.939   2.415  0.00  0.00    +0.420 HD
BRANCH  11  13
ATOM     13  C   LIG    1        0.027  -0.773   3.670  0.00  0.00    +0.230 C 
ATOM     14  C   LIG    1        0.960  -0.277   4.775  0.00  0.00    +0.020 C 
ATOM     15  C   LIG    1       -0.551  -0.077   4.903  0.00  0.00    +0.020 C 
ENDBRANCH  11  13
ENDBRANCH   7  11
TORSDOF 3
