REMARK  Name = ZINC000590702760
REMARK                            x       y       z     vdW  Elec       q    Type
REMARK                         _______ _______ _______ _____ _____    ______ ____
ROOT
ATOM      1  C   LIG    1        2.103  -0.604   1.173  0.00  0.00    +0.220 A 
ATOM      2  C   LIG    1        2.786  -1.069   2.294  0.00  0.00    +0.000 A 
ATOM      3  C   LIG    1        4.167  -1.166   2.229  0.00  0.00    +0.130 A 
ATOM      4  C   LIG    1        4.816  -0.800   1.065  0.00  0.00    +0.100 A 
ATOM      5  N   LIG    1        4.139  -0.363   0.021  0.00  0.00    -0.390 NA
ATOM      6  C   LIG    1        2.826  -0.260   0.037  0.00  0.00    +0.230 A 
ENDROOT
BRANCH   4   7
ATOM      7  N   LIG    1        6.291  -0.900   0.989  0.00  0.00    +0.040 N 
ATOM      8  O   LIG    1        6.871  -0.580  -0.033  0.00  0.00    -0.130 OA
ATOM      9  O   LIG    1        6.924  -1.303   1.949  0.00  0.00    -0.170 OA
ENDBRANCH   4   7
BRANCH   1  10
ATOM     10  N   LIG    1        0.711  -0.489   1.189  0.00  0.00    -0.710 N 
ATOM     11  H   LIG    1        0.213  -0.731   1.986  0.00  0.00    +0.410 HD
BRANCH  10  13
ATOM     12  C   LIG    1       -0.019   1.526   0.010  0.00  0.00    +0.050 C 
ATOM     13  C   LIG    1        0.002  -0.004   0.002  0.00  0.00    +0.210 C 
BRANCH  13  14
ATOM     14  C   LIG    1       -1.433  -0.534   0.013  0.00  0.00    +0.230 C 
ATOM     15  F   LIG    1       -1.414  -1.933   0.005  0.00  0.00    -0.210 F 
ENDBRANCH  13  14
ENDBRANCH  10  13
ENDBRANCH   1  10
TORSDOF 4
