REMARK  Name = ZINC000002519236
REMARK                            x       y       z     vdW  Elec       q    Type
REMARK                         _______ _______ _______ _____ _____    ______ ____
ROOT
ATOM      1  C   LIG    1       -3.546   2.018   1.050  0.00  0.00    -0.090 A 
ATOM      2  C   LIG    1       -3.729   3.093   1.899  0.00  0.00    +0.040 A 
ATOM      3  C   LIG    1       -4.934   3.771   1.913  0.00  0.00    +0.040 A 
ATOM      4  C   LIG    1       -5.962   3.374   1.074  0.00  0.00    +0.040 A 
ATOM      5  O   LIG    1       -7.224   3.862   0.895  0.00  0.00    -0.310 OA
ATOM      6  C   LIG    1       -7.668   3.327  -0.366  0.00  0.00    +0.440 C 
ATOM      7  O   LIG    1       -6.925   2.100  -0.498  0.00  0.00    -0.310 OA
ATOM      8  C   LIG    1       -5.778   2.291   0.217  0.00  0.00    +0.040 A 
ATOM      9  C   LIG    1       -4.566   1.620   0.205  0.00  0.00    +0.050 A 
ENDROOT
BRANCH   1  10
ATOM     10  C   LIG    1       -2.231   1.282   1.040  0.00  0.00    +0.130 C 
BRANCH  10  11
ATOM     11  C   LIG    1       -1.293   1.929   0.019  0.00  0.00    +0.270 C 
BRANCH  11  13
ATOM     12  O   LIG    1        0.002  -0.004   0.002  0.00  0.00    -0.160 OA
ATOM     13  N   LIG    1       -0.014   1.214   0.009  0.00  0.00    -0.020 N 
ATOM     14  O   LIG    1        1.032   1.837   0.002  0.00  0.00    -0.160 OA
ENDBRANCH  11  13
ENDBRANCH  10  11
ENDBRANCH   1  10
TORSDOF 3
