REMARK  Name = ZINC000611756983
REMARK                            x       y       z     vdW  Elec       q    Type
REMARK                         _______ _______ _______ _____ _____    ______ ____
ROOT
ATOM      1  N   LIG    1        1.555  -3.724  -2.678  0.00  0.00    -0.350 N 
ATOM      2  C   LIG    1        1.129  -4.466  -3.722  0.00  0.00    +0.370 A 
ATOM      3  C   LIG    1        1.378  -5.765  -3.434  0.00  0.00    -0.190 A 
ATOM      4  C   LIG    1        1.976  -5.818  -2.171  0.00  0.00    +0.140 A 
ATOM      5  C   LIG    1        2.422  -7.068  -1.456  0.00  0.00    +0.190 C 
ATOM      6  N   LIG    1        2.088  -4.595  -1.719  0.00  0.00    -0.270 NA
ENDROOT
BRANCH   3   7
ATOM      7  N   LIG    1        1.072  -6.924  -4.302  0.00  0.00    +0.070 N 
ATOM      8  O   LIG    1        1.345  -8.051  -3.932  0.00  0.00    -0.160 OA
ATOM      9  O   LIG    1        0.547  -6.750  -5.387  0.00  0.00    -0.170 OA
ENDBRANCH   3   7
BRANCH   1  10
ATOM     10  C   LIG    1        1.478  -2.265  -2.569  0.00  0.00    +0.360 C 
BRANCH  10  11
ATOM     11  C   LIG    1        0.746  -1.888  -1.280  0.00  0.00    +0.180 C 
BRANCH  11  12
ATOM     12  O   LIG    1        0.671  -0.465  -1.174  0.00  0.00    -0.390 OA
BRANCH  12  14
ATOM     13  C   LIG    1       -0.019   1.526   0.010  0.00  0.00    +0.060 C 
ATOM     14  C   LIG    1        0.002  -0.004   0.002  0.00  0.00    +0.160 C 
ENDBRANCH  12  14
ENDBRANCH  11  12
ENDBRANCH  10  11
ENDBRANCH   1  10
TORSDOF 5
