REMARK  Name = ZINC000379383907
REMARK                            x       y       z     vdW  Elec       q    Type
REMARK                         _______ _______ _______ _____ _____    ______ ____
ROOT
ATOM      1  C   LIG    1        1.210  -4.335  -1.472  0.00  0.00    +0.060 C 
ENDROOT
BRANCH   1   2
ATOM      2  C   LIG    1        1.032  -3.869  -0.026  0.00  0.00    +0.110 C 
BRANCH   2   7
ATOM      3  C   LIG    1       -0.018   1.503   0.010  0.00  0.00    +0.150 C 
ATOM      4  C   LIG    1        0.002  -0.004   0.002  0.00  0.00    -0.180 A 
ATOM      5  C   LIG    1       -1.077  -0.788   0.003  0.00  0.00    +0.000 A 
ATOM      6  C   LIG    1       -0.812  -2.146  -0.006  0.00  0.00    +0.010 A 
ATOM      7  C   LIG    1        0.483  -2.466  -0.015  0.00  0.00    -0.180 A 
ATOM      8  S   LIG    1        1.453  -0.998  -0.018  0.00  0.00    +0.100 S 
ENDBRANCH   2   7
ENDBRANCH   1   2
BRANCH   1   9
ATOM      9  C   LIG    1        1.767  -5.760  -1.484  0.00  0.00    +0.070 C 
BRANCH   9  10
ATOM     10  C   LIG    1        1.943  -6.219  -2.909  0.00  0.00    +0.520 C 
ATOM     11  N   LIG    1        2.424  -7.452  -3.165  0.00  0.00    -0.600 N 
ATOM     12  H   LIG    1        2.657  -8.043  -2.433  0.00  0.00    +0.410 HD
ATOM     13  O   LIG    1        1.652  -5.479  -3.825  0.00  0.00    -0.520 OA
BRANCH  11  14
ATOM     14  O   LIG    1        2.590  -7.883  -4.504  0.00  0.00    -0.320 OA
ATOM     15  H   LIG    1        2.940  -8.780  -4.588  0.00  0.00    +0.390 HD
ENDBRANCH  11  14
ENDBRANCH   9  10
ENDBRANCH   1   9
TORSDOF 5
