REMARK  Name = ZINC000603460310
REMARK                            x       y       z     vdW  Elec       q    Type
REMARK                         _______ _______ _______ _____ _____    ______ ____
ROOT
ATOM      1  N   LIG    1       -3.898  -1.421  -2.491  0.00  0.00    -0.450 N 
ATOM      2  C   LIG    1       -4.582  -0.508  -3.215  0.00  0.00    +0.460 A 
ATOM      3  N   LIG    1       -4.932  -1.050  -4.349  0.00  0.00    -0.450 NA
ATOM      4  C   LIG    1       -4.488  -2.315  -4.391  0.00  0.00    +0.040 A 
ATOM      5  C   LIG    1       -3.834  -2.564  -3.240  0.00  0.00    +0.270 A 
ENDROOT
BRANCH   4   6
ATOM      6  N   LIG    1       -4.678  -3.267  -5.508  0.00  0.00    +0.060 N 
ATOM      7  O   LIG    1       -4.226  -4.395  -5.430  0.00  0.00    -0.160 OA
ATOM      8  O   LIG    1       -5.286  -2.922  -6.505  0.00  0.00    -0.130 OA
ENDBRANCH   4   6
BRANCH   1   9
ATOM      9  C   LIG    1       -3.326  -1.221  -1.157  0.00  0.00    +0.330 C 
BRANCH   9  10
ATOM     10  C   LIG    1       -1.896  -0.693  -1.289  0.00  0.00    +0.170 C 
BRANCH  10  11
ATOM     11  O   LIG    1       -1.339  -0.499   0.012  0.00  0.00    -0.380 OA
BRANCH  11  13
ATOM     12  C   LIG    1       -0.019   1.526   0.010  0.00  0.00    +0.020 C 
ATOM     13  C   LIG    1        0.002  -0.004   0.002  0.00  0.00    +0.140 C 
ATOM     14  C   LIG    1        0.742  -0.511   1.242  0.00  0.00    +0.050 C 
ENDBRANCH  11  13
ENDBRANCH  10  11
ENDBRANCH   9  10
ENDBRANCH   1   9
TORSDOF 5
