REMARK  Name = ZINC000142960199
REMARK                            x       y       z     vdW  Elec       q    Type
REMARK                         _______ _______ _______ _____ _____    ______ ____
ROOT
ATOM      1  C   LIG    1       -1.262  -0.757   0.010  0.00  0.00    -0.180 A 
ATOM      2  C   LIG    1       -1.258  -2.160   0.008  0.00  0.00    +0.160 A 
ATOM      3  C   LIG    1       -2.474  -2.819   0.017  0.00  0.00    +0.070 A 
ATOM      4  C   LIG    1       -3.644  -2.081   0.026  0.00  0.00    +0.200 A 
ATOM      5  N   LIG    1       -3.620  -0.762   0.028  0.00  0.00    -0.440 NA
ATOM      6  C   LIG    1       -2.490  -0.087   0.025  0.00  0.00    +0.360 A 
ENDROOT
BRANCH   1   8
ATOM      7  C   LIG    1       -0.018   1.503   0.010  0.00  0.00    +0.100 C 
ATOM      8  C   LIG    1        0.002  -0.004   0.002  0.00  0.00    +0.400 C 
ATOM      9  O   LIG    1        1.060  -0.596  -0.011  0.00  0.00    -0.430 OA
ENDBRANCH   1   8
BRANCH   4  10
ATOM     10  N   LIG    1       -4.947  -2.784   0.035  0.00  0.00    +0.020 N 
ATOM     11  O   LIG    1       -5.984  -2.146   0.044  0.00  0.00    -0.110 OA
ATOM     12  O   LIG    1       -4.981  -4.002   0.034  0.00  0.00    -0.140 OA
ENDBRANCH   4  10
TORSDOF 2
