REMARK  Name = ZINC000609586151
REMARK                            x       y       z     vdW  Elec       q    Type
REMARK                         _______ _______ _______ _____ _____    ______ ____
ROOT
ATOM      1  C   LIG    1       -1.627  -2.143  -0.105  0.00  0.00    +0.390 A 
ATOM      2  N   LIG    1       -1.099  -2.909  -1.048  0.00  0.00    -0.510 NA
ATOM      3  C   LIG    1       -1.282  -4.216  -1.060  0.00  0.00    +0.350 A 
ATOM      4  C   LIG    1       -2.035  -4.835  -0.082  0.00  0.00    -0.020 A 
ATOM      5  C   LIG    1       -2.606  -4.067   0.924  0.00  0.00    +0.180 A 
ATOM      6  C   LIG    1       -2.393  -2.701   0.913  0.00  0.00    -0.110 A 
ENDROOT
BRANCH   6   7
ATOM      7  N   LIG    1       -2.932  -1.914   1.876  0.00  0.00    +0.070 N 
ATOM      8  O   LIG    1       -2.836  -0.703   1.798  0.00  0.00    -0.110 OA
ATOM      9  O   LIG    1       -3.513  -2.419   2.820  0.00  0.00    -0.220 OA
ENDBRANCH   6   7
BRANCH   1  10
ATOM     10  N   LIG    1       -1.409  -0.771  -0.131  0.00  0.00    -0.480 N 
ATOM     11  C   LIG    1       -1.937  -0.177  -1.366  0.00  0.00    +0.240 C 
BRANCH  10  13
ATOM     12  C   LIG    1        0.202   1.054   0.138  0.00  0.00    +0.050 C 
ATOM     13  C   LIG    1        0.018  -0.462   0.033  0.00  0.00    +0.140 C 
ATOM     14  C   LIG    1        0.541  -1.128   1.307  0.00  0.00    +0.030 C 
ENDBRANCH  10  13
ENDBRANCH   1  10
TORSDOF 3
