REMARK  Name = ZINC000918378673
REMARK                            x       y       z     vdW  Elec       q    Type
REMARK                         _______ _______ _______ _____ _____    ______ ____
ROOT
ATOM      1  N   LIG    1       -2.779  -3.090   0.012  0.00  0.00    -0.400 N 
ATOM      2  C   LIG    1       -3.497  -3.456   1.119  0.00  0.00    +0.230 A 
ATOM      3  C   LIG    1       -4.634  -4.026   0.675  0.00  0.00    +0.200 A 
ATOM      4  N   LIG    1       -4.611  -4.008  -0.666  0.00  0.00    -0.390 NA
ATOM      5  C   LIG    1       -3.506  -3.445  -1.070  0.00  0.00    +0.240 A 
ENDROOT
BRANCH   5   6
ATOM      6  N   LIG    1       -3.109  -3.237  -2.481  0.00  0.00    +0.070 N 
ATOM      7  O   LIG    1       -2.049  -2.696  -2.743  0.00  0.00    -0.150 OA
ATOM      8  O   LIG    1       -3.843  -3.605  -3.381  0.00  0.00    -0.090 OA
ENDBRANCH   5   6
BRANCH   1   9
ATOM      9  C   LIG    1       -1.471  -2.431   0.003  0.00  0.00    +0.360 C 
BRANCH   9  10
ATOM     10  S   LIG    1       -1.700  -0.632   0.015  0.00  0.00    -0.240 S 
BRANCH  10  12
ATOM     11  C   LIG    1       -0.019   1.526   0.010  0.00  0.00    +0.080 C 
ATOM     12  C   LIG    1        0.002  -0.004   0.002  0.00  0.00    +0.100 C 
ENDBRANCH  10  12
ENDBRANCH   9  10
ENDBRANCH   1   9
TORSDOF 4
