REMARK  Name = ZINC000307415669
REMARK                            x       y       z     vdW  Elec       q    Type
REMARK                         _______ _______ _______ _____ _____    ______ ____
ROOT
ATOM      1  N   LIG    1       -1.372  -0.511   0.012  0.00  0.00    -0.490 N 
ATOM      2  C   LIG    1       -1.993  -0.745   1.197  0.00  0.00    +0.380 A 
ATOM      3  C   LIG    1       -3.262  -1.213   1.232  0.00  0.00    -0.080 A 
ATOM      4  C   LIG    1       -3.949  -1.462   0.036  0.00  0.00    +0.120 A 
ATOM      5  C   LIG    1       -3.325  -1.227  -1.153  0.00  0.00    -0.200 A 
ATOM      6  C   LIG    1       -5.363  -1.984   0.064  0.00  0.00    +0.140 C 
ATOM      7  C   LIG    1       -2.008  -0.735  -1.153  0.00  0.00    +0.540 A 
ATOM      8  O   LIG    1       -1.437  -0.520  -2.211  0.00  0.00    -0.490 OA
ENDROOT
BRANCH   5   9
ATOM      9  N   LIG    1       -4.028  -1.481  -2.430  0.00  0.00    +0.050 N 
ATOM     10  O   LIG    1       -3.464  -1.269  -3.489  0.00  0.00    -0.140 OA
ATOM     11  O   LIG    1       -5.170  -1.903  -2.423  0.00  0.00    -0.180 OA
ENDBRANCH   5   9
BRANCH   1  13
ATOM     12  C   LIG    1       -0.019   1.526   0.010  0.00  0.00    +0.040 C 
ATOM     13  C   LIG    1        0.002  -0.004   0.002  0.00  0.00    +0.290 C 
ENDBRANCH   1  13
TORSDOF 2
