REMARK  Name = ZINC000899885187
REMARK                            x       y       z     vdW  Elec       q    Type
REMARK                         _______ _______ _______ _____ _____    ______ ____
ROOT
ATOM      1  N   LIG    1       -2.517   3.780   1.055  0.00  0.00    -0.470 NA
ATOM      2  C   LIG    1       -3.414   3.244   2.095  0.00  0.00    +0.150 C 
ATOM      3  C   LIG    1       -3.813   4.691   2.418  0.00  0.00    +0.010 C 
ATOM      4  C   LIG    1       -2.424   5.018   1.851  0.00  0.00    +0.180 C 
ENDROOT
BRANCH   3   5
ATOM      5  C   LIG    1       -3.962   4.981   3.913  0.00  0.00    -0.010 C 
ATOM      6  C   LIG    1       -4.490   6.420   4.136  0.00  0.00    +0.020 C 
ATOM      7  C   LIG    1       -5.139   6.333   5.540  0.00  0.00    +0.000 C 
ATOM      8  C   LIG    1       -5.798   4.939   5.566  0.00  0.00    -0.010 C 
ATOM      9  C   LIG    1       -5.050   4.079   4.532  0.00  0.00    +0.010 C 
ENDBRANCH   3   5
BRANCH   1  10
ATOM     10  C   LIG    1       -1.235   3.063   1.045  0.00  0.00    +0.170 C 
BRANCH  10  11
ATOM     11  C   LIG    1       -1.293   1.929   0.019  0.00  0.00    +0.270 C 
BRANCH  11  13
ATOM     12  O   LIG    1        0.002  -0.004   0.002  0.00  0.00    -0.160 OA
ATOM     13  N   LIG    1       -0.014   1.214   0.009  0.00  0.00    -0.020 N 
ATOM     14  O   LIG    1        1.032   1.837   0.002  0.00  0.00    -0.160 OA
ENDBRANCH  11  13
ENDBRANCH  10  11
ENDBRANCH   1  10
TORSDOF 4
