REMARK  Name = ZINC000096347604
REMARK                            x       y       z     vdW  Elec       q    Type
REMARK                         _______ _______ _______ _____ _____    ______ ____
ROOT
ATOM      1  C   LIG    1        0.628  -0.702   1.042  0.00  0.00    +0.200 A 
ATOM      2  C   LIG    1        1.224  -0.008   2.084  0.00  0.00    -0.010 A 
ATOM      3  C   LIG    1        1.842  -0.699   3.111  0.00  0.00    +0.100 A 
ATOM      4  C   LIG    1        1.867  -2.081   3.102  0.00  0.00    -0.060 A 
ATOM      5  C   LIG    1        1.274  -2.781   2.067  0.00  0.00    +0.050 A 
ATOM      6  C   LIG    1        0.648  -2.096   1.037  0.00  0.00    +0.150 A 
ENDROOT
BRANCH   1   8
ATOM      7  C   LIG    1       -0.018   1.461   0.010  0.00  0.00    +0.290 C 
ATOM      8  N   LIG    1        0.002  -0.004   0.002  0.00  0.00    -0.740 N 
ATOM      9  H   LIG    1       -0.418  -0.491  -0.724  0.00  0.00    +0.400 HD
ENDBRANCH   1   8
BRANCH   4  10
ATOM     10  N   LIG    1        2.529  -2.814   4.204  0.00  0.00    +0.040 N 
ATOM     11  O   LIG    1        2.552  -4.031   4.199  0.00  0.00    -0.170 OA
ATOM     12  O   LIG    1        3.052  -2.199   5.117  0.00  0.00    -0.170 OA
ENDBRANCH   4  10
BRANCH   6  13
ATOM     13  N   LIG    1        0.047  -2.803  -0.012  0.00  0.00    -0.750 N 
ATOM     14  H   LIG    1       -0.391  -2.323  -0.732  0.00  0.00    +0.400 HD
ATOM     15  C   LIG    1        0.079  -4.268  -0.022  0.00  0.00    +0.290 C 
ENDBRANCH   6  13
TORSDOF 3
