REMARK  Name = ZINC000055483561
REMARK                            x       y       z     vdW  Elec       q    Type
REMARK                         _______ _______ _______ _____ _____    ______ ____
ROOT
ATOM      1  N   LIG    1       -2.020  -4.495  -0.003  0.00  0.00    -0.450 N 
ATOM      2  C   LIG    1       -1.867  -5.274  -1.095  0.00  0.00    +0.460 A 
ATOM      3  N   LIG    1       -1.622  -6.495  -0.708  0.00  0.00    -0.450 NA
ATOM      4  C   LIG    1       -1.609  -6.540   0.633  0.00  0.00    +0.040 A 
ATOM      5  C   LIG    1       -1.850  -5.297   1.093  0.00  0.00    +0.270 A 
ENDROOT
BRANCH   4   6
ATOM      6  N   LIG    1       -1.366  -7.742   1.461  0.00  0.00    +0.060 N 
ATOM      7  O   LIG    1       -1.379  -7.658   2.676  0.00  0.00    -0.160 OA
ATOM      8  O   LIG    1       -1.152  -8.816   0.927  0.00  0.00    -0.130 OA
ENDBRANCH   4   6
BRANCH   1   9
ATOM      9  C   LIG    1       -2.307  -3.058   0.008  0.00  0.00    +0.320 C 
BRANCH   9  10
ATOM     10  C   LIG    1       -0.993  -2.276  -0.001  0.00  0.00    +0.030 C 
BRANCH  10  11
ATOM     11  C   LIG    1       -1.293  -0.775   0.010  0.00  0.00    +0.050 C 
BRANCH  11  13
ATOM     12  C   LIG    1       -0.018   1.503   0.010  0.00  0.00    +0.050 C 
ATOM     13  C   LIG    1        0.002  -0.004   0.002  0.00  0.00    +0.350 C 
ATOM     14  O   LIG    1        1.056  -0.594  -0.011  0.00  0.00    -0.450 OA
ENDBRANCH  11  13
ENDBRANCH  10  11
ENDBRANCH   9  10
ENDBRANCH   1   9
TORSDOF 5
