REMARK  Name = ZINC000095735588
REMARK                            x       y       z     vdW  Elec       q    Type
REMARK                         _______ _______ _______ _____ _____    ______ ____
ROOT
ATOM      1  C   LIG    1       -0.071   1.447  -0.023  0.00  0.00    +0.170 C 
ATOM      2  C   LIG    1        0.249  -0.025   0.013  0.00  0.00    +0.130 A 
ATOM      3  N   LIG    1        0.502  -0.665  -1.111  0.00  0.00    -0.400 NA
ATOM      4  C   LIG    1        0.788  -1.952  -1.128  0.00  0.00    +0.130 A 
ATOM      5  C   LIG    1        0.833  -2.685   0.043  0.00  0.00    +0.110 A 
ATOM      6  C   LIG    1        0.573  -2.051   1.248  0.00  0.00    +0.010 A 
ATOM      7  C   LIG    1        0.281  -0.691   1.230  0.00  0.00    +0.140 A 
ENDROOT
BRANCH   4   8
ATOM      8  N   LIG    1        1.064  -2.622  -2.419  0.00  0.00    +0.030 N 
ATOM      9  O   LIG    1        1.329  -3.811  -2.444  0.00  0.00    -0.160 OA
ATOM     10  O   LIG    1        1.027  -1.984  -3.456  0.00  0.00    -0.120 OA
ENDBRANCH   4   8
BRANCH   7  11
ATOM     11  O   LIG    1        0.020  -0.027   2.386  0.00  0.00    -0.260 OA
BRANCH  11  12
ATOM     12  C   LIG    1       -0.081  -0.811   3.576  0.00  0.00    +0.110 C 
ATOM     13  C   LIG    1        0.656  -0.307   4.819  0.00  0.00    +0.040 C 
ATOM     14  C   LIG    1       -0.870  -0.221   4.747  0.00  0.00    +0.060 C 
ENDBRANCH  11  12
ENDBRANCH   7  11
TORSDOF 3
