REMARK  Name = ZINC000307638022
REMARK                            x       y       z     vdW  Elec       q    Type
REMARK                         _______ _______ _______ _____ _____    ______ ____
ROOT
ATOM      1  C   LIG    1       -1.306   1.936   0.019  0.00  0.00    -0.190 A 
ATOM      2  C   LIG    1       -1.467   3.280   0.021  0.00  0.00    +0.350 A 
ATOM      3  N   LIG    1       -2.792   3.536   0.031  0.00  0.00    -0.330 N 
ATOM      4  N   LIG    1       -3.468   2.309   0.034  0.00  0.00    -0.260 NA
ATOM      5  C   LIG    1       -2.577   1.351   0.021  0.00  0.00    +0.320 A 
ENDROOT
BRANCH   3   6
ATOM      6  C   LIG    1       -3.413   4.862   0.036  0.00  0.00    +0.250 C 
ATOM      7  C   LIG    1       -2.427   6.004   0.335  0.00  0.00    +0.060 C 
ATOM      8  C   LIG    1       -2.169   6.072  -1.179  0.00  0.00    +0.020 C 
ATOM      9  C   LIG    1       -3.573   5.473  -1.366  0.00  0.00    +0.050 C 
ENDBRANCH   3   6
BRANCH   1  11
ATOM     10  O   LIG    1        0.002  -0.004   0.002  0.00  0.00    -0.160 OA
ATOM     11  N   LIG    1       -0.014   1.214   0.009  0.00  0.00    +0.070 N 
ATOM     12  O   LIG    1        1.032   1.837   0.002  0.00  0.00    -0.170 OA
ENDBRANCH   1  11
TORSDOF 2
