REMARK  Name = ZINC000306362847
REMARK                            x       y       z     vdW  Elec       q    Type
REMARK                         _______ _______ _______ _____ _____    ______ ____
ROOT
ATOM      1  C   LIG    1       -0.341  -1.508  -1.772  0.00  0.00    +0.040 A 
ATOM      2  C   LIG    1       -1.646  -1.248  -1.945  0.00  0.00    -0.030 A 
ATOM      3  C   LIG    1       -2.358  -2.256  -2.575  0.00  0.00    +0.060 A 
ATOM      4  C   LIG    1       -1.640  -3.327  -2.913  0.00  0.00    +0.000 A 
ATOM      5  S   LIG    1        0.036  -3.093  -2.434  0.00  0.00    +0.180 S 
ENDROOT
BRANCH   2   6
ATOM      6  N   LIG    1       -2.275   0.016  -1.498  0.00  0.00    +0.040 N 
ATOM      7  O   LIG    1       -1.626   0.828  -0.865  0.00  0.00    -0.120 OA
ATOM      8  O   LIG    1       -3.442   0.243  -1.765  0.00  0.00    -0.170 OA
ENDBRANCH   2   6
BRANCH   1   9
ATOM      9  N   LIG    1        0.577  -0.648  -1.166  0.00  0.00    -0.290 N 
ATOM     10  C   LIG    1        1.585  -0.189  -2.131  0.00  0.00    +0.270 C 
BRANCH   9  12
ATOM     11  C   LIG    1        0.905  -0.664   1.237  0.00  0.00    +0.250 C 
ATOM     12  O   LIG    1        1.210  -1.287  -0.012  0.00  0.00    -0.240 OA
ENDBRANCH   9  12
ENDBRANCH   1   9
TORSDOF 3
