REMARK  Name = ZINC000052812173
REMARK                            x       y       z     vdW  Elec       q    Type
REMARK                         _______ _______ _______ _____ _____    ______ ____
ROOT
ATOM      1  C   LIG    1        0.858  -1.855   1.400  0.00  0.00    +0.440 A 
ATOM      2  N   LIG    1        0.361  -2.712   0.522  0.00  0.00    -0.530 NA
ATOM      3  C   LIG    1        0.480  -4.017   0.685  0.00  0.00    +0.420 A 
ATOM      4  C   LIG    1        1.131  -4.537   1.785  0.00  0.00    -0.160 A 
ATOM      5  C   LIG    1        1.668  -3.671   2.729  0.00  0.00    +0.180 A 
ATOM      6  C   LIG    1        1.532  -2.309   2.529  0.00  0.00    -0.200 A 
ATOM      7  C   LIG    1        2.097  -1.331   3.527  0.00  0.00    +0.120 C 
ENDROOT
BRANCH   4   8
ATOM      8  N   LIG    1        1.258  -6.001   1.956  0.00  0.00    +0.040 N 
ATOM      9  O   LIG    1        1.835  -6.453   2.929  0.00  0.00    -0.170 OA
ATOM     10  O   LIG    1        0.786  -6.755   1.123  0.00  0.00    -0.170 OA
ENDBRANCH   4   8
BRANCH   1  11
ATOM     11  N   LIG    1        0.711  -0.489   1.189  0.00  0.00    -0.700 N 
ATOM     12  H   LIG    1        1.077   0.142   1.827  0.00  0.00    +0.410 HD
BRANCH  11  14
ATOM     13  C   LIG    1       -0.019   1.526   0.010  0.00  0.00    +0.030 C 
ATOM     14  C   LIG    1        0.002  -0.004   0.002  0.00  0.00    +0.260 C 
ENDBRANCH  11  14
ENDBRANCH   1  11
TORSDOF 3
