REMARK  Name = ZINC000095830371
REMARK                            x       y       z     vdW  Elec       q    Type
REMARK                         _______ _______ _______ _____ _____    ______ ____
ROOT
ATOM      1  C   LIG    1        0.626  -0.618   1.042  0.00  0.00    +0.220 A 
ATOM      2  C   LIG    1        1.202   0.139   2.051  0.00  0.00    -0.090 A 
ATOM      3  C   LIG    1        1.837  -0.485   3.108  0.00  0.00    +0.030 A 
ATOM      4  C   LIG    1        1.898  -1.864   3.163  0.00  0.00    -0.090 A 
ATOM      5  C   LIG    1        1.323  -2.626   2.156  0.00  0.00    +0.220 A 
ATOM      6  C   LIG    1        2.462   0.340   4.203  0.00  0.00    +0.130 C 
ATOM      7  C   LIG    1        0.682  -2.002   1.097  0.00  0.00    -0.110 A 
ENDROOT
BRANCH   7   8
ATOM      8  N   LIG    1        0.068  -2.813   0.021  0.00  0.00    +0.040 N 
ATOM      9  O   LIG    1        0.723  -3.123  -0.958  0.00  0.00    -0.140 OA
ATOM     10  O   LIG    1       -1.093  -3.170   0.115  0.00  0.00    -0.140 OA
ENDBRANCH   7   8
BRANCH   1  12
ATOM     11  C   LIG    1       -0.017   1.425   0.010  0.00  0.00    +0.270 C 
ATOM     12  O   LIG    1        0.002  -0.004   0.002  0.00  0.00    -0.310 OA
ENDBRANCH   1  12
BRANCH   5  13
ATOM     13  O   LIG    1        1.384  -3.983   2.210  0.00  0.00    -0.310 OA
ATOM     14  C   LIG    1        2.056  -4.557   3.333  0.00  0.00    +0.270 C 
ENDBRANCH   5  13
TORSDOF 3
