REMARK  Name = ZINC000196782046
REMARK                            x       y       z     vdW  Elec       q    Type
REMARK                         _______ _______ _______ _____ _____    ______ ____
ROOT
ATOM      1  C   LIG    1       -1.307   1.937   0.019  0.00  0.00    -0.180 A 
ATOM      2  C   LIG    1       -1.387   3.276   0.021  0.00  0.00    +0.190 A 
ATOM      3  S   LIG    1       -3.077   3.763   0.033  0.00  0.00    +0.180 S 
ATOM      4  C   LIG    1       -3.595   2.083   0.034  0.00  0.00    -0.050 A 
ATOM      5  C   LIG    1       -2.529   1.283   0.021  0.00  0.00    +0.110 A 
ENDROOT
BRANCH   1   7
ATOM      6  O   LIG    1        0.002  -0.004   0.002  0.00  0.00    -0.160 OA
ATOM      7  N   LIG    1       -0.014   1.214   0.009  0.00  0.00    +0.070 N 
ATOM      8  O   LIG    1        1.032   1.837   0.002  0.00  0.00    -0.210 OA
ENDBRANCH   1   7
BRANCH   2   9
ATOM      9  N   LIG    1       -0.297   4.148   0.015  0.00  0.00    -0.670 N 
ATOM     10  H   LIG    1        0.607   3.795   0.008  0.00  0.00    +0.430 HD
BRANCH   9  11
ATOM     11  C   LIG    1       -0.517   5.596   0.018  0.00  0.00    +0.270 C 
BRANCH  11  12
ATOM     12  C   LIG    1        0.832   6.317   0.010  0.00  0.00    +0.190 C 
BRANCH  12  13
ATOM     13  O   LIG    1        1.512   6.041  -1.216  0.00  0.00    -0.570 OA
ATOM     14  H   LIG    1        2.377   6.467  -1.291  0.00  0.00    +0.390 HD
ENDBRANCH  12  13
ENDBRANCH  11  12
ENDBRANCH   9  11
ENDBRANCH   2   9
TORSDOF 5
