REMARK  Name = ZINC000388273860
REMARK                            x       y       z     vdW  Elec       q    Type
REMARK                         _______ _______ _______ _____ _____    ______ ____
ROOT
ATOM      1  C   LIG    1        1.430   0.078  -2.996  0.00  0.00    +0.060 C 
ENDROOT
BRANCH   1   2
ATOM      2  C   LIG    1       -0.008  -0.137  -2.518  0.00  0.00    +0.120 C 
BRANCH   2   5
ATOM      3  C   LIG    1       -0.018   1.503   0.010  0.00  0.00    +0.110 C 
ATOM      4  C   LIG    1        0.002  -0.004   0.002  0.00  0.00    -0.110 A 
ATOM      5  C   LIG    1        0.006  -0.715  -1.126  0.00  0.00    -0.180 A 
ATOM      6  S   LIG    1        0.031  -2.431  -0.742  0.00  0.00    +0.090 S 
ATOM      7  C   LIG    1        0.035  -2.076   0.981  0.00  0.00    -0.050 A 
ATOM      8  C   LIG    1        0.024  -0.755   1.165  0.00  0.00    +0.010 A 
ENDBRANCH   2   5
ENDBRANCH   1   2
BRANCH   1   9
ATOM      9  C   LIG    1        1.415   0.665  -4.408  0.00  0.00    +0.070 C 
BRANCH   9  10
ATOM     10  C   LIG    1        2.831   0.877  -4.879  0.00  0.00    +0.520 C 
ATOM     11  N   LIG    1        3.065   1.388  -6.104  0.00  0.00    -0.600 N 
ATOM     12  H   LIG    1        2.322   1.621  -6.682  0.00  0.00    +0.410 HD
ATOM     13  O   LIG    1        3.760   0.586  -4.155  0.00  0.00    -0.520 OA
BRANCH  11  14
ATOM     14  O   LIG    1        4.395   1.587  -6.546  0.00  0.00    -0.320 OA
ATOM     15  H   LIG    1        4.463   1.958  -7.436  0.00  0.00    +0.390 HD
ENDBRANCH  11  14
ENDBRANCH   9  10
ENDBRANCH   1   9
TORSDOF 5
