REMARK  Name = ZINC000095830373
REMARK                            x       y       z     vdW  Elec       q    Type
REMARK                         _______ _______ _______ _____ _____    ______ ____
ROOT
ATOM      1  C   LIG    1        0.626  -0.618   1.042  0.00  0.00    +0.200 A 
ATOM      2  C   LIG    1        1.202   0.139   2.051  0.00  0.00    -0.060 A 
ATOM      3  C   LIG    1        1.837  -0.485   3.108  0.00  0.00    +0.010 A 
ATOM      4  C   LIG    1        1.899  -1.864   3.163  0.00  0.00    -0.010 A 
ATOM      5  C   LIG    1        1.324  -2.626   2.155  0.00  0.00    +0.200 A 
ATOM      6  C   LIG    1        2.463   0.340   4.203  0.00  0.00    +0.130 C 
ATOM      7  C   LIG    1        0.682  -2.003   1.097  0.00  0.00    -0.100 A 
ENDROOT
BRANCH   7   8
ATOM      8  N   LIG    1        0.068  -2.813   0.021  0.00  0.00    +0.030 N 
ATOM      9  O   LIG    1        0.723  -3.123  -0.958  0.00  0.00    -0.130 OA
ATOM     10  O   LIG    1       -1.093  -3.171   0.115  0.00  0.00    -0.140 OA
ENDBRANCH   7   8
BRANCH   1  12
ATOM     11  C   LIG    1       -0.017   1.425   0.010  0.00  0.00    +0.270 C 
ATOM     12  O   LIG    1        0.002  -0.004   0.002  0.00  0.00    -0.310 OA
ENDBRANCH   1  12
BRANCH   5  13
ATOM     13  O   LIG    1        1.385  -3.983   2.210  0.00  0.00    -0.490 OA
ATOM     14  H   LIG    1        0.641  -4.392   2.673  0.00  0.00    +0.410 HD
ENDBRANCH   5  13
TORSDOF 3
