REMARK  Name = ZINC000905288937
REMARK                            x       y       z     vdW  Elec       q    Type
REMARK                         _______ _______ _______ _____ _____    ______ ____
ROOT
ATOM      1  N   LIG    1       -2.517   3.780   1.055  0.00  0.00    -0.680 NA
ATOM      2  H   LIG    1       -2.749   4.119   0.133  0.00  0.00    +0.350 HD
ENDROOT
BRANCH   1   3
ATOM      3  C   LIG    1       -2.499   4.878   2.030  0.00  0.00    +0.130 C 
ATOM      4  C   LIG    1       -2.865   4.337   3.414  0.00  0.00    +0.040 C 
ATOM      5  C   LIG    1       -2.846   5.481   4.430  0.00  0.00    +0.020 C 
ATOM      6  C   LIG    1       -3.860   6.549   4.015  0.00  0.00    +0.020 C 
ATOM      7  C   LIG    1       -3.493   7.090   2.631  0.00  0.00    +0.020 C 
ATOM      8  C   LIG    1       -3.512   5.946   1.615  0.00  0.00    +0.180 C 
ATOM      9  F   LIG    1       -3.177   6.441   0.350  0.00  0.00    -0.210 F 
ENDBRANCH   1   3
BRANCH   1  10
ATOM     10  C   LIG    1       -1.235   3.063   1.045  0.00  0.00    +0.210 C 
BRANCH  10  11
ATOM     11  C   LIG    1       -1.293   1.929   0.019  0.00  0.00    +0.270 C 
BRANCH  11  13
ATOM     12  O   LIG    1        0.002  -0.004   0.002  0.00  0.00    -0.150 OA
ATOM     13  N   LIG    1       -0.014   1.214   0.009  0.00  0.00    -0.020 N 
ATOM     14  O   LIG    1        1.032   1.837   0.002  0.00  0.00    -0.160 OA
ENDBRANCH  11  13
ENDBRANCH  10  11
ENDBRANCH   1  10
TORSDOF 4
