REMARK  Name = ZINC000601169915
REMARK                            x       y       z     vdW  Elec       q    Type
REMARK                         _______ _______ _______ _____ _____    ______ ____
ROOT
ATOM      1  C   LIG    1       -1.293  -0.522  -0.078  0.00  0.00    +0.130 A 
ATOM      2  C   LIG    1       -2.209  -0.296   0.946  0.00  0.00    +0.050 A 
ATOM      3  C   LIG    1       -3.481  -0.830   0.820  0.00  0.00    +0.060 A 
ATOM      4  C   LIG    1       -3.798  -1.563  -0.308  0.00  0.00    +0.300 A 
ATOM      5  N   LIG    1       -2.907  -1.759  -1.261  0.00  0.00    -0.410 NA
ATOM      6  C   LIG    1       -1.688  -1.265  -1.184  0.00  0.00    +0.160 A 
ENDROOT
BRANCH   6   7
ATOM      7  N   LIG    1       -0.807  -1.492  -2.188  0.00  0.00    +0.060 N 
ATOM      8  O   LIG    1        0.321  -1.038  -2.124  0.00  0.00    -0.120 OA
ATOM      9  O   LIG    1       -1.144  -2.151  -3.156  0.00  0.00    -0.170 OA
ENDBRANCH   6   7
BRANCH   1  11
ATOM     10  C   LIG    1       -0.018   1.465   0.010  0.00  0.00    +0.230 C 
ATOM     11  N   LIG    1        0.002  -0.004   0.002  0.00  0.00    -0.490 N 
BRANCH  11  12
ATOM     12  C   LIG    1        0.706  -0.527   1.180  0.00  0.00    +0.180 C 
BRANCH  12  13
ATOM     13  C   LIG    1        2.185  -0.143   1.103  0.00  0.00    +0.250 C 
ATOM     14  F   LIG    1        2.856  -0.641   2.225  0.00  0.00    -0.210 F 
ENDBRANCH  12  13
ENDBRANCH  11  12
ENDBRANCH   1  11
TORSDOF 4
