REMARK  Name = ZINC000930183628
REMARK                            x       y       z     vdW  Elec       q    Type
REMARK                         _______ _______ _______ _____ _____    ______ ____
ROOT
ATOM      1  C   LIG    1       -0.019   1.526   0.010  0.00  0.00    +0.010 C 
ATOM      2  C   LIG    1        0.002  -0.004   0.002  0.00  0.00    +0.220 C 
ENDROOT
BRANCH   2   3
ATOM      3  C   LIG    1       -1.412  -0.526   0.013  0.00  0.00    -0.070 A 
ATOM      4  C   LIG    1       -2.123  -0.571   1.197  0.00  0.00    +0.020 A 
ATOM      5  C   LIG    1       -3.420  -1.049   1.207  0.00  0.00    +0.000 A 
ATOM      6  C   LIG    1       -4.006  -1.482   0.032  0.00  0.00    +0.000 A 
ATOM      7  C   LIG    1       -3.295  -1.436  -1.153  0.00  0.00    +0.000 A 
ATOM      8  C   LIG    1       -2.000  -0.954  -1.163  0.00  0.00    +0.010 A 
ENDBRANCH   2   3
BRANCH   2   9
ATOM      9  N   LIG    1        0.713  -0.491   1.192  0.00  0.00    -0.680 NA
ATOM     10  H   LIG    1        0.492   0.072   2.000  0.00  0.00    +0.350 HD
BRANCH   9  11
ATOM     11  C   LIG    1        2.162  -0.532   0.959  0.00  0.00    +0.210 C 
BRANCH  11  12
ATOM     12  C   LIG    1        2.866  -1.043   2.218  0.00  0.00    +0.270 C 
BRANCH  12  13
ATOM     13  N   LIG    1        4.312  -1.085   1.986  0.00  0.00    -0.020 N 
ATOM     14  O   LIG    1        4.749  -1.546   0.946  0.00  0.00    -0.160 OA
ATOM     15  O   LIG    1        5.078  -0.659   2.832  0.00  0.00    -0.160 OA
ENDBRANCH  12  13
ENDBRANCH  11  12
ENDBRANCH   9  11
ENDBRANCH   2   9
TORSDOF 5
