REMARK  Name = ZINC000877887722
REMARK                            x       y       z     vdW  Elec       q    Type
REMARK                         _______ _______ _______ _____ _____    ______ ____
ROOT
ATOM      1  N   LIG    1        2.860  -3.074   1.490  0.00  0.00    -0.330 N 
ATOM      2  N   LIG    1        2.913  -2.928   2.882  0.00  0.00    -0.220 NA
ATOM      3  C   LIG    1        2.976  -4.121   3.415  0.00  0.00    +0.260 A 
ATOM      4  C   LIG    1        2.964  -5.063   2.382  0.00  0.00    +0.020 A 
ATOM      5  C   LIG    1        2.887  -4.393   1.208  0.00  0.00    +0.110 A 
ENDROOT
BRANCH   5   6
ATOM      6  N   LIG    1        2.848  -4.999  -0.142  0.00  0.00    +0.050 N 
ATOM      7  O   LIG    1        2.777  -4.286  -1.127  0.00  0.00    -0.150 OA
ATOM      8  O   LIG    1        2.887  -6.210  -0.267  0.00  0.00    -0.120 OA
ENDBRANCH   5   6
BRANCH   1   9
ATOM      9  C   LIG    1        2.783  -1.985   0.512  0.00  0.00    +0.350 C 
BRANCH   9  13
ATOM     10  C   LIG    1       -0.019   1.526   0.010  0.00  0.00    +0.040 C 
ATOM     11  C   LIG    1        0.002  -0.004   0.002  0.00  0.00    -0.030 C 
ATOM     12  C   LIG    1        1.120  -0.600  -0.870  0.00  0.00    +0.050 C 
ATOM     13  C   LIG    1        1.315  -1.650   0.237  0.00  0.00    -0.040 C 
ATOM     14  C   LIG    1        0.727  -0.617   1.212  0.00  0.00    +0.030 C 
ENDBRANCH   9  13
ENDBRANCH   1   9
TORSDOF 3
