REMARK  Name = ZINC000918388073
REMARK                            x       y       z     vdW  Elec       q    Type
REMARK                         _______ _______ _______ _____ _____    ______ ____
ROOT
ATOM      1  C   LIG    1       -1.306   1.936   0.019  0.00  0.00    +0.230 A 
ATOM      2  N   LIG    1       -1.452   3.233   0.021  0.00  0.00    -0.400 NA
ATOM      3  C   LIG    1       -2.760   3.531   0.030  0.00  0.00    +0.190 A 
ATOM      4  C   LIG    1       -3.451   2.375   0.034  0.00  0.00    +0.220 A 
ATOM      5  N   LIG    1       -2.529   1.363   0.021  0.00  0.00    -0.410 N 
ENDROOT
BRANCH   1   7
ATOM      6  O   LIG    1        0.002  -0.004   0.002  0.00  0.00    -0.150 OA
ATOM      7  N   LIG    1       -0.014   1.214   0.009  0.00  0.00    +0.070 N 
ATOM      8  O   LIG    1        1.032   1.837   0.002  0.00  0.00    -0.100 OA
ENDBRANCH   1   7
BRANCH   5   9
ATOM      9  C   LIG    1       -2.815  -0.074   0.020  0.00  0.00    +0.370 C 
BRANCH   9  10
ATOM     10  C   LIG    1       -2.777  -0.595   1.434  0.00  0.00    -0.170 C 
ATOM     11  C   LIG    1       -3.826  -0.733   2.198  0.00  0.00    +0.010 C 
ATOM     12  C   LIG    1       -3.443  -1.280   3.554  0.00  0.00    +0.050 C 
ATOM     13  C   LIG    1       -2.021  -1.854   3.359  0.00  0.00    +0.040 C 
ATOM     14  C   LIG    1       -1.520  -1.032   2.150  0.00  0.00    +0.060 C 
ENDBRANCH   9  10
ENDBRANCH   5   9
TORSDOF 3
