REMARK  Name = ZINC000040454307
REMARK                            x       y       z     vdW  Elec       q    Type
REMARK                         _______ _______ _______ _____ _____    ______ ____
ROOT
ATOM      1  C   LIG    1       -2.069  -0.646  -1.176  0.00  0.00    +0.590 A 
ATOM      2  N   LIG    1       -1.476  -0.318  -2.314  0.00  0.00    -0.550 NA
ATOM      3  C   LIG    1       -2.114  -0.435  -3.467  0.00  0.00    +0.470 A 
ATOM      4  C   LIG    1       -3.417  -0.908  -3.474  0.00  0.00    -0.230 A 
ATOM      5  C   LIG    1       -4.006  -1.243  -2.265  0.00  0.00    +0.480 A 
ATOM      6  N   LIG    1       -3.311  -1.106  -1.148  0.00  0.00    -0.560 NA
ENDROOT
BRANCH   4   7
ATOM      7  N   LIG    1       -4.161  -1.054  -4.745  0.00  0.00    +0.050 N 
ATOM      8  O   LIG    1       -5.306  -1.471  -4.736  0.00  0.00    -0.160 OA
ATOM      9  O   LIG    1       -3.630  -0.756  -5.800  0.00  0.00    -0.160 OA
ENDBRANCH   4   7
BRANCH   1  10
ATOM     10  N   LIG    1       -1.372  -0.511   0.012  0.00  0.00    -0.670 N 
ATOM     11  H   LIG    1       -1.794  -0.752   0.852  0.00  0.00    +0.420 HD
BRANCH  10  13
ATOM     12  C   LIG    1       -0.019   1.526   0.010  0.00  0.00    +0.020 C 
ATOM     13  C   LIG    1        0.002  -0.004   0.002  0.00  0.00    +0.240 C 
ATOM     14  C   LIG    1        0.742  -0.511   1.242  0.00  0.00    +0.040 C 
ENDBRANCH  10  13
ENDBRANCH   1  10
TORSDOF 3
