REMARK  Name = ZINC000142812886
REMARK                            x       y       z     vdW  Elec       q    Type
REMARK                         _______ _______ _______ _____ _____    ______ ____
ROOT
ATOM      1  C   LIG    1        1.463  -2.353  -2.541  0.00  0.00    +0.081 A 
ATOM      2  C   LIG    1        1.646  -3.683  -2.852  0.00  0.00    +0.029 A 
ATOM      3  N   LIG    1        2.309  -3.754  -4.022  0.00  0.00    -0.339 N 
ATOM      4  H   LIG    1        2.565  -4.578  -4.465  0.00  0.00    +0.167 HD
ATOM      5  C   LIG    1        2.571  -2.501  -4.496  0.00  0.00    +0.195 A 
ATOM      6  C   LIG    1        1.184  -4.856  -2.027  0.00  0.00    +0.064 C 
ATOM      7  C   LIG    1        2.074  -1.594  -3.638  0.00  0.00    +0.068 A 
ENDROOT
BRANCH   5   8
ATOM      8  N   LIG    1        3.283  -2.192  -5.756  0.00  0.00    +0.073 N 
ATOM      9  O   LIG    1        3.463  -1.033  -6.085  0.00  0.00    -0.125 OA
ATOM     10  O   LIG    1        3.689  -3.096  -6.464  0.00  0.00    -0.125 OA
ENDBRANCH   5   8
BRANCH   1  11
ATOM     11  C   LIG    1        0.787  -1.806  -1.354  0.00  0.00    +0.341 C 
ATOM     12  O   LIG    1        0.323  -2.558  -0.518  0.00  0.00    -0.245 OA
BRANCH  11  13
ATOM     13  O   LIG    1        0.682  -0.472  -1.193  0.00  0.00    -0.461 OA
BRANCH  13  15
ATOM     14  C   LIG    1       -0.019   1.526   0.010  0.00  0.00    +0.048 C 
ATOM     15  C   LIG    1        0.002  -0.004   0.002  0.00  0.00    +0.229 C 
ENDBRANCH  13  15
ENDBRANCH  11  13
ENDBRANCH   1  11
TORSDOF 4
