REMARK  Name = ZINC000899872292
REMARK                            x       y       z     vdW  Elec       q    Type
REMARK                         _______ _______ _______ _____ _____    ______ ____
ROOT
ATOM      1  N   LIG    1       -3.513   1.999   1.050  0.00  0.00    -0.680 NA
ATOM      2  H   LIG    1       -3.377   2.982   1.235  0.00  0.00    +0.350 HD
ENDROOT
BRANCH   1   3
ATOM      3  C   LIG    1       -2.231   1.282   1.040  0.00  0.00    +0.210 C 
BRANCH   3   4
ATOM      4  C   LIG    1       -1.293   1.929   0.019  0.00  0.00    +0.270 C 
BRANCH   4   6
ATOM      5  O   LIG    1        0.002  -0.004   0.002  0.00  0.00    -0.160 OA
ATOM      6  N   LIG    1       -0.014   1.214   0.009  0.00  0.00    -0.020 N 
ATOM      7  O   LIG    1        1.032   1.837   0.002  0.00  0.00    -0.160 OA
ENDBRANCH   4   6
ENDBRANCH   3   4
ENDBRANCH   1   3
BRANCH   1   8
ATOM      8  C   LIG    1       -4.441   1.405   2.021  0.00  0.00    +0.260 C 
BRANCH   8   9
ATOM      9  C   LIG    1       -5.742   2.165   2.002  0.00  0.00    -0.100 A 
ATOM     10  C   LIG    1       -5.968   3.220   2.787  0.00  0.00    -0.050 A 
ATOM     11  S   LIG    1       -7.586   3.842   2.488  0.00  0.00    +0.110 S 
ATOM     12  C   LIG    1       -7.873   2.598   1.279  0.00  0.00    -0.040 A 
ATOM     13  C   LIG    1       -6.792   1.825   1.166  0.00  0.00    +0.020 A 
ENDBRANCH   8   9
ENDBRANCH   1   8
TORSDOF 5
