REMARK  Name = ZINC000238368801
REMARK                            x       y       z     vdW  Elec       q    Type
REMARK                         _______ _______ _______ _____ _____    ______ ____
ROOT
ATOM      1  C   LIG    1        0.606  -0.607  -1.056  0.00  0.00    +0.080 A 
ATOM      2  C   LIG    1        1.177   0.154  -2.070  0.00  0.00    +0.060 A 
ATOM      3  C   LIG    1        1.782  -0.506  -3.128  0.00  0.00    -0.070 A 
ATOM      4  C   LIG    1        1.798  -1.888  -3.141  0.00  0.00    +0.330 A 
ATOM      5  N   LIG    1        1.246  -2.580  -2.163  0.00  0.00    -0.440 NA
ATOM      6  C   LIG    1        0.666  -1.991  -1.137  0.00  0.00    +0.160 A 
ATOM      7  C   LIG    1        0.051  -2.829  -0.046  0.00  0.00    +0.160 C 
ENDROOT
BRANCH   3   8
ATOM      8  N   LIG    1        2.405   0.260  -4.231  0.00  0.00    +0.030 N 
ATOM      9  O   LIG    1        2.934  -0.327  -5.157  0.00  0.00    -0.140 OA
ATOM     10  O   LIG    1        2.387   1.478  -4.212  0.00  0.00    -0.160 OA
ENDBRANCH   3   8
BRANCH   1  12
ATOM     11  C   LIG    1       -0.017   1.425   0.010  0.00  0.00    +0.250 C 
ATOM     12  O   LIG    1        0.002  -0.004   0.002  0.00  0.00    -0.290 OA
ENDBRANCH   1  12
TORSDOF 2
