REMARK  Name = ZINC000083676273
REMARK                            x       y       z     vdW  Elec       q    Type
REMARK                         _______ _______ _______ _____ _____    ______ ____
ROOT
ATOM      1  C   LIG    1        2.837  -0.272   2.340  0.00  0.00    +0.140 A 
ATOM      2  C   LIG    1        2.374  -1.164   3.295  0.00  0.00    -0.010 A 
ATOM      3  C   LIG    1        3.183  -1.516   4.359  0.00  0.00    +0.080 A 
ATOM      4  C   LIG    1        4.452  -0.980   4.471  0.00  0.00    +0.060 A 
ATOM      5  C   LIG    1        4.916  -0.090   3.520  0.00  0.00    +0.000 A 
ATOM      6  C   LIG    1        4.113   0.261   2.452  0.00  0.00    +0.070 A 
ENDROOT
BRANCH   5   7
ATOM      7  N   LIG    1        6.275   0.482   3.643  0.00  0.00    +0.030 N 
ATOM      8  O   LIG    1        6.684   1.267   2.806  0.00  0.00    -0.150 OA
ATOM      9  O   LIG    1        6.985   0.169   4.582  0.00  0.00    -0.150 OA
ENDBRANCH   5   7
BRANCH   1  10
ATOM     10  O   LIG    1        2.044   0.076   1.292  0.00  0.00    -0.290 OA
BRANCH  10  11
ATOM     11  C   LIG    1        0.742  -0.511   1.242  0.00  0.00    +0.220 C 
BRANCH  11  13
ATOM     12  C   LIG    1       -0.019   1.526   0.010  0.00  0.00    +0.010 C 
ATOM     13  C   LIG    1        0.002  -0.004   0.002  0.00  0.00    +0.180 C 
BRANCH  13  14
ATOM     14  O   LIG    1        0.671  -0.465  -1.174  0.00  0.00    -0.560 OA
ATOM     15  H   LIG    1        0.256  -0.181  -1.999  0.00  0.00    +0.380 HD
ENDBRANCH  13  14
ENDBRANCH  11  13
ENDBRANCH  10  11
ENDBRANCH   1  10
TORSDOF 5
