REMARK  Name = ZINC000610892923
REMARK                            x       y       z     vdW  Elec       q    Type
REMARK                         _______ _______ _______ _____ _____    ______ ____
ROOT
ATOM      1  N   LIG    1        1.936  -4.810  -3.333  0.00  0.00    -0.330 N 
ATOM      2  N   LIG    1        1.326  -5.141  -4.550  0.00  0.00    -0.220 NA
ATOM      3  C   LIG    1        2.240  -5.633  -5.346  0.00  0.00    +0.260 A 
ATOM      4  C   LIG    1        3.461  -5.631  -4.662  0.00  0.00    +0.020 A 
ATOM      5  C   LIG    1        3.247  -5.114  -3.430  0.00  0.00    +0.110 A 
ENDROOT
BRANCH   5   6
ATOM      6  N   LIG    1        4.267  -4.926  -2.374  0.00  0.00    +0.050 N 
ATOM      7  O   LIG    1        3.950  -4.448  -1.299  0.00  0.00    -0.150 OA
ATOM      8  O   LIG    1        5.423  -5.250  -2.579  0.00  0.00    -0.120 OA
ENDBRANCH   5   6
BRANCH   1   9
ATOM      9  C   LIG    1        1.270  -4.229  -2.165  0.00  0.00    +0.340 C 
BRANCH   9  10
ATOM     10  C   LIG    1        1.309  -2.703  -2.261  0.00  0.00    +0.020 C 
BRANCH  10  11
ATOM     11  C   LIG    1        0.613  -2.097  -1.041  0.00  0.00    +0.050 C 
BRANCH  11  12
ATOM     12  C   LIG    1        0.652  -0.570  -1.138  0.00  0.00    +0.160 C 
BRANCH  12  14
ATOM     13  C   LIG    1       -0.017   1.425   0.010  0.00  0.00    +0.200 C 
ATOM     14  O   LIG    1        0.002  -0.004   0.002  0.00  0.00    -0.390 OA
ENDBRANCH  12  14
ENDBRANCH  11  12
ENDBRANCH  10  11
ENDBRANCH   9  10
ENDBRANCH   1   9
TORSDOF 6
