REMARK  Name = ZINC000004347719
REMARK                            x       y       z     vdW  Elec       q    Type
REMARK                         _______ _______ _______ _____ _____    ______ ____
ROOT
ATOM      1  C   LIG    1       -1.306   1.936   0.019  0.00  0.00    -0.110 A 
ATOM      2  C   LIG    1       -1.323   3.319   0.021  0.00  0.00    +0.150 A 
ATOM      3  C   LIG    1       -2.527   3.996   0.030  0.00  0.00    -0.060 A 
ATOM      4  C   LIG    1       -3.721   3.287   0.038  0.00  0.00    +0.300 A 
ATOM      5  C   LIG    1       -3.700   1.898   0.036  0.00  0.00    -0.060 A 
ATOM      6  C   LIG    1       -2.493   1.227   0.021  0.00  0.00    +0.150 A 
ENDROOT
BRANCH   4   7
ATOM      7  N   LIG    1       -4.940   3.969   0.048  0.00  0.00    -0.650 N 
ATOM      8  C   LIG    1       -5.366   5.377   0.046  0.00  0.00    +0.270 C 
ATOM      9  C   LIG    1       -6.650   4.932   0.759  0.00  0.00    +0.050 C 
ATOM     10  C   LIG    1       -6.362   3.595   0.057  0.00  0.00    +0.270 C 
ENDBRANCH   4   7
BRANCH   1  12
ATOM     11  O   LIG    1        0.002  -0.004   0.002  0.00  0.00    -0.180 OA
ATOM     12  N   LIG    1       -0.014   1.214   0.009  0.00  0.00    +0.040 N 
ATOM     13  O   LIG    1        1.032   1.837   0.002  0.00  0.00    -0.180 OA
ENDBRANCH   1  12
TORSDOF 2
