REMARK  Name = ZINC000095929604
REMARK                            x       y       z     vdW  Elec       q    Type
REMARK                         _______ _______ _______ _____ _____    ______ ____
ROOT
ATOM      1  C   LIG    1       -1.340   1.917   0.258  0.00  0.00    +0.180 A 
ATOM      2  N   LIG    1       -1.352   3.231   0.360  0.00  0.00    -0.420 NA
ATOM      3  C   LIG    1       -2.447   3.935   0.149  0.00  0.00    +0.320 A 
ATOM      4  C   LIG    1       -3.635   3.315  -0.190  0.00  0.00    +0.060 A 
ATOM      5  C   LIG    1       -3.668   1.935  -0.309  0.00  0.00    +0.110 A 
ATOM      6  C   LIG    1       -2.493   1.224  -0.085  0.00  0.00    +0.150 A 
ENDROOT
BRANCH   6   7
ATOM      7  N   LIG    1       -2.476  -0.175  -0.193  0.00  0.00    -0.430 N 
ATOM      8  C   LIG    1       -3.274  -1.055   0.491  0.00  0.00    +0.130 A 
ATOM      9  C   LIG    1       -2.927  -2.291   0.086  0.00  0.00    +0.170 A 
ATOM     10  N   LIG    1       -1.946  -2.175  -0.821  0.00  0.00    -0.470 NA
ATOM     11  C   LIG    1       -1.670  -0.912  -1.000  0.00  0.00    +0.420 A 
ENDBRANCH   6   7
BRANCH   1  13
ATOM     12  O   LIG    1        0.990   1.735   0.377  0.00  0.00    -0.110 OA
ATOM     13  N   LIG    1       -0.084   1.175   0.504  0.00  0.00    +0.020 N 
ATOM     14  O   LIG    1       -0.124   0.004   0.838  0.00  0.00    -0.130 OA
ENDBRANCH   1  13
TORSDOF 2
