REMARK  Name = ZINC000001621962
REMARK                            x       y       z     vdW  Elec       q    Type
REMARK                         _______ _______ _______ _____ _____    ______ ____
ROOT
ATOM      1  C   LIG    1       -1.306   1.936   0.019  0.00  0.00    +0.080 A 
ATOM      2  N   LIG    1       -1.316   3.262   0.021  0.00  0.00    -0.160 NA
ATOM      3  N   LIG    1       -2.395   3.960   0.029  0.00  0.00    -0.160 NA
ATOM      4  C   LIG    1       -3.597   3.378   0.036  0.00  0.00    +0.080 A 
ATOM      5  C   LIG    1       -4.784   4.130   0.044  0.00  0.00    +0.080 A 
ATOM      6  C   LIG    1       -5.986   3.491   0.051  0.00  0.00    +0.080 A 
ATOM      7  C   LIG    1       -6.062   2.099   0.050  0.00  0.00    +0.070 A 
ATOM      8  C   LIG    1       -4.933   1.336   0.042  0.00  0.00    +0.060 A 
ATOM      9  C   LIG    1       -3.678   1.962   0.035  0.00  0.00    -0.070 A 
ATOM     10  C   LIG    1       -2.476   1.229   0.021  0.00  0.00    +0.160 A 
ENDROOT
BRANCH   1  12
ATOM     11  O   LIG    1        0.002  -0.004   0.002  0.00  0.00    -0.150 OA
ATOM     12  N   LIG    1       -0.014   1.214   0.009  0.00  0.00    +0.030 N 
ATOM     13  O   LIG    1        1.032   1.837   0.002  0.00  0.00    -0.100 OA
ENDBRANCH   1  12
TORSDOF 1
