REMARK  Name = ZINC000902299410
REMARK                            x       y       z     vdW  Elec       q    Type
REMARK                         _______ _______ _______ _____ _____    ______ ____
ROOT
ATOM      1  C   LIG    1        0.965  -1.892  -1.662  0.00  0.00    -0.050 A 
ATOM      2  C   LIG    1        2.099  -2.565  -1.234  0.00  0.00    +0.100 A 
ATOM      3  C   LIG    1        2.166  -3.936  -1.432  0.00  0.00    +0.040 A 
ATOM      4  C   LIG    1        1.109  -4.581  -2.045  0.00  0.00    +0.310 A 
ATOM      5  N   LIG    1        0.045  -3.908  -2.439  0.00  0.00    -0.430 NA
ATOM      6  C   LIG    1       -0.056  -2.605  -2.262  0.00  0.00    +0.190 A 
ENDROOT
BRANCH   6   7
ATOM      7  N   LIG    1       -1.271  -1.896  -2.723  0.00  0.00    +0.020 N 
ATOM      8  O   LIG    1       -1.959  -2.378  -3.604  0.00  0.00    -0.130 OA
ATOM      9  O   LIG    1       -1.582  -0.831  -2.220  0.00  0.00    -0.120 OA
ENDBRANCH   6   7
BRANCH   1  10
ATOM     10  C   LIG    1        0.844  -0.402  -1.469  0.00  0.00    +0.140 C 
BRANCH  10  12
ATOM     11  C   LIG    1       -0.068   1.750   0.142  0.00  0.00    +0.150 C 
ATOM     12  S   LIG    1       -0.021  -0.062   0.089  0.00  0.00    -0.220 S 
ENDBRANCH  10  12
ENDBRANCH   1  10
TORSDOF 3
