REMARK  Name = ZINC000899886153
REMARK                            x       y       z     vdW  Elec       q    Type
REMARK                         _______ _______ _______ _____ _____    ______ ____
ROOT
ATOM      1  C   LIG    1        0.174   1.700   0.217  0.00  0.00    +0.060 C 
ATOM      2  C   LIG    1        0.087   0.174   0.295  0.00  0.00    -0.080 C 
ATOM      3  C   LIG    1        1.033  -0.551  -0.678  0.00  0.00    +0.160 C 
ATOM      4  N   LIG    1        2.023  -0.526   0.421  0.00  0.00    -0.460 NA
ATOM      5  C   LIG    1       -1.352  -0.343   0.260  0.00  0.00    +0.030 C 
ATOM      6  C   LIG    1        0.939  -0.437   1.423  0.00  0.00    +0.150 C 
ENDROOT
BRANCH   6   7
ATOM      7  C   LIG    1        1.236   0.531   2.569  0.00  0.00    -0.020 C 
ATOM      8  C   LIG    1        0.652   0.200   3.944  0.00  0.00    +0.010 C 
ATOM      9  C   LIG    1        2.152   0.038   3.691  0.00  0.00    +0.020 C 
ENDBRANCH   6   7
BRANCH   4  10
ATOM     10  C   LIG    1        2.730  -1.810   0.522  0.00  0.00    +0.180 C 
BRANCH  10  11
ATOM     11  C   LIG    1        3.571  -2.030  -0.737  0.00  0.00    +0.270 C 
BRANCH  11  12
ATOM     12  N   LIG    1        4.258  -3.321  -0.646  0.00  0.00    -0.020 N 
ATOM     13  O   LIG    1        4.813  -3.643   0.389  0.00  0.00    -0.160 OA
ATOM     14  O   LIG    1        4.274  -4.072  -1.605  0.00  0.00    -0.160 OA
ENDBRANCH  11  12
ENDBRANCH  10  11
ENDBRANCH   4  10
TORSDOF 4
