REMARK  Name = ZINC000096553086
REMARK                            x       y       z     vdW  Elec       q    Type
REMARK                         _______ _______ _______ _____ _____    ______ ____
ROOT
ATOM      1  N   LIG    1        0.661  -1.980  -1.076  0.00  0.00    -0.490 N 
ATOM      2  C   LIG    1        1.819  -2.622  -0.775  0.00  0.00    +0.230 A 
ATOM      3  C   LIG    1        1.937  -3.957  -0.959  0.00  0.00    -0.080 A 
ATOM      4  C   LIG    1        0.856  -4.692  -1.467  0.00  0.00    +0.260 A 
ATOM      5  C   LIG    1       -0.306  -4.045  -1.770  0.00  0.00    -0.200 A 
ATOM      6  C   LIG    1        2.985  -1.839  -0.229  0.00  0.00    +0.160 C 
ATOM      7  C   LIG    1       -0.396  -2.658  -1.560  0.00  0.00    +0.540 A 
ATOM      8  O   LIG    1       -1.430  -2.067  -1.827  0.00  0.00    -0.490 OA
ENDROOT
BRANCH   5   9
ATOM      9  N   LIG    1       -1.462  -4.797  -2.307  0.00  0.00    +0.050 N 
ATOM     10  O   LIG    1       -2.497  -4.213  -2.575  0.00  0.00    -0.130 OA
ATOM     11  O   LIG    1       -1.379  -5.999  -2.481  0.00  0.00    -0.190 OA
ENDBRANCH   5   9
BRANCH   1  12
ATOM     12  C   LIG    1        0.559  -0.533  -0.867  0.00  0.00    +0.290 C 
BRANCH  12  14
ATOM     13  C   LIG    1        0.855   1.708  -1.931  0.00  0.00    +0.040 C 
ATOM     14  C   LIG    1        0.961   0.197  -2.150  0.00  0.00    +0.010 C 
ENDBRANCH  12  14
ENDBRANCH   1  12
TORSDOF 3
