REMARK  Name = ZINC000238854950
REMARK                            x       y       z     vdW  Elec       q    Type
REMARK                         _______ _______ _______ _____ _____    ______ ____
ROOT
ATOM      1  C   LIG    1        0.614  -2.074  -1.042  0.00  0.00    -0.070 A 
ATOM      2  C   LIG    1        0.004  -2.683   0.037  0.00  0.00    +0.100 A 
ATOM      3  C   LIG    1       -0.032  -4.062   0.125  0.00  0.00    +0.100 A 
ATOM      4  C   LIG    1        0.544  -4.834  -0.867  0.00  0.00    -0.020 A 
ATOM      5  C   LIG    1        1.154  -4.227  -1.948  0.00  0.00    +0.080 A 
ATOM      6  C   LIG    1        1.185  -2.846  -2.040  0.00  0.00    +0.110 A 
ATOM      7  F   LIG    1        1.781  -2.252  -3.097  0.00  0.00    -0.120 F 
ENDROOT
BRANCH   4   8
ATOM      8  N   LIG    1        0.506  -6.310  -0.771  0.00  0.00    +0.030 N 
ATOM      9  O   LIG    1        1.013  -6.990  -1.645  0.00  0.00    -0.150 OA
ATOM     10  O   LIG    1       -0.032  -6.845   0.182  0.00  0.00    -0.150 OA
ENDBRANCH   4   8
BRANCH   1  11
ATOM     11  C   LIG    1        0.652  -0.570  -1.138  0.00  0.00    +0.260 C 
BRANCH  11  13
ATOM     12  C   LIG    1       -0.017   1.425   0.010  0.00  0.00    +0.220 C 
ATOM     13  O   LIG    1        0.002  -0.004   0.002  0.00  0.00    -0.390 OA
ENDBRANCH  11  13
ENDBRANCH   1  11
TORSDOF 3
