REMARK  Name = ZINC000916558271
REMARK                            x       y       z     vdW  Elec       q    Type
REMARK                         _______ _______ _______ _____ _____    ______ ____
ROOT
ATOM      1  N   LIG    1        0.641  -3.975   2.944  0.00  0.00    -0.440 N 
ATOM      2  C   LIG    1       -0.489  -4.714   2.933  0.00  0.00    +0.460 A 
ATOM      3  N   LIG    1       -0.164  -5.977   2.956  0.00  0.00    -0.450 NA
ATOM      4  C   LIG    1        1.173  -6.089   2.982  0.00  0.00    +0.040 A 
ATOM      5  C   LIG    1        1.695  -4.848   2.970  0.00  0.00    +0.280 A 
ENDROOT
BRANCH   4   6
ATOM      6  N   LIG    1        1.939  -7.355   3.013  0.00  0.00    +0.060 N 
ATOM      7  O   LIG    1        3.156  -7.330   3.035  0.00  0.00    -0.160 OA
ATOM      8  O   LIG    1        1.352  -8.423   3.016  0.00  0.00    -0.130 OA
ENDBRANCH   4   6
BRANCH   1   9
ATOM      9  C   LIG    1        0.724  -2.513   2.926  0.00  0.00    +0.350 C 
BRANCH   9  12
ATOM     10  C   LIG    1        0.742  -0.511   1.242  0.00  0.00    -0.020 C 
ATOM     11  C   LIG    1        2.038  -1.294   1.020  0.00  0.00    +0.030 C 
ATOM     12  C   LIG    1        0.772  -2.022   1.478  0.00  0.00    -0.080 C 
BRANCH  10  14
ATOM     13  C   LIG    1       -0.019   1.526   0.010  0.00  0.00    +0.030 C 
ATOM     14  C   LIG    1        0.002  -0.004   0.002  0.00  0.00    +0.040 C 
ENDBRANCH  10  14
ENDBRANCH   9  12
ENDBRANCH   1   9
TORSDOF 4
