REMARK  Name = ZINC000089197662
REMARK                            x       y       z     vdW  Elec       q    Type
REMARK                         _______ _______ _______ _____ _____    ______ ____
ROOT
ATOM      1  C   LIG    1        0.002  -0.004   0.002  0.00  0.00    +0.320 A 
ATOM      2  C   LIG    1       -1.200  -0.713   0.004  0.00  0.00    -0.070 A 
ATOM      3  C   LIG    1       -1.201  -2.076  -0.004  0.00  0.00    +0.200 A 
ATOM      4  C   LIG    1        0.012  -2.774  -0.014  0.00  0.00    -0.220 A 
ATOM      5  C   LIG    1        0.363  -4.191  -0.023  0.00  0.00    +0.310 A 
ATOM      6  N   LIG    1        1.663  -4.279  -0.030  0.00  0.00    -0.250 NA
ATOM      7  N   LIG    1        2.231  -3.001  -0.026  0.00  0.00    -0.500 N 
ATOM      8  H   LIG    1        3.182  -2.808  -0.030  0.00  0.00    +0.440 HD
ATOM      9  C   LIG    1        1.229  -2.065  -0.016  0.00  0.00    +0.210 A 
ATOM     10  C   LIG    1        1.212  -0.674  -0.013  0.00  0.00    -0.150 A 
ENDROOT
BRANCH   1  11
ATOM     11  N   LIG    1       -0.017   1.392   0.010  0.00  0.00    -0.850 N 
ATOM     12  H   LIG    1       -0.863   1.866   0.016  0.00  0.00    +0.420 HD
ATOM     13  H   LIG    1        0.817   1.889   0.004  0.00  0.00    +0.400 HD
ENDBRANCH   1  11
BRANCH  10  14
ATOM     14  N   LIG    1        2.482   0.086  -0.023  0.00  0.00    +0.020 N 
ATOM     15  O   LIG    1        3.015   0.396   1.028  0.00  0.00    -0.140 OA
ATOM     16  O   LIG    1        2.996   0.400  -1.082  0.00  0.00    -0.140 OA
ENDBRANCH  10  14
TORSDOF 2
