REMARK  Name = ZINC000334282106
REMARK                            x       y       z     vdW  Elec       q    Type
REMARK                         _______ _______ _______ _____ _____    ______ ____
ROOT
ATOM      1  C   LIG    1       -3.237   2.388  -0.165  0.00  0.00    +0.110 A 
ATOM      2  C   LIG    1       -2.488   3.514  -0.166  0.00  0.00    +0.010 A 
ATOM      3  C   LIG    1       -1.170   3.155   0.133  0.00  0.00    +0.260 A 
ATOM      4  N   LIG    1       -1.129   1.858   0.307  0.00  0.00    -0.220 NA
ATOM      5  N   LIG    1       -2.424   1.353   0.130  0.00  0.00    -0.330 N 
ENDROOT
BRANCH   1   7
ATOM      6  O   LIG    1       -5.236   1.220  -0.511  0.00  0.00    -0.150 OA
ATOM      7  N   LIG    1       -4.691   2.306  -0.433  0.00  0.00    +0.050 N 
ATOM      8  O   LIG    1       -5.343   3.326  -0.571  0.00  0.00    -0.120 OA
ENDBRANCH   1   7
BRANCH   5   9
ATOM      9  C   LIG    1       -2.822  -0.053   0.237  0.00  0.00    +0.340 C 
BRANCH   9  10
ATOM     10  C   LIG    1       -2.801  -0.696  -1.151  0.00  0.00    -0.030 C 
ATOM     11  C   LIG    1       -1.344  -0.860  -1.652  0.00  0.00    +0.010 C 
ATOM     12  C   LIG    1       -1.465  -2.007  -2.686  0.00  0.00    +0.010 C 
ATOM     13  C   LIG    1       -2.494  -2.972  -2.062  0.00  0.00    +0.020 C 
ATOM     14  C   LIG    1       -3.344  -2.139  -1.087  0.00  0.00    +0.030 C 
ENDBRANCH   9  10
ENDBRANCH   5   9
TORSDOF 3
