REMARK  Name = ZINC000040454333
REMARK                            x       y       z     vdW  Elec       q    Type
REMARK                         _______ _______ _______ _____ _____    ______ ____
ROOT
ATOM      1  C   LIG    1       -1.306   1.936   0.019  0.00  0.00    -0.230 A 
ATOM      2  C   LIG    1       -1.342   3.322   0.021  0.00  0.00    +0.480 A 
ATOM      3  N   LIG    1       -2.514   3.937   0.029  0.00  0.00    -0.560 NA
ATOM      4  C   LIG    1       -3.642   3.243   0.036  0.00  0.00    +0.590 A 
ATOM      5  N   LIG    1       -3.643   1.918   0.035  0.00  0.00    -0.550 NA
ATOM      6  C   LIG    1       -2.506   1.242   0.021  0.00  0.00    +0.480 A 
ENDROOT
BRANCH   1   8
ATOM      7  O   LIG    1        0.002  -0.004   0.002  0.00  0.00    -0.160 OA
ATOM      8  N   LIG    1       -0.014   1.214   0.009  0.00  0.00    +0.050 N 
ATOM      9  O   LIG    1        1.032   1.837   0.002  0.00  0.00    -0.160 OA
ENDBRANCH   1   8
BRANCH   4  10
ATOM     10  N   LIG    1       -4.850   3.919   0.044  0.00  0.00    -0.670 N 
ATOM     11  H   LIG    1       -4.864   4.889   0.045  0.00  0.00    +0.420 HD
BRANCH  10  12
ATOM     12  C   LIG    1       -6.109   3.169   0.052  0.00  0.00    +0.320 C 
BRANCH  12  13
ATOM     13  C   LIG    1       -7.285   4.148   0.061  0.00  0.00    -0.070 C 
ATOM     14  C   LIG    1       -8.222   4.137  -1.149  0.00  0.00    +0.030 C 
ATOM     15  C   LIG    1       -8.692   3.560   0.188  0.00  0.00    +0.040 C 
ENDBRANCH  12  13
ENDBRANCH  10  12
ENDBRANCH   4  10
TORSDOF 4
