REMARK  Name = ZINC000095830694
REMARK                            x       y       z     vdW  Elec       q    Type
REMARK                         _______ _______ _______ _____ _____    ______ ____
ROOT
ATOM      1  C   LIG    1       -1.306   1.936   0.019  0.00  0.00    -0.130 A 
ATOM      2  C   LIG    1       -2.533   1.382   0.027  0.00  0.00    +0.430 A 
ATOM      3  N   LIG    1       -3.485   2.360   0.035  0.00  0.00    -0.540 N 
ATOM      4  H   LIG    1       -4.443   2.205   0.042  0.00  0.00    +0.440 HD
ATOM      5  C   LIG    1       -2.885   3.597   0.032  0.00  0.00    +0.000 A 
ATOM      6  C   LIG    1       -3.348   4.908   0.036  0.00  0.00    +0.250 A 
ATOM      7  N   LIG    1       -2.465   5.895   0.030  0.00  0.00    -0.490 NA
ATOM      8  C   LIG    1       -1.166   5.657   0.020  0.00  0.00    +0.540 A 
ATOM      9  N   LIG    1       -0.674   4.437   0.015  0.00  0.00    -0.460 NA
ATOM     10 CL   LIG    1       -5.051   5.244   0.050  0.00  0.00    +0.010 Cl
ATOM     11  C   LIG    1       -1.490   3.384   0.028  0.00  0.00    +0.190 A 
ENDROOT
BRANCH   1  13
ATOM     12  O   LIG    1        0.002  -0.004   0.002  0.00  0.00    -0.170 OA
ATOM     13  N   LIG    1       -0.014   1.214   0.009  0.00  0.00    +0.060 N 
ATOM     14  O   LIG    1        1.032   1.837   0.002  0.00  0.00    -0.130 OA
ENDBRANCH   1  13
TORSDOF 1
