REMARK  Name = ZINC000842293942
REMARK                            x       y       z     vdW  Elec       q    Type
REMARK                         _______ _______ _______ _____ _____    ______ ____
ROOT
ATOM      1  C   LIG    1        3.173  -3.622   1.269  0.00  0.00    +0.500 C 
ATOM      2  O   LIG    1        3.181  -2.989   2.298  0.00  0.00    -0.490 OA
ENDROOT
BRANCH   1   3
ATOM      3  C   LIG    1        3.673  -5.044   1.256  0.00  0.00    +0.030 C 
ATOM      4  C   LIG    1        2.839  -6.093   1.994  0.00  0.00    +0.190 C 
ATOM      5  C   LIG    1        4.176  -5.628   2.577  0.00  0.00    +0.130 C 
BRANCH   5   6
ATOM      6  N   LIG    1        5.301  -6.564   2.519  0.00  0.00    +0.010 N 
ATOM      7  O   LIG    1        6.338  -6.308   3.105  0.00  0.00    -0.140 OA
ATOM      8  O   LIG    1        5.200  -7.599   1.884  0.00  0.00    -0.150 OA
ENDBRANCH   5   6
ENDBRANCH   1   3
BRANCH   1   9
ATOM      9  O   LIG    1        2.718  -3.060   0.138  0.00  0.00    -0.340 OA
BRANCH   9  10
ATOM     10  C   LIG    1        2.252  -1.688   0.225  0.00  0.00    +0.260 C 
BRANCH  10  12
ATOM     11  C   LIG    1        0.665  -0.557  -1.246  0.00  0.00    +0.000 C 
ATOM     12  C   LIG    1        1.784  -1.229  -1.132  0.00  0.00    -0.050 C 
BRANCH  11  14
ATOM     13  C   LIG    1       -0.330   1.399  -0.092  0.00  0.00    +0.030 C 
ATOM     14  C   LIG    1       -0.073  -0.107  -0.011  0.00  0.00    +0.030 C 
ENDBRANCH  11  14
ENDBRANCH  10  12
ENDBRANCH   9  10
ENDBRANCH   1   9
TORSDOF 6
