REMARK  Name = ZINC000097758224
REMARK                            x       y       z     vdW  Elec       q    Type
REMARK                         _______ _______ _______ _____ _____    ______ ____
ROOT
ATOM      1  C   LIG    1        0.812  -0.413  -1.218  0.00  0.00    +0.420 A 
ATOM      2  N   LIG    1        0.052  -1.158  -1.995  0.00  0.00    -0.540 NA
ATOM      3  C   LIG    1        0.527  -1.683  -3.115  0.00  0.00    +0.470 A 
ATOM      4  C   LIG    1        1.841  -1.441  -3.468  0.00  0.00    -0.240 A 
ATOM      5  C   LIG    1        2.619  -0.648  -2.622  0.00  0.00    +0.500 A 
ATOM      6  N   LIG    1        2.068  -0.153  -1.517  0.00  0.00    -0.560 NA
ENDROOT
BRANCH   1   8
ATOM      7  C   LIG    1        0.298   1.689  -0.007  0.00  0.00    +0.060 C 
ATOM      8  C   LIG    1        0.226   0.162   0.046  0.00  0.00    -0.010 C 
ATOM      9  C   LIG    1       -1.234  -0.276   0.177  0.00  0.00    +0.080 C 
ATOM     10  C   LIG    1        1.020  -0.345   1.253  0.00  0.00    +0.060 C 
ENDBRANCH   1   8
BRANCH   5  11
ATOM     11  N   LIG    1        3.942  -0.377  -2.931  0.00  0.00    -0.800 N 
ATOM     12  H   LIG    1        4.498   0.106  -2.300  0.00  0.00    +0.420 HD
ATOM     13  H   LIG    1        4.312  -0.670  -3.779  0.00  0.00    +0.430 HD
ENDBRANCH   5  11
BRANCH   4  14
ATOM     14  N   LIG    1        2.409  -2.009  -4.711  0.00  0.00    +0.060 N 
ATOM     15  O   LIG    1        3.533  -1.699  -5.063  0.00  0.00    -0.190 OA
ATOM     16  O   LIG    1        1.752  -2.785  -5.382  0.00  0.00    -0.140 OA
ENDBRANCH   4  14
TORSDOF 3
