REMARK  Name = ZINC000039281354
REMARK                            x       y       z     vdW  Elec       q    Type
REMARK                         _______ _______ _______ _____ _____    ______ ____
ROOT
ATOM      1  N   LIG    1       -2.514   3.778   1.054  0.00  0.00    -0.750 N 
ATOM      2  H   LIG    1       -3.230   3.499   0.462  0.00  0.00    +0.400 HD
ENDROOT
BRANCH   1   3
ATOM      3  C   LIG    1       -2.702   4.861   1.917  0.00  0.00    +0.210 A 
ATOM      4  C   LIG    1       -1.675   5.264   2.761  0.00  0.00    -0.070 A 
ATOM      5  C   LIG    1       -1.864   6.335   3.612  0.00  0.00    +0.050 A 
ATOM      6  C   LIG    1       -3.074   7.006   3.624  0.00  0.00    -0.050 A 
ATOM      7  C   LIG    1       -4.098   6.607   2.785  0.00  0.00    +0.050 A 
ATOM      8  C   LIG    1       -3.913   5.540   1.927  0.00  0.00    -0.070 A 
ENDBRANCH   1   3
BRANCH   1   9
ATOM      9  C   LIG    1       -1.235   3.063   1.045  0.00  0.00    +0.290 C 
BRANCH   9  10
ATOM     10  C   LIG    1       -1.293   1.929   0.019  0.00  0.00    +0.250 C 
BRANCH  10  12
ATOM     11  O   LIG    1        0.002  -0.004   0.002  0.00  0.00    -0.150 OA
ATOM     12  N   LIG    1       -0.014   1.214   0.009  0.00  0.00    -0.020 N 
ATOM     13  O   LIG    1        1.032   1.837   0.002  0.00  0.00    -0.150 OA
ENDBRANCH  10  12
ENDBRANCH   9  10
ENDBRANCH   1   9
TORSDOF 4
