REMARK  Name = ZINC000062723692
REMARK                            x       y       z     vdW  Elec       q    Type
REMARK                         _______ _______ _______ _____ _____    ______ ____
ROOT
ATOM      1  C   LIG    1       -0.539   1.446   0.087  0.00  0.00    +0.110 C 
ATOM      2  C   LIG    1       -0.247  -0.032   0.039  0.00  0.00    -0.110 A 
ATOM      3  C   LIG    1       -0.347  -0.722  -1.162  0.00  0.00    +0.220 A 
ATOM      4  C   LIG    1       -0.078  -2.084  -1.202  0.00  0.00    -0.010 A 
ATOM      5  C   LIG    1        0.290  -2.748  -0.048  0.00  0.00    +0.080 A 
ATOM      6  C   LIG    1        0.390  -2.057   1.146  0.00  0.00    +0.020 A 
ATOM      7  C   LIG    1        0.127  -0.700   1.188  0.00  0.00    +0.010 A 
ENDROOT
BRANCH   7   8
ATOM      8  N   LIG    1        0.235   0.034   2.469  0.00  0.00    +0.020 N 
ATOM      9  O   LIG    1       -0.114  -0.498   3.507  0.00  0.00    -0.160 OA
ATOM     10  O   LIG    1        0.673   1.171   2.484  0.00  0.00    -0.150 OA
ENDBRANCH   7   8
BRANCH   3  11
ATOM     11  N   LIG    1       -0.719  -0.048  -2.328  0.00  0.00    -0.730 N 
ATOM     12  H   LIG    1       -0.907   0.903  -2.299  0.00  0.00    +0.410 HD
BRANCH  11  13
ATOM     13  C   LIG    1       -0.825  -0.777  -3.594  0.00  0.00    +0.270 C 
BRANCH  13  14
ATOM     14  C   LIG    1       -1.245   0.188  -4.705  0.00  0.00    +0.180 C 
BRANCH  14  15
ATOM     15  O   LIG    1       -0.213   1.155  -4.911  0.00  0.00    -0.570 OA
ATOM     16  H   LIG    1       -0.412   1.800  -5.603  0.00  0.00    +0.390 HD
ENDBRANCH  14  15
ENDBRANCH  13  14
ENDBRANCH  11  13
ENDBRANCH   3  11
TORSDOF 5
