REMARK  Name = ZINC000608896438
REMARK                            x       y       z     vdW  Elec       q    Type
REMARK                         _______ _______ _______ _____ _____    ______ ____
ROOT
ATOM      1  N   LIG    1       -3.111  -2.258   0.020  0.00  0.00    -0.430 N 
ATOM      2  C   LIG    1       -3.891  -2.394   1.113  0.00  0.00    +0.290 A 
ATOM      3  N   LIG    1       -5.120  -2.604   0.727  0.00  0.00    -0.480 NA
ATOM      4  C   LIG    1       -5.168  -2.610  -0.613  0.00  0.00    +0.320 A 
ATOM      5  C   LIG    1       -3.421  -2.316   2.543  0.00  0.00    +0.210 C 
ATOM      6  C   LIG    1       -3.922  -2.389  -1.075  0.00  0.00    +0.000 A 
ENDROOT
BRANCH   6   7
ATOM      7  N   LIG    1       -3.508  -2.313  -2.494  0.00  0.00    +0.070 N 
ATOM      8  O   LIG    1       -2.342  -2.106  -2.778  0.00  0.00    -0.180 OA
ATOM      9  O   LIG    1       -4.333  -2.456  -3.378  0.00  0.00    -0.130 OA
ENDBRANCH   6   7
BRANCH   1  10
ATOM     10  C   LIG    1       -1.667  -2.011   0.007  0.00  0.00    +0.320 C 
BRANCH  10  11
ATOM     11  C   LIG    1       -1.412  -0.526   0.013  0.00  0.00    +0.340 C 
ATOM     12  O   LIG    1       -2.340   0.246   0.026  0.00  0.00    -0.430 OA
BRANCH  11  14
ATOM     13  C   LIG    1       -0.019   1.526   0.010  0.00  0.00    +0.040 C 
ATOM     14  C   LIG    1        0.002  -0.004   0.002  0.00  0.00    +0.050 C 
ENDBRANCH  11  14
ENDBRANCH  10  11
ENDBRANCH   1  10
TORSDOF 4
