REMARK  Name = ZINC000113962064
REMARK                            x       y       z     vdW  Elec       q    Type
REMARK                         _______ _______ _______ _____ _____    ______ ____
ROOT
ATOM      1  O   LIG    1        0.002  -0.004   0.002  0.00  0.00    -0.510 OA
ATOM      2  C   LIG    1       -0.014   1.209   0.009  0.00  0.00    +0.520 C 
ATOM      3  C   LIG    1       -1.333   1.935   0.031  0.00  0.00    +0.090 C 
ATOM      4  C   LIG    1       -1.210   3.210   0.866  0.00  0.00    +0.110 C 
ATOM      5  C   LIG    1        0.016   3.975   0.441  0.00  0.00    -0.070 A 
ATOM      6  C   LIG    1        0.018   5.355   0.468  0.00  0.00    +0.080 A 
ATOM      7  C   LIG    1        1.145   6.053   0.077  0.00  0.00    +0.090 A 
ATOM      8  C   LIG    1        2.273   5.373  -0.342  0.00  0.00    -0.010 A 
ATOM      9  C   LIG    1        2.278   3.992  -0.371  0.00  0.00    +0.070 A 
ATOM     10  C   LIG    1        1.148   3.288   0.021  0.00  0.00    +0.170 A 
ATOM     11  N   LIG    1        1.146   1.890   0.001  0.00  0.00    -0.660 N 
ATOM     12  H   LIG    1        1.988   1.407  -0.022  0.00  0.00    +0.420 HD
ENDROOT
BRANCH   8  13
ATOM     13  N   LIG    1        3.478   6.125  -0.760  0.00  0.00    +0.030 N 
ATOM     14  O   LIG    1        4.472   5.526  -1.129  0.00  0.00    -0.150 OA
ATOM     15  O   LIG    1        3.475   7.343  -0.734  0.00  0.00    -0.150 OA
ENDBRANCH   8  13
TORSDOF 1
