REMARK  Name = ZINC000037472294
REMARK                            x       y       z     vdW  Elec       q    Type
REMARK                         _______ _______ _______ _____ _____    ______ ____
ROOT
ATOM      1  C   LIG    1       -1.306   1.937   0.019  0.00  0.00    -0.180 A 
ATOM      2  C   LIG    1       -2.510   1.361   0.027  0.00  0.00    +0.140 A 
ATOM      3  C   LIG    1       -3.578   2.241   0.035  0.00  0.00    -0.120 A 
ATOM      4  C   LIG    1       -3.242   3.532   0.034  0.00  0.00    +0.050 A 
ATOM      5  S   LIG    1       -1.490   3.686   0.030  0.00  0.00    +0.260 S 
ENDROOT
BRANCH   1   7
ATOM      6  O   LIG    1        0.002  -0.004   0.002  0.00  0.00    -0.140 OA
ATOM      7  N   LIG    1       -0.014   1.214   0.009  0.00  0.00    +0.060 N 
ATOM      8  O   LIG    1        1.032   1.837   0.002  0.00  0.00    -0.150 OA
ENDBRANCH   1   7
BRANCH   3   9
ATOM      9  C   LIG    1       -5.011   1.776   0.045  0.00  0.00    +0.260 C 
BRANCH   9  10
ATOM     10  N   LIG    1       -5.467   1.624   1.434  0.00  0.00    -0.660 NA
ATOM     11  H   LIG    1       -4.865   0.996   1.945  0.00  0.00    +0.350 HD
BRANCH  10  12
ATOM     12  C   LIG    1       -6.863   1.171   1.483  0.00  0.00    +0.130 C 
ATOM     13  C   LIG    1       -7.214   0.070   2.485  0.00  0.00    -0.010 C 
ATOM     14  C   LIG    1       -7.672   1.508   2.737  0.00  0.00    +0.030 C 
ENDBRANCH  10  12
ENDBRANCH   9  10
ENDBRANCH   3   9
TORSDOF 4
