REMARK  Name = ZINC000596020977
REMARK                            x       y       z     vdW  Elec       q    Type
REMARK                         _______ _______ _______ _____ _____    ______ ____
ROOT
ATOM      1  C   LIG    1        1.012  -1.905   1.660  0.00  0.00    +0.070 A 
ATOM      2  C   LIG    1        2.007  -2.694   1.188  0.00  0.00    -0.140 A 
ATOM      3  C   LIG    1        1.626  -3.997   1.583  0.00  0.00    +0.080 A 
ATOM      4  N   LIG    1        0.499  -3.873   2.221  0.00  0.00    -0.330 NA
ATOM      5  C   LIG    1        2.377  -5.277   1.318  0.00  0.00    +0.200 C 
ATOM      6  O   LIG    1        0.145  -2.718   2.280  0.00  0.00    +0.140 OA
ENDROOT
BRANCH   2   7
ATOM      7  N   LIG    1        3.213  -2.287   0.433  0.00  0.00    +0.050 N 
ATOM      8  O   LIG    1        3.183  -2.240  -0.784  0.00  0.00    -0.100 OA
ATOM      9  O   LIG    1        4.236  -1.998   1.028  0.00  0.00    -0.120 OA
ENDBRANCH   2   7
BRANCH   1  10
ATOM     10  C   LIG    1        0.906  -0.408   1.522  0.00  0.00    +0.210 C 
BRANCH  10  12
ATOM     11  C   LIG    1       -0.022   1.810   0.012  0.00  0.00    +0.150 C 
ATOM     12  S   LIG    1        0.002  -0.004   0.002  0.00  0.00    -0.210 S 
ENDBRANCH  10  12
ENDBRANCH   1  10
TORSDOF 3
