REMARK  Name = ZINC000307015533
REMARK                            x       y       z     vdW  Elec       q    Type
REMARK                         _______ _______ _______ _____ _____    ______ ____
ROOT
ATOM      1  N   LIG    1       -3.262  -0.386  -1.100  0.00  0.00    -0.340 N 
ATOM      2  C   LIG    1       -4.513  -0.873  -1.040  0.00  0.00    +0.530 A 
ATOM      3  N   LIG    1       -4.898  -1.157  -2.258  0.00  0.00    -0.490 NA
ATOM      4  C   LIG    1       -3.924  -0.865  -3.119  0.00  0.00    +0.270 A 
ATOM      5  N   LIG    1       -2.904  -0.384  -2.458  0.00  0.00    -0.210 NA
ENDROOT
BRANCH   4   6
ATOM      6  N   LIG    1       -3.990  -1.049  -4.586  0.00  0.00    +0.060 N 
ATOM      7  O   LIG    1       -3.036  -0.747  -5.281  0.00  0.00    -0.110 OA
ATOM      8  O   LIG    1       -4.997  -1.502  -5.099  0.00  0.00    -0.090 OA
ENDBRANCH   4   6
BRANCH   1   9
ATOM      9  C   LIG    1       -2.438   0.061   0.026  0.00  0.00    +0.380 C 
BRANCH   9  12
ATOM     10  C   LIG    1       -0.018   1.503   0.010  0.00  0.00    +0.070 C 
ATOM     11  C   LIG    1        0.002  -0.004   0.002  0.00  0.00    -0.070 C 
ATOM     12  C   LIG    1       -1.123  -0.674   0.009  0.00  0.00    -0.090 C 
ATOM     13  C   LIG    1        1.317  -0.740  -0.015  0.00  0.00    +0.090 C 
ENDBRANCH   9  12
ENDBRANCH   1   9
TORSDOF 3
