REMARK  Name = ZINC000147671686
REMARK                            x       y       z     vdW  Elec       q    Type
REMARK                         _______ _______ _______ _____ _____    ______ ____
ROOT
ATOM      1  C   LIG    1        0.729  -1.871   1.503  0.00  0.00    +0.250 A 
ATOM      2  C   LIG    1        0.126  -2.788   0.645  0.00  0.00    +0.000 A 
ATOM      3  C   LIG    1        0.435  -4.130   0.794  0.00  0.00    +0.100 A 
ATOM      4  C   LIG    1        1.325  -4.513   1.780  0.00  0.00    +0.240 A 
ATOM      5  N   LIG    1        1.879  -3.620   2.577  0.00  0.00    -0.390 NA
ATOM      6  C   LIG    1        1.617  -2.333   2.466  0.00  0.00    +0.060 A 
ENDROOT
BRANCH   6   7
ATOM      7  N   LIG    1        2.211  -1.453   3.308  0.00  0.00    +0.080 N 
ATOM      8  O   LIG    1        2.466  -1.782   4.452  0.00  0.00    -0.140 OA
ATOM      9  O   LIG    1        2.489  -0.332   2.920  0.00  0.00    -0.210 OA
ENDBRANCH   6   7
BRANCH   1  10
ATOM     10  N   LIG    1        0.449  -0.507   1.392  0.00  0.00    -0.710 N 
ATOM     11  H   LIG    1        0.802   0.115   2.047  0.00  0.00    +0.420 HD
BRANCH  10  13
ATOM     12  C   LIG    1       -0.528   1.502   0.397  0.00  0.00    +0.050 C 
ATOM     13  C   LIG    1       -0.376  -0.016   0.286  0.00  0.00    +0.250 C 
ENDBRANCH  10  13
ENDBRANCH   1  10
TORSDOF 3
