REMARK  Name = ZINC000035678011
REMARK                            x       y       z     vdW  Elec       q    Type
REMARK                         _______ _______ _______ _____ _____    ______ ____
ROOT
ATOM      1  C   LIG    1       -0.018   1.503   0.010  0.00  0.00    +0.120 C 
ATOM      2  C   LIG    1        0.002  -0.004   0.002  0.00  0.00    -0.060 A 
ATOM      3  C   LIG    1        0.006  -0.689  -1.198  0.00  0.00    +0.080 A 
ATOM      4  C   LIG    1        0.024  -2.071  -1.206  0.00  0.00    +0.070 A 
ATOM      5  C   LIG    1        0.039  -2.772  -0.014  0.00  0.00    -0.010 A 
ATOM      6  C   LIG    1        0.036  -2.092   1.188  0.00  0.00    +0.010 A 
ATOM      7  C   LIG    1        0.023  -0.705   1.199  0.00  0.00    +0.130 A 
ENDROOT
BRANCH   5   8
ATOM      8  N   LIG    1        0.058  -4.252  -0.027  0.00  0.00    +0.030 N 
ATOM      9  O   LIG    1        0.070  -4.870   1.023  0.00  0.00    -0.160 OA
ATOM     10  O   LIG    1        0.060  -4.852  -1.087  0.00  0.00    -0.150 OA
ENDBRANCH   5   8
BRANCH   7  11
ATOM     11  O   LIG    1        0.020  -0.034   2.381  0.00  0.00    -0.290 OA
BRANCH  11  12
ATOM     12  C   LIG    1        0.031  -0.820   3.574  0.00  0.00    +0.210 C 
BRANCH  12  13
ATOM     13  C   LIG    1        0.026   0.104   4.794  0.00  0.00    +0.210 C 
BRANCH  13  14
ATOM     14  O   LIG    1       -1.201   0.834   4.834  0.00  0.00    -0.570 OA
ATOM     15  H   LIG    1       -1.274   1.441   5.583  0.00  0.00    +0.390 HD
ENDBRANCH  13  14
ENDBRANCH  12  13
ENDBRANCH  11  12
ENDBRANCH   7  11
TORSDOF 5
