REMARK  Name = ZINC000115369105
REMARK                            x       y       z     vdW  Elec       q    Type
REMARK                         _______ _______ _______ _____ _____    ______ ____
ROOT
ATOM      1  C   LIG    1       -0.018   1.461   0.010  0.00  0.00    +0.330 C 
ATOM      2  N   LIG    1        0.002  -0.004   0.002  0.00  0.00    -0.610 N 
ATOM      3  C   LIG    1       -1.179  -0.875   0.003  0.00  0.00    +0.360 C 
ATOM      4  C   LIG    1       -0.660  -2.291  -0.008  0.00  0.00    -0.090 A 
ATOM      5  C   LIG    1       -1.276  -3.520  -0.011  0.00  0.00    +0.120 A 
ATOM      6  C   LIG    1       -0.512  -4.676  -0.021  0.00  0.00    -0.020 A 
ATOM      7  C   LIG    1        0.869  -4.598  -0.028  0.00  0.00    +0.110 A 
ATOM      8  C   LIG    1        1.497  -3.369  -0.024  0.00  0.00    +0.120 A 
ATOM      9  C   LIG    1        0.735  -2.200  -0.014  0.00  0.00    -0.110 A 
ATOM     10  C   LIG    1        1.105  -0.772  -0.013  0.00  0.00    +0.550 C 
ATOM     11  O   LIG    1        2.245  -0.350  -0.021  0.00  0.00    -0.510 OA
ENDROOT
BRANCH   6  12
ATOM     12  N   LIG    1       -1.177  -5.999  -0.025  0.00  0.00    +0.020 N 
ATOM     13  O   LIG    1       -0.507  -7.016  -0.033  0.00  0.00    -0.150 OA
ATOM     14  O   LIG    1       -2.393  -6.070  -0.019  0.00  0.00    -0.150 OA
ENDBRANCH   6  12
TORSDOF 1
