REMARK  Name = ZINC000379357065
REMARK                            x       y       z     vdW  Elec       q    Type
REMARK                         _______ _______ _______ _____ _____    ______ ____
ROOT
ATOM      1  C   LIG    1       -1.433  -0.534   0.013  0.00  0.00    +0.180 C 
ENDROOT
BRANCH   1   2
ATOM      2  C   LIG    1       -1.416  -2.035  -0.119  0.00  0.00    +0.520 C 
ATOM      3  N   LIG    1       -0.957  -2.607  -1.250  0.00  0.00    -0.600 N 
ATOM      4  H   LIG    1       -0.638  -2.052  -1.979  0.00  0.00    +0.410 HD
ATOM      5  O   LIG    1       -1.815  -2.728   0.792  0.00  0.00    -0.490 OA
BRANCH   3   6
ATOM      6  O   LIG    1       -0.941  -4.017  -1.374  0.00  0.00    -0.310 OA
ATOM      7  H   LIG    1       -0.595  -4.333  -2.220  0.00  0.00    +0.390 HD
ENDBRANCH   3   6
ENDBRANCH   1   2
BRANCH   1   9
ATOM      8  C   LIG    1       -0.019   1.526   0.010  0.00  0.00    +0.040 C 
ATOM      9  C   LIG    1        0.002  -0.004   0.002  0.00  0.00    +0.020 C 
ENDBRANCH   1   9
BRANCH   1  10
ATOM     10  O   LIG    1       -2.066  -0.171   1.242  0.00  0.00    -0.340 OA
BRANCH  10  11
ATOM     11  C   LIG    1       -2.737   1.090   1.200  0.00  0.00    +0.150 C 
ATOM     12  C   LIG    1       -4.240   0.892   0.882  0.00  0.00    +0.000 C 
ATOM     13  C   LIG    1       -4.884   2.177   1.461  0.00  0.00    +0.020 C 
ATOM     14  C   LIG    1       -4.094   2.444   2.759  0.00  0.00    +0.020 C 
ATOM     15  C   LIG    1       -2.729   1.752   2.593  0.00  0.00    +0.030 C 
ENDBRANCH  10  11
ENDBRANCH   1  10
TORSDOF 5
