REMARK  Name = ZINC000076603703
REMARK                            x       y       z     vdW  Elec       q    Type
REMARK                         _______ _______ _______ _____ _____    ______ ____
ROOT
ATOM      1  C   LIG    1       -0.089   1.501   0.016  0.00  0.00    +0.150 C 
ATOM      2  C   LIG    1       -0.032  -0.005   0.005  0.00  0.00    +0.070 A 
ATOM      3  C   LIG    1       -0.098  -0.711  -1.190  0.00  0.00    -0.130 A 
ATOM      4  C   LIG    1       -0.041  -2.090  -1.153  0.00  0.00    +0.410 A 
ATOM      5  N   LIG    1        0.078  -2.738  -0.012  0.00  0.00    -0.480 NA
ATOM      6  C   LIG    1        0.149  -2.105   1.155  0.00  0.00    +0.370 A 
ATOM      7  O   LIG    1        0.286  -2.610   2.410  0.00  0.00    -0.280 OA
ATOM      8  C   LIG    1       -0.125  -1.618   3.368  0.00  0.00    +0.270 C 
ATOM      9  C   LIG    1        0.170  -0.290   2.631  0.00  0.00    +0.120 C 
ATOM     10  C   LIG    1        0.094  -0.716   1.179  0.00  0.00    -0.230 A 
ENDROOT
BRANCH   3  11
ATOM     11  N   LIG    1       -0.226   0.003  -2.480  0.00  0.00    +0.040 N 
ATOM     12  O   LIG    1        0.351   1.062  -2.651  0.00  0.00    -0.150 OA
ATOM     13  O   LIG    1       -0.909  -0.469  -3.372  0.00  0.00    -0.150 OA
ENDBRANCH   3  11
TORSDOF 1
