REMARK  Name = ZINC000089220878
REMARK                            x       y       z     vdW  Elec       q    Type
REMARK                         _______ _______ _______ _____ _____    ______ ____
ROOT
ATOM      1  C   LIG    1       -1.306   1.936   0.019  0.00  0.00    -0.020 A 
ATOM      2  C   LIG    1       -2.472   1.256   0.026  0.00  0.00    +0.330 A 
ATOM      3  N   LIG    1       -3.676   1.885   0.035  0.00  0.00    -0.520 N 
ATOM      4  H   LIG    1       -4.483   1.347   0.040  0.00  0.00    +0.440 HD
ATOM      5  C   LIG    1       -3.792   3.222   0.037  0.00  0.00    +0.380 A 
ATOM      6  C   LIG    1       -2.659   4.007   0.030  0.00  0.00    -0.170 A 
ATOM      7  C   LIG    1       -2.376   5.391   0.029  0.00  0.00    -0.050 A 
ATOM      8  C   LIG    1       -1.021   5.511   0.020  0.00  0.00    +0.230 A 
ATOM      9  N   LIG    1       -0.435   4.316   0.016  0.00  0.00    -0.470 NA
ATOM     10  C   LIG    1       -1.338   3.349   0.027  0.00  0.00    +0.110 A 
ENDROOT
BRANCH   1  12
ATOM     11  O   LIG    1        0.002  -0.004   0.002  0.00  0.00    -0.180 OA
ATOM     12  N   LIG    1       -0.014   1.214   0.009  0.00  0.00    +0.030 N 
ATOM     13  O   LIG    1        1.032   1.837   0.002  0.00  0.00    -0.110 OA
ENDBRANCH   1  12
TORSDOF 1
