REMARK  Name = ZINC000820585901
REMARK                            x       y       z     vdW  Elec       q    Type
REMARK                         _______ _______ _______ _____ _____    ______ ____
ROOT
ATOM      1  C   LIG    1        1.370  -3.773  -2.474  0.00  0.00    +0.440 A 
ATOM      2  C   LIG    1        0.492  -3.696  -3.550  0.00  0.00    -0.090 A 
ATOM      3  C   LIG    1        0.711  -4.498  -4.656  0.00  0.00    +0.190 A 
ATOM      4  C   LIG    1        1.806  -5.353  -4.648  0.00  0.00    -0.170 A 
ATOM      5  C   LIG    1        2.636  -5.377  -3.545  0.00  0.00    +0.430 A 
ATOM      6  N   LIG    1        2.405  -4.597  -2.506  0.00  0.00    -0.530 NA
ENDROOT
BRANCH   4   7
ATOM      7  N   LIG    1        2.079  -6.229  -5.809  0.00  0.00    +0.040 N 
ATOM      8  O   LIG    1        3.041  -6.976  -5.795  0.00  0.00    -0.170 OA
ATOM      9  O   LIG    1        1.342  -6.202  -6.779  0.00  0.00    -0.170 OA
ENDBRANCH   4   7
BRANCH   1  10
ATOM     10  N   LIG    1        1.161  -2.972  -1.357  0.00  0.00    -0.700 N 
ATOM     11  H   LIG    1        1.773  -3.019  -0.606  0.00  0.00    +0.420 HD
BRANCH  10  12
ATOM     12  C   LIG    1        0.018  -2.057  -1.314  0.00  0.00    +0.330 C 
BRANCH  12  15
ATOM     13  C   LIG    1       -0.016   1.303   0.009  0.00  0.00    +0.140 C 
ATOM     14  C   LIG    1        0.002  -0.004   0.002  0.00  0.00    -0.170 C 
ATOM     15  C   LIG    1        0.020  -1.311  -0.005  0.00  0.00    +0.000 C 
ENDBRANCH  12  15
ENDBRANCH  10  12
ENDBRANCH   1  10
TORSDOF 4
