REMARK  Name = ZINC000899886629
REMARK                            x       y       z     vdW  Elec       q    Type
REMARK                         _______ _______ _______ _____ _____    ______ ____
ROOT
ATOM      1  C   LIG    1        0.666  -0.614   1.247  0.00  0.00    -0.080 C 
ATOM      2  C   LIG    1       -0.271  -0.804   2.453  0.00  0.00    +0.190 C 
ATOM      3  N   LIG    1        0.383  -2.120   2.628  0.00  0.00    -0.470 NA
ATOM      4  C   LIG    1        0.750  -2.151   1.195  0.00  0.00    +0.160 C 
ENDROOT
BRANCH   1   6
ATOM      5  C   LIG    1        0.826  -0.257  -1.221  0.00  0.00    +0.020 C 
ATOM      6  C   LIG    1       -0.018   0.006   0.027  0.00  0.00    +0.020 C 
ENDBRANCH   1   6
BRANCH   1   7
ATOM      7  C   LIG    1        1.993   0.063   1.595  0.00  0.00    +0.040 C 
ATOM      8  C   LIG    1        1.734   1.515   2.000  0.00  0.00    +0.030 C 
ENDBRANCH   1   7
BRANCH   3   9
ATOM      9  C   LIG    1       -0.604  -3.161   2.942  0.00  0.00    +0.170 C 
BRANCH   9  10
ATOM     10  C   LIG    1        0.120  -4.443   3.358  0.00  0.00    +0.270 C 
BRANCH  10  11
ATOM     11  N   LIG    1       -0.865  -5.481   3.671  0.00  0.00    -0.020 N 
ATOM     12  O   LIG    1       -1.838  -5.212   4.353  0.00  0.00    -0.160 OA
ATOM     13  O   LIG    1       -0.711  -6.613   3.249  0.00  0.00    -0.160 OA
ENDBRANCH  10  11
ENDBRANCH   9  10
ENDBRANCH   3   9
TORSDOF 5
