REMARK  Name = ZINC000096550135
REMARK                            x       y       z     vdW  Elec       q    Type
REMARK                         _______ _______ _______ _____ _____    ______ ____
ROOT
ATOM      1  C   LIG    1       -2.616  -2.596   0.013  0.00  0.00    +0.170 A 
ATOM      2  C   LIG    1       -3.799  -1.864   0.022  0.00  0.00    +0.000 A 
ATOM      3  C   LIG    1       -5.001  -2.554   0.030  0.00  0.00    +0.100 A 
ATOM      4  C   LIG    1       -4.985  -3.937   0.028  0.00  0.00    +0.270 A 
ATOM      5  N   LIG    1       -3.846  -4.601   0.019  0.00  0.00    -0.380 NA
ATOM      6  C   LIG    1       -2.682  -3.982   0.006  0.00  0.00    +0.100 A 
ENDROOT
BRANCH   6   7
ATOM      7  N   LIG    1       -1.537  -4.707  -0.003  0.00  0.00    +0.070 N 
ATOM      8  O   LIG    1       -0.458  -4.142  -0.014  0.00  0.00    -0.160 OA
ATOM      9  O   LIG    1       -1.587  -5.924   0.001  0.00  0.00    -0.160 OA
ENDBRANCH   6   7
BRANCH   1  10
ATOM     10  O   LIG    1       -1.414  -1.962   0.005  0.00  0.00    -0.260 OA
BRANCH  10  11
ATOM     11  C   LIG    1       -1.433  -0.534   0.013  0.00  0.00    +0.180 C 
BRANCH  11  13
ATOM     12  C   LIG    1       -0.019   1.526   0.010  0.00  0.00    +0.040 C 
ATOM     13  C   LIG    1        0.002  -0.004   0.002  0.00  0.00    +0.040 C 
ENDBRANCH  11  13
ENDBRANCH  10  11
ENDBRANCH   1  10
TORSDOF 4
