REMARK  Name = ZINC000146419131
REMARK                            x       y       z     vdW  Elec       q    Type
REMARK                         _______ _______ _______ _____ _____    ______ ____
ROOT
ATOM      1  C   LIG    1       -0.538   1.446   0.087  0.00  0.00    +0.130 C 
ATOM      2  C   LIG    1       -0.247  -0.032   0.039  0.00  0.00    -0.030 A 
ATOM      3  C   LIG    1       -0.347  -0.717  -1.157  0.00  0.00    -0.060 A 
ATOM      4  C   LIG    1       -0.080  -2.073  -1.202  0.00  0.00    +0.090 A 
ATOM      5  C   LIG    1        0.289  -2.744  -0.049  0.00  0.00    +0.110 A 
ATOM      6  C   LIG    1        0.390  -2.056   1.149  0.00  0.00    +0.060 A 
ATOM      7  F   LIG    1        0.551  -4.068  -0.092  0.00  0.00    -0.120 F 
ATOM      8  C   LIG    1        0.127  -0.700   1.190  0.00  0.00    -0.010 A 
ENDROOT
BRANCH   8   9
ATOM      9  N   LIG    1        0.235   0.036   2.470  0.00  0.00    +0.020 N 
ATOM     10  O   LIG    1       -0.114  -0.496   3.509  0.00  0.00    -0.150 OA
ATOM     11  O   LIG    1        0.672   1.173   2.485  0.00  0.00    -0.140 OA
ENDBRANCH   8   9
BRANCH   3  12
ATOM     12  C   LIG    1       -0.749   0.013  -2.413  0.00  0.00    +0.270 C 
BRANCH  12  13
ATOM     13  O   LIG    1       -0.782  -0.904  -3.508  0.00  0.00    -0.570 OA
ATOM     14  H   LIG    1       -1.034  -0.502  -4.350  0.00  0.00    +0.390 HD
ENDBRANCH  12  13
ENDBRANCH   3  12
TORSDOF 3
