REMARK  Name = ZINC000774663862
REMARK                            x       y       z     vdW  Elec       q    Type
REMARK                         _______ _______ _______ _____ _____    ______ ____
ROOT
ATOM      1  C   LIG    1        1.598  -1.583   0.415  0.00  0.00    +0.320 A 
ATOM      2  N   LIG    1        1.810  -2.766   0.970  0.00  0.00    -0.470 NA
ATOM      3  C   LIG    1        2.864  -3.497   0.660  0.00  0.00    +0.370 A 
ATOM      4  C   LIG    1        3.790  -3.049  -0.261  0.00  0.00    -0.090 A 
ATOM      5  C   LIG    1        3.605  -1.813  -0.865  0.00  0.00    +0.160 A 
ATOM      6  C   LIG    1        2.488  -1.072  -0.524  0.00  0.00    -0.090 A 
ATOM      7  C   LIG    1        2.244   0.276  -1.154  0.00  0.00    +0.140 C 
ENDROOT
BRANCH   4   8
ATOM      8  N   LIG    1        4.968  -3.878  -0.600  0.00  0.00    +0.030 N 
ATOM      9  O   LIG    1        5.781  -3.477  -1.413  0.00  0.00    -0.150 OA
ATOM     10  O   LIG    1        5.124  -4.962  -0.067  0.00  0.00    -0.150 OA
ENDBRANCH   4   8
BRANCH   1  11
ATOM     11  N   LIG    1        0.474  -0.847   0.771  0.00  0.00    -0.320 N 
ATOM     12  C   LIG    1        0.540  -0.432   2.179  0.00  0.00    +0.250 C 
BRANCH  11  14
ATOM     13  C   LIG    1       -1.625  -0.971  -0.438  0.00  0.00    +0.230 C 
ATOM     14  O   LIG    1       -0.752  -1.599   0.503  0.00  0.00    -0.230 OA
ENDBRANCH  11  14
ENDBRANCH   1  11
TORSDOF 3
