REMARK  Name = ZINC000746074986
REMARK                            x       y       z     vdW  Elec       q    Type
REMARK                         _______ _______ _______ _____ _____    ______ ____
ROOT
ATOM      1  N   LIG    1        1.034  -3.955   2.561  0.00  0.00    -0.340 N 
ATOM      2  C   LIG    1        1.939  -4.903   2.239  0.00  0.00    +0.350 A 
ATOM      3  C   LIG    1        1.352  -6.110   2.415  0.00  0.00    -0.190 A 
ATOM      4  C   LIG    1        0.044  -5.891   2.861  0.00  0.00    +0.320 A 
ATOM      5  N   LIG    1       -0.145  -4.600   2.955  0.00  0.00    -0.250 NA
ENDROOT
BRANCH   3   6
ATOM      6  N   LIG    1        1.982  -7.428   2.179  0.00  0.00    +0.070 N 
ATOM      7  O   LIG    1        1.349  -8.450   2.374  0.00  0.00    -0.160 OA
ATOM      8  O   LIG    1        3.135  -7.491   1.789  0.00  0.00    -0.170 OA
ENDBRANCH   3   6
BRANCH   1   9
ATOM      9  C   LIG    1        1.250  -2.507   2.515  0.00  0.00    +0.500 C 
BRANCH   9  10
ATOM     10  N   LIG    1        0.762  -1.980   1.234  0.00  0.00    -0.560 NA
ATOM     11  C   LIG    1        1.565  -2.489   0.114  0.00  0.00    +0.190 C 
BRANCH  10  12
ATOM     12  C   LIG    1        0.742  -0.511   1.242  0.00  0.00    +0.180 C 
BRANCH  12  14
ATOM     13  C   LIG    1       -0.019   1.526   0.010  0.00  0.00    +0.020 C 
ATOM     14  C   LIG    1        0.002  -0.004   0.002  0.00  0.00    +0.010 C 
ENDBRANCH  12  14
ENDBRANCH  10  12
ENDBRANCH   9  10
ENDBRANCH   1   9
TORSDOF 5
