REMARK  Name = ZINC000238730457
REMARK                            x       y       z     vdW  Elec       q    Type
REMARK                         _______ _______ _______ _____ _____    ______ ____
ROOT
ATOM      1  C   LIG    1        0.777  -1.810  -1.336  0.00  0.00    +0.240 A 
ATOM      2  C   LIG    1        0.243  -2.667  -0.387  0.00  0.00    -0.150 A 
ATOM      3  C   LIG    1        0.352  -4.041  -0.556  0.00  0.00    +0.300 A 
ATOM      4  C   LIG    1        0.997  -4.551  -1.676  0.00  0.00    -0.200 A 
ATOM      5  C   LIG    1        1.527  -3.693  -2.620  0.00  0.00    +0.180 A 
ATOM      6  C   LIG    1        1.116  -6.042  -1.862  0.00  0.00    +0.110 C 
ATOM      7  C   LIG    1        1.415  -2.326  -2.456  0.00  0.00    -0.130 A 
ENDROOT
BRANCH   3   8
ATOM      8  N   LIG    1       -0.185  -4.908   0.398  0.00  0.00    -0.850 N 
ATOM      9  H   LIG    1       -0.108  -5.867   0.279  0.00  0.00    +0.410 HD
ATOM     10  H   LIG    1       -0.634  -4.550   1.179  0.00  0.00    +0.410 HD
ENDBRANCH   3   8
BRANCH   7  11
ATOM     11  N   LIG    1        1.984  -1.411  -3.470  0.00  0.00    +0.050 N 
ATOM     12  O   LIG    1        1.886  -0.205  -3.325  0.00  0.00    -0.150 OA
ATOM     13  O   LIG    1        2.551  -1.863  -4.448  0.00  0.00    -0.190 OA
ENDBRANCH   7  11
BRANCH   1  14
ATOM     14  O   LIG    1        0.671  -0.465  -1.174  0.00  0.00    -0.280 OA
BRANCH  14  16
ATOM     15  C   LIG    1       -0.019   1.526   0.010  0.00  0.00    +0.070 C 
ATOM     16  C   LIG    1        0.002  -0.004   0.002  0.00  0.00    +0.190 C 
ENDBRANCH  14  16
ENDBRANCH   1  14
TORSDOF 4
