REMARK  Name = ZINC000591136785
REMARK                            x       y       z     vdW  Elec       q    Type
REMARK                         _______ _______ _______ _____ _____    ______ ____
ROOT
ATOM      1  C   LIG    1       -2.073  -0.647  -1.182  0.00  0.00    +0.430 A 
ATOM      2  N   LIG    1       -1.490  -0.322  -2.325  0.00  0.00    -0.510 NA
ATOM      3  C   LIG    1       -2.119  -0.435  -3.480  0.00  0.00    +0.420 A 
ATOM      4  C   LIG    1       -3.417  -0.901  -3.538  0.00  0.00    -0.140 A 
ATOM      5  C   LIG    1       -4.066  -1.254  -2.361  0.00  0.00    +0.170 A 
ATOM      6  C   LIG    1       -3.380  -1.130  -1.165  0.00  0.00    -0.010 A 
ATOM      7  F   LIG    1       -3.973  -1.462   0.002  0.00  0.00    -0.120 F 
ENDROOT
BRANCH   4   8
ATOM      8  N   LIG    1       -4.110  -1.023  -4.840  0.00  0.00    +0.040 N 
ATOM      9  O   LIG    1       -5.255  -1.435  -4.883  0.00  0.00    -0.160 OA
ATOM     10  O   LIG    1       -3.535  -0.712  -5.867  0.00  0.00    -0.160 OA
ENDBRANCH   4   8
BRANCH   1  11
ATOM     11  N   LIG    1       -1.372  -0.511   0.012  0.00  0.00    -0.690 N 
ATOM     12  H   LIG    1       -1.794  -0.752   0.852  0.00  0.00    +0.420 HD
BRANCH  11  14
ATOM     13  C   LIG    1       -0.019   1.526   0.010  0.00  0.00    +0.020 C 
ATOM     14  C   LIG    1        0.002  -0.004   0.002  0.00  0.00    +0.240 C 
ATOM     15  C   LIG    1        0.742  -0.511   1.242  0.00  0.00    +0.030 C 
ENDBRANCH  11  14
ENDBRANCH   1  11
TORSDOF 3
