REMARK  Name = ZINC000609586154
REMARK                            x       y       z     vdW  Elec       q    Type
REMARK                         _______ _______ _______ _____ _____    ______ ____
ROOT
ATOM      1  C   LIG    1       -1.565  -1.958   0.004  0.00  0.00    +0.260 A 
ATOM      2  C   LIG    1       -2.298  -2.624   0.927  0.00  0.00    +0.060 A 
ATOM      3  N   LIG    1       -2.440  -3.893   0.511  0.00  0.00    -0.440 NA
ATOM      4  C   LIG    1       -1.827  -4.045  -0.630  0.00  0.00    +0.460 A 
ATOM      5  N   LIG    1       -1.269  -2.856  -0.988  0.00  0.00    -0.480 N 
ATOM      6  C   LIG    1       -0.491  -2.589  -2.200  0.00  0.00    +0.340 C 
ENDROOT
BRANCH   2   7
ATOM      7  N   LIG    1       -2.849  -2.053   2.177  0.00  0.00    +0.070 N 
ATOM      8  O   LIG    1       -3.571  -2.728   2.889  0.00  0.00    -0.150 OA
ATOM      9  O   LIG    1       -2.580  -0.908   2.494  0.00  0.00    -0.130 OA
ENDBRANCH   2   7
BRANCH   1  10
ATOM     10  N   LIG    1       -1.189  -0.615   0.051  0.00  0.00    -0.450 N 
ATOM     11  C   LIG    1       -1.677   0.110  -1.130  0.00  0.00    +0.230 C 
BRANCH  10  13
ATOM     12  C   LIG    1        0.625   0.991   0.407  0.00  0.00    +0.060 C 
ATOM     13  C   LIG    1        0.267  -0.480   0.186  0.00  0.00    +0.130 C 
ATOM     14  C   LIG    1        0.747  -1.307   1.381  0.00  0.00    +0.050 C 
ENDBRANCH  10  13
ENDBRANCH   1  10
TORSDOF 3
