REMARK  Name = ZINC000238685630
REMARK                            x       y       z     vdW  Elec       q    Type
REMARK                         _______ _______ _______ _____ _____    ______ ____
ROOT
ATOM      1  C   LIG    1       -1.407  -0.526   0.111  0.00  0.00    -0.010 A 
ATOM      2  C   LIG    1       -2.474   0.290  -0.218  0.00  0.00    +0.050 A 
ATOM      3  C   LIG    1       -3.767  -0.190  -0.118  0.00  0.00    +0.090 A 
ATOM      4  C   LIG    1       -3.993  -1.484   0.309  0.00  0.00    +0.030 A 
ATOM      5  C   LIG    1       -2.926  -2.300   0.637  0.00  0.00    +0.110 A 
ATOM      6  C   LIG    1       -1.634  -1.823   0.533  0.00  0.00    -0.040 A 
ENDROOT
BRANCH   6   7
ATOM      7  N   LIG    1       -0.492  -2.697   0.884  0.00  0.00    +0.030 N 
ATOM      8  O   LIG    1        0.641  -2.249   0.881  0.00  0.00    -0.160 OA
ATOM      9  O   LIG    1       -0.685  -3.863   1.177  0.00  0.00    -0.150 OA
ENDBRANCH   6   7
BRANCH   1  10
ATOM     10  C   LIG    1        0.002  -0.004   0.002  0.00  0.00    +0.220 C 
BRANCH  10  11
ATOM     11  N   LIG    1       -0.020   1.465  -0.018  0.00  0.00    -0.830 NA
ATOM     12  H   LIG    1       -0.553   1.808  -0.802  0.00  0.00    +0.340 HD
ATOM     13  H   LIG    1        0.916   1.840  -0.025  0.00  0.00    +0.360 HD
ENDBRANCH  10  11
BRANCH  10  14
ATOM     14  C   LIG    1        0.640  -0.522  -1.288  0.00  0.00    +0.190 C 
ATOM     15  F   LIG    1        1.948  -0.037  -1.389  0.00  0.00    -0.200 F 
ENDBRANCH  10  14
ENDBRANCH   1  10
TORSDOF 4
