REMARK  Name = ZINC000306715025
REMARK                            x       y       z     vdW  Elec       q    Type
REMARK                         _______ _______ _______ _____ _____    ______ ____
ROOT
ATOM      1  C   LIG    1        0.878  -1.878   1.162  0.00  0.00    +0.210 A 
ATOM      2  C   LIG    1        0.275  -2.688   2.124  0.00  0.00    -0.180 A 
ATOM      3  C   LIG    1        0.314  -4.058   1.967  0.00  0.00    +0.340 A 
ATOM      4  N   LIG    1        0.912  -4.602   0.923  0.00  0.00    -0.470 NA
ATOM      5  C   LIG    1        1.493  -3.870  -0.008  0.00  0.00    +0.370 A 
ATOM      6  C   LIG    1       -0.409  -2.075   3.319  0.00  0.00    +0.130 C 
ATOM      7  C   LIG    1        1.493  -2.493   0.072  0.00  0.00    -0.090 A 
ENDROOT
BRANCH   7   8
ATOM      8  N   LIG    1        2.148  -1.680  -0.978  0.00  0.00    +0.030 N 
ATOM      9  O   LIG    1        2.156  -0.466  -0.890  0.00  0.00    -0.110 OA
ATOM     10  O   LIG    1        2.677  -2.226  -1.929  0.00  0.00    -0.180 OA
ENDBRANCH   7   8
BRANCH   1  11
ATOM     11  N   LIG    1        0.861  -0.492   1.284  0.00  0.00    -0.630 N 
ATOM     12  H   LIG    1       -0.024  -0.171   1.646  0.00  0.00    +0.370 HD
BRANCH  11  14
ATOM     13  C   LIG    1        1.903   1.499   2.258  0.00  0.00    +0.060 C 
ATOM     14  C   LIG    1        1.973  -0.023   2.121  0.00  0.00    +0.190 C 
ENDBRANCH  11  14
ENDBRANCH   1  11
TORSDOF 3
