REMARK  Name = ZINC000349770722
REMARK                            x       y       z     vdW  Elec       q    Type
REMARK                         _______ _______ _______ _____ _____    ______ ____
ROOT
ATOM      1  C   LIG    1        0.053  -3.279   1.392  0.00  0.00    +0.140 A 
ATOM      2  C   LIG    1        0.054  -3.370   2.756  0.00  0.00    +0.070 A 
ATOM      3  C   LIG    1        0.076  -4.731   3.083  0.00  0.00    +0.100 A 
ATOM      4  C   LIG    1        0.088  -5.434   1.926  0.00  0.00    +0.080 A 
ATOM      5  N   LIG    1        0.069  -4.558   0.887  0.00  0.00    -0.510 N 
ATOM      6  H   LIG    1        0.071  -4.795  -0.053  0.00  0.00    +0.440 HD
ENDROOT
BRANCH   1  11
ATOM      7  C   LIG    1       -0.018   1.503   0.010  0.00  0.00    +0.220 C 
ATOM      8  C   LIG    1        0.002  -0.004   0.002  0.00  0.00    +0.180 A 
ATOM      9  N   LIG    1        0.008  -0.766  -1.052  0.00  0.00    -0.370 NA
ATOM     10  O   LIG    1        0.025  -1.935  -0.733  0.00  0.00    +0.090 OA
ATOM     11  C   LIG    1        0.032  -2.038   0.607  0.00  0.00    +0.230 A 
ATOM     12  N   LIG    1        0.023  -0.801   1.081  0.00  0.00    -0.440 NA
ENDBRANCH   1  11
BRANCH   4  13
ATOM     13  N   LIG    1        0.112  -6.909   1.811  0.00  0.00    +0.050 N 
ATOM     14  O   LIG    1        0.123  -7.598   2.816  0.00  0.00    -0.120 OA
ATOM     15  O   LIG    1        0.120  -7.435   0.713  0.00  0.00    -0.160 OA
ENDBRANCH   4  13
TORSDOF 2
