REMARK  Name = ZINC000930556049
REMARK                            x       y       z     vdW  Elec       q    Type
REMARK                         _______ _______ _______ _____ _____    ______ ____
ROOT
ATOM      1  C   LIG    1       -0.004  -0.336  -2.516  0.00  0.00    +0.310 C 
ENDROOT
BRANCH   1   4
ATOM      2  C   LIG    1       -0.018   1.503   0.010  0.00  0.00    +0.120 C 
ATOM      3  C   LIG    1        0.002  -0.004   0.002  0.00  0.00    -0.150 A 
ATOM      4  C   LIG    1        0.008  -0.800  -1.083  0.00  0.00    -0.020 A 
ATOM      5  O   LIG    1        0.027  -2.078  -0.671  0.00  0.00    -0.180 OA
ATOM      6  C   LIG    1        0.034  -2.116   0.671  0.00  0.00    +0.170 A 
ATOM      7  C   LIG    1        0.025  -0.853   1.133  0.00  0.00    -0.060 A 
ENDBRANCH   1   4
BRANCH   1   8
ATOM      8  N   LIG    1        1.377  -0.167  -2.988  0.00  0.00    -0.530 NA
ATOM      9  C   LIG    1        2.076  -1.458  -3.044  0.00  0.00    +0.200 C 
BRANCH   8  10
ATOM     10  C   LIG    1        1.409   0.507  -4.293  0.00  0.00    +0.220 C 
BRANCH  10  11
ATOM     11  C   LIG    1        2.851   0.888  -4.635  0.00  0.00    +0.270 C 
BRANCH  11  12
ATOM     12  N   LIG    1        2.883   1.560  -5.936  0.00  0.00    -0.020 N 
ATOM     13  O   LIG    1        2.250   1.104  -6.872  0.00  0.00    -0.160 OA
ATOM     14  O   LIG    1        3.542   2.573  -6.083  0.00  0.00    -0.160 OA
ENDBRANCH  11  12
ENDBRANCH  10  11
ENDBRANCH   8  10
ENDBRANCH   1   8
TORSDOF 5
