REMARK  Name = ZINC000600514334
REMARK                            x       y       z     vdW  Elec       q    Type
REMARK                         _______ _______ _______ _____ _____    ______ ____
ROOT
ATOM      1  N   LIG    1        1.842  -3.736  -1.396  0.00  0.00    -0.430 N 
ATOM      2  C   LIG    1        1.367  -4.354  -0.293  0.00  0.00    +0.460 A 
ATOM      3  N   LIG    1        1.854  -5.564  -0.248  0.00  0.00    -0.450 NA
ATOM      4  C   LIG    1        2.650  -5.760  -1.310  0.00  0.00    +0.040 A 
ATOM      5  C   LIG    1        2.650  -4.630  -2.044  0.00  0.00    +0.270 A 
ENDROOT
BRANCH   1   8
ATOM      6  C   LIG    1        0.652  -0.570  -1.138  0.00  0.00    +0.170 C 
ATOM      7  C   LIG    1        1.964  -1.298  -0.801  0.00  0.00    +0.030 C 
ATOM      8  C   LIG    1        1.542  -2.367  -1.822  0.00  0.00    +0.240 C 
ATOM      9  C   LIG    1        0.090  -1.941  -1.550  0.00  0.00    +0.060 C 
BRANCH   6  11
ATOM     10  C   LIG    1       -0.017   1.425   0.010  0.00  0.00    +0.220 C 
ATOM     11  O   LIG    1        0.002  -0.004   0.002  0.00  0.00    -0.370 OA
ENDBRANCH   6  11
ENDBRANCH   1   8
BRANCH   4  12
ATOM     12  N   LIG    1        3.390  -7.002  -1.625  0.00  0.00    +0.060 N 
ATOM     13  O   LIG    1        4.084  -7.060  -2.624  0.00  0.00    -0.160 OA
ATOM     14  O   LIG    1        3.306  -7.965  -0.885  0.00  0.00    -0.130 OA
ENDBRANCH   4  12
TORSDOF 3
