REMARK  Name = ZINC000603499406
REMARK                            x       y       z     vdW  Elec       q    Type
REMARK                         _______ _______ _______ _____ _____    ______ ____
ROOT
ATOM      1  C   LIG    1        0.028  -1.215   2.158  0.00  0.00    +0.440 A 
ATOM      2  C   LIG    1       -1.267  -1.657   1.903  0.00  0.00    -0.080 A 
ATOM      3  C   LIG    1       -1.935  -2.379   2.876  0.00  0.00    +0.190 A 
ATOM      4  C   LIG    1       -1.283  -2.636   4.075  0.00  0.00    -0.170 A 
ATOM      5  C   LIG    1        0.002  -2.167   4.260  0.00  0.00    +0.420 A 
ATOM      6  N   LIG    1        0.617  -1.485   3.313  0.00  0.00    -0.530 NA
ENDROOT
BRANCH   4   7
ATOM      7  N   LIG    1       -1.960  -3.405   5.144  0.00  0.00    +0.040 N 
ATOM      8  O   LIG    1       -1.383  -3.626   6.193  0.00  0.00    -0.170 OA
ATOM      9  O   LIG    1       -3.094  -3.816   4.973  0.00  0.00    -0.170 OA
ENDBRANCH   4   7
BRANCH   1  10
ATOM     10  N   LIG    1        0.711  -0.489   1.189  0.00  0.00    -0.590 N 
ATOM     11  C   LIG    1        2.151  -0.260   1.325  0.00  0.00    +0.300 C 
BRANCH  10  13
ATOM     12  C   LIG    1        0.252   1.550  -0.081  0.00  0.00    +0.040 C 
ATOM     13  C   LIG    1       -0.010   0.047   0.032  0.00  0.00    +0.240 C 
ATOM     14  C   LIG    1        0.475  -0.652  -1.240  0.00  0.00    +0.030 C 
ENDBRANCH  10  13
ENDBRANCH   1  10
TORSDOF 3
