REMARK  Name = ZINC000148099874
REMARK                            x       y       z     vdW  Elec       q    Type
REMARK                         _______ _______ _______ _____ _____    ______ ____
ROOT
ATOM      1  C   LIG    1       -1.197   1.875   0.018  0.00  0.00    +0.160 A 
ATOM      2  N   LIG    1       -1.207   3.193   0.020  0.00  0.00    -0.410 NA
ATOM      3  C   LIG    1       -2.334   3.879   0.029  0.00  0.00    +0.300 A 
ATOM      4  C   LIG    1       -3.557   3.236   0.036  0.00  0.00    +0.060 A 
ATOM      5  C   LIG    1       -3.594   1.851   0.035  0.00  0.00    +0.040 A 
ATOM      6  C   LIG    1       -2.386   1.157   0.020  0.00  0.00    +0.100 A 
ENDROOT
BRANCH   6   7
ATOM      7  N   LIG    1       -2.372  -0.239   0.018  0.00  0.00    -0.420 N 
ATOM      8  C   LIG    1       -3.471  -0.781   0.838  0.00  0.00    +0.170 C 
ATOM      9  C   LIG    1       -3.691  -1.838  -0.253  0.00  0.00    +0.050 C 
ATOM     10  C   LIG    1       -3.068  -0.774  -1.168  0.00  0.00    +0.180 C 
ENDBRANCH   6   7
BRANCH   1  12
ATOM     11  O   LIG    1        0.002  -0.004   0.002  0.00  0.00    -0.120 OA
ATOM     12  N   LIG    1       -0.014   1.214   0.009  0.00  0.00    +0.060 N 
ATOM     13  O   LIG    1        1.032   1.837   0.002  0.00  0.00    -0.170 OA
ENDBRANCH   1  12
TORSDOF 2
