REMARK  Name = ZINC000388116671
REMARK                            x       y       z     vdW  Elec       q    Type
REMARK                         _______ _______ _______ _____ _____    ______ ____
ROOT
ATOM      1  C   LIG    1        2.197  -5.070  -3.791  0.00  0.00    +0.110 C 
ENDROOT
BRANCH   1   2
ATOM      2  C   LIG    1        2.134  -6.570  -3.651  0.00  0.00    +0.530 C 
ATOM      3  N   LIG    1        2.678  -7.358  -4.600  0.00  0.00    -0.600 N 
ATOM      4  H   LIG    1        3.110  -6.961  -5.372  0.00  0.00    +0.410 HD
ATOM      5  O   LIG    1        1.594  -7.066  -2.686  0.00  0.00    -0.520 OA
BRANCH   3   6
ATOM      6  O   LIG    1        2.619  -8.767  -4.468  0.00  0.00    -0.320 OA
ATOM      7  H   LIG    1        3.035  -9.248  -5.197  0.00  0.00    +0.390 HD
ENDBRANCH   3   6
ENDBRANCH   1   2
BRANCH   1   8
ATOM      8  C   LIG    1        1.512  -4.417  -2.590  0.00  0.00    +0.110 C 
BRANCH   8   9
ATOM      9  S   LIG    1        1.588  -2.612  -2.758  0.00  0.00    -0.260 S 
BRANCH   9  10
ATOM     10  C   LIG    1        0.739  -2.027  -1.265  0.00  0.00    +0.080 C 
BRANCH  10  11
ATOM     11  C   LIG    1        0.718  -0.497  -1.257  0.00  0.00    +0.040 C 
BRANCH  11  13
ATOM     12  C   LIG    1       -0.019   1.526   0.010  0.00  0.00    +0.030 C 
ATOM     13  C   LIG    1        0.002  -0.004   0.002  0.00  0.00    +0.000 C 
ENDBRANCH  11  13
ENDBRANCH  10  11
ENDBRANCH   9  10
ENDBRANCH   8   9
ENDBRANCH   1   8
TORSDOF 7
