REMARK  Name = ZINC000039133622
REMARK                            x       y       z     vdW  Elec       q    Type
REMARK                         _______ _______ _______ _____ _____    ______ ____
ROOT
ATOM      1  C   LIG    1       -1.306   1.936   0.019  0.00  0.00    -0.010 A 
ATOM      2  C   LIG    1       -1.321   3.319   0.021  0.00  0.00    +0.080 A 
ATOM      3  C   LIG    1       -2.529   3.993   0.026  0.00  0.00    +0.080 A 
ATOM      4  C   LIG    1       -3.711   3.287   0.030  0.00  0.00    -0.120 A 
ATOM      5  C   LIG    1       -5.162   3.729   0.016  0.00  0.00    +0.090 C 
ATOM      6  C   LIG    1       -5.890   2.425  -0.384  0.00  0.00    +0.260 C 
ATOM      7  O   LIG    1       -4.978   1.403   0.053  0.00  0.00    -0.290 OA
ATOM      8  C   LIG    1       -3.709   1.898   0.036  0.00  0.00    +0.110 A 
ATOM      9  C   LIG    1       -2.489   1.227   0.021  0.00  0.00    +0.080 A 
ENDROOT
BRANCH   1  11
ATOM     10  O   LIG    1        0.002  -0.004   0.002  0.00  0.00    -0.150 OA
ATOM     11  N   LIG    1       -0.014   1.214   0.009  0.00  0.00    +0.030 N 
ATOM     12  O   LIG    1        1.032   1.837   0.002  0.00  0.00    -0.150 OA
ENDBRANCH   1  11
TORSDOF 1
