REMARK  Name = ZINC000013209408
REMARK                            x       y       z     vdW  Elec       q    Type
REMARK                         _______ _______ _______ _____ _____    ______ ____
ROOT
ATOM      1  N   LIG    1        1.555  -3.724  -2.678  0.00  0.00    -0.430 N 
ATOM      2  C   LIG    1        2.540  -4.513  -2.198  0.00  0.00    +0.280 A 
ATOM      3  N   LIG    1        2.261  -5.755  -2.487  0.00  0.00    -0.480 NA
ATOM      4  C   LIG    1        1.099  -5.803  -3.155  0.00  0.00    +0.310 A 
ATOM      5  C   LIG    1        3.761  -4.038  -1.452  0.00  0.00    +0.220 C 
ATOM      6  C   LIG    1        0.637  -4.543  -3.280  0.00  0.00    -0.010 A 
ENDROOT
BRANCH   6   7
ATOM      7  N   LIG    1       -0.616  -4.125  -3.947  0.00  0.00    +0.070 N 
ATOM      8  O   LIG    1       -0.918  -2.946  -3.990  0.00  0.00    -0.170 OA
ATOM      9  O   LIG    1       -1.344  -4.959  -4.454  0.00  0.00    -0.130 OA
ENDBRANCH   6   7
BRANCH   1  10
ATOM     10  C   LIG    1        1.478  -2.265  -2.569  0.00  0.00    +0.330 C 
BRANCH  10  11
ATOM     11  C   LIG    1        0.746  -1.888  -1.280  0.00  0.00    +0.180 C 
BRANCH  11  12
ATOM     12  O   LIG    1        0.671  -0.465  -1.174  0.00  0.00    -0.380 OA
BRANCH  12  14
ATOM     13  C   LIG    1       -0.019   1.526   0.010  0.00  0.00    +0.060 C 
ATOM     14  C   LIG    1        0.002  -0.004   0.002  0.00  0.00    +0.160 C 
ENDBRANCH  12  14
ENDBRANCH  11  12
ENDBRANCH  10  11
ENDBRANCH   1  10
TORSDOF 5
