REMARK  Name = ZINC000087150685
REMARK                            x       y       z     vdW  Elec       q    Type
REMARK                         _______ _______ _______ _____ _____    ______ ____
ROOT
ATOM      1  C   LIG    1       -0.020   1.503  -0.011  0.00  0.00    +0.100 C 
ATOM      2  C   LIG    1        0.002  -0.004  -0.009  0.00  0.00    +0.010 A 
ATOM      3  C   LIG    1       -0.260  -0.701  -1.174  0.00  0.00    -0.040 A 
ATOM      4  C   LIG    1       -0.241  -2.084  -1.175  0.00  0.00    +0.140 A 
ATOM      5  C   LIG    1        0.040  -2.773  -0.013  0.00  0.00    -0.130 A 
ATOM      6  C   LIG    1        0.303  -2.076   1.160  0.00  0.00    +0.280 A 
ATOM      7  C   LIG    1        0.289  -0.688   1.157  0.00  0.00    -0.060 A 
ENDROOT
BRANCH   5   8
ATOM      8  N   LIG    1        0.060  -4.253  -0.015  0.00  0.00    +0.040 N 
ATOM      9  O   LIG    1       -0.366  -4.870   0.945  0.00  0.00    -0.180 OA
ATOM     10  O   LIG    1        0.503  -4.854  -0.978  0.00  0.00    -0.150 OA
ENDBRANCH   5   8
BRANCH   6  11
ATOM     11  N   LIG    1        0.588  -2.771   2.338  0.00  0.00    -0.720 N 
ATOM     12  H   LIG    1        0.682  -3.736   2.321  0.00  0.00    +0.410 HD
BRANCH  11  13
ATOM     13  C   LIG    1        0.745  -2.041   3.599  0.00  0.00    +0.280 C 
BRANCH  13  14
ATOM     14  C   LIG    1        1.050  -3.030   4.726  0.00  0.00    +0.190 C 
BRANCH  14  15
ATOM     15  O   LIG    1        2.316  -3.649   4.487  0.00  0.00    -0.570 OA
ATOM     16  H   LIG    1        2.574  -4.289   5.164  0.00  0.00    +0.390 HD
ENDBRANCH  14  15
ENDBRANCH  13  14
ENDBRANCH  11  13
ENDBRANCH   6  11
TORSDOF 5
