REMARK  Name = ZINC000034122856
REMARK                            x       y       z     vdW  Elec       q    Type
REMARK                         _______ _______ _______ _____ _____    ______ ____
ROOT
ATOM      1  C   LIG    1       -1.201  -0.638   0.010  0.00  0.00    +0.140 A 
ATOM      2  C   LIG    1       -1.809  -0.964   1.218  0.00  0.00    +0.090 A 
ATOM      3  C   LIG    1       -3.035  -1.610   1.221  0.00  0.00    +0.080 A 
ATOM      4  C   LIG    1       -3.651  -1.929   0.026  0.00  0.00    +0.050 A 
ATOM      5  C   LIG    1       -3.047  -1.605  -1.175  0.00  0.00    +0.110 A 
ATOM      6  C   LIG    1       -1.827  -0.955  -1.185  0.00  0.00    -0.060 A 
ENDROOT
BRANCH   6   7
ATOM      7  N   LIG    1       -1.183  -0.609  -2.472  0.00  0.00    +0.030 N 
ATOM      8  O   LIG    1       -0.108  -0.037  -2.481  0.00  0.00    -0.130 OA
ATOM      9  O   LIG    1       -1.729  -0.896  -3.522  0.00  0.00    -0.160 OA
ENDBRANCH   6   7
BRANCH   1  11
ATOM     10  C   LIG    1       -0.017   1.425   0.010  0.00  0.00    +0.250 C 
ATOM     11  O   LIG    1        0.002  -0.004   0.002  0.00  0.00    -0.310 OA
ENDBRANCH   1  11
BRANCH   2  12
ATOM     12  O   LIG    1       -1.202  -0.650   2.394  0.00  0.00    -0.470 OA
ATOM     13  H   LIG    1       -1.438   0.223   2.738  0.00  0.00    +0.400 HD
ENDBRANCH   2  12
TORSDOF 3
