REMARK  Name = ZINC000594886606
REMARK                            x       y       z     vdW  Elec       q    Type
REMARK                         _______ _______ _______ _____ _____    ______ ____
ROOT
ATOM      1  N   LIG    1        0.876   0.225  -4.664  0.00  0.00    -0.350 N 
ATOM      2  C   LIG    1        1.923   0.800  -5.280  0.00  0.00    +0.530 A 
ATOM      3  N   LIG    1        1.490   1.355  -6.383  0.00  0.00    -0.490 NA
ATOM      4  C   LIG    1        0.178   1.155  -6.505  0.00  0.00    +0.270 A 
ATOM      5  N   LIG    1       -0.243   0.463  -5.480  0.00  0.00    -0.220 NA
ENDROOT
BRANCH   4   6
ATOM      6  N   LIG    1       -0.664   1.634  -7.624  0.00  0.00    +0.060 N 
ATOM      7  O   LIG    1       -1.858   1.392  -7.634  0.00  0.00    -0.110 OA
ATOM      8  O   LIG    1       -0.164   2.269  -8.535  0.00  0.00    -0.090 OA
ENDBRANCH   4   6
BRANCH   1   9
ATOM      9  C   LIG    1        0.898  -0.510  -3.397  0.00  0.00    +0.360 C 
BRANCH   9  10
ATOM     10  C   LIG    1       -0.122   0.102  -2.434  0.00  0.00    +0.060 C 
BRANCH  10  13
ATOM     11  C   LIG    1        0.165   1.492   0.002  0.00  0.00    +0.080 C 
ATOM     12  C   LIG    1        0.092  -0.013  -0.005  0.00  0.00    -0.110 C 
ATOM     13  C   LIG    1       -0.099  -0.654  -1.131  0.00  0.00    -0.060 C 
ATOM     14  C   LIG    1        0.238  -0.780   1.284  0.00  0.00    +0.080 C 
ENDBRANCH  10  13
ENDBRANCH   9  10
ENDBRANCH   1   9
TORSDOF 4
