REMARK  Name = ZINC000117409469
REMARK                            x       y       z     vdW  Elec       q    Type
REMARK                         _______ _______ _______ _____ _____    ______ ____
ROOT
ATOM      1  C   LIG    1       -1.266  -0.759   0.010  0.00  0.00    -0.120 A 
ATOM      2  C   LIG    1       -2.499  -0.096   0.019  0.00  0.00    +0.090 A 
ATOM      3  C   LIG    1       -3.660  -0.843   0.026  0.00  0.00    +0.310 A 
ATOM      4  N   LIG    1       -3.618  -2.161   0.024  0.00  0.00    -0.410 NA
ATOM      5  C   LIG    1       -2.480  -2.825   0.015  0.00  0.00    +0.170 A 
ATOM      6  C   LIG    1       -1.270  -2.160   0.003  0.00  0.00    +0.130 A 
ENDROOT
BRANCH   1   8
ATOM      7  C   LIG    1       -0.018   1.503   0.010  0.00  0.00    +0.100 C 
ATOM      8  C   LIG    1        0.002  -0.004   0.002  0.00  0.00    +0.400 C 
ATOM      9  O   LIG    1        1.056  -0.594  -0.011  0.00  0.00    -0.430 OA
ENDBRANCH   1   8
BRANCH   5  10
ATOM     10  N   LIG    1       -2.499  -4.305   0.013  0.00  0.00    +0.020 N 
ATOM     11  O   LIG    1       -1.452  -4.928   0.005  0.00  0.00    -0.150 OA
ATOM     12  O   LIG    1       -3.561  -4.901   0.020  0.00  0.00    -0.110 OA
ENDBRANCH   5  10
TORSDOF 2
