REMARK  Name = ZINC000600521297
REMARK                            x       y       z     vdW  Elec       q    Type
REMARK                         _______ _______ _______ _____ _____    ______ ____
ROOT
ATOM      1  N   LIG    1       -2.576  -4.020   0.005  0.00  0.00    -0.440 N 
ATOM      2  C   LIG    1       -2.507  -4.812  -1.087  0.00  0.00    +0.300 A 
ATOM      3  N   LIG    1       -2.390  -6.052  -0.698  0.00  0.00    -0.480 NA
ATOM      4  C   LIG    1       -2.381  -6.096   0.643  0.00  0.00    +0.330 A 
ATOM      5  C   LIG    1       -2.556  -4.341  -2.518  0.00  0.00    +0.210 C 
ATOM      6  C   LIG    1       -2.490  -4.835   1.102  0.00  0.00    +0.000 A 
ENDROOT
BRANCH   6   7
ATOM      7  N   LIG    1       -2.521  -4.412   2.520  0.00  0.00    +0.070 N 
ATOM      8  O   LIG    1       -2.623  -3.231   2.801  0.00  0.00    -0.170 OA
ATOM      9  O   LIG    1       -2.444  -5.244   3.406  0.00  0.00    -0.130 OA
ENDBRANCH   6   7
BRANCH   1  10
ATOM     10  C   LIG    1       -2.711  -2.561   0.014  0.00  0.00    +0.470 C 
BRANCH  10  11
ATOM     11  O   LIG    1       -1.414  -1.962   0.005  0.00  0.00    -0.400 OA
BRANCH  11  12
ATOM     12  C   LIG    1       -1.433  -0.534   0.013  0.00  0.00    +0.190 C 
BRANCH  12  14
ATOM     13  C   LIG    1       -0.019   1.526   0.010  0.00  0.00    +0.040 C 
ATOM     14  C   LIG    1        0.002  -0.004   0.002  0.00  0.00    +0.020 C 
ENDBRANCH  12  14
ENDBRANCH  11  12
ENDBRANCH  10  11
ENDBRANCH   1  10
TORSDOF 5
