REMARK  Name = ZINC000891678844
REMARK                            x       y       z     vdW  Elec       q    Type
REMARK                         _______ _______ _______ _____ _____    ______ ____
ROOT
ATOM      1  C   LIG    1       -1.063   1.134   0.010  0.00  0.00    +0.380 C 
ATOM      2  N   LIG    1       -0.335  -0.137  -0.006  0.00  0.00    -0.380 N 
ATOM      3  N   LIG    1       -0.089  -0.932  -1.132  0.00  0.00    -0.260 NA
ATOM      4  C   LIG    1        0.588  -1.986  -0.754  0.00  0.00    +0.340 A 
ATOM      5  C   LIG    1        0.798  -1.902   0.625  0.00  0.00    -0.190 A 
ATOM      6  C   LIG    1        0.223  -0.748   1.064  0.00  0.00    +0.360 A 
ENDROOT
BRANCH   5   7
ATOM      7  N   LIG    1        1.521  -2.888   1.459  0.00  0.00    +0.070 N 
ATOM      8  O   LIG    1        1.640  -2.703   2.657  0.00  0.00    -0.150 OA
ATOM      9  O   LIG    1        1.998  -3.885   0.947  0.00  0.00    -0.180 OA
ENDBRANCH   5   7
BRANCH   6  10
ATOM     10  N   LIG    1        0.205  -0.286   2.377  0.00  0.00    -0.580 N 
ATOM     11  H   LIG    1       -0.529  -0.732   2.908  0.00  0.00    +0.380 HD
BRANCH  10  12
ATOM     12  C   LIG    1        0.070   1.176   2.419  0.00  0.00    +0.220 C 
BRANCH  12  13
ATOM     13  C   LIG    1        0.309   1.670   3.847  0.00  0.00    -0.040 C 
ATOM     14  C   LIG    1        1.515   2.581   4.088  0.00  0.00    +0.020 C 
ATOM     15  C   LIG    1        0.099   3.159   4.125  0.00  0.00    +0.020 C 
ENDBRANCH  12  13
ENDBRANCH  10  12
ENDBRANCH   6  10
TORSDOF 4
