REMARK  Name = ZINC000161494600
REMARK                            x       y       z     vdW  Elec       q    Type
REMARK                         _______ _______ _______ _____ _____    ______ ____
ROOT
ATOM      1  C   LIG    1       -0.359   1.698  -0.377  0.00  0.00    +0.160 C 
ATOM      2  C   LIG    1       -0.250   0.200  -0.249  0.00  0.00    +0.260 A 
ATOM      3  N   LIG    1       -0.266  -0.549  -1.335  0.00  0.00    -0.530 NA
ATOM      4  C   LIG    1       -0.172  -1.869  -1.269  0.00  0.00    +0.450 A 
ATOM      5  C   LIG    1       -0.052  -2.510  -0.041  0.00  0.00    -0.080 A 
ATOM      6  C   LIG    1       -0.033  -1.750   1.115  0.00  0.00    +0.190 A 
ATOM      7  C   LIG    1       -0.129  -0.369   1.003  0.00  0.00    -0.160 A 
ENDROOT
BRANCH   7   8
ATOM      8  N   LIG    1       -0.112   0.482   2.213  0.00  0.00    +0.040 N 
ATOM      9  O   LIG    1       -0.671   0.108   3.229  0.00  0.00    -0.160 OA
ATOM     10  O   LIG    1        0.460   1.557   2.194  0.00  0.00    -0.150 OA
ENDBRANCH   7   8
BRANCH   4  11
ATOM     11  N   LIG    1       -0.192  -2.619  -2.439  0.00  0.00    -0.680 N 
ATOM     12  H   LIG    1       -0.184  -2.175  -3.301  0.00  0.00    +0.410 HD
BRANCH  11  13
ATOM     13  C   LIG    1       -0.225  -4.082  -2.369  0.00  0.00    +0.210 C 
ATOM     14  C   LIG    1       -1.168  -4.814  -3.326  0.00  0.00    +0.020 C 
ATOM     15  C   LIG    1        0.343  -4.859  -3.559  0.00  0.00    +0.030 C 
ENDBRANCH  11  13
ENDBRANCH   4  11
TORSDOF 3
