REMARK  Name = ZINC000780659307
REMARK                            x       y       z     vdW  Elec       q    Type
REMARK                         _______ _______ _______ _____ _____    ______ ____
ROOT
ATOM      1  C   LIG    1        2.197  -2.295  -1.214  0.00  0.00    +0.100 A 
ATOM      2  C   LIG    1        3.095  -1.737  -2.120  0.00  0.00    +0.070 A 
ATOM      3  C   LIG    1        4.436  -2.064  -2.004  0.00  0.00    +0.060 A 
ATOM      4  C   LIG    1        4.836  -2.928  -1.001  0.00  0.00    +0.310 A 
ATOM      5  N   LIG    1        3.960  -3.440  -0.159  0.00  0.00    -0.410 NA
ATOM      6  C   LIG    1        2.676  -3.150  -0.230  0.00  0.00    +0.170 A 
ENDROOT
BRANCH   6   7
ATOM      7  N   LIG    1        1.814  -3.700   0.659  0.00  0.00    +0.050 N 
ATOM      8  O   LIG    1        0.652  -3.336   0.686  0.00  0.00    -0.130 OA
ATOM      9  O   LIG    1        2.201  -4.560   1.430  0.00  0.00    -0.160 OA
ENDBRANCH   6   7
BRANCH   1  10
ATOM     10  N   LIG    1        0.834  -1.994  -1.290  0.00  0.00    -0.320 N 
ATOM     11  C   LIG    1        0.245  -2.528  -2.525  0.00  0.00    +0.260 C 
BRANCH  10  12
ATOM     12  O   LIG    1        0.609  -0.552  -1.182  0.00  0.00    -0.240 OA
BRANCH  12  14
ATOM     13  C   LIG    1       -0.190   1.363   0.056  0.00  0.00    +0.050 C 
ATOM     14  C   LIG    1       -0.118  -0.163  -0.015  0.00  0.00    +0.180 C 
ENDBRANCH  12  14
ENDBRANCH  10  12
ENDBRANCH   1  10
TORSDOF 4
