REMARK  Name = ZINC000079020040
REMARK                            x       y       z     vdW  Elec       q    Type
REMARK                         _______ _______ _______ _____ _____    ______ ____
ROOT
ATOM      1  C   LIG    1       -0.018   1.503   0.010  0.00  0.00    +0.130 C 
ATOM      2  C   LIG    1        0.002  -0.004   0.002  0.00  0.00    +0.000 A 
ATOM      3  C   LIG    1        0.006  -0.680  -1.174  0.00  0.00    +0.040 A 
ATOM      4  C   LIG    1        0.024  -2.076  -1.221  0.00  0.00    +0.120 A 
ATOM      5  C   LIG    1        0.039  -2.828  -0.092  0.00  0.00    +0.010 A 
ATOM      6  C   LIG    1        0.037  -2.191   1.168  0.00  0.00    -0.190 A 
ATOM      7  C   LIG    1        0.048  -2.627   2.480  0.00  0.00    +0.320 A 
ATOM      8  N   LIG    1        0.038  -1.547   3.272  0.00  0.00    -0.410 N 
ATOM      9  H   LIG    1        0.042  -1.568   4.242  0.00  0.00    +0.450 HD
ATOM     10  N   LIG    1        0.019  -0.383   2.495  0.00  0.00    -0.280 NA
ATOM     11  C   LIG    1        0.023  -0.721   1.218  0.00  0.00    +0.110 A 
ENDROOT
BRANCH   5  12
ATOM     12  N   LIG    1        0.058  -4.305  -0.180  0.00  0.00    +0.030 N 
ATOM     13  O   LIG    1        0.071  -4.976   0.836  0.00  0.00    -0.170 OA
ATOM     14  O   LIG    1        0.060  -4.850  -1.270  0.00  0.00    -0.160 OA
ENDBRANCH   5  12
TORSDOF 1
