REMARK  Name = ZINC000335907874
REMARK                            x       y       z     vdW  Elec       q    Type
REMARK                         _______ _______ _______ _____ _____    ______ ____
ROOT
ATOM      1  C   LIG    1        2.808  -1.668   2.118  0.00  0.00    -0.040 A 
ATOM      2  C   LIG    1        4.141  -2.023   2.134  0.00  0.00    +0.130 A 
ATOM      3  C   LIG    1        4.355  -2.761   3.302  0.00  0.00    -0.130 A 
ATOM      4  C   LIG    1        3.176  -2.842   3.964  0.00  0.00    +0.320 A 
ATOM      5  N   LIG    1        2.229  -2.178   3.258  0.00  0.00    -0.520 N 
ATOM      6  H   LIG    1        1.298  -2.082   3.510  0.00  0.00    +0.440 HD
ENDROOT
BRANCH   1   8
ATOM      7  N   LIG    1        0.865  -0.467   1.266  0.00  0.00    -0.620 N 
ATOM      8  C   LIG    1        2.133  -0.884   1.078  0.00  0.00    +0.590 C 
ATOM      9  O   LIG    1        2.717  -0.611   0.046  0.00  0.00    -0.510 OA
ATOM     10  C   LIG    1        0.208  -0.678   2.558  0.00  0.00    +0.280 C 
BRANCH   7  12
ATOM     11  C   LIG    1        0.381   1.707   0.255  0.00  0.00    +0.020 C 
ATOM     12  C   LIG    1        0.144   0.197   0.177  0.00  0.00    +0.280 C 
ENDBRANCH   7  12
ENDBRANCH   1   8
BRANCH   3  13
ATOM     13  N   LIG    1        5.641  -3.349   3.738  0.00  0.00    +0.060 N 
ATOM     14  O   LIG    1        5.703  -3.974   4.781  0.00  0.00    -0.170 OA
ATOM     15  O   LIG    1        6.639  -3.207   3.054  0.00  0.00    -0.160 OA
ENDBRANCH   3  13
TORSDOF 3
