REMARK  Name = ZINC000199251409
REMARK                            x       y       z     vdW  Elec       q    Type
REMARK                         _______ _______ _______ _____ _____    ______ ____
ROOT
ATOM      1  N   LIG    1       -0.008  -0.140   2.444  0.00  0.00    -0.440 N 
ATOM      2  C   LIG    1        0.127   1.001   3.153  0.00  0.00    +0.460 A 
ATOM      3  N   LIG    1       -0.709   0.974   4.154  0.00  0.00    -0.450 NA
ATOM      4  C   LIG    1       -1.401  -0.175   4.121  0.00  0.00    +0.040 A 
ATOM      5  C   LIG    1       -0.982  -0.883   3.055  0.00  0.00    +0.270 A 
ENDROOT
BRANCH   4   6
ATOM      6  N   LIG    1       -2.447  -0.588   5.084  0.00  0.00    +0.060 N 
ATOM      7  O   LIG    1       -3.009  -1.661   4.949  0.00  0.00    -0.160 OA
ATOM      8  O   LIG    1       -2.746   0.144   6.010  0.00  0.00    -0.130 OA
ENDBRANCH   4   6
BRANCH   1   9
ATOM      9  C   LIG    1        0.742  -0.511   1.242  0.00  0.00    +0.320 C 
BRANCH   9  11
ATOM     10  C   LIG    1       -0.019   1.526   0.010  0.00  0.00    +0.030 C 
ATOM     11  C   LIG    1        0.002  -0.004   0.002  0.00  0.00    -0.030 C 
ATOM     12  C   LIG    1        0.718  -0.497  -1.257  0.00  0.00    +0.040 C 
ENDBRANCH   9  11
ENDBRANCH   1   9
TORSDOF 3
