REMARK  Name = ZINC000930601988
REMARK                            x       y       z     vdW  Elec       q    Type
REMARK                         _______ _______ _______ _____ _____    ______ ____
ROOT
ATOM      1  N   LIG    1       -3.510   1.997   1.050  0.00  0.00    -0.460 N 
ATOM      2  C   LIG    1       -3.865   3.000   1.886  0.00  0.00    +0.390 A 
ATOM      3  N   LIG    1       -5.078   3.385   1.590  0.00  0.00    -0.480 NA
ATOM      4  C   LIG    1       -5.533   2.654   0.569  0.00  0.00    +0.010 A 
ATOM      5  C   LIG    1       -6.876   2.743  -0.113  0.00  0.00    +0.120 C 
ATOM      6  C   LIG    1       -6.787   2.017  -1.459  0.00  0.00    +0.030 C 
ATOM      7  C   LIG    1       -6.172   0.630  -1.256  0.00  0.00    +0.040 C 
ATOM      8  C   LIG    1       -4.687   0.776  -0.898  0.00  0.00    +0.110 C 
ATOM      9  C   LIG    1       -4.564   1.783   0.215  0.00  0.00    -0.030 A 
ENDROOT
BRANCH   1  10
ATOM     10  C   LIG    1       -2.231   1.282   1.040  0.00  0.00    +0.330 C 
BRANCH  10  11
ATOM     11  C   LIG    1       -1.293   1.929   0.019  0.00  0.00    +0.250 C 
BRANCH  11  13
ATOM     12  O   LIG    1        0.002  -0.004   0.002  0.00  0.00    -0.150 OA
ATOM     13  N   LIG    1       -0.014   1.214   0.009  0.00  0.00    -0.020 N 
ATOM     14  O   LIG    1        1.032   1.837   0.002  0.00  0.00    -0.150 OA
ENDBRANCH  11  13
ENDBRANCH  10  11
ENDBRANCH   1  10
TORSDOF 3
