REMARK  Name = ZINC000140024116
REMARK                            x       y       z     vdW  Elec       q    Type
REMARK                         _______ _______ _______ _____ _____    ______ ____
ROOT
ATOM      1  C   LIG    1       -0.227  -0.770  -1.273  0.00  0.00    -0.160 A 
ATOM      2  C   LIG    1       -0.346  -0.070  -2.480  0.00  0.00    +0.120 A 
ATOM      3  C   LIG    1       -0.126  -0.713  -3.665  0.00  0.00    +0.000 A 
ATOM      4  C   LIG    1        0.218  -2.062  -3.674  0.00  0.00    +0.240 A 
ATOM      5  C   LIG    1        0.338  -2.763  -2.475  0.00  0.00    +0.010 A 
ATOM      6  C   LIG    1        0.124  -2.127  -1.286  0.00  0.00    +0.040 A 
ENDROOT
BRANCH   1   8
ATOM      7  C   LIG    1       -1.750  -0.307   0.752  0.00  0.00    +0.090 C 
ATOM      8  C   LIG    1       -0.462  -0.083   0.003  0.00  0.00    +0.410 C 
ATOM      9  O   LIG    1        0.380   0.664   0.453  0.00  0.00    -0.430 OA
ENDBRANCH   1   8
BRANCH   4  10
ATOM     10  N   LIG    1        0.441  -2.712  -4.881  0.00  0.00    -0.860 N 
ATOM     11  H   LIG    1        0.681  -3.652  -4.888  0.00  0.00    +0.410 HD
ATOM     12  H   LIG    1        0.358  -2.226  -5.716  0.00  0.00    +0.410 HD
ENDBRANCH   4  10
BRANCH   6  13
ATOM     13  N   LIG    1        0.253  -2.871  -0.013  0.00  0.00    +0.020 N 
ATOM     14  O   LIG    1        0.168  -2.281   1.049  0.00  0.00    -0.150 OA
ATOM     15  O   LIG    1        0.444  -4.074  -0.028  0.00  0.00    -0.140 OA
ENDBRANCH   6  13
TORSDOF 3
