REMARK  Name = ZINC000899231965
REMARK                            x       y       z     vdW  Elec       q    Type
REMARK                         _______ _______ _______ _____ _____    ______ ____
ROOT
ATOM      1  C   LIG    1       -0.018   1.503   0.010  0.00  0.00    +0.090 C 
ATOM      2  C   LIG    1        0.002  -0.004   0.002  0.00  0.00    -0.090 A 
ATOM      3  C   LIG    1        0.006  -0.689  -1.198  0.00  0.00    +0.010 A 
ATOM      4  C   LIG    1        0.025  -2.071  -1.206  0.00  0.00    +0.020 A 
ATOM      5  C   LIG    1        0.041  -2.772  -0.014  0.00  0.00    +0.010 A 
ATOM      6  C   LIG    1        0.037  -2.092   1.188  0.00  0.00    -0.090 A 
ATOM      7  C   LIG    1        0.054  -2.856   2.487  0.00  0.00    +0.090 C 
ATOM      8  C   LIG    1        0.023  -0.705   1.199  0.00  0.00    +0.080 A 
ENDROOT
BRANCH   8   9
ATOM      9  O   LIG    1        0.019  -0.033   2.381  0.00  0.00    -0.330 OA
BRANCH   9  10
ATOM     10  C   LIG    1        1.291   0.300   2.942  0.00  0.00    +0.230 C 
BRANCH  10  11
ATOM     11  C   LIG    1        1.086   1.047   4.261  0.00  0.00    +0.280 C 
BRANCH  11  12
ATOM     12  N   LIG    1        0.455   0.154   5.235  0.00  0.00    -0.010 N 
ATOM     13  O   LIG    1       -0.472   0.553   5.916  0.00  0.00    -0.160 OA
ATOM     14  O   LIG    1        0.858  -0.988   5.365  0.00  0.00    -0.160 OA
ENDBRANCH  11  12
ENDBRANCH  10  11
ENDBRANCH   9  10
ENDBRANCH   8   9
TORSDOF 4
