REMARK  Name = ZINC000600521582
REMARK                            x       y       z     vdW  Elec       q    Type
REMARK                         _______ _______ _______ _____ _____    ______ ____
ROOT
ATOM      1  N   LIG    1       -2.034  -3.792  -0.879  0.00  0.00    -0.320 N 
ATOM      2  N   LIG    1       -0.777  -4.394  -1.020  0.00  0.00    -0.220 NA
ATOM      3  C   LIG    1       -0.955  -5.613  -1.461  0.00  0.00    +0.260 A 
ATOM      4  C   LIG    1       -2.329  -5.825  -1.615  0.00  0.00    +0.020 A 
ATOM      5  C   LIG    1       -2.970  -4.692  -1.246  0.00  0.00    +0.110 A 
ENDROOT
BRANCH   1   8
ATOM      6  C   LIG    1       -1.295  -0.603   0.011  0.00  0.00    +0.170 C 
ATOM      7  C   LIG    1       -1.641  -1.344  -1.291  0.00  0.00    +0.040 C 
ATOM      8  C   LIG    1       -2.287  -2.427  -0.411  0.00  0.00    +0.260 C 
ATOM      9  C   LIG    1       -1.337  -1.973   0.709  0.00  0.00    +0.060 C 
BRANCH   6  11
ATOM     10  C   LIG    1       -0.017   1.425   0.010  0.00  0.00    +0.210 C 
ATOM     11  O   LIG    1        0.002  -0.004   0.002  0.00  0.00    -0.370 OA
ENDBRANCH   6  11
ENDBRANCH   1   8
BRANCH   5  12
ATOM     12  N   LIG    1       -4.434  -4.476  -1.251  0.00  0.00    +0.050 N 
ATOM     13  O   LIG    1       -4.893  -3.406  -0.893  0.00  0.00    -0.160 OA
ATOM     14  O   LIG    1       -5.180  -5.368  -1.613  0.00  0.00    -0.110 OA
ENDBRANCH   5  12
TORSDOF 3
