REMARK  Name = ZINC000039233799
REMARK                            x       y       z     vdW  Elec       q    Type
REMARK                         _______ _______ _______ _____ _____    ______ ____
ROOT
ATOM      1  C   LIG    1       -1.264  -0.754  -0.029  0.00  0.00    -0.230 A 
ATOM      2  C   LIG    1       -2.492  -0.086   0.086  0.00  0.00    +0.220 A 
ATOM      3  C   LIG    1       -3.649  -0.844   0.128  0.00  0.00    -0.120 A 
ATOM      4  C   LIG    1       -3.559  -2.223   0.055  0.00  0.00    +0.400 A 
ATOM      5  N   LIG    1       -2.390  -2.826  -0.053  0.00  0.00    -0.480 NA
ATOM      6  C   LIG    1       -1.261  -2.151  -0.102  0.00  0.00    +0.230 A 
ATOM      7  C   LIG    1        0.047  -2.890  -0.226  0.00  0.00    +0.180 C 
ENDROOT
BRANCH   1   9
ATOM      8  C   LIG    1       -0.009   1.494   0.130  0.00  0.00    +0.100 C 
ATOM      9  C   LIG    1       -0.003   0.001  -0.079  0.00  0.00    +0.400 C 
ATOM     10  O   LIG    1        1.042  -0.577  -0.287  0.00  0.00    -0.430 OA
ENDBRANCH   1   9
BRANCH   3  11
ATOM     11  N   LIG    1       -4.969  -0.187   0.248  0.00  0.00    +0.030 N 
ATOM     12  O   LIG    1       -5.984  -0.860   0.285  0.00  0.00    -0.140 OA
ATOM     13  O   LIG    1       -5.042   1.028   0.312  0.00  0.00    -0.150 OA
ENDBRANCH   3  11
TORSDOF 2
