REMARK  Name = ZINC000905300854
REMARK                            x       y       z     vdW  Elec       q    Type
REMARK                         _______ _______ _______ _____ _____    ______ ____
ROOT
ATOM      1  C   LIG    1       -1.412  -0.526   0.013  0.00  0.00    -0.130 A 
ATOM      2  C   LIG    1       -2.049  -0.766   1.216  0.00  0.00    +0.050 A 
ATOM      3  C   LIG    1       -3.345  -1.244   1.230  0.00  0.00    -0.060 A 
ATOM      4  C   LIG    1       -4.008  -1.483   0.032  0.00  0.00    +0.200 A 
ATOM      5  C   LIG    1       -3.364  -1.241  -1.175  0.00  0.00    -0.070 A 
ATOM      6  C   LIG    1       -2.070  -0.758  -1.181  0.00  0.00    +0.050 A 
ENDROOT
BRANCH   1   8
ATOM      7  C   LIG    1       -0.019   1.526   0.010  0.00  0.00    +0.010 C 
ATOM      8  C   LIG    1        0.002  -0.004   0.002  0.00  0.00    +0.060 C 
ENDBRANCH   1   8
BRANCH   4   9
ATOM      9  N   LIG    1       -5.318  -1.966   0.042  0.00  0.00    -0.750 N 
ATOM     10  H   LIG    1       -5.767  -2.135   0.886  0.00  0.00    +0.400 HD
BRANCH   9  11
ATOM     11  C   LIG    1       -6.015  -2.219  -1.221  0.00  0.00    +0.290 C 
BRANCH  11  12
ATOM     12  C   LIG    1       -7.425  -2.739  -0.931  0.00  0.00    +0.250 C 
BRANCH  12  13
ATOM     13  N   LIG    1       -8.122  -2.992  -2.194  0.00  0.00    -0.020 N 
ATOM     14  O   LIG    1       -9.273  -2.620  -2.340  0.00  0.00    -0.150 OA
ATOM     15  O   LIG    1       -7.551  -3.573  -3.100  0.00  0.00    -0.150 OA
ENDBRANCH  12  13
ENDBRANCH  11  12
ENDBRANCH   9  11
ENDBRANCH   4   9
TORSDOF 5
