REMARK  Name = ZINC000306525390
REMARK                            x       y       z     vdW  Elec       q    Type
REMARK                         _______ _______ _______ _____ _____    ______ ____
ROOT
ATOM      1  C   LIG    1       -0.018   1.503   0.010  0.00  0.00    +0.220 C 
ATOM      2  C   LIG    1        0.002  -0.004   0.002  0.00  0.00    +0.280 A 
ATOM      3  N   LIG    1        0.008  -0.759  -1.063  0.00  0.00    -0.470 NA
ATOM      4  C   LIG    1        0.028  -2.047  -0.691  0.00  0.00    +0.330 A 
ATOM      5  C   LIG    1        0.035  -2.093   0.655  0.00  0.00    +0.000 A 
ATOM      6  N   LIG    1        0.023  -0.797   1.095  0.00  0.00    -0.440 N 
ENDROOT
BRANCH   5   7
ATOM      7  N   LIG    1        0.055  -3.311   1.496  0.00  0.00    +0.070 N 
ATOM      8  O   LIG    1        0.060  -3.212   2.710  0.00  0.00    -0.160 OA
ATOM      9  O   LIG    1        0.068  -4.411   0.975  0.00  0.00    -0.130 OA
ENDBRANCH   5   7
BRANCH   6  10
ATOM     10  C   LIG    1        0.025  -0.353   2.491  0.00  0.00    +0.320 C 
BRANCH  10  11
ATOM     11  C   LIG    1        1.468  -0.184   2.971  0.00  0.00    +0.380 C 
ATOM     12  F   LIG    1        2.106  -1.429   2.977  0.00  0.00    -0.190 F 
ATOM     13  F   LIG    1        1.470   0.348   4.264  0.00  0.00    -0.180 F 
ENDBRANCH  10  11
ENDBRANCH   6  10
TORSDOF 3
