REMARK  Name = ZINC000039055006
REMARK                            x       y       z     vdW  Elec       q    Type
REMARK                         _______ _______ _______ _____ _____    ______ ____
ROOT
ATOM      1  C   LIG    1       -1.306   1.936   0.019  0.00  0.00    -0.040 A 
ATOM      2  C   LIG    1       -1.325   3.319   0.021  0.00  0.00    +0.110 A 
ATOM      3  C   LIG    1       -2.531   3.993   0.030  0.00  0.00    +0.050 A 
ATOM      4  C   LIG    1       -3.719   3.286   0.037  0.00  0.00    -0.070 A 
ATOM      5  C   LIG    1       -3.700   1.904   0.034  0.00  0.00    +0.040 A 
ATOM      6  C   LIG    1       -2.494   1.229   0.021  0.00  0.00    +0.110 A 
ENDROOT
BRANCH   1   8
ATOM      7  O   LIG    1        0.002  -0.004   0.002  0.00  0.00    -0.150 OA
ATOM      8  N   LIG    1       -0.014   1.214   0.009  0.00  0.00    +0.020 N 
ATOM      9  O   LIG    1        1.032   1.837   0.002  0.00  0.00    -0.150 OA
ENDBRANCH   1   8
BRANCH   4  10
ATOM     10  C   LIG    1       -5.034   4.022   0.048  0.00  0.00    +0.240 C 
BRANCH  10  11
ATOM     11  C   LIG    1       -5.612   4.055  -1.369  0.00  0.00    +0.210 C 
ATOM     12  F   LIG    1       -6.774   4.834  -1.381  0.00  0.00    -0.200 F 
ENDBRANCH  10  11
BRANCH  10  13
ATOM     13  O   LIG    1       -5.948   3.352   0.919  0.00  0.00    -0.540 OA
ATOM     14  H   LIG    1       -6.134   2.438   0.665  0.00  0.00    +0.380 HD
ENDBRANCH  10  13
ENDBRANCH   4  10
TORSDOF 4
