REMARK  Name = ZINC000918344093
REMARK                            x       y       z     vdW  Elec       q    Type
REMARK                         _______ _______ _______ _____ _____    ______ ____
ROOT
ATOM      1  N   LIG    1        0.667  -0.609   3.684  0.00  0.00    -0.410 N 
ATOM      2  C   LIG    1        0.440  -1.789   4.340  0.00  0.00    +0.210 A 
ATOM      3  C   LIG    1        1.308  -1.837   5.368  0.00  0.00    +0.190 A 
ATOM      4  N   LIG    1        2.045  -0.716   5.341  0.00  0.00    -0.400 NA
ATOM      5  C   LIG    1        1.670   0.022   4.332  0.00  0.00    +0.230 A 
ENDROOT
BRANCH   5   6
ATOM      6  N   LIG    1        2.243   1.336   3.964  0.00  0.00    +0.070 N 
ATOM      7  O   LIG    1        1.813   1.938   2.997  0.00  0.00    -0.150 OA
ATOM      8  O   LIG    1        3.145   1.815   4.629  0.00  0.00    -0.100 OA
ENDBRANCH   5   6
BRANCH   1   9
ATOM      9  C   LIG    1       -0.042  -0.124   2.497  0.00  0.00    +0.310 C 
BRANCH   9  10
ATOM     10  C   LIG    1        0.742  -0.511   1.242  0.00  0.00    +0.010 C 
BRANCH  10  12
ATOM     11  C   LIG    1       -0.019   1.526   0.010  0.00  0.00    +0.030 C 
ATOM     12  C   LIG    1        0.002  -0.004   0.002  0.00  0.00    -0.020 C 
ATOM     13  C   LIG    1        0.718  -0.497  -1.257  0.00  0.00    +0.020 C 
ENDBRANCH  10  12
ENDBRANCH   9  10
ENDBRANCH   1   9
TORSDOF 4
