REMARK  Name = ZINC000306232700
REMARK                            x       y       z     vdW  Elec       q    Type
REMARK                         _______ _______ _______ _____ _____    ______ ____
ROOT
ATOM      1  C   LIG    1        0.030  -0.638   2.392  0.00  0.00    +0.450 A 
ATOM      2  C   LIG    1       -1.324  -0.330   2.461  0.00  0.00    -0.090 A 
ATOM      3  C   LIG    1       -1.989  -0.482   3.664  0.00  0.00    +0.190 A 
ATOM      4  C   LIG    1       -1.273  -0.941   4.763  0.00  0.00    -0.160 A 
ATOM      5  C   LIG    1        0.070  -1.228   4.623  0.00  0.00    +0.430 A 
ATOM      6  N   LIG    1        0.677  -1.077   3.461  0.00  0.00    -0.530 NA
ENDROOT
BRANCH   4   7
ATOM      7  N   LIG    1       -1.944  -1.119   6.070  0.00  0.00    +0.040 N 
ATOM      8  O   LIG    1       -1.311  -1.522   7.029  0.00  0.00    -0.170 OA
ATOM      9  O   LIG    1       -3.130  -0.865   6.186  0.00  0.00    -0.170 OA
ENDBRANCH   4   7
BRANCH   1  10
ATOM     10  N   LIG    1        0.711  -0.489   1.189  0.00  0.00    -0.700 N 
ATOM     11  H   LIG    1        1.654  -0.707   1.135  0.00  0.00    +0.410 HD
BRANCH  10  13
ATOM     12  C   LIG    1       -0.019   1.526   0.010  0.00  0.00    +0.050 C 
ATOM     13  C   LIG    1        0.002  -0.004   0.002  0.00  0.00    +0.210 C 
BRANCH  13  14
ATOM     14  C   LIG    1        0.718  -0.497  -1.257  0.00  0.00    +0.240 C 
ATOM     15  F   LIG    1        0.737  -1.896  -1.264  0.00  0.00    -0.210 F 
ENDBRANCH  13  14
ENDBRANCH  10  13
ENDBRANCH   1  10
TORSDOF 4
