REMARK  Name = ZINC000089219876
REMARK                            x       y       z     vdW  Elec       q    Type
REMARK                         _______ _______ _______ _____ _____    ______ ____
ROOT
ATOM      1  C   LIG    1       -0.018   1.503   0.010  0.00  0.00    +0.150 C 
ATOM      2  C   LIG    1        0.002  -0.004   0.002  0.00  0.00    +0.140 A 
ATOM      3  C   LIG    1        0.005  -0.677  -1.213  0.00  0.00    +0.050 A 
ATOM      4  C   LIG    1        0.025  -2.058  -1.228  0.00  0.00    +0.090 A 
ATOM      5  C   LIG    1        0.040  -2.730  -0.007  0.00  0.00    +0.070 A 
ATOM      6  N   LIG    1        0.060  -4.053   0.351  0.00  0.00    -0.450 N 
ATOM      7  H   LIG    1        0.067  -4.808  -0.257  0.00  0.00    +0.460 HD
ATOM      8  N   LIG    1        0.068  -4.122   1.750  0.00  0.00    -0.140 NA
ATOM      9  C   LIG    1        0.054  -2.921   2.251  0.00  0.00    +0.150 A 
ATOM     10  C   LIG    1        0.035  -1.985   1.188  0.00  0.00    +0.060 A 
ATOM     11  N   LIG    1        0.022  -0.652   1.144  0.00  0.00    -0.410 NA
ENDROOT
BRANCH   9  12
ATOM     12  N   LIG    1        0.057  -2.588   3.693  0.00  0.00    +0.050 N 
ATOM     13  O   LIG    1        0.043  -1.424   4.049  0.00  0.00    -0.090 OA
ATOM     14  O   LIG    1        0.073  -3.479   4.524  0.00  0.00    -0.130 OA
ENDBRANCH   9  12
TORSDOF 1
