REMARK  Name = ZINC000299890286
REMARK                            x       y       z     vdW  Elec       q    Type
REMARK                         _______ _______ _______ _____ _____    ______ ____
ROOT
ATOM      1  C   LIG    1       -2.016  -0.759   1.227  0.00  0.00    +0.220 A 
ATOM      2  C   LIG    1       -3.321  -1.247   1.249  0.00  0.00    +0.000 A 
ATOM      3  C   LIG    1       -3.916  -1.478   2.478  0.00  0.00    +0.120 A 
ATOM      4  C   LIG    1       -3.203  -1.219   3.634  0.00  0.00    +0.090 A 
ATOM      5  N   LIG    1       -1.968  -0.758   3.579  0.00  0.00    -0.390 NA
ATOM      6  C   LIG    1       -1.363  -0.529   2.431  0.00  0.00    +0.230 A 
ENDROOT
BRANCH   4   7
ATOM      7  N   LIG    1       -3.833  -1.464   4.950  0.00  0.00    +0.040 N 
ATOM      8  O   LIG    1       -3.212  -1.238   5.974  0.00  0.00    -0.130 OA
ATOM      9  O   LIG    1       -4.972  -1.890   5.011  0.00  0.00    -0.170 OA
ENDBRANCH   4   7
BRANCH   1  10
ATOM     10  N   LIG    1       -1.372  -0.511   0.012  0.00  0.00    -0.600 N 
BRANCH  10  12
ATOM     11  C   LIG    1       -0.019   1.526   0.010  0.00  0.00    +0.010 C 
ATOM     12  C   LIG    1        0.002  -0.004   0.002  0.00  0.00    +0.280 C 
ENDBRANCH  10  12
BRANCH  10  13
ATOM     13  C   LIG    1       -2.072  -0.758  -1.251  0.00  0.00    +0.280 C 
ATOM     14  C   LIG    1       -1.816  -2.197  -1.703  0.00  0.00    +0.010 C 
ENDBRANCH  10  13
ENDBRANCH   1  10
TORSDOF 4
