REMARK  Name = ZINC000590596062
REMARK                            x       y       z     vdW  Elec       q    Type
REMARK                         _______ _______ _______ _____ _____    ______ ____
ROOT
ATOM      1  N   LIG    1       -0.672  -2.041  -1.133  0.00  0.00    -0.340 N 
ATOM      2  C   LIG    1       -0.102  -3.178  -0.681  0.00  0.00    +0.370 A 
ATOM      3  C   LIG    1       -1.054  -4.139  -0.667  0.00  0.00    -0.190 A 
ATOM      4  C   LIG    1       -2.247  -3.570  -1.125  0.00  0.00    +0.150 A 
ATOM      5  C   LIG    1       -3.566  -4.283  -1.272  0.00  0.00    +0.190 C 
ATOM      6  N   LIG    1       -2.020  -2.311  -1.399  0.00  0.00    -0.270 NA
ENDROOT
BRANCH   3   7
ATOM      7  N   LIG    1       -0.867  -5.544  -0.240  0.00  0.00    +0.070 N 
ATOM      8  O   LIG    1       -1.805  -6.320  -0.272  0.00  0.00    -0.160 OA
ATOM      9  O   LIG    1        0.225  -5.924   0.142  0.00  0.00    -0.170 OA
ENDBRANCH   3   7
BRANCH   1  10
ATOM     10  C   LIG    1       -0.000  -0.750  -1.307  0.00  0.00    +0.250 C 
ATOM     11  C   LIG    1        1.441  -0.983  -1.764  0.00  0.00    +0.100 C 
BRANCH  10  13
ATOM     12  C   LIG    1       -0.018   1.503   0.010  0.00  0.00    +0.100 C 
ATOM     13  C   LIG    1        0.002  -0.004   0.002  0.00  0.00    +0.340 C 
ATOM     14  O   LIG    1        0.020  -0.613   1.044  0.00  0.00    -0.430 OA
ENDBRANCH  10  13
ENDBRANCH   1  10
TORSDOF 3
