REMARK  Name = ZINC000379384521
REMARK                            x       y       z     vdW  Elec       q    Type
REMARK                         _______ _______ _______ _____ _____    ______ ____
ROOT
ATOM      1  C   LIG    1       -0.207  -3.672  -1.416  0.00  0.00    +0.200 C 
ENDROOT
BRANCH   1   2
ATOM      2  O   LIG    1       -0.890  -2.417  -1.400  0.00  0.00    -0.380 OA
BRANCH   2   3
ATOM      3  C   LIG    1       -1.416  -2.058  -0.121  0.00  0.00    +0.160 C 
ATOM      4  C   LIG    1       -2.841  -2.598   0.015  0.00  0.00    +0.010 C 
BRANCH   3   5
ATOM      5  C   LIG    1       -1.433  -0.534   0.013  0.00  0.00    +0.040 C 
BRANCH   5   7
ATOM      6  C   LIG    1       -0.019   1.526   0.010  0.00  0.00    +0.000 C 
ATOM      7  C   LIG    1        0.002  -0.004   0.002  0.00  0.00    -0.020 C 
ATOM      8  C   LIG    1        0.742  -0.511   1.242  0.00  0.00    +0.000 C 
ENDBRANCH   5   7
ENDBRANCH   3   5
ENDBRANCH   2   3
ENDBRANCH   1   2
BRANCH   1   9
ATOM      9  C   LIG    1        0.311  -3.954  -2.828  0.00  0.00    +0.090 C 
BRANCH   9  10
ATOM     10  C   LIG    1        1.031  -5.277  -2.845  0.00  0.00    +0.530 C 
ATOM     11  N   LIG    1        1.575  -5.734  -3.990  0.00  0.00    -0.600 N 
ATOM     12  H   LIG    1        1.503  -5.211  -4.804  0.00  0.00    +0.410 HD
ATOM     13  O   LIG    1        1.121  -5.932  -1.827  0.00  0.00    -0.520 OA
BRANCH  11  14
ATOM     14  O   LIG    1        2.251  -6.978  -4.006  0.00  0.00    -0.320 OA
ATOM     15  H   LIG    1        2.607  -7.222  -4.871  0.00  0.00    +0.390 HD
ENDBRANCH  11  14
ENDBRANCH   9  10
ENDBRANCH   1   9
TORSDOF 7
