REMARK  Name = ZINC000901532784
REMARK                            x       y       z     vdW  Elec       q    Type
REMARK                         _______ _______ _______ _____ _____    ______ ____
ROOT
ATOM      1  C   LIG    1       -2.566   5.194   2.276  0.00  0.00    -0.070 A 
ATOM      2  C   LIG    1       -1.347   5.284   2.938  0.00  0.00    -0.010 A 
ATOM      3  C   LIG    1       -1.149   6.261   3.894  0.00  0.00    +0.060 A 
ATOM      4  C   LIG    1       -2.162   7.152   4.195  0.00  0.00    +0.000 A 
ATOM      5  C   LIG    1       -3.382   7.068   3.537  0.00  0.00    +0.130 A 
ATOM      6  C   LIG    1       -3.583   6.093   2.574  0.00  0.00    +0.020 A 
ENDROOT
BRANCH   5   7
ATOM      7  O   LIG    1       -4.376   7.945   3.834  0.00  0.00    -0.500 OA
ATOM      8  H   LIG    1       -4.365   8.749   3.296  0.00  0.00    +0.400 HD
ENDBRANCH   5   7
BRANCH   1   9
ATOM      9  S   LIG    1       -2.818   3.948   1.057  0.00  0.00    -0.070 S 
BRANCH   9  10
ATOM     10  C   LIG    1       -1.235   3.063   1.045  0.00  0.00    +0.090 C 
BRANCH  10  11
ATOM     11  C   LIG    1       -1.293   1.929   0.019  0.00  0.00    +0.290 C 
BRANCH  11  13
ATOM     12  O   LIG    1        0.002  -0.004   0.002  0.00  0.00    -0.150 OA
ATOM     13  N   LIG    1       -0.014   1.214   0.009  0.00  0.00    -0.020 N 
ATOM     14  O   LIG    1        1.032   1.837   0.002  0.00  0.00    -0.150 OA
ENDBRANCH  11  13
ENDBRANCH  10  11
ENDBRANCH   9  10
ENDBRANCH   1   9
TORSDOF 5
