REMARK  Name = ZINC000059467710
REMARK                            x       y       z     vdW  Elec       q    Type
REMARK                         _______ _______ _______ _____ _____    ______ ____
ROOT
ATOM      1  C   LIG    1       -0.018   1.503   0.010  0.00  0.00    +0.110 C 
ATOM      2  C   LIG    1        0.002  -0.004   0.002  0.00  0.00    -0.040 A 
ATOM      3  C   LIG    1        0.005  -0.658  -1.187  0.00  0.00    +0.040 A 
ATOM      4  C   LIG    1        0.025  -2.069  -1.204  0.00  0.00    -0.190 A 
ATOM      5  C   LIG    1        0.033  -3.031  -2.197  0.00  0.00    +0.290 A 
ATOM      6  N   LIG    1        0.053  -4.233  -1.605  0.00  0.00    -0.410 N 
ATOM      7  H   LIG    1        0.062  -5.083  -2.072  0.00  0.00    +0.450 HD
ATOM      8  N   LIG    1        0.058  -4.081  -0.214  0.00  0.00    -0.280 NA
ATOM      9  C   LIG    1        0.041  -2.793   0.077  0.00  0.00    +0.110 A 
ATOM     10  C   LIG    1        0.037  -2.046   1.274  0.00  0.00    +0.100 A 
ATOM     11  C   LIG    1        0.023  -0.691   1.218  0.00  0.00    +0.070 A 
ENDROOT
BRANCH   3  12
ATOM     12  N   LIG    1       -0.011   0.103  -2.456  0.00  0.00    +0.020 N 
ATOM     13  O   LIG    1       -1.073   0.402  -2.973  0.00  0.00    -0.140 OA
ATOM     14  O   LIG    1        1.037   0.430  -2.983  0.00  0.00    -0.140 OA
ENDBRANCH   3  12
TORSDOF 1
