REMARK  Name = ZINC000089196552
REMARK                            x       y       z     vdW  Elec       q    Type
REMARK                         _______ _______ _______ _____ _____    ______ ____
ROOT
ATOM      1  C   LIG    1        0.002  -0.004   0.002  0.00  0.00    +0.350 A 
ATOM      2  C   LIG    1       -1.204  -0.728   0.004  0.00  0.00    -0.250 A 
ATOM      3  C   LIG    1       -2.567  -0.351   0.013  0.00  0.00    +0.300 A 
ATOM      4  N   LIG    1       -3.297  -1.429   0.011  0.00  0.00    -0.250 NA
ATOM      5  N   LIG    1       -2.472  -2.559  -0.000  0.00  0.00    -0.480 N 
ATOM      6  H   LIG    1       -2.770  -3.482  -0.004  0.00  0.00    +0.460 HD
ATOM      7  C   LIG    1       -1.168  -2.135  -0.004  0.00  0.00    +0.220 A 
ATOM      8  C   LIG    1        0.059  -2.794  -0.015  0.00  0.00    -0.140 A 
ATOM      9  C   LIG    1        1.230  -2.071  -0.018  0.00  0.00    +0.220 A 
ATOM     10  C   LIG    1        1.206  -0.683  -0.013  0.00  0.00    -0.100 A 
ENDROOT
BRANCH   1  11
ATOM     11  N   LIG    1       -0.017   1.390   0.010  0.00  0.00    -0.840 N 
ATOM     12  H   LIG    1       -0.863   1.863   0.016  0.00  0.00    +0.410 HD
ATOM     13  H   LIG    1        0.817   1.886   0.004  0.00  0.00    +0.410 HD
ENDBRANCH   1  11
BRANCH   8  14
ATOM     14  N   LIG    1        0.103  -4.274  -0.025  0.00  0.00    +0.050 N 
ATOM     15  O   LIG    1       -0.933  -4.914  -0.023  0.00  0.00    -0.210 OA
ATOM     16  O   LIG    1        1.176  -4.851  -0.034  0.00  0.00    -0.170 OA
ENDBRANCH   8  14
TORSDOF 2
