REMARK  Name = ZINC000308319611
REMARK                            x       y       z     vdW  Elec       q    Type
REMARK                         _______ _______ _______ _____ _____    ______ ____
ROOT
ATOM      1  N   LIG    1        1.210  -2.487  -2.591  0.00  0.00    -0.340 N 
ATOM      2  C   LIG    1        2.196  -3.399  -2.725  0.00  0.00    +0.350 A 
ATOM      3  C   LIG    1        2.444  -3.548  -4.047  0.00  0.00    -0.190 A 
ATOM      4  C   LIG    1        1.580  -2.699  -4.745  0.00  0.00    +0.320 A 
ATOM      5  N   LIG    1        0.836  -2.067  -3.874  0.00  0.00    -0.260 NA
ENDROOT
BRANCH   3   6
ATOM      6  N   LIG    1        3.451  -4.452  -4.647  0.00  0.00    +0.070 N 
ATOM      7  O   LIG    1        3.582  -4.499  -5.857  0.00  0.00    -0.160 OA
ATOM      8  O   LIG    1        4.148  -5.148  -3.932  0.00  0.00    -0.170 OA
ENDBRANCH   3   6
BRANCH   1   9
ATOM      9  C   LIG    1        0.630  -2.023  -1.329  0.00  0.00    +0.340 C 
BRANCH   9  10
ATOM     10  C   LIG    1        0.718  -0.497  -1.257  0.00  0.00    -0.020 C 
ATOM     11  C   LIG    1        2.187  -0.073  -1.207  0.00  0.00    +0.030 C 
BRANCH  10  13
ATOM     12  C   LIG    1       -0.019   1.526   0.010  0.00  0.00    +0.030 C 
ATOM     13  C   LIG    1        0.002  -0.004   0.002  0.00  0.00    +0.020 C 
ENDBRANCH  10  13
ENDBRANCH   9  10
ENDBRANCH   1   9
TORSDOF 4
