REMARK  Name = ZINC001333118748
REMARK                            x       y       z     vdW  Elec       q    Type
REMARK                         _______ _______ _______ _____ _____    ______ ____
ROOT
ATOM      1  C   LIG    1        0.270   1.373  -0.368  0.00  0.00    +0.060 C 
ATOM      2  C   LIG    1        0.353  -0.147  -0.217  0.00  0.00    -0.080 C 
ATOM      3  C   LIG    1        1.714  -0.738  -0.627  0.00  0.00    +0.190 C 
ATOM      4  N   LIG    1        2.109  -0.551   0.787  0.00  0.00    -0.470 NA
ATOM      5  C   LIG    1       -0.846  -0.874  -0.831  0.00  0.00    +0.040 C 
ATOM      6  C   LIG    1        0.693  -0.611   1.211  0.00  0.00    +0.050 C 
ATOM      7  C   LIG    1        0.204  -2.024   1.533  0.00  0.00    +0.050 C 
ATOM      8  C   LIG    1        0.330   0.409   2.292  0.00  0.00    +0.060 C 
ENDROOT
BRANCH   4   9
ATOM      9  C   LIG    1        2.856  -1.714   1.283  0.00  0.00    +0.180 C 
BRANCH   9  10
ATOM     10  C   LIG    1        3.144  -1.537   2.775  0.00  0.00    +0.270 C 
BRANCH  10  11
ATOM     11  N   LIG    1        3.989  -2.639   3.243  0.00  0.00    -0.020 N 
ATOM     12  O   LIG    1        3.735  -3.784   2.915  0.00  0.00    -0.160 OA
ATOM     13  O   LIG    1        4.947  -2.409   3.960  0.00  0.00    -0.160 OA
ENDBRANCH  10  11
ENDBRANCH   9  10
ENDBRANCH   4   9
TORSDOF 3
