REMARK  Name = ZINC000085223480
REMARK                            x       y       z     vdW  Elec       q    Type
REMARK                         _______ _______ _______ _____ _____    ______ ____
ROOT
ATOM      1  C   LIG    1       -1.212  -0.695   0.014  0.00  0.00    +0.250 A 
ATOM      2  C   LIG    1       -2.421  -0.068   0.293  0.00  0.00    -0.020 A 
ATOM      3  C   LIG    1       -3.599  -0.793   0.296  0.00  0.00    +0.140 A 
ATOM      4  C   LIG    1       -3.583  -2.145   0.022  0.00  0.00    -0.060 A 
ATOM      5  C   LIG    1       -2.373  -2.787  -0.261  0.00  0.00    -0.080 A 
ATOM      6  C   LIG    1       -1.184  -2.052  -0.269  0.00  0.00    +0.020 A 
ENDROOT
BRANCH   1   8
ATOM      7  C   LIG    1       -0.056   1.477   0.312  0.00  0.00    +0.280 C 
ATOM      8  N   LIG    1       -0.026   0.043   0.013  0.00  0.00    -0.730 N 
ATOM      9  H   LIG    1        0.817  -0.393  -0.186  0.00  0.00    +0.410 HD
ENDBRANCH   1   8
BRANCH   4  10
ATOM     10  N   LIG    1       -4.847  -2.916   0.026  0.00  0.00    +0.030 N 
ATOM     11  O   LIG    1       -4.865  -4.052   0.465  0.00  0.00    -0.160 OA
ATOM     12  O   LIG    1       -5.868  -2.414  -0.409  0.00  0.00    -0.150 OA
ENDBRANCH   4  10
BRANCH   5  13
ATOM     13  C   LIG    1       -2.352  -4.229  -0.555  0.00  0.00    +0.500 C 
ATOM     14  O   LIG    1       -1.294  -4.802  -0.706  0.00  0.00    -0.430 OA
ENDBRANCH   5  13
TORSDOF 3
