REMARK  Name = ZINC000052211535
REMARK                            x       y       z     vdW  Elec       q    Type
REMARK                         _______ _______ _______ _____ _____    ______ ____
ROOT
ATOM      1  C   LIG    1       -1.200   1.907  -0.188  0.00  0.00    -0.200 A 
ATOM      2  C   LIG    1       -2.392   1.213  -0.282  0.00  0.00    +0.200 A 
ATOM      3  C   LIG    1       -3.578   1.900  -0.059  0.00  0.00    -0.080 A 
ATOM      4  C   LIG    1       -3.534   3.245   0.247  0.00  0.00    +0.390 A 
ATOM      5  N   LIG    1       -2.381   3.882   0.329  0.00  0.00    -0.530 NA
ATOM      6  C   LIG    1       -1.228   3.262   0.130  0.00  0.00    +0.480 A 
ENDROOT
BRANCH   1   8
ATOM      7  O   LIG    1        0.880   1.847  -0.988  0.00  0.00    -0.210 OA
ATOM      8  N   LIG    1       -0.019   1.276  -0.397  0.00  0.00    +0.080 N 
ATOM      9  O   LIG    1        0.145   0.140   0.010  0.00  0.00    -0.170 OA
ENDBRANCH   1   8
BRANCH   6  10
ATOM     10  N   LIG    1       -0.038   3.972   0.227  0.00  0.00    -0.670 N 
ATOM     11  H   LIG    1        0.811   3.509   0.152  0.00  0.00    +0.420 HD
BRANCH  10  12
ATOM     12  C   LIG    1       -0.065   5.421   0.442  0.00  0.00    +0.230 C 
ATOM     13  C   LIG    1        0.357   5.842   1.859  0.00  0.00    +0.020 C 
ATOM     14  C   LIG    1        1.800   5.893   1.330  0.00  0.00    +0.010 C 
ATOM     15  C   LIG    1        1.197   6.142  -0.062  0.00  0.00    +0.030 C 
ENDBRANCH  10  12
ENDBRANCH   6  10
TORSDOF 3
