REMARK  Name = ZINC000901586882
REMARK                            x       y       z     vdW  Elec       q    Type
REMARK                         _______ _______ _______ _____ _____    ______ ____
ROOT
ATOM      1  N   LIG    1        2.860  -3.074   1.490  0.00  0.00    -0.410 N 
ATOM      2  C   LIG    1        3.008  -2.939   2.844  0.00  0.00    +0.220 A 
ATOM      3  C   LIG    1        3.031  -4.184   3.358  0.00  0.00    +0.190 A 
ATOM      4  N   LIG    1        2.901  -5.054   2.346  0.00  0.00    -0.400 NA
ATOM      5  C   LIG    1        2.793  -4.396   1.224  0.00  0.00    +0.230 A 
ENDROOT
BRANCH   5   6
ATOM      6  N   LIG    1        2.632  -4.999  -0.118  0.00  0.00    +0.070 N 
ATOM      7  O   LIG    1        2.540  -4.285  -1.100  0.00  0.00    -0.150 OA
ATOM      8  O   LIG    1        2.592  -6.210  -0.240  0.00  0.00    -0.100 OA
ENDBRANCH   5   6
BRANCH   1   9
ATOM      9  C   LIG    1        2.783  -1.985   0.512  0.00  0.00    +0.320 C 
BRANCH   9  13
ATOM     10  C   LIG    1       -0.019   1.526   0.010  0.00  0.00    +0.040 C 
ATOM     11  C   LIG    1        0.002  -0.004   0.002  0.00  0.00    -0.020 C 
ATOM     12  C   LIG    1        1.120  -0.600  -0.870  0.00  0.00    +0.050 C 
ATOM     13  C   LIG    1        1.315  -1.650   0.237  0.00  0.00    -0.040 C 
ATOM     14  C   LIG    1        0.727  -0.617   1.212  0.00  0.00    +0.030 C 
ENDBRANCH   9  13
ENDBRANCH   1   9
TORSDOF 3
