REMARK  Name = ZINC000755910495
REMARK                            x       y       z     vdW  Elec       q    Type
REMARK                         _______ _______ _______ _____ _____    ______ ____
ROOT
ATOM      1  C   LIG    1       -1.416  -1.299  -2.257  0.00  0.00    +0.390 A 
ATOM      2  N   LIG    1       -0.456  -2.165  -1.976  0.00  0.00    -0.510 NA
ATOM      3  C   LIG    1        0.030  -2.981  -2.892  0.00  0.00    +0.370 A 
ATOM      4  C   LIG    1       -0.450  -2.959  -4.186  0.00  0.00    -0.170 A 
ATOM      5  C   LIG    1       -1.458  -2.064  -4.521  0.00  0.00    +0.190 A 
ATOM      6  C   LIG    1        0.113  -3.896  -5.224  0.00  0.00    +0.130 C 
ATOM      7  C   LIG    1       -1.951  -1.226  -3.537  0.00  0.00    -0.120 A 
ENDROOT
BRANCH   7   8
ATOM      8  N   LIG    1       -3.025  -0.256  -3.846  0.00  0.00    +0.040 N 
ATOM      9  O   LIG    1       -3.453   0.478  -2.973  0.00  0.00    -0.130 OA
ATOM     10  O   LIG    1       -3.481  -0.192  -4.974  0.00  0.00    -0.170 OA
ENDBRANCH   7   8
BRANCH   1  11
ATOM     11  O   LIG    1       -1.886  -0.479  -1.284  0.00  0.00    -0.290 OA
BRANCH  11  12
ATOM     12  C   LIG    1       -1.295  -0.603   0.011  0.00  0.00    +0.450 C 
BRANCH  12  14
ATOM     13  C   LIG    1       -0.017   1.425   0.010  0.00  0.00    +0.210 C 
ATOM     14  O   LIG    1        0.002  -0.004   0.002  0.00  0.00    -0.380 OA
ENDBRANCH  12  14
ENDBRANCH  11  12
ENDBRANCH   1  11
TORSDOF 4
