REMARK  Name = ZINC000035277408
REMARK                            x       y       z     vdW  Elec       q    Type
REMARK                         _______ _______ _______ _____ _____    ______ ____
ROOT
ATOM      1  C   LIG    1       -0.538   1.446   0.087  0.00  0.00    +0.120 C 
ATOM      2  C   LIG    1       -0.247  -0.032   0.039  0.00  0.00    +0.030 A 
ATOM      3  C   LIG    1       -0.348  -0.716  -1.156  0.00  0.00    -0.060 A 
ATOM      4  C   LIG    1       -0.079  -2.079  -1.199  0.00  0.00    +0.270 A 
ATOM      5  C   LIG    1        0.290  -2.748  -0.040  0.00  0.00    -0.060 A 
ATOM      6  C   LIG    1        0.390  -2.057   1.153  0.00  0.00    +0.150 A 
ATOM      7  C   LIG    1        0.127  -0.700   1.191  0.00  0.00    -0.110 A 
ENDROOT
BRANCH   7   8
ATOM      8  N   LIG    1        0.235   0.037   2.470  0.00  0.00    +0.030 N 
ATOM      9  O   LIG    1       -0.113  -0.493   3.510  0.00  0.00    -0.170 OA
ATOM     10  O   LIG    1        0.673   1.174   2.482  0.00  0.00    -0.160 OA
ENDBRANCH   7   8
BRANCH   4  11
ATOM     11  N   LIG    1       -0.181  -2.774  -2.406  0.00  0.00    -0.720 N 
ATOM     12  H   LIG    1       -0.439  -2.306  -3.216  0.00  0.00    +0.410 HD
BRANCH  11  13
ATOM     13  C   LIG    1        0.103  -4.211  -2.450  0.00  0.00    +0.280 C 
BRANCH  13  14
ATOM     14  C   LIG    1       -0.080  -4.723  -3.880  0.00  0.00    +0.190 C 
BRANCH  14  15
ATOM     15  O   LIG    1        0.896  -4.119  -4.731  0.00  0.00    -0.570 OA
ATOM     16  H   LIG    1        0.839  -4.399  -5.655  0.00  0.00    +0.390 HD
ENDBRANCH  14  15
ENDBRANCH  13  14
ENDBRANCH  11  13
ENDBRANCH   4  11
TORSDOF 5
