REMARK  Name = ZINC000144347383
REMARK                            x       y       z     vdW  Elec       q    Type
REMARK                         _______ _______ _______ _____ _____    ______ ____
ROOT
ATOM      1  C   LIG    1       -1.199  -0.637   0.010  0.00  0.00    +0.220 A 
ATOM      2  C   LIG    1       -1.820  -0.970   1.210  0.00  0.00    -0.130 A 
ATOM      3  C   LIG    1       -3.041  -1.613   1.173  0.00  0.00    +0.390 A 
ATOM      4  N   LIG    1       -3.614  -1.909   0.025  0.00  0.00    -0.470 NA
ATOM      5  C   LIG    1       -3.058  -1.611  -1.139  0.00  0.00    +0.180 A 
ATOM      6  C   LIG    1       -3.551  -1.862  -2.549  0.00  0.00    +0.130 C 
ATOM      7  C   LIG    1       -2.304  -1.702  -3.447  0.00  0.00    +0.050 C 
ATOM      8  C   LIG    1       -1.425  -0.739  -2.619  0.00  0.00    +0.110 C 
ATOM      9  C   LIG    1       -1.841  -0.963  -1.183  0.00  0.00    -0.180 A 
ENDROOT
BRANCH   2  10
ATOM     10  N   LIG    1       -1.183  -0.640   2.504  0.00  0.00    +0.040 N 
ATOM     11  O   LIG    1       -0.105  -0.072   2.525  0.00  0.00    -0.140 OA
ATOM     12  O   LIG    1       -1.735  -0.936   3.549  0.00  0.00    -0.160 OA
ENDBRANCH   2  10
BRANCH   1  14
ATOM     13  C   LIG    1       -0.017   1.425   0.010  0.00  0.00    +0.250 C 
ATOM     14  O   LIG    1        0.002  -0.004   0.002  0.00  0.00    -0.320 OA
ENDBRANCH   1  14
TORSDOF 2
