REMARK  Name = ZINC000013683730
REMARK                            x       y       z     vdW  Elec       q    Type
REMARK                         _______ _______ _______ _____ _____    ______ ____
ROOT
ATOM      1  C   LIG    1       -1.306   1.936   0.019  0.00  0.00    -0.050 A 
ATOM      2  C   LIG    1       -1.328   3.318   0.021  0.00  0.00    +0.110 A 
ATOM      3  C   LIG    1       -2.536   3.985   0.033  0.00  0.00    +0.030 A 
ATOM      4  C   LIG    1       -3.731   3.278   0.044  0.00  0.00    -0.010 A 
ATOM      5  C   LIG    1       -5.013   4.069   0.072  0.00  0.00    +0.090 C 
ATOM      6  C   LIG    1       -6.193   3.195  -0.347  0.00  0.00    +0.030 C 
ATOM      7  C   LIG    1       -6.163   1.909   0.486  0.00  0.00    +0.040 C 
ATOM      8  C   LIG    1       -4.967   1.071   0.038  0.00  0.00    +0.230 C 
ATOM      9  C   LIG    1       -3.710   1.902   0.036  0.00  0.00    -0.110 A 
ATOM     10  C   LIG    1       -2.493   1.233   0.021  0.00  0.00    +0.100 A 
ENDROOT
BRANCH   1  12
ATOM     11  O   LIG    1        0.002  -0.004   0.002  0.00  0.00    -0.160 OA
ATOM     12  N   LIG    1       -0.014   1.214   0.009  0.00  0.00    +0.030 N 
ATOM     13  O   LIG    1        1.032   1.837   0.002  0.00  0.00    -0.160 OA
ENDBRANCH   1  12
BRANCH   8  14
ATOM     14  O   LIG    1       -4.801  -0.031   0.932  0.00  0.00    -0.560 OA
ATOM     15  H   LIG    1       -4.059  -0.609   0.710  0.00  0.00    +0.380 HD
ENDBRANCH   8  14
TORSDOF 2
