REMARK  Name = ZINC000016678012
REMARK                            x       y       z     vdW  Elec       q    Type
REMARK                         _______ _______ _______ _____ _____    ______ ____
ROOT
ATOM      1  C   LIG    1        0.006  -0.005   0.054  0.00  0.00    +0.290 A 
ATOM      2  C   LIG    1       -1.194  -0.713   0.109  0.00  0.00    -0.130 A 
ATOM      3  C   LIG    1       -1.196  -2.077   0.052  0.00  0.00    +0.190 A 
ATOM      4  C   LIG    1        0.011  -2.770  -0.063  0.00  0.00    -0.160 A 
ATOM      5  C   LIG    1        0.363  -4.191  -0.147  0.00  0.00    -0.020 A 
ATOM      6  C   LIG    1        1.699  -4.259  -0.244  0.00  0.00    +0.230 A 
ATOM      7  N   LIG    1        2.233  -2.997  -0.229  0.00  0.00    -0.590 N 
ATOM      8  H   LIG    1        3.179  -2.792  -0.286  0.00  0.00    +0.420 HD
ATOM      9  C   LIG    1        1.226  -2.064  -0.118  0.00  0.00    +0.180 A 
ATOM     10  C   LIG    1        1.212  -0.675  -0.065  0.00  0.00    -0.080 A 
ENDROOT
BRANCH   1  11
ATOM     11  N   LIG    1       -0.008   1.391   0.114  0.00  0.00    -0.860 N 
ATOM     12  H   LIG    1       -0.835   1.860   0.308  0.00  0.00    +0.410 HD
ATOM     13  H   LIG    1        0.807   1.892  -0.042  0.00  0.00    +0.410 HD
ENDBRANCH   1  11
BRANCH   2  14
ATOM     14  N   LIG    1       -2.474   0.020   0.231  0.00  0.00    +0.040 N 
ATOM     15  O   LIG    1       -2.630   1.075  -0.358  0.00  0.00    -0.180 OA
ATOM     16  O   LIG    1       -3.372  -0.432   0.919  0.00  0.00    -0.150 OA
ENDBRANCH   2  14
TORSDOF 2
