REMARK  Name = ZINC000306761333
REMARK                            x       y       z     vdW  Elec       q    Type
REMARK                         _______ _______ _______ _____ _____    ______ ____
ROOT
ATOM      1  C   LIG    1        0.608  -0.691  -1.058  0.00  0.00    +0.430 A 
ATOM      2  C   LIG    1        0.689  -2.040  -1.187  0.00  0.00    -0.120 A 
ATOM      3  N   LIG    1        1.355  -2.293  -2.358  0.00  0.00    -0.330 N 
ATOM      4  C   LIG    1        1.714  -3.452  -2.981  0.00  0.00    +0.220 A 
ATOM      5  C   LIG    1        2.381  -3.424  -4.155  0.00  0.00    +0.030 A 
ATOM      6  C   LIG    1        2.712  -2.197  -4.751  0.00  0.00    +0.090 A 
ATOM      7  C   LIG    1        2.358  -1.033  -4.140  0.00  0.00    +0.080 A 
ATOM      8  C   LIG    1        1.664  -1.080  -2.916  0.00  0.00    +0.310 A 
ATOM      9  N   LIG    1        1.200  -0.127  -2.117  0.00  0.00    -0.510 NA
ENDROOT
BRANCH   1  11
ATOM     10  C   LIG    1       -0.018   1.461   0.010  0.00  0.00    +0.300 C 
ATOM     11  N   LIG    1        0.002  -0.004   0.002  0.00  0.00    -0.720 N 
ATOM     12  H   LIG    1       -0.404  -0.499   0.731  0.00  0.00    +0.410 HD
ENDBRANCH   1  11
BRANCH   2  13
ATOM     13  N   LIG    1        0.155  -3.051  -0.237  0.00  0.00    +0.050 N 
ATOM     14  O   LIG    1       -0.981  -3.470  -0.369  0.00  0.00    -0.120 OA
ATOM     15  O   LIG    1        0.854  -3.460   0.672  0.00  0.00    -0.120 OA
ENDBRANCH   2  13
TORSDOF 2
