REMARK  Name = ZINC000849367970
REMARK                            x       y       z     vdW  Elec       q    Type
REMARK                         _______ _______ _______ _____ _____    ______ ____
ROOT
ATOM      1  C   LIG    1        1.546  -2.103   2.574  0.00  0.00    +0.120 A 
ATOM      2  C   LIG    1        1.952  -1.078   3.422  0.00  0.00    +0.090 A 
ATOM      3  C   LIG    1        2.636  -1.413   4.581  0.00  0.00    +0.070 A 
ATOM      4  C   LIG    1        2.889  -2.745   4.853  0.00  0.00    +0.310 A 
ATOM      5  N   LIG    1        2.490  -3.692   4.027  0.00  0.00    -0.410 NA
ATOM      6  C   LIG    1        1.833  -3.416   2.919  0.00  0.00    +0.170 A 
ENDROOT
BRANCH   6   7
ATOM      7  N   LIG    1        1.407  -4.517   2.026  0.00  0.00    +0.030 N 
ATOM      8  O   LIG    1        0.799  -4.269   1.000  0.00  0.00    -0.150 OA
ATOM      9  O   LIG    1        1.664  -5.672   2.317  0.00  0.00    -0.110 OA
ENDBRANCH   6   7
BRANCH   1  10
ATOM     10  O   LIG    1        0.874  -1.823   1.427  0.00  0.00    -0.280 OA
BRANCH  10  11
ATOM     11  C   LIG    1       -0.468  -1.838   1.488  0.00  0.00    +0.470 C 
ATOM     12  O   LIG    1       -1.022  -2.182   2.505  0.00  0.00    -0.490 OA
BRANCH  11  14
ATOM     13  C   LIG    1       -2.771  -1.533   0.620  0.00  0.00    +0.060 C 
ATOM     14  C   LIG    1       -1.281  -1.426   0.288  0.00  0.00    +0.120 C 
ENDBRANCH  11  14
ENDBRANCH  10  11
ENDBRANCH   1  10
TORSDOF 4
