REMARK  Name = ZINC000034450064
REMARK                            x       y       z     vdW  Elec       q    Type
REMARK                         _______ _______ _______ _____ _____    ______ ____
ROOT
ATOM      1  O   LIG    1        0.009  -0.002  -0.228  0.00  0.00    -0.460 OA
ATOM      2  C   LIG    1       -0.008   1.218  -0.216  0.00  0.00    +0.400 A 
ATOM      3  C   LIG    1       -1.225   1.933  -0.300  0.00  0.00    -0.140 A 
ATOM      4  C   LIG    1       -1.220   3.282  -0.285  0.00  0.00    +0.340 A 
ATOM      5  N   LIG    1       -0.078   4.005  -0.190  0.00  0.00    -0.610 N 
ATOM      6  H   LIG    1       -0.131   4.974  -0.183  0.00  0.00    +0.430 HD
ATOM      7  C   LIG    1        1.155   3.399  -0.104  0.00  0.00    +0.200 A 
ATOM      8  C   LIG    1        2.322   4.151  -0.007  0.00  0.00    +0.020 A 
ATOM      9  C   LIG    1        3.541   3.513   0.077  0.00  0.00    +0.110 A 
ATOM     10  C   LIG    1        3.617   2.127   0.068  0.00  0.00    +0.050 A 
ATOM     11  C   LIG    1        2.483   1.369  -0.027  0.00  0.00    +0.050 A 
ATOM     12  C   LIG    1        1.239   1.995  -0.107  0.00  0.00    -0.170 A 
ENDROOT
BRANCH  11  13
ATOM     13  N   LIG    1        2.574  -0.108  -0.036  0.00  0.00    +0.010 N 
ATOM     14  O   LIG    1        1.996  -0.748  -0.895  0.00  0.00    -0.080 OA
ATOM     15  O   LIG    1        3.228  -0.683   0.816  0.00  0.00    -0.170 OA
ENDBRANCH  11  13
TORSDOF 1
