REMARK  Name = ZINC000085022212
REMARK                            x       y       z     vdW  Elec       q    Type
REMARK                         _______ _______ _______ _____ _____    ______ ____
ROOT
ATOM      1  C   LIG    1       -1.344  -1.901   0.108  0.00  0.00    +0.350 A 
ATOM      2  C   LIG    1       -2.422  -2.734   0.106  0.00  0.00    -0.230 A 
ATOM      3  C   LIG    1       -1.950  -4.045   0.216  0.00  0.00    +0.140 A 
ATOM      4  N   LIG    1       -0.644  -4.008   0.282  0.00  0.00    -0.260 NA
ATOM      5  C   LIG    1       -2.801  -5.288   0.253  0.00  0.00    +0.170 C 
ATOM      6  N   LIG    1       -0.236  -2.670   0.210  0.00  0.00    -0.340 N 
ENDROOT
BRANCH   2   7
ATOM      7  N   LIG    1       -3.841  -2.323   0.005  0.00  0.00    +0.060 N 
ATOM      8  O   LIG    1       -4.479  -2.085   1.015  0.00  0.00    -0.140 OA
ATOM      9  O   LIG    1       -4.369  -2.223  -1.087  0.00  0.00    -0.140 OA
ENDBRANCH   2   7
BRANCH   1  10
ATOM     10  N   LIG    1       -1.377  -0.513   0.016  0.00  0.00    -0.620 N 
ATOM     11  H   LIG    1       -1.209  -0.209  -0.932  0.00  0.00    +0.380 HD
BRANCH  10  13
ATOM     12  C   LIG    1       -2.587   1.547   0.553  0.00  0.00    +0.060 C 
ATOM     13  C   LIG    1       -2.649   0.018   0.522  0.00  0.00    +0.180 C 
ENDBRANCH  10  13
ENDBRANCH   1  10
BRANCH   6  14
ATOM     14  C   LIG    1        1.147  -2.187   0.248  0.00  0.00    +0.350 C 
ATOM     15  C   LIG    1        1.663  -2.003  -1.181  0.00  0.00    +0.050 C 
ENDBRANCH   6  14
TORSDOF 4
