REMARK  Name = ZINC000050184807
REMARK                            x       y       z     vdW  Elec       q    Type
REMARK                         _______ _______ _______ _____ _____    ______ ____
ROOT
ATOM      1  N   LIG    1       -2.420  -4.248   0.002  0.00  0.00    -0.440 N 
ATOM      2  C   LIG    1       -2.268  -5.027  -1.090  0.00  0.00    +0.460 A 
ATOM      3  N   LIG    1       -2.022  -6.249  -0.703  0.00  0.00    -0.440 NA
ATOM      4  C   LIG    1       -2.010  -6.293   0.638  0.00  0.00    +0.050 A 
ATOM      5  C   LIG    1       -2.251  -5.051   1.098  0.00  0.00    +0.280 A 
ENDROOT
BRANCH   4   6
ATOM      6  N   LIG    1       -1.766  -7.495   1.466  0.00  0.00    +0.060 N 
ATOM      7  O   LIG    1       -1.779  -7.411   2.681  0.00  0.00    -0.160 OA
ATOM      8  O   LIG    1       -1.553  -8.569   0.933  0.00  0.00    -0.130 OA
ENDBRANCH   4   6
BRANCH   1   9
ATOM      9  C   LIG    1       -2.708  -2.812   0.013  0.00  0.00    +0.330 C 
BRANCH   9  10
ATOM     10  C   LIG    1       -1.413  -2.041   0.005  0.00  0.00    +0.330 C 
ATOM     11  O   LIG    1       -0.359  -2.630  -0.009  0.00  0.00    -0.430 OA
BRANCH  10  12
ATOM     12  C   LIG    1       -1.433  -0.534   0.013  0.00  0.00    +0.060 C 
BRANCH  12  14
ATOM     13  C   LIG    1       -0.019   1.526   0.010  0.00  0.00    +0.030 C 
ATOM     14  C   LIG    1        0.002  -0.004   0.002  0.00  0.00    +0.020 C 
ENDBRANCH  12  14
ENDBRANCH  10  12
ENDBRANCH   9  10
ENDBRANCH   1   9
TORSDOF 5
