REMARK  Name = ZINC000133398341
REMARK                            x       y       z     vdW  Elec       q    Type
REMARK                         _______ _______ _______ _____ _____    ______ ____
ROOT
ATOM      1  C   LIG    1       -0.018   1.694   0.121  0.00  0.00    +0.110 C 
ATOM      2  C   LIG    1       -0.013   0.192   0.000  0.00  0.00    -0.130 A 
ATOM      3  C   LIG    1       -0.011  -0.402  -1.247  0.00  0.00    +0.080 A 
ATOM      4  C   LIG    1       -0.006  -1.780  -1.358  0.00  0.00    +0.030 A 
ATOM      5  C   LIG    1       -0.002  -2.569  -0.223  0.00  0.00    +0.090 A 
ATOM      6  C   LIG    1       -0.004  -1.982   1.028  0.00  0.00    -0.030 A 
ATOM      7  C   LIG    1       -0.003  -0.598   1.143  0.00  0.00    +0.160 A 
ENDROOT
BRANCH   6   8
ATOM      8  N   LIG    1       -0.001  -2.827   2.243  0.00  0.00    +0.020 N 
ATOM      9  O   LIG    1        0.100  -2.312   3.342  0.00  0.00    -0.080 OA
ATOM     10  O   LIG    1       -0.099  -4.037   2.143  0.00  0.00    -0.210 OA
ENDBRANCH   6   8
BRANCH   7  11
ATOM     11  N   LIG    1       -0.004  -0.001   2.406  0.00  0.00    -0.630 N 
ATOM     12  H   LIG    1       -0.632   0.789   2.432  0.00  0.00    +0.360 HD
BRANCH  11  13
ATOM     13  C   LIG    1        1.354   0.392   2.804  0.00  0.00    +0.200 C 
BRANCH  13  14
ATOM     14  C   LIG    1        1.312   1.041   4.189  0.00  0.00    +0.170 C 
BRANCH  14  15
ATOM     15  O   LIG    1        0.899   0.073   5.156  0.00  0.00    -0.550 OA
ATOM     16  H   LIG    1        0.850   0.416   6.059  0.00  0.00    +0.380 HD
ENDBRANCH  14  15
ENDBRANCH  13  14
ENDBRANCH  11  13
ENDBRANCH   7  11
TORSDOF 5
