REMARK  Name = ZINC000610430742
REMARK                            x       y       z     vdW  Elec       q    Type
REMARK                         _______ _______ _______ _____ _____    ______ ____
ROOT
ATOM      1  C   LIG    1       -0.532   1.447   0.084  0.00  0.00    +0.140 C 
ATOM      2  C   LIG    1       -0.242  -0.031   0.038  0.00  0.00    +0.040 A 
ATOM      3  C   LIG    1       -0.333  -0.732  -1.151  0.00  0.00    +0.000 A 
ATOM      4  C   LIG    1       -0.058  -2.096  -1.155  0.00  0.00    +0.320 A 
ATOM      5  N   LIG    1        0.286  -2.717  -0.037  0.00  0.00    -0.500 NA
ATOM      6  C   LIG    1        0.381  -2.074   1.111  0.00  0.00    +0.380 A 
ATOM      7  C   LIG    1        0.127  -0.719   1.186  0.00  0.00    -0.120 A 
ENDROOT
BRANCH   4   8
ATOM      8  N   LIG    1       -0.145  -2.813  -2.343  0.00  0.00    -0.430 N 
ATOM      9  C   LIG    1        1.102  -2.700  -3.121  0.00  0.00    +0.190 C 
ATOM     10  C   LIG    1        0.970  -4.194  -3.445  0.00  0.00    +0.040 C 
ATOM     11  C   LIG    1        0.184  -4.234  -2.127  0.00  0.00    +0.190 C 
ENDBRANCH   4   8
BRANCH   7  12
ATOM     12  N   LIG    1        0.236  -0.009   2.480  0.00  0.00    +0.030 N 
ATOM     13  O   LIG    1       -0.113  -0.560   3.509  0.00  0.00    -0.150 OA
ATOM     14  O   LIG    1        0.676   1.127   2.517  0.00  0.00    -0.150 OA
ENDBRANCH   7  12
TORSDOF 2
