REMARK  Name = ZINC000070186701
REMARK                            x       y       z     vdW  Elec       q    Type
REMARK                         _______ _______ _______ _____ _____    ______ ____
ROOT
ATOM      1  C   LIG    1        0.605  -2.130  -1.026  0.00  0.00    -0.220 A 
ATOM      2  C   LIG    1        1.168  -2.910  -1.997  0.00  0.00    +0.110 A 
ATOM      3  C   LIG    1        1.042  -4.257  -1.753  0.00  0.00    +0.130 A 
ATOM      4  C   LIG    1        0.400  -4.572  -0.622  0.00  0.00    -0.200 A 
ATOM      5  S   LIG    1       -0.085  -3.167   0.216  0.00  0.00    +0.340 S 
ENDROOT
BRANCH   1   9
ATOM      6  C   LIG    1       -0.018   1.461   0.010  0.00  0.00    +0.310 C 
ATOM      7  N   LIG    1        0.002  -0.004   0.002  0.00  0.00    -0.730 N 
ATOM      8  H   LIG    1       -0.404  -0.499   0.731  0.00  0.00    +0.400 HD
ATOM      9  C   LIG    1        0.585  -0.664  -1.018  0.00  0.00    +0.590 C 
ATOM     10  O   LIG    1        1.095  -0.044  -1.932  0.00  0.00    -0.510 OA
ENDBRANCH   1   9
BRANCH   4  11
ATOM     11  N   LIG    1        0.148  -5.954  -0.157  0.00  0.00    +0.050 N 
ATOM     12  O   LIG    1       -0.447  -6.146   0.888  0.00  0.00    -0.150 OA
ATOM     13  O   LIG    1        0.536  -6.900  -0.819  0.00  0.00    -0.130 OA
ENDBRANCH   4  11
TORSDOF 2
