REMARK  Name = ZINC000083676271
REMARK                            x       y       z     vdW  Elec       q    Type
REMARK                         _______ _______ _______ _____ _____    ______ ____
ROOT
ATOM      1  C   LIG    1        2.792  -0.246  -2.392  0.00  0.00    +0.140 A 
ATOM      2  C   LIG    1        2.307  -1.119  -3.354  0.00  0.00    -0.010 A 
ATOM      3  C   LIG    1        3.094  -1.460  -4.437  0.00  0.00    +0.080 A 
ATOM      4  C   LIG    1        4.365  -0.930  -4.562  0.00  0.00    +0.060 A 
ATOM      5  C   LIG    1        4.852  -0.060  -3.604  0.00  0.00    +0.000 A 
ATOM      6  C   LIG    1        4.066   0.288  -2.523  0.00  0.00    +0.070 A 
ENDROOT
BRANCH   5   7
ATOM      7  N   LIG    1        6.213   0.505  -3.741  0.00  0.00    +0.030 N 
ATOM      8  O   LIG    1        6.642   1.271  -2.897  0.00  0.00    -0.150 OA
ATOM      9  O   LIG    1        6.904   0.202  -4.697  0.00  0.00    -0.150 OA
ENDBRANCH   5   7
BRANCH   1  10
ATOM     10  O   LIG    1        2.019   0.090  -1.326  0.00  0.00    -0.290 OA
BRANCH  10  11
ATOM     11  C   LIG    1        0.718  -0.497  -1.257  0.00  0.00    +0.220 C 
BRANCH  11  13
ATOM     12  C   LIG    1       -0.019   1.526   0.010  0.00  0.00    +0.010 C 
ATOM     13  C   LIG    1        0.002  -0.004   0.002  0.00  0.00    +0.180 C 
BRANCH  13  14
ATOM     14  O   LIG    1        0.693  -0.477   1.160  0.00  0.00    -0.560 OA
ATOM     15  H   LIG    1        0.294  -0.202   1.996  0.00  0.00    +0.380 HD
ENDBRANCH  13  14
ENDBRANCH  11  13
ENDBRANCH  10  11
ENDBRANCH   1  10
TORSDOF 5
