REMARK  Name = ZINC000035082334
REMARK                            x       y       z     vdW  Elec       q    Type
REMARK                         _______ _______ _______ _____ _____    ______ ____
ROOT
ATOM      1  C   LIG    1       -1.306   1.936   0.019  0.00  0.00    -0.040 A 
ATOM      2  C   LIG    1       -2.493   1.231   0.026  0.00  0.00    +0.130 A 
ATOM      3  C   LIG    1       -3.700   1.905   0.036  0.00  0.00    +0.020 A 
ATOM      4  C   LIG    1       -3.724   3.288   0.038  0.00  0.00    +0.110 A 
ATOM      5  C   LIG    1       -2.541   4.000   0.030  0.00  0.00    +0.010 A 
ATOM      6  C   LIG    1       -1.326   3.326   0.026  0.00  0.00    -0.040 A 
ENDROOT
BRANCH   1   8
ATOM      7  O   LIG    1        0.002  -0.004   0.002  0.00  0.00    -0.160 OA
ATOM      8  N   LIG    1       -0.014   1.214   0.009  0.00  0.00    +0.030 N 
ATOM      9  O   LIG    1        1.032   1.837   0.002  0.00  0.00    -0.150 OA
ENDBRANCH   1   8
BRANCH   6  10
ATOM     10  S   LIG    1        0.186   4.231   0.016  0.00  0.00    +0.030 S 
BRANCH  10  11
ATOM     11  C   LIG    1       -0.372   5.957   0.013  0.00  0.00    +0.030 C 
BRANCH  11  12
ATOM     12  C   LIG    1        0.844   6.886   0.004  0.00  0.00    +0.220 C 
BRANCH  12  13
ATOM     13  O   LIG    1        0.405   8.246   0.002  0.00  0.00    -0.570 OA
ATOM     14  H   LIG    1        1.125   8.891  -0.003  0.00  0.00    +0.390 HD
ENDBRANCH  12  13
ENDBRANCH  11  12
ENDBRANCH  10  11
ENDBRANCH   6  10
TORSDOF 5
