REMARK  Name = ZINC000615114962
REMARK                            x       y       z     vdW  Elec       q    Type
REMARK                         _______ _______ _______ _____ _____    ______ ____
ROOT
ATOM      1  C   LIG    1       -0.018   1.503   0.010  0.00  0.00    +0.190 C 
ATOM      2  C   LIG    1        0.002  -0.004   0.002  0.00  0.00    +0.140 A 
ATOM      3  N   LIG    1        0.008  -0.765  -1.062  0.00  0.00    -0.270 NA
ATOM      4  N   LIG    1        0.028  -2.102  -0.644  0.00  0.00    -0.350 N 
ATOM      5  C   LIG    1        0.034  -2.115   0.706  0.00  0.00    +0.360 A 
ATOM      6  C   LIG    1        0.024  -0.830   1.131  0.00  0.00    -0.200 A 
ENDROOT
BRANCH   6   7
ATOM      7  N   LIG    1        0.027  -0.379   2.540  0.00  0.00    +0.070 N 
ATOM      8  O   LIG    1        0.018   0.811   2.799  0.00  0.00    -0.160 OA
ATOM      9  O   LIG    1        0.038  -1.198   3.442  0.00  0.00    -0.180 OA
ENDBRANCH   6   7
BRANCH   4  10
ATOM     10  C   LIG    1        0.041  -3.278  -1.517  0.00  0.00    +0.340 C 
BRANCH  10  11
ATOM     11  C   LIG    1       -1.146  -3.211  -2.480  0.00  0.00    +0.060 C 
BRANCH  11  12
ATOM     12  C   LIG    1       -1.133  -4.440  -3.392  0.00  0.00    -0.050 C 
ATOM     13  C   LIG    1       -2.310  -5.411  -3.286  0.00  0.00    +0.020 C 
ATOM     14  C   LIG    1       -2.176  -4.502  -4.509  0.00  0.00    +0.030 C 
ENDBRANCH  11  12
ENDBRANCH  10  11
ENDBRANCH   4  10
TORSDOF 4
