REMARK  Name = ZINC000036950038
REMARK                            x       y       z     vdW  Elec       q    Type
REMARK                         _______ _______ _______ _____ _____    ______ ____
ROOT
ATOM      1  C   LIG    1       -0.018   1.503   0.010  0.00  0.00    +0.110 C 
ATOM      2  C   LIG    1        0.002  -0.004   0.002  0.00  0.00    -0.160 A 
ATOM      3  C   LIG    1        0.006  -0.689  -1.197  0.00  0.00    +0.140 A 
ATOM      4  C   LIG    1        0.025  -2.072  -1.206  0.00  0.00    -0.100 A 
ATOM      5  C   LIG    1        0.041  -2.773  -0.014  0.00  0.00    +0.140 A 
ATOM      6  C   LIG    1        0.037  -2.095   1.189  0.00  0.00    -0.060 A 
ATOM      7  C   LIG    1        0.023  -0.706   1.201  0.00  0.00    +0.270 A 
ENDROOT
BRANCH   4   8
ATOM      8  N   LIG    1        0.029  -2.802  -2.493  0.00  0.00    +0.040 N 
ATOM      9  O   LIG    1        0.046  -4.020  -2.502  0.00  0.00    -0.180 OA
ATOM     10  O   LIG    1        0.015  -2.185  -3.543  0.00  0.00    -0.170 OA
ENDBRANCH   4   8
BRANCH   7  11
ATOM     11  N   LIG    1        0.019  -0.017   2.416  0.00  0.00    -0.720 N 
ATOM     12  H   LIG    1        0.009   0.953   2.423  0.00  0.00    +0.410 HD
BRANCH  11  13
ATOM     13  C   LIG    1        0.030  -0.758   3.679  0.00  0.00    +0.270 C 
BRANCH  13  14
ATOM     14  C   LIG    1        0.023   0.227   4.849  0.00  0.00    +0.190 C 
BRANCH  14  15
ATOM     15  O   LIG    1       -1.205   0.957   4.850  0.00  0.00    -0.570 OA
ATOM     16  H   LIG    1       -1.279   1.602   5.567  0.00  0.00    +0.390 HD
ENDBRANCH  14  15
ENDBRANCH  13  14
ENDBRANCH  11  13
ENDBRANCH   7  11
TORSDOF 5
