REMARK  Name = ZINC000238685501
REMARK                            x       y       z     vdW  Elec       q    Type
REMARK                         _______ _______ _______ _____ _____    ______ ____
ROOT
ATOM      1  C   LIG    1       -1.407  -0.526   0.111  0.00  0.00    -0.080 A 
ATOM      2  C   LIG    1       -2.430   0.095  -0.582  0.00  0.00    +0.090 A 
ATOM      3  C   LIG    1       -3.723  -0.385  -0.483  0.00  0.00    +0.040 A 
ATOM      4  C   LIG    1       -3.993  -1.484   0.310  0.00  0.00    +0.110 A 
ATOM      5  C   LIG    1       -2.970  -2.106   1.002  0.00  0.00    -0.040 A 
ATOM      6  C   LIG    1       -1.677  -1.629   0.899  0.00  0.00    +0.110 A 
ENDROOT
BRANCH   5   7
ATOM      7  N   LIG    1       -3.260  -3.283   1.851  0.00  0.00    +0.030 N 
ATOM      8  O   LIG    1       -2.359  -3.831   2.461  0.00  0.00    -0.160 OA
ATOM      9  O   LIG    1       -4.399  -3.705   1.939  0.00  0.00    -0.150 OA
ENDBRANCH   5   7
BRANCH   1  10
ATOM     10  C   LIG    1        0.002  -0.004   0.002  0.00  0.00    +0.210 C 
BRANCH  10  11
ATOM     11  N   LIG    1       -0.018   1.465   0.010  0.00  0.00    -0.830 NA
ATOM     12  H   LIG    1       -0.556   1.823  -0.764  0.00  0.00    +0.340 HD
ATOM     13  H   LIG    1        0.919   1.839   0.003  0.00  0.00    +0.360 HD
ENDBRANCH  10  11
BRANCH  10  14
ATOM     14  C   LIG    1        0.630  -0.498  -1.303  0.00  0.00    +0.190 C 
ATOM     15  F   LIG    1        1.938  -0.014  -1.404  0.00  0.00    -0.210 F 
ENDBRANCH  10  14
ENDBRANCH   1  10
TORSDOF 4
