REMARK  Name = ZINC000306338607
REMARK                            x       y       z     vdW  Elec       q    Type
REMARK                         _______ _______ _______ _____ _____    ______ ____
ROOT
ATOM      1  C   LIG    1       -1.306   1.936   0.019  0.00  0.00    +0.140 A 
ATOM      2  N   LIG    1       -1.456   3.236   0.021  0.00  0.00    -0.200 NA
ATOM      3  N   LIG    1       -2.828   3.519   0.031  0.00  0.00    -0.270 N 
ATOM      4  C   LIG    1       -3.496   2.336   0.035  0.00  0.00    +0.320 A 
ATOM      5  C   LIG    1       -2.575   1.346   0.022  0.00  0.00    -0.010 A 
ENDROOT
BRANCH   3   6
ATOM      6  C   LIG    1       -3.405   4.788   0.036  0.00  0.00    +0.240 A 
ATOM      7  N   LIG    1       -4.679   5.024   0.051  0.00  0.00    -0.480 NA
ATOM      8  C   LIG    1       -5.053   6.289   0.053  0.00  0.00    +0.250 A 
ATOM      9  C   LIG    1       -4.045   7.166   0.040  0.00  0.00    -0.070 A 
ATOM     10  S   LIG    1       -2.534   6.260   0.031  0.00  0.00    +0.250 S 
ENDBRANCH   3   6
BRANCH   1  12
ATOM     11  O   LIG    1        0.002  -0.004   0.002  0.00  0.00    -0.110 OA
ATOM     12  N   LIG    1       -0.014   1.214   0.009  0.00  0.00    +0.050 N 
ATOM     13  O   LIG    1        1.032   1.837   0.002  0.00  0.00    -0.120 OA
ENDBRANCH   1  12
TORSDOF 2
