REMARK  Name = ZINC000098192323
REMARK                            x       y       z     vdW  Elec       q    Type
REMARK                         _______ _______ _______ _____ _____    ______ ____
ROOT
ATOM      1  C   LIG    1        0.202  -0.800  -1.261  0.00  0.00    +0.090 A 
ATOM      2  C   LIG    1        0.269  -2.190  -1.352  0.00  0.00    +0.050 A 
ATOM      3  C   LIG    1        0.055  -2.795  -2.581  0.00  0.00    +0.020 A 
ATOM      4  C   LIG    1       -0.218  -1.990  -3.675  0.00  0.00    -0.080 A 
ATOM      5  C   LIG    1       -0.269  -0.614  -3.512  0.00  0.00    +0.360 A 
ATOM      6  C   LIG    1        0.118  -4.294  -2.723  0.00  0.00    +0.150 C 
ATOM      7  N   LIG    1       -0.068  -0.065  -2.335  0.00  0.00    -0.430 NA
ENDROOT
BRANCH   1   9
ATOM      8  C   LIG    1        0.351   1.361   0.146  0.00  0.00    +0.110 C 
ATOM      9  C   LIG    1        0.427  -0.140   0.040  0.00  0.00    +0.410 C 
ATOM     10  O   LIG    1        0.674  -0.805   1.022  0.00  0.00    -0.430 OA
ENDBRANCH   1   9
BRANCH   4  11
ATOM     11  N   LIG    1       -0.453  -2.594  -5.006  0.00  0.00    +0.020 N 
ATOM     12  O   LIG    1       -1.051  -3.651  -5.098  0.00  0.00    -0.140 OA
ATOM     13  O   LIG    1       -0.048  -2.034  -6.009  0.00  0.00    -0.140 OA
ENDBRANCH   4  11
TORSDOF 2
