REMARK  Name = ZINC000307334741
REMARK                            x       y       z     vdW  Elec       q    Type
REMARK                         _______ _______ _______ _____ _____    ______ ____
ROOT
ATOM      1  N   LIG    1        0.978  -1.845  -1.691  0.00  0.00    -0.340 N 
ATOM      2  C   LIG    1        1.980  -2.624  -1.232  0.00  0.00    +0.370 A 
ATOM      3  C   LIG    1        1.700  -3.902  -1.576  0.00  0.00    -0.190 A 
ATOM      4  C   LIG    1        0.484  -3.905  -2.269  0.00  0.00    +0.340 A 
ATOM      5  N   LIG    1        0.048  -2.674  -2.333  0.00  0.00    -0.260 NA
ENDROOT
BRANCH   3   6
ATOM      6  N   LIG    1        2.531  -5.088  -1.272  0.00  0.00    +0.070 N 
ATOM      7  O   LIG    1        2.172  -6.194  -1.635  0.00  0.00    -0.160 OA
ATOM      8  O   LIG    1        3.575  -4.959  -0.657  0.00  0.00    -0.170 OA
ENDBRANCH   3   6
BRANCH   1   9
ATOM      9  C   LIG    1        0.877  -0.392  -1.539  0.00  0.00    +0.410 C 
BRANCH   9  11
ATOM     10  C   LIG    1       -0.022   1.810   0.012  0.00  0.00    +0.170 C 
ATOM     11  S   LIG    1        0.002  -0.004   0.002  0.00  0.00    -0.250 S 
ENDBRANCH   9  11
ENDBRANCH   1   9
TORSDOF 3
