REMARK  Name = ZINC000037669431
REMARK                            x       y       z     vdW  Elec       q    Type
REMARK                         _______ _______ _______ _____ _____    ______ ____
ROOT
ATOM      1  C   LIG    1       -1.171  -2.194  -0.241  0.00  0.00    -0.040 A 
ATOM      2  C   LIG    1        0.040  -2.877  -0.355  0.00  0.00    +0.040 A 
ATOM      3  C   LIG    1        0.086  -4.239  -0.120  0.00  0.00    +0.160 A 
ATOM      4  C   LIG    1       -1.067  -4.923   0.227  0.00  0.00    +0.030 A 
ATOM      5  C   LIG    1       -2.270  -4.249   0.341  0.00  0.00    +0.150 A 
ATOM      6  F   LIG    1        1.258  -4.903  -0.229  0.00  0.00    -0.110 F 
ATOM      7  C   LIG    1       -2.328  -2.890   0.114  0.00  0.00    -0.020 A 
ENDROOT
BRANCH   1  11
ATOM      8  C   LIG    1       -0.471   1.538  -0.059  0.00  0.00    +0.310 C 
ATOM      9  N   LIG    1       -0.415   0.095   0.189  0.00  0.00    -0.720 N 
ATOM     10  H   LIG    1        0.207  -0.261   0.842  0.00  0.00    +0.400 HD
ATOM     11  C   LIG    1       -1.228  -0.738  -0.491  0.00  0.00    +0.550 C 
ATOM     12  O   LIG    1       -2.008  -0.291  -1.310  0.00  0.00    -0.490 OA
ENDBRANCH   1  11
BRANCH   7  13
ATOM     13  N   LIG    1       -3.616  -2.172   0.236  0.00  0.00    +0.020 N 
ATOM     14  O   LIG    1       -3.647  -0.957   0.157  0.00  0.00    -0.120 OA
ATOM     15  O   LIG    1       -4.647  -2.796   0.417  0.00  0.00    -0.160 OA
ENDBRANCH   7  13
TORSDOF 2
