REMARK  Name = ZINC000228885913
REMARK                            x       y       z     vdW  Elec       q    Type
REMARK                         _______ _______ _______ _____ _____    ______ ____
ROOT
ATOM      1  C   LIG    1       -1.924  -0.193  -1.537  0.00  0.00    +0.450 A 
ATOM      2  C   LIG    1       -1.436   0.904  -2.240  0.00  0.00    -0.070 A 
ATOM      3  C   LIG    1       -2.162   1.392  -3.312  0.00  0.00    +0.190 A 
ATOM      4  C   LIG    1       -3.355   0.766  -3.646  0.00  0.00    -0.160 A 
ATOM      5  C   LIG    1       -3.779  -0.319  -2.904  0.00  0.00    +0.420 A 
ATOM      6  N   LIG    1       -3.064  -0.766  -1.890  0.00  0.00    -0.530 NA
ENDROOT
BRANCH   4   7
ATOM      7  N   LIG    1       -4.163   1.254  -4.786  0.00  0.00    +0.040 N 
ATOM      8  O   LIG    1       -5.208   0.700  -5.073  0.00  0.00    -0.170 OA
ATOM      9  O   LIG    1       -3.782   2.211  -5.436  0.00  0.00    -0.170 OA
ENDBRANCH   4   7
BRANCH   1  10
ATOM     10  N   LIG    1       -1.205  -0.695  -0.459  0.00  0.00    -0.670 N 
ATOM     11  H   LIG    1       -1.495  -1.510  -0.020  0.00  0.00    +0.410 HD
BRANCH  10  13
ATOM     12  C   LIG    1       -0.255   1.395   0.613  0.00  0.00    +0.090 C 
ATOM     13  C   LIG    1       -0.011   0.008   0.016  0.00  0.00    +0.090 C 
ATOM     14  C   LIG    1        1.291  -0.209  -0.758  0.00  0.00    +0.030 C 
ATOM     15  C   LIG    1        1.110  -0.836   0.626  0.00  0.00    +0.050 C 
ENDBRANCH  10  13
ENDBRANCH   1  10
TORSDOF 3
