REMARK  Name = ZINC000035100477
REMARK                            x       y       z     vdW  Elec       q    Type
REMARK                         _______ _______ _______ _____ _____    ______ ____
ROOT
ATOM      1  C   LIG    1        1.122  -2.693  -2.452  0.00  0.00    +0.280 A 
ATOM      2  C   LIG    1        1.618  -1.990  -3.542  0.00  0.00    -0.060 A 
ATOM      3  C   LIG    1        2.436  -2.626  -4.457  0.00  0.00    +0.120 A 
ATOM      4  C   LIG    1        2.760  -3.959  -4.287  0.00  0.00    -0.030 A 
ATOM      5  C   LIG    1        2.268  -4.661  -3.202  0.00  0.00    +0.140 A 
ATOM      6  C   LIG    1        1.454  -4.031  -2.282  0.00  0.00    -0.120 A 
ENDROOT
BRANCH   6   7
ATOM      7  N   LIG    1        0.928  -4.783  -1.121  0.00  0.00    +0.040 N 
ATOM      8  O   LIG    1        0.594  -5.947  -1.250  0.00  0.00    -0.150 OA
ATOM      9  O   LIG    1        0.829  -4.239  -0.036  0.00  0.00    -0.180 OA
ENDBRANCH   6   7
BRANCH   1  10
ATOM     10  N   LIG    1        0.295  -2.054  -1.525  0.00  0.00    -0.720 N 
ATOM     11  H   LIG    1       -0.120  -2.564  -0.812  0.00  0.00    +0.420 HD
BRANCH  10  12
ATOM     12  C   LIG    1        0.054  -0.613  -1.630  0.00  0.00    +0.280 C 
BRANCH  12  14
ATOM     13  C   LIG    1       -1.131   1.337  -0.612  0.00  0.00    +0.030 C 
ATOM     14  C   LIG    1       -0.879  -0.168  -0.502  0.00  0.00    +0.160 C 
BRANCH  14  15
ATOM     15  O   LIG    1       -2.121  -0.868  -0.607  0.00  0.00    -0.570 OA
ATOM     16  H   LIG    1       -2.762  -0.635   0.078  0.00  0.00    +0.390 HD
ENDBRANCH  14  15
ENDBRANCH  12  14
ENDBRANCH  10  12
ENDBRANCH   1  10
TORSDOF 5
