REMARK  Name = ZINC000040454311
REMARK                            x       y       z     vdW  Elec       q    Type
REMARK                         _______ _______ _______ _____ _____    ______ ____
ROOT
ATOM      1  C   LIG    1        0.578   0.032  -3.663  0.00  0.00    +0.590 A 
ATOM      2  N   LIG    1        1.882  -0.185  -3.746  0.00  0.00    -0.550 NA
ATOM      3  C   LIG    1        2.517  -0.055  -4.899  0.00  0.00    +0.470 A 
ATOM      4  C   LIG    1        1.801   0.312  -6.028  0.00  0.00    -0.230 A 
ATOM      5  C   LIG    1        0.438   0.531  -5.905  0.00  0.00    +0.480 A 
ATOM      6  N   LIG    1       -0.137   0.379  -4.723  0.00  0.00    -0.560 NA
ENDROOT
BRANCH   4   7
ATOM      7  N   LIG    1        2.477   0.467  -7.335  0.00  0.00    +0.050 N 
ATOM      8  O   LIG    1        1.835   0.790  -8.318  0.00  0.00    -0.160 OA
ATOM      9  O   LIG    1        3.676   0.271  -7.428  0.00  0.00    -0.160 OA
ENDBRANCH   4   7
BRANCH   1  10
ATOM     10  N   LIG    1       -0.055  -0.114  -2.441  0.00  0.00    -0.660 N 
ATOM     11  H   LIG    1       -1.010   0.038  -2.368  0.00  0.00    +0.420 HD
BRANCH  10  12
ATOM     12  C   LIG    1        0.718  -0.497  -1.257  0.00  0.00    +0.250 C 
ATOM     13  C   LIG    1        0.849  -2.021  -1.205  0.00  0.00    +0.020 C 
BRANCH  12  15
ATOM     14  C   LIG    1       -0.019   1.526   0.010  0.00  0.00    +0.010 C 
ATOM     15  C   LIG    1        0.002  -0.004   0.002  0.00  0.00    +0.030 C 
ENDBRANCH  12  15
ENDBRANCH  10  12
ENDBRANCH   1  10
TORSDOF 4
