REMARK  Name = ZINC000929483783
REMARK                            x       y       z     vdW  Elec       q    Type
REMARK                         _______ _______ _______ _____ _____    ______ ____
ROOT
ATOM      1  C   LIG    1       -0.019   1.526   0.010  0.00  0.00    +0.020 C 
ATOM      2  C   LIG    1        0.002  -0.004   0.002  0.00  0.00    -0.070 C 
ATOM      3  C   LIG    1        0.726  -0.499  -1.253  0.00  0.00    +0.030 C 
ATOM      4  C   LIG    1        2.177  -0.015  -1.224  0.00  0.00    +0.180 C 
ATOM      5  N   LIG    1        2.842  -0.528  -0.020  0.00  0.00    -0.530 NA
ATOM      6  C   LIG    1        2.193  -0.028   1.199  0.00  0.00    +0.150 C 
ATOM      7  C   LIG    1       -1.433  -0.535   0.010  0.00  0.00    +0.040 C 
ATOM      8  C   LIG    1        0.742  -0.513   1.242  0.00  0.00    +0.030 C 
ENDROOT
BRANCH   5   9
ATOM      9  C   LIG    1        4.273  -0.198  -0.028  0.00  0.00    +0.210 C 
BRANCH   9  10
ATOM     10  C   LIG    1        4.977  -0.954   1.101  0.00  0.00    +0.270 C 
BRANCH  10  11
ATOM     11  N   LIG    1        6.404  -0.625   1.094  0.00  0.00    -0.020 N 
ATOM     12  O   LIG    1        7.020  -0.610   0.043  0.00  0.00    -0.160 OA
ATOM     13  O   LIG    1        6.976  -0.367   2.138  0.00  0.00    -0.160 OA
ENDBRANCH  10  11
ENDBRANCH   9  10
ENDBRANCH   5   9
TORSDOF 3
