REMARK  Name = ZINC000097758271
REMARK                            x       y       z     vdW  Elec       q    Type
REMARK                         _______ _______ _______ _____ _____    ______ ____
ROOT
ATOM      1  C   LIG    1        0.042  -0.032   0.264  0.00  0.00    +0.280 A 
ATOM      2  C   LIG    1       -1.145  -0.744   0.370  0.00  0.00    -0.040 A 
ATOM      3  C   LIG    1       -1.162  -2.099   0.100  0.00  0.00    +0.120 A 
ATOM      4  C   LIG    1        0.001  -2.745  -0.275  0.00  0.00    -0.140 A 
ATOM      5  C   LIG    1        1.185  -2.039  -0.381  0.00  0.00    +0.140 A 
ATOM      6  C   LIG    1        1.208  -0.683  -0.118  0.00  0.00    -0.120 A 
ENDROOT
BRANCH   4   7
ATOM      7  C   LIG    1       -0.022  -4.223  -0.570  0.00  0.00    +0.010 C 
ATOM      8  C   LIG    1       -0.977  -5.023   0.336  0.00  0.00    +0.220 C 
ATOM      9  O   LIG    1       -1.366  -5.708  -0.872  0.00  0.00    -0.380 OA
ATOM     10  C   LIG    1       -0.967  -4.614  -1.721  0.00  0.00    +0.220 C 
ENDBRANCH   4   7
BRANCH   1  11
ATOM     11  N   LIG    1        0.063   1.338   0.536  0.00  0.00    -0.850 N 
ATOM     12  H   LIG    1       -0.769   1.817   0.678  0.00  0.00    +0.410 HD
ATOM     13  H   LIG    1        0.908   1.811   0.579  0.00  0.00    +0.410 HD
ENDBRANCH   1  11
BRANCH   6  14
ATOM     14  N   LIG    1        2.476   0.072  -0.232  0.00  0.00    +0.040 N 
ATOM     15  O   LIG    1        3.523  -0.440   0.121  0.00  0.00    -0.150 OA
ATOM     16  O   LIG    1        2.471   1.205  -0.678  0.00  0.00    -0.180 OA
ENDBRANCH   6  14
TORSDOF 3
