REMARK  Name = ZINC000905294924
REMARK                            x       y       z     vdW  Elec       q    Type
REMARK                         _______ _______ _______ _____ _____    ______ ____
ROOT
ATOM      1  C   LIG    1        0.606  -0.607  -1.056  0.00  0.00    +0.170 A 
ATOM      2  C   LIG    1        1.173   0.162  -2.062  0.00  0.00    -0.130 A 
ATOM      3  C   LIG    1        1.788  -0.450  -3.139  0.00  0.00    +0.100 A 
ATOM      4  C   LIG    1        1.839  -1.828  -3.216  0.00  0.00    -0.110 A 
ATOM      5  C   LIG    1        1.273  -2.603  -2.211  0.00  0.00    +0.250 A 
ATOM      6  C   LIG    1        0.660  -1.990  -1.127  0.00  0.00    -0.090 A 
ENDROOT
BRANCH   1   8
ATOM      7  C   LIG    1       -0.017   1.425   0.010  0.00  0.00    +0.250 C 
ATOM      8  O   LIG    1        0.002  -0.004   0.002  0.00  0.00    -0.320 OA
ENDBRANCH   1   8
BRANCH   5   9
ATOM      9  N   LIG    1        1.325  -3.997  -2.289  0.00  0.00    -0.750 N 
ATOM     10  H   LIG    1        0.930  -4.537  -1.587  0.00  0.00    +0.400 HD
BRANCH   9  11
ATOM     11  C   LIG    1        1.977  -4.642  -3.431  0.00  0.00    +0.290 C 
BRANCH  11  12
ATOM     12  C   LIG    1        1.896  -6.162  -3.273  0.00  0.00    +0.250 C 
BRANCH  12  13
ATOM     13  N   LIG    1        2.547  -6.808  -4.415  0.00  0.00    -0.020 N 
ATOM     14  O   LIG    1        2.010  -7.749  -4.971  0.00  0.00    -0.150 OA
ATOM     15  O   LIG    1        3.627  -6.403  -4.809  0.00  0.00    -0.150 OA
ENDBRANCH  12  13
ENDBRANCH  11  12
ENDBRANCH   9  11
ENDBRANCH   5   9
TORSDOF 5
