REMARK  Name = ZINC000306405142
REMARK                            x       y       z     vdW  Elec       q    Type
REMARK                         _______ _______ _______ _____ _____    ______ ____
ROOT
ATOM      1  C   LIG    1       -1.307   1.937   0.019  0.00  0.00    -0.250 A 
ATOM      2  C   LIG    1       -2.517   1.377   0.027  0.00  0.00    +0.380 A 
ATOM      3  N   LIG    1       -3.520   2.236   0.035  0.00  0.00    -0.500 NA
ATOM      4  C   LIG    1       -3.212   3.496   0.034  0.00  0.00    +0.210 A 
ATOM      5  S   LIG    1       -1.513   3.686   0.029  0.00  0.00    +0.310 S 
ENDROOT
BRANCH   4   6
ATOM      6  N   LIG    1       -4.127   4.537   0.042  0.00  0.00    -0.410 N 
ATOM      7  C   LIG    1       -4.379   5.030  -1.325  0.00  0.00    +0.210 C 
ATOM      8  C   LIG    1       -5.866   5.126  -0.957  0.00  0.00    +0.050 C 
ATOM      9  C   LIG    1       -5.510   4.025   0.052  0.00  0.00    +0.210 C 
ENDBRANCH   4   6
BRANCH   1  11
ATOM     10  O   LIG    1        0.002  -0.004   0.002  0.00  0.00    -0.140 OA
ATOM     11  N   LIG    1       -0.014   1.214   0.009  0.00  0.00    +0.070 N 
ATOM     12  O   LIG    1        1.032   1.837   0.002  0.00  0.00    -0.150 OA
ENDBRANCH   1  11
TORSDOF 2
