REMARK  Name = ZINC000612610875
REMARK                            x       y       z     vdW  Elec       q    Type
REMARK                         _______ _______ _______ _____ _____    ______ ____
ROOT
ATOM      1  N   LIG    1       -2.842  -2.322   0.017  0.00  0.00    -0.350 N 
ATOM      2  N   LIG    1       -3.626  -2.545   1.156  0.00  0.00    -0.260 NA
ATOM      3  C   LIG    1       -4.828  -2.883   0.765  0.00  0.00    +0.140 A 
ATOM      4  C   LIG    1       -4.848  -2.885  -0.634  0.00  0.00    -0.190 A 
ATOM      5  C   LIG    1       -5.991  -3.212   1.666  0.00  0.00    +0.170 C 
ATOM      6  C   LIG    1       -3.617  -2.531  -1.068  0.00  0.00    +0.180 A 
ATOM      7  C   LIG    1       -3.185  -2.403  -2.506  0.00  0.00    +0.170 C 
ENDROOT
BRANCH   4   8
ATOM      8  N   LIG    1       -6.013  -3.210  -1.488  0.00  0.00    +0.050 N 
ATOM      9  O   LIG    1       -6.207  -4.359  -1.842  0.00  0.00    -0.140 OA
ATOM     10  O   LIG    1       -6.778  -2.329  -1.836  0.00  0.00    -0.130 OA
ENDBRANCH   4   8
BRANCH   1  11
ATOM     11  C   LIG    1       -1.432  -1.925   0.005  0.00  0.00    +0.510 C 
BRANCH  11  12
ATOM     12  O   LIG    1       -1.339  -0.499   0.012  0.00  0.00    -0.400 OA
BRANCH  12  14
ATOM     13  C   LIG    1       -0.019   1.526   0.010  0.00  0.00    +0.070 C 
ATOM     14  C   LIG    1        0.002  -0.004   0.002  0.00  0.00    +0.190 C 
ENDBRANCH  12  14
ENDBRANCH  11  12
ENDBRANCH   1  11
TORSDOF 4
