REMARK  Name = ZINC000039238535
REMARK                            x       y       z     vdW  Elec       q    Type
REMARK                         _______ _______ _______ _____ _____    ______ ____
ROOT
ATOM      1  C   LIG    1        1.199   1.933   0.001  0.00  0.00    -0.270 A 
ATOM      2  C   LIG    1        1.312   3.300   0.013  0.00  0.00    +0.010 A 
ATOM      3  C   LIG    1        2.612   3.736   0.002  0.00  0.00    +0.060 A 
ATOM      4  C   LIG    1        3.538   2.768  -0.018  0.00  0.00    -0.050 A 
ATOM      5  S   LIG    1        2.808   1.225  -0.018  0.00  0.00    +0.390 S 
ENDROOT
BRANCH   2   6
ATOM      6  N   LIG    1        0.146   4.213   0.036  0.00  0.00    +0.040 N 
ATOM      7  O   LIG    1       -0.983   3.758   0.045  0.00  0.00    -0.160 OA
ATOM      8  O   LIG    1        0.318   5.419   0.045  0.00  0.00    -0.130 OA
ENDBRANCH   2   6
BRANCH   1  10
ATOM      9  O   LIG    1        0.002  -0.004   0.002  0.00  0.00    -0.440 OA
ATOM     10  C   LIG    1       -0.014   1.210   0.009  0.00  0.00    +0.540 C 
ENDBRANCH   1  10
TORSDOF 2
