REMARK  Name = ZINC000039213981
REMARK                            x       y       z     vdW  Elec       q    Type
REMARK                         _______ _______ _______ _____ _____    ______ ____
ROOT
ATOM      1  C   LIG    1       -2.620  -2.590  -0.120  0.00  0.00    +0.180 A 
ATOM      2  C   LIG    1       -3.792  -1.855  -0.015  0.00  0.00    -0.060 A 
ATOM      3  C   LIG    1       -5.013  -2.501  -0.023  0.00  0.00    +0.150 A 
ATOM      4  C   LIG    1       -5.068  -3.877  -0.136  0.00  0.00    -0.090 A 
ATOM      5  C   LIG    1       -3.901  -4.612  -0.241  0.00  0.00    +0.150 A 
ATOM      6  C   LIG    1       -2.678  -3.971  -0.238  0.00  0.00    +0.010 A 
ENDROOT
BRANCH   4   7
ATOM      7  N   LIG    1       -6.378  -4.566  -0.144  0.00  0.00    +0.030 N 
ATOM      8  O   LIG    1       -6.427  -5.779  -0.244  0.00  0.00    -0.160 OA
ATOM      9  O   LIG    1       -7.406  -3.921  -0.052  0.00  0.00    -0.160 OA
ENDBRANCH   4   7
BRANCH   1  10
ATOM     10  O   LIG    1       -1.417  -1.957  -0.112  0.00  0.00    -0.290 OA
BRANCH  10  11
ATOM     11  C   LIG    1       -1.433  -0.534   0.013  0.00  0.00    +0.170 C 
BRANCH  11  13
ATOM     12  C   LIG    1       -0.019   1.526   0.010  0.00  0.00    +0.030 C 
ATOM     13  C   LIG    1        0.002  -0.004   0.002  0.00  0.00    +0.220 C 
BRANCH  13  14
ATOM     14  O   LIG    1        0.693  -0.477   1.160  0.00  0.00    -0.550 OA
ATOM     15  H   LIG    1        0.294  -0.202   1.996  0.00  0.00    +0.380 HD
ENDBRANCH  13  14
ENDBRANCH  11  13
ENDBRANCH  10  11
ENDBRANCH   1  10
TORSDOF 5
