REMARK  Name = ZINC000601170329
REMARK                            x       y       z     vdW  Elec       q    Type
REMARK                         _______ _______ _______ _____ _____    ______ ____
ROOT
ATOM      1  C   LIG    1       -1.255  -0.598  -0.018  0.00  0.00    +0.380 A 
ATOM      2  N   LIG    1       -1.617  -1.402   0.969  0.00  0.00    -0.510 NA
ATOM      3  C   LIG    1       -2.786  -2.013   0.971  0.00  0.00    +0.350 A 
ATOM      4  C   LIG    1       -3.680  -1.834  -0.066  0.00  0.00    -0.020 A 
ATOM      5  C   LIG    1       -3.338  -0.999  -1.122  0.00  0.00    +0.180 A 
ATOM      6  C   LIG    1       -2.108  -0.368  -1.093  0.00  0.00    -0.100 A 
ENDROOT
BRANCH   6   7
ATOM      7  N   LIG    1       -1.735   0.456  -2.102  0.00  0.00    +0.070 N 
ATOM      8  O   LIG    1       -0.610   0.922  -2.123  0.00  0.00    -0.120 OA
ATOM      9  O   LIG    1       -2.525   0.730  -2.988  0.00  0.00    -0.210 OA
ENDBRANCH   6   7
BRANCH   1  11
ATOM     10  C   LIG    1        0.148   0.800   1.260  0.00  0.00    +0.230 C 
ATOM     11  N   LIG    1       -0.013   0.026   0.021  0.00  0.00    -0.480 N 
BRANCH  11  12
ATOM     12  C   LIG    1        1.072  -0.951  -0.134  0.00  0.00    +0.170 C 
BRANCH  12  13
ATOM     13  C   LIG    1        2.397  -0.213  -0.336  0.00  0.00    +0.250 C 
ATOM     14  F   LIG    1        3.432  -1.144  -0.484  0.00  0.00    -0.210 F 
ENDBRANCH  12  13
ENDBRANCH  11  12
ENDBRANCH   1  11
TORSDOF 4
