REMARK  Name = ZINC000604495118
REMARK                            x       y       z     vdW  Elec       q    Type
REMARK                         _______ _______ _______ _____ _____    ______ ____
ROOT
ATOM      1  C   LIG    1        1.258  -2.713   2.367  0.00  0.00    +0.250 A 
ATOM      2  C   LIG    1        0.540  -3.613   3.080  0.00  0.00    +0.070 A 
ATOM      3  N   LIG    1        1.323  -4.087   4.062  0.00  0.00    -0.440 NA
ATOM      4  C   LIG    1        2.497  -3.522   3.992  0.00  0.00    +0.460 A 
ATOM      5  N   LIG    1        2.502  -2.657   2.940  0.00  0.00    -0.480 N 
ATOM      6  C   LIG    1        3.623  -1.819   2.508  0.00  0.00    +0.350 C 
ENDROOT
BRANCH   2   7
ATOM      7  N   LIG    1       -0.864  -4.006   2.821  0.00  0.00    +0.070 N 
ATOM      8  O   LIG    1       -1.371  -4.910   3.461  0.00  0.00    -0.150 OA
ATOM      9  O   LIG    1       -1.511  -3.425   1.969  0.00  0.00    -0.120 OA
ENDBRANCH   2   7
BRANCH   1  10
ATOM     10  N   LIG    1        0.819  -1.988   1.259  0.00  0.00    -0.450 N 
ATOM     11  C   LIG    1        1.652  -2.268   0.082  0.00  0.00    +0.240 C 
BRANCH  10  12
ATOM     12  C   LIG    1        0.787  -0.548   1.551  0.00  0.00    +0.180 C 
BRANCH  12  14
ATOM     13  C   LIG    1       -0.158   1.656   0.849  0.00  0.00    +0.020 C 
ATOM     14  C   LIG    1       -0.125   0.156   0.544  0.00  0.00    +0.030 C 
ENDBRANCH  12  14
ENDBRANCH  10  12
ENDBRANCH   1  10
TORSDOF 4
