REMARK  Name = ZINC000604114045
REMARK                            x       y       z     vdW  Elec       q    Type
REMARK                         _______ _______ _______ _____ _____    ______ ____
ROOT
ATOM      1  N   LIG    1       -3.898  -1.421  -2.491  0.00  0.00    -0.330 N 
ATOM      2  N   LIG    1       -4.606  -0.468  -3.235  0.00  0.00    -0.220 NA
ATOM      3  C   LIG    1       -4.956  -1.014  -4.372  0.00  0.00    +0.260 A 
ATOM      4  C   LIG    1       -4.482  -2.329  -4.388  0.00  0.00    +0.020 A 
ATOM      5  C   LIG    1       -3.830  -2.552  -3.224  0.00  0.00    +0.120 A 
ENDROOT
BRANCH   5   6
ATOM      6  N   LIG    1       -3.170  -3.814  -2.821  0.00  0.00    +0.050 N 
ATOM      7  O   LIG    1       -2.612  -3.892  -1.740  0.00  0.00    -0.150 OA
ATOM      8  O   LIG    1       -3.183  -4.775  -3.569  0.00  0.00    -0.110 OA
ENDBRANCH   5   6
BRANCH   1   9
ATOM      9  C   LIG    1       -3.326  -1.221  -1.157  0.00  0.00    +0.360 C 
BRANCH   9  10
ATOM     10  C   LIG    1       -1.896  -0.693  -1.289  0.00  0.00    +0.170 C 
BRANCH  10  11
ATOM     11  O   LIG    1       -1.339  -0.499   0.012  0.00  0.00    -0.370 OA
BRANCH  11  13
ATOM     12  C   LIG    1       -0.019   1.526   0.010  0.00  0.00    +0.020 C 
ATOM     13  C   LIG    1        0.002  -0.004   0.002  0.00  0.00    +0.140 C 
ATOM     14  C   LIG    1        0.742  -0.511   1.242  0.00  0.00    +0.050 C 
ENDBRANCH  11  13
ENDBRANCH  10  11
ENDBRANCH   9  10
ENDBRANCH   1   9
TORSDOF 5
