REMARK  Name = ZINC000000507301
REMARK                            x       y       z     vdW  Elec       q    Type
REMARK                         _______ _______ _______ _____ _____    ______ ____
ROOT
ATOM      1  C   LIG    1        0.732  -0.501   1.223  0.00  0.00    -0.070 A 
ATOM      2  C   LIG    1        2.050  -0.906   1.135  0.00  0.00    +0.300 A 
ATOM      3  N   LIG    1        2.693  -1.346   2.198  0.00  0.00    -0.440 NA
ATOM      4  C   LIG    1        2.113  -1.419   3.380  0.00  0.00    +0.130 A 
ATOM      5  C   LIG    1        0.796  -1.031   3.545  0.00  0.00    +0.060 A 
ATOM      6  C   LIG    1        2.893  -1.929   4.563  0.00  0.00    +0.150 C 
ATOM      7  C   LIG    1        0.089  -0.557   2.451  0.00  0.00    +0.000 A 
ENDROOT
BRANCH   7   8
ATOM      8  N   LIG    1       -1.322  -0.132   2.587  0.00  0.00    +0.020 N 
ATOM      9  O   LIG    1       -1.958   0.194   1.601  0.00  0.00    -0.140 OA
ATOM     10  O   LIG    1       -1.847  -0.107   3.686  0.00  0.00    -0.150 OA
ENDBRANCH   7   8
BRANCH   1  12
ATOM     11  C   LIG    1       -0.053   1.529   0.035  0.00  0.00    +0.030 C 
ATOM     12  C   LIG    1        0.004   0.001   0.003  0.00  0.00    +0.100 C 
ENDBRANCH   1  12
TORSDOF 2
