REMARK  Name = ZINC000165481843
REMARK                            x       y       z     vdW  Elec       q    Type
REMARK                         _______ _______ _______ _____ _____    ______ ____
ROOT
ATOM      1  C   LIG    1        2.037  -0.842   1.046  0.00  0.00    +0.260 A 
ATOM      2  C   LIG    1        2.690  -1.410   2.133  0.00  0.00    -0.040 A 
ATOM      3  C   LIG    1        4.044  -1.671   2.064  0.00  0.00    +0.160 A 
ATOM      4  C   LIG    1        4.750  -1.367   0.914  0.00  0.00    -0.100 A 
ATOM      5  C   LIG    1        4.104  -0.802  -0.170  0.00  0.00    +0.140 A 
ATOM      6  C   LIG    1        2.748  -0.544  -0.109  0.00  0.00    -0.030 A 
ENDROOT
BRANCH   4   7
ATOM      7  N   LIG    1        6.202  -1.649   0.843  0.00  0.00    +0.040 N 
ATOM      8  O   LIG    1        6.825  -1.383  -0.169  0.00  0.00    -0.170 OA
ATOM      9  O   LIG    1        6.773  -2.147   1.797  0.00  0.00    -0.170 OA
ENDBRANCH   4   7
BRANCH   1  10
ATOM     10  N   LIG    1        0.667  -0.577   1.113  0.00  0.00    -0.490 N 
ATOM     11  C   LIG    1       -0.081  -0.892   2.332  0.00  0.00    +0.330 C 
BRANCH  10  13
ATOM     12  C   LIG    1       -0.017   1.425   0.010  0.00  0.00    +0.220 C 
ATOM     13  O   LIG    1        0.002  -0.004   0.002  0.00  0.00    -0.130 OA
ENDBRANCH  10  13
ENDBRANCH   1  10
TORSDOF 3
