REMARK  Name = ZINC000905328062
REMARK                            x       y       z     vdW  Elec       q    Type
REMARK                         _______ _______ _______ _____ _____    ______ ____
ROOT
ATOM      1  C   LIG    1       -0.018   1.503   0.010  0.00  0.00    +0.100 C 
ATOM      2  C   LIG    1        0.002  -0.004   0.002  0.00  0.00    -0.010 A 
ATOM      3  C   LIG    1        0.006  -0.688  -1.199  0.00  0.00    -0.080 A 
ATOM      4  C   LIG    1        0.025  -2.073  -1.211  0.00  0.00    +0.150 A 
ATOM      5  C   LIG    1        0.041  -2.775  -0.020  0.00  0.00    -0.110 A 
ATOM      6  C   LIG    1        0.037  -2.089   1.188  0.00  0.00    +0.240 A 
ATOM      7  F   LIG    1        0.029  -2.738  -2.387  0.00  0.00    -0.140 F 
ATOM      8  C   LIG    1        0.023  -0.700   1.195  0.00  0.00    -0.070 A 
ENDROOT
BRANCH   6   9
ATOM      9  N   LIG    1        0.053  -2.795   2.393  0.00  0.00    -0.740 N 
ATOM     10  H   LIG    1        0.050  -2.315   3.236  0.00  0.00    +0.410 HD
BRANCH   9  11
ATOM     11  C   LIG    1        0.074  -4.260   2.384  0.00  0.00    +0.290 C 
BRANCH  11  12
ATOM     12  C   LIG    1        0.089  -4.778   3.824  0.00  0.00    +0.260 C 
BRANCH  12  13
ATOM     13  N   LIG    1        0.110  -6.243   3.815  0.00  0.00    -0.020 N 
ATOM     14  O   LIG    1       -0.631  -6.858   3.069  0.00  0.00    -0.150 OA
ATOM     15  O   LIG    1        0.868  -6.846   4.553  0.00  0.00    -0.150 OA
ENDBRANCH  12  13
ENDBRANCH  11  12
ENDBRANCH   9  11
ENDBRANCH   6   9
TORSDOF 4
