REMARK  Name = ZINC000039123504
REMARK                            x       y       z     vdW  Elec       q    Type
REMARK                         _______ _______ _______ _____ _____    ______ ____
ROOT
ATOM      1  C   LIG    1       -0.018   1.503   0.010  0.00  0.00    +0.140 C 
ATOM      2  C   LIG    1        0.002  -0.004   0.002  0.00  0.00    -0.090 A 
ATOM      3  C   LIG    1        0.006  -0.699  -1.197  0.00  0.00    +0.090 A 
ATOM      4  C   LIG    1        0.025  -2.085  -1.157  0.00  0.00    +0.070 A 
ATOM      5  C   LIG    1        0.039  -2.723   0.069  0.00  0.00    +0.170 A 
ATOM      6  N   LIG    1        0.035  -2.029   1.191  0.00  0.00    -0.430 NA
ATOM      7  C   LIG    1        0.023  -0.710   1.190  0.00  0.00    +0.150 A 
ATOM      8  C   LIG    1        0.020   0.035   2.500  0.00  0.00    +0.160 C 
ENDROOT
BRANCH   5   9
ATOM      9  N   LIG    1        0.059  -4.202   0.125  0.00  0.00    +0.030 N 
ATOM     10  O   LIG    1        0.072  -4.771   1.201  0.00  0.00    -0.120 OA
ATOM     11  O   LIG    1        0.064  -4.850  -0.907  0.00  0.00    -0.150 OA
ENDBRANCH   5   9
TORSDOF 1
