REMARK  Name = ZINC000096548095
REMARK                            x       y       z     vdW  Elec       q    Type
REMARK                         _______ _______ _______ _____ _____    ______ ____
ROOT
ATOM      1  N   LIG    1        0.611  -0.460  -1.259  0.00  0.00    -0.480 N 
ATOM      2  C   LIG    1        0.035  -0.495  -2.488  0.00  0.00    +0.430 A 
ATOM      3  C   LIG    1        0.727  -0.942  -3.562  0.00  0.00    -0.150 A 
ATOM      4  C   LIG    1        2.052  -1.375  -3.411  0.00  0.00    +0.040 A 
ATOM      5  C   LIG    1        2.628  -1.339  -2.175  0.00  0.00    -0.060 A 
ATOM      6  C   LIG    1        2.830  -1.874  -4.601  0.00  0.00    +0.130 C 
ATOM      7  C   LIG    1        1.883  -0.864  -1.082  0.00  0.00    +0.520 A 
ATOM      8  O   LIG    1        2.387  -0.826   0.029  0.00  0.00    -0.510 OA
ENDROOT
BRANCH   3   9
ATOM      9  N   LIG    1        0.085  -0.974  -4.895  0.00  0.00    +0.050 N 
ATOM     10  O   LIG    1        0.739  -1.270  -5.879  0.00  0.00    -0.150 OA
ATOM     11  O   LIG    1       -1.098  -0.705  -5.008  0.00  0.00    -0.170 OA
ENDBRANCH   3   9
BRANCH   1  13
ATOM     12  C   LIG    1        0.034   1.539   0.026  0.00  0.00    +0.050 C 
ATOM     13  C   LIG    1       -0.160   0.028  -0.112  0.00  0.00    +0.290 C 
ENDBRANCH   1  13
TORSDOF 2
