REMARK  Name = ZINC000334547229
REMARK                            x       y       z     vdW  Elec       q    Type
REMARK                         _______ _______ _______ _____ _____    ______ ____
ROOT
ATOM      1  N   LIG    1        0.738  -1.962  -1.265  0.00  0.00    -0.490 N 
ATOM      2  C   LIG    1        1.772  -2.623  -0.683  0.00  0.00    +0.380 A 
ATOM      3  C   LIG    1        1.813  -3.975  -0.678  0.00  0.00    -0.080 A 
ATOM      4  C   LIG    1        0.779  -4.709  -1.278  0.00  0.00    +0.120 A 
ATOM      5  C   LIG    1       -0.259  -4.044  -1.862  0.00  0.00    -0.200 A 
ATOM      6  C   LIG    1        0.815  -6.215  -1.278  0.00  0.00    +0.140 C 
ATOM      7  C   LIG    1       -0.272  -2.639  -1.844  0.00  0.00    +0.540 A 
ATOM      8  O   LIG    1       -1.195  -2.031  -2.362  0.00  0.00    -0.490 OA
ENDROOT
BRANCH   5   9
ATOM      9  N   LIG    1       -1.363  -4.794  -2.502  0.00  0.00    +0.050 N 
ATOM     10  O   LIG    1       -2.286  -4.194  -3.021  0.00  0.00    -0.140 OA
ATOM     11  O   LIG    1       -1.347  -6.012  -2.509  0.00  0.00    -0.180 OA
ENDBRANCH   5   9
BRANCH   1  12
ATOM     12  C   LIG    1        0.718  -0.497  -1.257  0.00  0.00    +0.300 C 
BRANCH  12  14
ATOM     13  C   LIG    1       -0.019   1.526   0.010  0.00  0.00    +0.040 C 
ATOM     14  C   LIG    1        0.002  -0.004   0.002  0.00  0.00    +0.000 C 
ENDBRANCH  12  14
ENDBRANCH   1  12
TORSDOF 3
