REMARK  Name = ZINC000306441396
REMARK                            x       y       z     vdW  Elec       q    Type
REMARK                         _______ _______ _______ _____ _____    ______ ____
ROOT
ATOM      1  C   LIG    1       -0.018   1.503   0.010  0.00  0.00    +0.150 C 
ATOM      2  C   LIG    1        0.002  -0.004   0.002  0.00  0.00    -0.180 A 
ATOM      3  C   LIG    1        0.008  -0.794  -1.097  0.00  0.00    +0.260 A 
ATOM      4  N   LIG    1        0.028  -2.078  -0.680  0.00  0.00    -0.320 N 
ATOM      5  N   LIG    1        0.034  -2.076   0.721  0.00  0.00    -0.210 NA
ATOM      6  C   LIG    1        0.025  -0.833   1.128  0.00  0.00    +0.110 A 
ENDROOT
BRANCH   6   7
ATOM      7  N   LIG    1        0.027  -0.382   2.538  0.00  0.00    +0.060 N 
ATOM      8  O   LIG    1        0.017   0.808   2.797  0.00  0.00    -0.130 OA
ATOM      9  O   LIG    1        0.038  -1.201   3.440  0.00  0.00    -0.130 OA
ENDBRANCH   6   7
BRANCH   4  10
ATOM     10  C   LIG    1        0.041  -3.263  -1.541  0.00  0.00    +0.340 C 
BRANCH  10  11
ATOM     11  C   LIG    1        1.236  -4.145  -1.176  0.00  0.00    -0.030 C 
ATOM     12  C   LIG    1        1.322  -5.318  -2.155  0.00  0.00    +0.040 C 
ATOM     13  C   LIG    1        1.060  -4.680   0.247  0.00  0.00    +0.040 C 
ENDBRANCH  10  11
ENDBRANCH   4  10
TORSDOF 3
