REMARK  Name = ZINC000039218932
REMARK                            x       y       z     vdW  Elec       q    Type
REMARK                         _______ _______ _______ _____ _____    ______ ____
ROOT
ATOM      1  N   LIG    1       -1.413  -1.998   0.005  0.00  0.00    -0.480 N 
ATOM      2  C   LIG    1       -1.410  -2.663  -1.179  0.00  0.00    +0.430 A 
ATOM      3  C   LIG    1       -1.392  -4.016  -1.212  0.00  0.00    -0.150 A 
ATOM      4  C   LIG    1       -1.377  -4.745  -0.015  0.00  0.00    +0.160 A 
ATOM      5  C   LIG    1       -1.380  -4.076   1.174  0.00  0.00    -0.040 A 
ATOM      6  C   LIG    1       -1.393  -2.670   1.172  0.00  0.00    +0.520 A 
ATOM      7  O   LIG    1       -1.396  -2.059   2.228  0.00  0.00    -0.510 OA
ENDROOT
BRANCH   3   8
ATOM      8  N   LIG    1       -1.389  -4.725  -2.511  0.00  0.00    +0.050 N 
ATOM      9  O   LIG    1       -1.373  -5.943  -2.540  0.00  0.00    -0.150 OA
ATOM     10  O   LIG    1       -1.402  -4.091  -3.551  0.00  0.00    -0.170 OA
ENDBRANCH   3   8
BRANCH   1  11
ATOM     11  C   LIG    1       -1.433  -0.534   0.013  0.00  0.00    +0.290 C 
BRANCH  11  13
ATOM     12  C   LIG    1       -0.019   1.526   0.010  0.00  0.00    +0.040 C 
ATOM     13  C   LIG    1        0.002  -0.004   0.002  0.00  0.00    +0.000 C 
ENDBRANCH  11  13
ENDBRANCH   1  11
TORSDOF 3
