REMARK  Name = ZINC000877871115
REMARK                            x       y       z     vdW  Elec       q    Type
REMARK                         _______ _______ _______ _____ _____    ______ ____
ROOT
ATOM      1  N   LIG    1        2.860  -3.074   1.490  0.00  0.00    -0.340 N 
ATOM      2  C   LIG    1        3.511  -4.241   1.346  0.00  0.00    +0.530 A 
ATOM      3  N   LIG    1        3.339  -4.939   2.439  0.00  0.00    -0.490 NA
ATOM      4  C   LIG    1        2.587  -4.253   3.299  0.00  0.00    +0.270 A 
ATOM      5  N   LIG    1        2.274  -3.102   2.765  0.00  0.00    -0.210 NA
ENDROOT
BRANCH   4   6
ATOM      6  N   LIG    1        2.179  -4.717   4.644  0.00  0.00    +0.060 N 
ATOM      7  O   LIG    1        1.487  -4.005   5.350  0.00  0.00    -0.110 OA
ATOM      8  O   LIG    1        2.534  -5.811   5.045  0.00  0.00    -0.090 OA
ENDBRANCH   4   6
BRANCH   1   9
ATOM      9  C   LIG    1        2.783  -1.985   0.512  0.00  0.00    +0.350 C 
BRANCH   9  13
ATOM     10  C   LIG    1       -0.019   1.526   0.010  0.00  0.00    +0.040 C 
ATOM     11  C   LIG    1        0.002  -0.004   0.002  0.00  0.00    -0.030 C 
ATOM     12  C   LIG    1        1.120  -0.600  -0.870  0.00  0.00    +0.040 C 
ATOM     13  C   LIG    1        1.315  -1.650   0.237  0.00  0.00    -0.030 C 
ATOM     14  C   LIG    1        0.727  -0.617   1.212  0.00  0.00    +0.030 C 
ENDBRANCH   9  13
ENDBRANCH   1   9
TORSDOF 3
