REMARK  Name = ZINC000095919833
REMARK                            x       y       z     vdW  Elec       q    Type
REMARK                         _______ _______ _______ _____ _____    ______ ____
ROOT
ATOM      1  C   LIG    1       -1.198  -0.636   0.010  0.00  0.00    +0.420 A 
ATOM      2  C   LIG    1       -1.235  -2.029   0.009  0.00  0.00    -0.140 A 
ATOM      3  C   LIG    1       -2.445  -2.672   0.017  0.00  0.00    +0.250 A 
ATOM      4  C   LIG    1       -3.607  -1.895   0.027  0.00  0.00    -0.190 A 
ATOM      5  C   LIG    1       -5.039  -2.201   0.037  0.00  0.00    +0.000 A 
ATOM      6  C   LIG    1       -5.687  -1.026   0.044  0.00  0.00    +0.250 A 
ATOM      7  N   LIG    1       -4.784   0.005   0.038  0.00  0.00    -0.570 N 
ATOM      8  H   LIG    1       -5.015   0.947   0.041  0.00  0.00    +0.430 HD
ATOM      9  C   LIG    1       -3.504  -0.492   0.028  0.00  0.00    +0.360 A 
ATOM     10  N   LIG    1       -2.306   0.081   0.025  0.00  0.00    -0.540 NA
ENDROOT
BRANCH   2  11
ATOM     11  N   LIG    1        0.024  -2.807  -0.001  0.00  0.00    +0.040 N 
ATOM     12  O   LIG    1        1.097  -2.231  -0.009  0.00  0.00    -0.130 OA
ATOM     13  O   LIG    1       -0.013  -4.025  -0.003  0.00  0.00    -0.180 OA
ENDBRANCH   2  11
BRANCH   1  15
ATOM     14  C   LIG    1       -0.017   1.425   0.010  0.00  0.00    +0.260 C 
ATOM     15  O   LIG    1        0.002  -0.004   0.002  0.00  0.00    -0.270 OA
ENDBRANCH   1  15
TORSDOF 2
