REMARK  Name = ZINC000039218930
REMARK                            x       y       z     vdW  Elec       q    Type
REMARK                         _______ _______ _______ _____ _____    ______ ____
ROOT
ATOM      1  N   LIG    1        0.762  -1.976   1.234  0.00  0.00    -0.490 N 
ATOM      2  C   LIG    1       -0.248  -2.664   1.825  0.00  0.00    +0.380 A 
ATOM      3  C   LIG    1       -0.252  -4.017   1.831  0.00  0.00    -0.080 A 
ATOM      4  C   LIG    1        0.796  -4.723   1.221  0.00  0.00    +0.260 A 
ATOM      5  C   LIG    1        1.809  -4.029   0.627  0.00  0.00    -0.190 A 
ATOM      6  C   LIG    1        1.779  -2.624   0.635  0.00  0.00    +0.530 A 
ATOM      7  O   LIG    1        2.680  -1.992   0.107  0.00  0.00    -0.490 OA
ENDROOT
BRANCH   5   8
ATOM      8  N   LIG    1        2.927  -4.750  -0.024  0.00  0.00    +0.050 N 
ATOM      9  O   LIG    1        3.829  -4.124  -0.552  0.00  0.00    -0.130 OA
ATOM     10  O   LIG    1        2.945  -5.967  -0.030  0.00  0.00    -0.180 OA
ENDBRANCH   5   8
BRANCH   1  11
ATOM     11  C   LIG    1        0.742  -0.511   1.242  0.00  0.00    +0.300 C 
BRANCH  11  13
ATOM     12  C   LIG    1       -0.019   1.526   0.010  0.00  0.00    +0.040 C 
ATOM     13  C   LIG    1        0.002  -0.004   0.002  0.00  0.00    +0.000 C 
ENDBRANCH  11  13
ENDBRANCH   1  11
TORSDOF 3
