REMARK  Name = ZINC000791052093
REMARK                            x       y       z     vdW  Elec       q    Type
REMARK                         _______ _______ _______ _____ _____    ______ ____
ROOT
ATOM      1  C   LIG    1       -0.019   1.526   0.010  0.00  0.00    +0.030 C 
ATOM      2  C   LIG    1        0.002  -0.004   0.002  0.00  0.00    +0.290 C 
ENDROOT
BRANCH   2   3
ATOM      3  C   LIG    1        0.707  -0.490  -1.238  0.00  0.00    +0.000 A 
ATOM      4  C   LIG    1        0.111  -0.928  -2.361  0.00  0.00    -0.050 A 
ATOM      5  C   LIG    1        1.143  -1.282  -3.261  0.00  0.00    -0.060 A 
ATOM      6  C   LIG    1        2.308  -1.039  -2.634  0.00  0.00    +0.160 A 
ATOM      7  O   LIG    1        2.038  -0.554  -1.411  0.00  0.00    -0.170 OA
ENDBRANCH   2   3
BRANCH   2   8
ATOM      8  N   LIG    1        0.713  -0.491   1.192  0.00  0.00    -0.530 NA
ATOM      9  C   LIG    1        2.048   0.112   1.291  0.00  0.00    +0.200 C 
BRANCH   8  10
ATOM     10  C   LIG    1       -0.069  -0.241   2.411  0.00  0.00    +0.210 C 
BRANCH  10  11
ATOM     11  C   LIG    1        0.575  -0.975   3.589  0.00  0.00    +0.270 C 
BRANCH  11  12
ATOM     12  N   LIG    1       -0.205  -0.726   4.804  0.00  0.00    -0.020 N 
ATOM     13  O   LIG    1        0.363  -0.446   5.845  0.00  0.00    -0.160 OA
ATOM     14  O   LIG    1       -1.420  -0.799   4.773  0.00  0.00    -0.160 OA
ENDBRANCH  11  12
ENDBRANCH  10  11
ENDBRANCH   8  10
ENDBRANCH   2   8
TORSDOF 5
