REMARK  Name = ZINC000038761141
REMARK                            x       y       z     vdW  Elec       q    Type
REMARK                         _______ _______ _______ _____ _____    ______ ____
ROOT
ATOM      1  C   LIG    1       -0.018   1.503   0.010  0.00  0.00    +0.130 C 
ATOM      2  C   LIG    1        0.002  -0.004   0.002  0.00  0.00    -0.090 A 
ATOM      3  C   LIG    1        0.006  -0.688  -1.201  0.00  0.00    +0.110 A 
ATOM      4  C   LIG    1        0.025  -2.072  -1.214  0.00  0.00    -0.010 A 
ATOM      5  C   LIG    1        0.040  -2.776  -0.020  0.00  0.00    +0.190 A 
ATOM      6  C   LIG    1        0.036  -2.086   1.192  0.00  0.00    +0.200 A 
ATOM      7  F   LIG    1       -0.009  -0.003  -2.366  0.00  0.00    -0.120 F 
ATOM      8  C   LIG    1        0.023  -0.700   1.197  0.00  0.00    -0.040 A 
ENDROOT
BRANCH   6   9
ATOM      9  N   LIG    1        0.051  -2.793   2.402  0.00  0.00    -0.870 N 
ATOM     10  H   LIG    1        0.048  -2.312   3.245  0.00  0.00    +0.410 HD
ATOM     11  H   LIG    1        0.065  -3.763   2.398  0.00  0.00    +0.410 HD
ENDBRANCH   6   9
BRANCH   5  12
ATOM     12  N   LIG    1        0.060  -4.176  -0.031  0.00  0.00    -0.870 N 
ATOM     13  H   LIG    1        0.071  -4.667   0.805  0.00  0.00    +0.400 HD
ATOM     14  H   LIG    1        0.063  -4.655  -0.875  0.00  0.00    +0.410 HD
ENDBRANCH   5  12
BRANCH   8  15
ATOM     15  N   LIG    1        0.018   0.035   2.482  0.00  0.00    +0.020 N 
ATOM     16  O   LIG    1       -1.038   0.327   3.013  0.00  0.00    -0.140 OA
ATOM     17  O   LIG    1        1.071   0.347   3.008  0.00  0.00    -0.130 OA
ENDBRANCH   8  15
TORSDOF 3
