REMARK  Name = ZINC000005124560
REMARK                            x       y       z     vdW  Elec       q    Type
REMARK                         _______ _______ _______ _____ _____    ______ ____
ROOT
ATOM      1  C   LIG    1       -0.018   1.503   0.010  0.00  0.00    +0.190 C 
ATOM      2  C   LIG    1        0.002  -0.004   0.002  0.00  0.00    +0.120 A 
ATOM      3  N   LIG    1        0.008  -0.766  -1.054  0.00  0.00    -0.240 NA
ATOM      4  N   LIG    1        0.029  -2.112  -0.676  0.00  0.00    -0.400 N 
ATOM      5  C   LIG    1        0.035  -2.193   0.692  0.00  0.00    +0.170 A 
ATOM      6  C   LIG    1        0.054  -3.252   1.596  0.00  0.00    +0.020 A 
ATOM      7  C   LIG    1        0.057  -3.000   2.939  0.00  0.00    +0.140 A 
ATOM      8  C   LIG    1        0.041  -1.696   3.418  0.00  0.00    -0.080 A 
ATOM      9  C   LIG    1        0.022  -0.638   2.556  0.00  0.00    +0.200 A 
ATOM     10  C   LIG    1        0.040  -3.253  -1.595  0.00  0.00    +0.370 C 
ATOM     11  C   LIG    1        0.025  -0.870   1.176  0.00  0.00    -0.190 A 
ENDROOT
BRANCH   8  12
ATOM     12  N   LIG    1        0.044  -1.452   4.878  0.00  0.00    +0.030 N 
ATOM     13  O   LIG    1        0.029  -0.311   5.305  0.00  0.00    -0.170 OA
ATOM     14  O   LIG    1        0.061  -2.392   5.653  0.00  0.00    -0.160 OA
ENDBRANCH   8  12
TORSDOF 1
