REMARK  Name = ZINC000899872270
REMARK                            x       y       z     vdW  Elec       q    Type
REMARK                         _______ _______ _______ _____ _____    ______ ____
ROOT
ATOM      1  C   LIG    1       -0.018   1.503   0.010  0.00  0.00    +0.110 C 
ATOM      2  C   LIG    1        0.002  -0.004   0.002  0.00  0.00    -0.140 A 
ATOM      3  C   LIG    1        0.006  -0.699  -1.200  0.00  0.00    +0.080 A 
ATOM      4  C   LIG    1        0.025  -2.081  -1.164  0.00  0.00    +0.000 A 
ATOM      5  C   LIG    1        0.040  -2.726   0.069  0.00  0.00    +0.110 A 
ATOM      6  N   LIG    1        0.036  -2.027   1.195  0.00  0.00    -0.490 NA
ATOM      7  C   LIG    1        0.023  -0.708   1.190  0.00  0.00    +0.280 A 
ENDROOT
BRANCH   5   8
ATOM      8  S   LIG    1        0.065  -4.486   0.134  0.00  0.00    -0.040 S 
BRANCH   8   9
ATOM      9  C   LIG    1        0.079  -4.829   1.916  0.00  0.00    +0.110 C 
BRANCH   9  10
ATOM     10  C   LIG    1        0.101  -6.341   2.144  0.00  0.00    +0.290 C 
BRANCH  10  11
ATOM     11  N   LIG    1        0.112  -6.618   3.583  0.00  0.00    -0.020 N 
ATOM     12  O   LIG    1        0.852  -5.990   4.318  0.00  0.00    -0.150 OA
ATOM     13  O   LIG    1       -0.620  -7.475   4.044  0.00  0.00    -0.150 OA
ENDBRANCH  10  11
ENDBRANCH   9  10
ENDBRANCH   8   9
ENDBRANCH   5   8
TORSDOF 4
