REMARK  Name = ZINC000035205651
REMARK                            x       y       z     vdW  Elec       q    Type
REMARK                         _______ _______ _______ _____ _____    ______ ____
ROOT
ATOM      1  C   UNK A  0       -2.205  -0.423  -1.166  0.00  0.00    +0.280 A 
ATOM      2  C   UNK A  0       -1.639   0.012  -2.358  0.00  0.00    -0.060 A 
ATOM      3  C   UNK A  0       -2.209  -0.349  -3.563  0.00  0.00    +0.120 A 
ATOM      4  C   UNK A  0       -3.341  -1.143  -3.584  0.00  0.00    -0.030 A 
ATOM      5  C   UNK A  0       -3.907  -1.578  -2.399  0.00  0.00    +0.140 A 
ATOM      6  C   UNK A  0       -3.339  -1.224  -1.191  0.00  0.00    -0.120 A 
ENDROOT
BRANCH   6   7
ATOM      7  N   UNK A  0       -3.945  -1.690   0.076  0.00  0.00    +0.040 N 
ATOM      8  O   UNK A  0       -5.157  -1.756   0.184  0.00  0.00    -0.150 OA
ATOM      9  O   UNK A  0       -3.233  -2.008   1.012  0.00  0.00    -0.180 OA
ENDBRANCH   6   7
BRANCH   1  10
ATOM     10  N   ALA A  1       -1.631  -0.060   0.055  0.00  0.00    -0.720 N 
ATOM     11  H   ALA A  1       -2.073  -0.291   0.886  0.00  0.00    +0.420 HD
BRANCH  10  13
ATOM     12  CB  ALA A  1       -0.632   2.169  -0.073  0.00  0.00    +0.030 C 
ATOM     13  CA  ALA A  1       -0.361   0.670   0.079  0.00  0.00    +0.240 C 
BRANCH  13  14
ATOM     14  C   ALA A  1        0.350   0.412   1.408  0.00  0.00    +0.200 C 
BRANCH  14  15
ATOM     15  O   ALA A  1       -0.422   0.963   2.477  0.00  0.00    -0.570 OA
ATOM     16  H   ALA A  1       -0.030   0.836   3.352  0.00  0.00    +0.390 HD
ENDBRANCH  14  15
ENDBRANCH  13  14
ENDBRANCH  10  13
ENDBRANCH   1  10
TORSDOF 5
