REMARK  Name = ZINC001334874520
REMARK                            x       y       z     vdW  Elec       q    Type
REMARK                         _______ _______ _______ _____ _____    ______ ____
ROOT
ATOM      1  C   LIG    1       -1.477  -2.380   0.003  0.00  0.00    -0.470 A 
ATOM      2  C   LIG    1       -1.396  -3.058  -1.198  0.00  0.00    +0.160 A 
ATOM      3  C   LIG    1       -1.222  -4.430  -1.207  0.00  0.00    +0.030 A 
ATOM      4  C   LIG    1       -1.128  -5.122  -0.015  0.00  0.00    +0.140 A 
ATOM      5  C   LIG    1       -1.209  -4.444   1.187  0.00  0.00    -0.060 A 
ATOM      6  C   LIG    1       -1.379  -3.072   1.196  0.00  0.00    +0.170 A 
ENDROOT
BRANCH   5   7
ATOM      7  N   LIG    1       -1.109  -5.186   2.464  0.00  0.00    +0.020 N 
ATOM      8  O   LIG    1       -1.180  -4.588   3.523  0.00  0.00    -0.160 OA
ATOM      9  O   LIG    1       -0.956  -6.394   2.456  0.00  0.00    -0.150 OA
ENDBRANCH   5   7
BRANCH   1  10
ATOM     10  S   LIG    1       -1.700  -0.632   0.015  0.00  0.00    +1.350 S 
ATOM     11  O   LIG    1       -2.283  -0.392   1.288  0.00  0.00    -0.840 OA
BRANCH  10  13
ATOM     12  C   LIG    1       -0.019   1.526   0.010  0.00  0.00    +0.060 C 
ATOM     13  C   LIG    1        0.002  -0.004   0.002  0.00  0.00    -0.250 C 
ENDBRANCH  10  13
ENDBRANCH   1  10
TORSDOF 3
