REMARK  Name = ZINC000891422065
REMARK                            x       y       z     vdW  Elec       q    Type
REMARK                         _______ _______ _______ _____ _____    ______ ____
ROOT
ATOM      1  C   LIG    1       -2.696  -2.606  -0.153  0.00  0.00    +0.350 A 
ATOM      2  C   LIG    1       -3.030  -3.758   0.491  0.00  0.00    -0.170 A 
ATOM      3  C   LIG    1       -4.423  -3.799   0.598  0.00  0.00    +0.330 A 
ATOM      4  N   LIG    1       -4.910  -2.720   0.042  0.00  0.00    -0.260 NA
ATOM      5  N   LIG    1       -3.843  -1.948  -0.434  0.00  0.00    -0.380 N 
ATOM      6  C   LIG    1       -3.951  -0.659  -1.123  0.00  0.00    +0.380 C 
ENDROOT
BRANCH   2   7
ATOM      7  N   LIG    1       -2.087  -4.784   0.991  0.00  0.00    +0.070 N 
ATOM      8  O   LIG    1       -0.888  -4.634   0.838  0.00  0.00    -0.130 OA
ATOM      9  O   LIG    1       -2.510  -5.777   1.554  0.00  0.00    -0.180 OA
ENDBRANCH   2   7
BRANCH   1  10
ATOM     10  N   LIG    1       -1.406  -2.181  -0.461  0.00  0.00    -0.600 N 
ATOM     11  H   LIG    1       -1.325  -1.953  -1.441  0.00  0.00    +0.370 HD
BRANCH  10  12
ATOM     12  C   LIG    1       -1.013  -1.042   0.378  0.00  0.00    +0.190 C 
BRANCH  12  14
ATOM     13  C   LIG    1        0.756   0.677   0.777  0.00  0.00    +0.020 C 
ATOM     14  C   LIG    1        0.395  -0.584  -0.009  0.00  0.00    -0.020 C 
ATOM     15  C   LIG    1        1.398  -1.692   0.316  0.00  0.00    +0.040 C 
ENDBRANCH  12  14
ENDBRANCH  10  12
ENDBRANCH   1  10
TORSDOF 4
