REMARK  Name = ZINC000929633326
REMARK                            x       y       z     vdW  Elec       q    Type
REMARK                         _______ _______ _______ _____ _____    ______ ____
ROOT
ATOM      1  C   LIG    1       -0.019   1.526   0.010  0.00  0.00    +0.030 C 
ATOM      2  C   LIG    1        0.002  -0.004   0.002  0.00  0.00    -0.060 C 
ATOM      3  C   LIG    1        0.723  -0.499  -1.255  0.00  0.00    +0.020 C 
ATOM      4  C   LIG    1        0.792  -2.028  -1.226  0.00  0.00    +0.030 C 
ATOM      5  C   LIG    1        1.509  -2.477   0.049  0.00  0.00    +0.160 C 
ATOM      6  N   LIG    1        0.781  -1.980   1.223  0.00  0.00    -0.530 NA
ATOM      7  C   LIG    1       -1.433  -0.534   0.011  0.00  0.00    +0.030 C 
ATOM      8  C   LIG    1        0.742  -0.512   1.242  0.00  0.00    +0.190 C 
ENDROOT
BRANCH   6   9
ATOM      9  C   LIG    1        1.361  -2.507   2.465  0.00  0.00    +0.210 C 
BRANCH   9  10
ATOM     10  C   LIG    1        1.153  -4.021   2.523  0.00  0.00    +0.270 C 
BRANCH  10  11
ATOM     11  N   LIG    1        1.733  -4.547   3.762  0.00  0.00    -0.020 N 
ATOM     12  O   LIG    1        2.837  -4.179   4.122  0.00  0.00    -0.160 OA
ATOM     13  O   LIG    1        1.110  -5.351   4.432  0.00  0.00    -0.160 OA
ENDBRANCH  10  11
ENDBRANCH   9  10
ENDBRANCH   6   9
TORSDOF 3
