REMARK  Name = ZINC000600517059
REMARK                            x       y       z     vdW  Elec       q    Type
REMARK                         _______ _______ _______ _____ _____    ______ ____
ROOT
ATOM      1  N   LIG    1        0.351  -3.776   2.219  0.00  0.00    -0.330 N 
ATOM      2  C   LIG    1        0.077  -4.536   1.138  0.00  0.00    +0.350 A 
ATOM      3  C   LIG    1       -0.358  -5.739   1.579  0.00  0.00    -0.190 A 
ATOM      4  C   LIG    1       -0.348  -5.714   2.978  0.00  0.00    +0.330 A 
ATOM      5  N   LIG    1        0.082  -4.540   3.362  0.00  0.00    -0.270 NA
ENDROOT
BRANCH   1   8
ATOM      6  C   LIG    1        0.673  -0.582   1.123  0.00  0.00    +0.170 C 
ATOM      7  C   LIG    1       -0.263  -1.344   2.076  0.00  0.00    +0.030 C 
ATOM      8  C   LIG    1        0.849  -2.399   2.200  0.00  0.00    +0.270 C 
ATOM      9  C   LIG    1        1.332  -1.937   0.815  0.00  0.00    +0.060 C 
BRANCH   6  11
ATOM     10  C   LIG    1       -0.017   1.425   0.010  0.00  0.00    +0.220 C 
ATOM     11  O   LIG    1        0.002  -0.004   0.002  0.00  0.00    -0.370 OA
ENDBRANCH   6  11
ENDBRANCH   1   8
BRANCH   3  12
ATOM     12  N   LIG    1       -0.769  -6.881   0.732  0.00  0.00    +0.070 N 
ATOM     13  O   LIG    1       -1.144  -7.919   1.248  0.00  0.00    -0.160 OA
ATOM     14  O   LIG    1       -0.734  -6.783  -0.482  0.00  0.00    -0.170 OA
ENDBRANCH   3  12
TORSDOF 3
