REMARK  Name = ZINC000865354647
REMARK                            x       y       z     vdW  Elec       q    Type
REMARK                         _______ _______ _______ _____ _____    ______ ____
ROOT
ATOM      1  N   LIG    1       -4.016  -0.168  -2.567  0.00  0.00    -0.340 N 
ATOM      2  N   LIG    1       -4.685   1.041  -2.798  0.00  0.00    -0.210 NA
ATOM      3  C   LIG    1       -5.050   1.072  -4.054  0.00  0.00    +0.270 A 
ATOM      4  C   LIG    1       -4.627  -0.115  -4.662  0.00  0.00    +0.020 A 
ATOM      5  C   LIG    1       -3.990  -0.857  -3.727  0.00  0.00    +0.120 A 
ENDROOT
BRANCH   5   6
ATOM      6  N   LIG    1       -3.380  -2.189  -3.938  0.00  0.00    +0.050 N 
ATOM      7  O   LIG    1       -2.830  -2.760  -3.013  0.00  0.00    -0.150 OA
ATOM      8  O   LIG    1       -3.428  -2.714  -5.035  0.00  0.00    -0.110 OA
ENDBRANCH   5   6
BRANCH   1   9
ATOM      9  C   LIG    1       -3.443  -0.606  -1.292  0.00  0.00    +0.510 C 
BRANCH   9  10
ATOM     10  O   LIG    1       -2.089  -0.158  -1.200  0.00  0.00    -0.400 OA
BRANCH  10  11
ATOM     11  C   LIG    1       -1.433  -0.534   0.013  0.00  0.00    +0.190 C 
BRANCH  11  13
ATOM     12  C   LIG    1       -0.019   1.526   0.010  0.00  0.00    +0.020 C 
ATOM     13  C   LIG    1        0.002  -0.004   0.002  0.00  0.00    -0.010 C 
ATOM     14  C   LIG    1        0.742  -0.511   1.242  0.00  0.00    +0.040 C 
ENDBRANCH  11  13
ENDBRANCH  10  11
ENDBRANCH   9  10
ENDBRANCH   1   9
TORSDOF 5
