REMARK  Name = ZINC000840669909
REMARK                            x       y       z     vdW  Elec       q    Type
REMARK                         _______ _______ _______ _____ _____    ______ ____
ROOT
ATOM      1  O   LIG    1        0.002  -0.004   0.002  0.00  0.00    -0.490 OA
ATOM      2  C   LIG    1       -0.014   1.204   0.009  0.00  0.00    +0.500 C 
ENDROOT
BRANCH   2   3
ATOM      3  C   LIG    1       -1.329   1.940   0.019  0.00  0.00    +0.030 C 
ATOM      4  C   LIG    1       -2.180   1.848   1.287  0.00  0.00    +0.190 C 
ATOM      5  C   LIG    1       -2.609   1.100   0.022  0.00  0.00    +0.130 C 
BRANCH   5   6
ATOM      6  N   LIG    1       -3.763   1.622  -0.714  0.00  0.00    +0.010 N 
ATOM      7  O   LIG    1       -4.240   0.980  -1.632  0.00  0.00    -0.140 OA
ATOM      8  O   LIG    1       -4.245   2.697  -0.407  0.00  0.00    -0.150 OA
ENDBRANCH   5   6
ENDBRANCH   2   3
BRANCH   2   9
ATOM      9  O   LIG    1        1.139   1.891   0.001  0.00  0.00    -0.340 OA
BRANCH   9  10
ATOM     10  C   LIG    1        2.367   1.117  -0.015  0.00  0.00    +0.180 C 
ATOM     11  C   LIG    1        2.882   0.947  -1.465  0.00  0.00    +0.020 C 
ATOM     12  C   LIG    1        4.395   0.682  -1.262  0.00  0.00    +0.030 C 
ATOM     13  C   LIG    1        4.787   1.607  -0.092  0.00  0.00    +0.020 C 
ATOM     14  C   LIG    1        3.498   1.884   0.701  0.00  0.00    +0.040 C 
ENDBRANCH   9  10
ENDBRANCH   2   9
TORSDOF 4
