REMARK  Name = ZINC000035121752
REMARK                            x       y       z     vdW  Elec       q    Type
REMARK                         _______ _______ _______ _____ _____    ______ ____
ROOT
ATOM      1  C   LIG    1        2.729  -0.007  -2.477  0.00  0.00    +0.260 A 
ATOM      2  C   LIG    1        3.989  -0.391  -2.791  0.00  0.00    +0.060 A 
ATOM      3  N   LIG    1        4.101  -0.405  -4.128  0.00  0.00    -0.440 NA
ATOM      4  C   LIG    1        2.966  -0.047  -4.661  0.00  0.00    +0.460 A 
ATOM      5  N   LIG    1        2.076   0.208  -3.662  0.00  0.00    -0.480 N 
ATOM      6  C   LIG    1        0.685   0.638  -3.824  0.00  0.00    +0.350 C 
ENDROOT
BRANCH   2   7
ATOM      7  N   LIG    1        5.058  -0.737  -1.826  0.00  0.00    +0.070 N 
ATOM      8  O   LIG    1        6.158  -1.070  -2.229  0.00  0.00    -0.160 OA
ATOM      9  O   LIG    1        4.838  -0.687  -0.629  0.00  0.00    -0.120 OA
ENDBRANCH   2   7
BRANCH   1  10
ATOM     10  N   LIG    1        2.197   0.137  -1.195  0.00  0.00    -0.590 N 
ATOM     11  H   LIG    1        1.808   1.060  -1.066  0.00  0.00    +0.360 HD
BRANCH  10  12
ATOM     12  C   LIG    1        1.194  -0.900  -0.921  0.00  0.00    +0.130 C 
ATOM     13  C   LIG    1        1.896  -2.182  -0.468  0.00  0.00    +0.050 C 
BRANCH  12  15
ATOM     14  C   LIG    1       -0.544   0.791  -0.318  0.00  0.00    +0.010 C 
ATOM     15  C   LIG    1        0.249  -0.418   0.182  0.00  0.00    +0.030 C 
ENDBRANCH  12  15
ENDBRANCH  10  12
ENDBRANCH   1  10
TORSDOF 4
