REMARK  Name = ZINC000306515056
REMARK                            x       y       z     vdW  Elec       q    Type
REMARK                         _______ _______ _______ _____ _____    ______ ____
ROOT
ATOM      1  C   LIG    1        0.605  -0.606  -1.054  0.00  0.00    +0.340 A 
ATOM      2  C   LIG    1        0.651  -1.992  -1.121  0.00  0.00    +0.030 A 
ATOM      3  C   LIG    1        1.268  -2.594  -2.204  0.00  0.00    +0.040 A 
ATOM      4  C   LIG    1        1.821  -1.784  -3.185  0.00  0.00    +0.010 A 
ATOM      5  C   LIG    1        1.739  -0.411  -3.054  0.00  0.00    +0.190 A 
ATOM      6  C   LIG    1        2.336   0.475  -4.116  0.00  0.00    +0.160 C 
ATOM      7  N   LIG    1        1.138   0.133  -2.012  0.00  0.00    -0.510 NA
ENDROOT
BRANCH   3   8
ATOM      8  N   LIG    1        1.338  -4.069  -2.312  0.00  0.00    +0.020 N 
ATOM      9  O   LIG    1        1.885  -4.584  -3.271  0.00  0.00    -0.140 OA
ATOM     10  O   LIG    1        0.848  -4.767  -1.443  0.00  0.00    -0.140 OA
ENDBRANCH   3   8
BRANCH   1  12
ATOM     11  C   LIG    1       -0.017   1.425   0.010  0.00  0.00    +0.280 C 
ATOM     12  O   LIG    1        0.002  -0.004   0.002  0.00  0.00    -0.290 OA
ENDBRANCH   1  12
TORSDOF 2
