REMARK  Name = ZINC000308173240
REMARK                            x       y       z     vdW  Elec       q    Type
REMARK                         _______ _______ _______ _____ _____    ______ ____
ROOT
ATOM      1  N   LIG    1        1.688  -2.223  -2.942  0.00  0.00    -0.330 N 
ATOM      2  C   LIG    1        2.785  -3.000  -3.059  0.00  0.00    +0.280 A 
ATOM      3  C   LIG    1        3.127  -3.039  -4.368  0.00  0.00    -0.030 A 
ATOM      4  C   LIG    1        2.207  -2.258  -5.075  0.00  0.00    +0.120 A 
ATOM      5  N   LIG    1        1.341  -1.773  -4.223  0.00  0.00    -0.210 NA
ENDROOT
BRANCH   4   6
ATOM      6  N   LIG    1        2.209  -2.025  -6.537  0.00  0.00    +0.050 N 
ATOM      7  O   LIG    1        1.353  -1.323  -7.043  0.00  0.00    -0.130 OA
ATOM      8  O   LIG    1        3.068  -2.537  -7.234  0.00  0.00    -0.130 OA
ENDBRANCH   4   6
BRANCH   1   9
ATOM      9  C   LIG    1        0.982  -1.910  -1.698  0.00  0.00    +0.380 C 
BRANCH   9  10
ATOM     10  C   LIG    1        0.877  -0.392  -1.539  0.00  0.00    +0.080 C 
BRANCH  10  12
ATOM     11  C   LIG    1       -0.022   1.810   0.012  0.00  0.00    +0.150 C 
ATOM     12  S   LIG    1        0.002  -0.004   0.002  0.00  0.00    -0.240 S 
ENDBRANCH  10  12
ENDBRANCH   9  10
ENDBRANCH   1   9
TORSDOF 4
