REMARK  Name = ZINC000054613559
REMARK                            x       y       z     vdW  Elec       q    Type
REMARK                         _______ _______ _______ _____ _____    ______ ____
ROOT
ATOM      1  C   LIG    1       -0.279  -3.924   1.467  0.00  0.00    +0.220 A 
ATOM      2  C   LIG    1        0.322  -4.353   2.648  0.00  0.00    +0.000 A 
ATOM      3  C   LIG    1        0.535  -5.711   2.822  0.00  0.00    +0.120 A 
ATOM      4  C   LIG    1        0.148  -6.589   1.826  0.00  0.00    +0.100 A 
ATOM      5  N   LIG    1       -0.419  -6.150   0.719  0.00  0.00    -0.390 NA
ATOM      6  C   LIG    1       -0.645  -4.868   0.515  0.00  0.00    +0.230 A 
ENDROOT
BRANCH   4   7
ATOM      7  N   LIG    1        0.373  -8.040   2.006  0.00  0.00    +0.040 N 
ATOM      8  O   LIG    1        0.035  -8.821   1.134  0.00  0.00    -0.130 OA
ATOM      9  O   LIG    1        0.896  -8.454   3.025  0.00  0.00    -0.170 OA
ENDBRANCH   4   7
BRANCH   1  10
ATOM     10  N   LIG    1       -0.515  -2.565   1.245  0.00  0.00    -0.710 N 
ATOM     11  H   LIG    1       -0.257  -1.913   1.914  0.00  0.00    +0.410 HD
BRANCH  10  12
ATOM     12  C   LIG    1       -1.154  -2.126   0.002  0.00  0.00    +0.280 C 
BRANCH  12  13
ATOM     13  C   LIG    1       -1.295  -0.603   0.011  0.00  0.00    +0.180 C 
BRANCH  13  15
ATOM     14  C   LIG    1       -0.017   1.425   0.010  0.00  0.00    +0.210 C 
ATOM     15  O   LIG    1        0.002  -0.004   0.002  0.00  0.00    -0.390 OA
ENDBRANCH  13  15
ENDBRANCH  12  13
ENDBRANCH  10  12
ENDBRANCH   1  10
TORSDOF 5
