REMARK  Name = ZINC000877887847
REMARK                            x       y       z     vdW  Elec       q    Type
REMARK                         _______ _______ _______ _____ _____    ______ ____
ROOT
ATOM      1  N   LIG    1        2.860  -3.074   1.490  0.00  0.00    -0.440 N 
ATOM      2  C   LIG    1        2.912  -2.942   2.833  0.00  0.00    +0.460 A 
ATOM      3  N   LIG    1        2.974  -4.130   3.368  0.00  0.00    -0.450 NA
ATOM      4  C   LIG    1        2.965  -5.054   2.395  0.00  0.00    +0.040 A 
ATOM      5  C   LIG    1        2.888  -4.414   1.213  0.00  0.00    +0.270 A 
ENDROOT
BRANCH   4   6
ATOM      6  N   LIG    1        3.021  -6.521   2.588  0.00  0.00    +0.060 N 
ATOM      7  O   LIG    1        3.006  -7.263   1.622  0.00  0.00    -0.160 OA
ATOM      8  O   LIG    1        3.084  -6.985   3.712  0.00  0.00    -0.130 OA
ENDBRANCH   4   6
BRANCH   1   9
ATOM      9  C   LIG    1        2.783  -1.985   0.512  0.00  0.00    +0.330 C 
BRANCH   9  13
ATOM     10  C   LIG    1       -0.019   1.526   0.010  0.00  0.00    +0.040 C 
ATOM     11  C   LIG    1        0.002  -0.004   0.002  0.00  0.00    -0.020 C 
ATOM     12  C   LIG    1        1.120  -0.600  -0.870  0.00  0.00    +0.030 C 
ATOM     13  C   LIG    1        1.315  -1.650   0.237  0.00  0.00    -0.030 C 
ATOM     14  C   LIG    1        0.727  -0.617   1.212  0.00  0.00    +0.020 C 
ENDBRANCH   9  13
ENDBRANCH   1   9
TORSDOF 3
