REMARK  Name = ZINC000091364291
REMARK                            x       y       z     vdW  Elec       q    Type
REMARK                         _______ _______ _______ _____ _____    ______ ____
ROOT
ATOM      1  C   LIG    1       -1.306   1.936   0.019  0.00  0.00    -0.110 A 
ATOM      2  C   LIG    1       -1.335   3.322   0.021  0.00  0.00    +0.170 A 
ATOM      3  C   LIG    1       -2.568   3.957   0.030  0.00  0.00    -0.010 A 
ATOM      4  C   LIG    1       -3.719   3.192   0.037  0.00  0.00    +0.210 A 
ATOM      5  N   LIG    1       -3.654   1.875   0.035  0.00  0.00    -0.470 NA
ATOM      6  C   LIG    1       -2.499   1.238   0.021  0.00  0.00    +0.370 A 
ENDROOT
BRANCH   1   8
ATOM      7  O   LIG    1        0.002  -0.004   0.002  0.00  0.00    -0.150 OA
ATOM      8  N   LIG    1       -0.014   1.214   0.009  0.00  0.00    +0.030 N 
ATOM      9  O   LIG    1        1.032   1.837   0.002  0.00  0.00    -0.150 OA
ENDBRANCH   1   8
BRANCH   4  10
ATOM     10  C   LIG    1       -5.064   3.870   0.048  0.00  0.00    +0.000 C 
ATOM     11  C   LIG    1       -5.112   5.352  -0.333  0.00  0.00    +0.040 C 
ATOM     12  C   LIG    1       -5.652   4.296  -1.299  0.00  0.00    +0.060 C 
ENDBRANCH   4  10
TORSDOF 2
