REMARK  Name = ZINC000095930332
REMARK                            x       y       z     vdW  Elec       q    Type
REMARK                         _______ _______ _______ _____ _____    ______ ____
ROOT
ATOM      1  C   LIG    1        0.603  -0.604  -1.050  0.00  0.00    +0.450 A 
ATOM      2  N   LIG    1        0.704  -1.895  -1.217  0.00  0.00    -0.460 NA
ATOM      3  C   LIG    1        1.366  -2.135  -2.382  0.00  0.00    +0.050 A 
ATOM      4  C   LIG    1        1.752  -3.297  -3.050  0.00  0.00    +0.170 A 
ATOM      5  C   LIG    1        2.430  -3.205  -4.247  0.00  0.00    -0.030 A 
ATOM      6  C   LIG    1        2.730  -1.965  -4.788  0.00  0.00    +0.120 A 
ATOM      7  C   LIG    1        2.354  -0.807  -4.138  0.00  0.00    +0.090 A 
ATOM      8  C   LIG    1        1.672  -0.882  -2.934  0.00  0.00    +0.050 A 
ATOM      9  O   LIG    1        1.177   0.042  -2.079  0.00  0.00    -0.230 OA
ENDROOT
BRANCH   5  10
ATOM     10  N   LIG    1        2.839  -4.437  -4.957  0.00  0.00    +0.030 N 
ATOM     11  O   LIG    1        3.439  -4.359  -6.014  0.00  0.00    -0.150 OA
ATOM     12  O   LIG    1        2.577  -5.528  -4.484  0.00  0.00    -0.150 OA
ENDBRANCH   5  10
BRANCH   1  14
ATOM     13  C   LIG    1       -0.017   1.425   0.010  0.00  0.00    +0.290 C 
ATOM     14  O   LIG    1        0.002  -0.004   0.002  0.00  0.00    -0.230 OA
ENDBRANCH   1  14
TORSDOF 2
