REMARK  Name = ZINC000039117277
REMARK                            x       y       z     vdW  Elec       q    Type
REMARK                         _______ _______ _______ _____ _____    ______ ____
ROOT
ATOM      1  C   LIG    1       -2.515  -2.448   0.005  0.00  0.00    +0.120 A 
ATOM      2  C   LIG    1       -3.593  -1.570  -0.046  0.00  0.00    +0.100 A 
ATOM      3  C   LIG    1       -4.874  -2.099  -0.042  0.00  0.00    +0.060 A 
ATOM      4  C   LIG    1       -5.038  -3.470   0.013  0.00  0.00    +0.320 A 
ATOM      5  N   LIG    1       -3.994  -4.275   0.061  0.00  0.00    -0.410 NA
ATOM      6  C   LIG    1       -2.760  -3.813   0.053  0.00  0.00    +0.180 A 
ENDROOT
BRANCH   6   7
ATOM      7  N   LIG    1       -1.623  -4.759   0.108  0.00  0.00    +0.020 N 
ATOM      8  O   LIG    1       -0.480  -4.339   0.101  0.00  0.00    -0.150 OA
ATOM      9  O   LIG    1       -1.830  -5.958   0.160  0.00  0.00    -0.100 OA
ENDBRANCH   6   7
BRANCH   1  10
ATOM     10  O   LIG    1       -1.240  -1.976   0.003  0.00  0.00    -0.250 OA
BRANCH  10  11
ATOM     11  C   LIG    1       -0.628  -1.875  -1.191  0.00  0.00    +0.610 C 
ATOM     12  O   LIG    1       -1.179  -2.285  -2.192  0.00  0.00    -0.530 OA
BRANCH  11  14
ATOM     13  C   LIG    1        1.195  -1.245  -2.595  0.00  0.00    +0.310 C 
ATOM     14  O   LIG    1        0.595  -1.321  -1.275  0.00  0.00    -0.310 OA
ENDBRANCH  11  14
ENDBRANCH  10  11
ENDBRANCH   1  10
TORSDOF 4
