REMARK  Name = ZINC000020474732
REMARK                            x       y       z     vdW  Elec       q    Type
REMARK                         _______ _______ _______ _____ _____    ______ ____
ROOT
ATOM      1  C   LIG    1        0.607  -0.689  -1.056  0.00  0.00    +0.240 A 
ATOM      2  C   LIG    1        1.194   0.017  -2.097  0.00  0.00    -0.020 A 
ATOM      3  C   LIG    1        1.792  -0.663  -3.141  0.00  0.00    +0.150 A 
ATOM      4  C   LIG    1        1.806  -2.045  -3.151  0.00  0.00    -0.080 A 
ATOM      5  C   LIG    1        1.222  -2.754  -2.116  0.00  0.00    +0.130 A 
ATOM      6  C   LIG    1        0.627  -2.080  -1.066  0.00  0.00    +0.020 A 
ATOM      7  F   LIG    1        0.057  -2.772  -0.055  0.00  0.00    -0.130 F 
ENDROOT
BRANCH   1   9
ATOM      8  C   LIG    1       -0.018   1.461   0.010  0.00  0.00    +0.300 C 
ATOM      9  N   LIG    1        0.002  -0.004   0.002  0.00  0.00    -0.730 N 
ATOM     10  H   LIG    1       -0.404  -0.499   0.731  0.00  0.00    +0.410 HD
ENDBRANCH   1   9
BRANCH   4  11
ATOM     11  N   LIG    1        2.447  -2.769  -4.271  0.00  0.00    +0.040 N 
ATOM     12  O   LIG    1        2.460  -3.987  -4.282  0.00  0.00    -0.170 OA
ATOM     13  O   LIG    1        2.962  -2.147  -5.183  0.00  0.00    -0.160 OA
ENDBRANCH   4  11
TORSDOF 2
