REMARK  Name = ZINC000918368441
REMARK                            x       y       z     vdW  Elec       q    Type
REMARK                         _______ _______ _______ _____ _____    ______ ____
ROOT
ATOM      1  N   LIG    1        2.248  -0.098  -1.541  0.00  0.00    -0.390 N 
ATOM      2  C   LIG    1        2.674   1.084  -2.085  0.00  0.00    +0.200 A 
ATOM      3  C   LIG    1        4.002   1.155  -1.873  0.00  0.00    +0.200 A 
ATOM      4  N   LIG    1        4.377   0.046  -1.218  0.00  0.00    -0.400 NA
ATOM      5  C   LIG    1        3.331  -0.707  -1.011  0.00  0.00    +0.220 A 
ENDROOT
BRANCH   5   6
ATOM      6  N   LIG    1        3.333  -2.015  -0.319  0.00  0.00    +0.070 N 
ATOM      7  O   LIG    1        2.292  -2.633  -0.182  0.00  0.00    -0.150 OA
ATOM      8  O   LIG    1        4.375  -2.473   0.115  0.00  0.00    -0.100 OA
ENDBRANCH   5   6
BRANCH   1   9
ATOM      9  C   LIG    1        0.874  -0.605  -1.531  0.00  0.00    +0.020 C 
BRANCH   9  11
ATOM     10  C   LIG    1       -0.023   1.859   0.012  0.00  0.00    -0.230 C 
ATOM     11 SI   LIG    1        0.002  -0.004   0.002  0.00  0.00    +1.020 Si
ATOM     12  C   LIG    1       -1.746  -0.649   0.015  0.00  0.00    -0.210 C 
ATOM     13  C   LIG    1        0.903  -0.621   1.511  0.00  0.00    -0.240 C 
ENDBRANCH   9  11
ENDBRANCH   1   9
TORSDOF 3
