REMARK  Name = ZINC000388491007
REMARK                            x       y       z     vdW  Elec       q    Type
REMARK                         _______ _______ _______ _____ _____    ______ ____
ROOT
ATOM      1  C   LIG    1        1.280   1.980   0.001  0.00  0.00    +0.070 C 
ENDROOT
BRANCH   1   3
ATOM      2  O   LIG    1        0.002  -0.004   0.002  0.00  0.00    -0.520 OA
ATOM      3  C   LIG    1       -0.014   1.209   0.009  0.00  0.00    +0.520 C 
ATOM      4  N   LIG    1       -1.191   1.867   0.018  0.00  0.00    -0.600 N 
ATOM      5  H   LIG    1       -1.204   2.837   0.023  0.00  0.00    +0.410 HD
BRANCH   4   6
ATOM      6  O   LIG    1       -2.407   1.142   0.020  0.00  0.00    -0.320 OA
ATOM      7  H   LIG    1       -3.197   1.700   0.026  0.00  0.00    +0.390 HD
ENDBRANCH   4   6
ENDBRANCH   1   3
BRANCH   1   8
ATOM      8  C   LIG    1        2.457   1.002  -0.016  0.00  0.00    +0.050 C 
BRANCH   8   9
ATOM      9  C   LIG    1        3.771   1.784  -0.024  0.00  0.00    +0.090 C 
BRANCH   9  10
ATOM     10  C   LIG    1        4.930   0.821  -0.041  0.00  0.00    -0.100 A 
ATOM     11  C   LIG    1        5.488   0.352   1.076  0.00  0.00    -0.050 A 
ATOM     12  S   LIG    1        6.804  -0.741   0.664  0.00  0.00    +0.090 S 
ATOM     13  C   LIG    1        6.512  -0.491  -1.053  0.00  0.00    -0.050 A 
ATOM     14  C   LIG    1        5.491   0.351  -1.216  0.00  0.00    +0.010 A 
ENDBRANCH   9  10
ENDBRANCH   8   9
ENDBRANCH   1   8
TORSDOF 5
