REMARK  Name = ZINC000095642998
REMARK                            x       y       z     vdW  Elec       q    Type
REMARK                         _______ _______ _______ _____ _____    ______ ____
ROOT
ATOM      1  C   LIG    1        1.070  -0.390  -1.393  0.00  0.00    +0.190 A 
ATOM      2  C   LIG    1        1.343  -1.705  -1.749  0.00  0.00    -0.070 A 
ATOM      3  C   LIG    1        1.786  -1.977  -3.039  0.00  0.00    +0.330 A 
ATOM      4  C   LIG    1        1.940  -0.909  -3.927  0.00  0.00    -0.190 A 
ATOM      5  C   LIG    1        1.649   0.368  -3.500  0.00  0.00    +0.410 A 
ATOM      6  N   LIG    1        1.225   0.593  -2.270  0.00  0.00    -0.520 NA
ENDROOT
BRANCH   4   7
ATOM      7  N   LIG    1        2.408  -1.147  -5.310  0.00  0.00    +0.040 N 
ATOM      8  O   LIG    1        2.048  -2.143  -5.912  0.00  0.00    -0.180 OA
ATOM      9  O   LIG    1        3.154  -0.348  -5.847  0.00  0.00    -0.150 OA
ENDBRANCH   4   7
BRANCH   3  10
ATOM     10  N   LIG    1        2.070  -3.280  -3.436  0.00  0.00    -0.830 N 
ATOM     11  H   LIG    1        2.478  -3.447  -4.300  0.00  0.00    +0.420 HD
ATOM     12  H   LIG    1        1.859  -4.023  -2.848  0.00  0.00    +0.420 HD
ENDBRANCH   3  10
BRANCH   1  14
ATOM     13  C   LIG    1        0.292   1.775   0.200  0.00  0.00    +0.150 C 
ATOM     14  S   LIG    1        0.508  -0.026   0.236  0.00  0.00    -0.030 S 
ENDBRANCH   1  14
TORSDOF 3
