REMARK  Name = ZINC000156934257
REMARK                            x       y       z     vdW  Elec       q    Type
REMARK                         _______ _______ _______ _____ _____    ______ ____
ROOT
ATOM      1  C   LIG    1       -1.074  -3.938  -1.216  0.00  0.00    +0.250 A 
ATOM      2  C   LIG    1       -0.046  -4.877  -1.172  0.00  0.00    +0.000 A 
ATOM      3  C   LIG    1       -0.375  -6.202  -0.939  0.00  0.00    +0.100 A 
ATOM      4  C   LIG    1       -1.701  -6.547  -0.759  0.00  0.00    +0.240 A 
ATOM      5  N   LIG    1       -2.652  -5.634  -0.807  0.00  0.00    -0.390 NA
ATOM      6  C   LIG    1       -2.382  -4.362  -1.020  0.00  0.00    +0.060 A 
ENDROOT
BRANCH   6   7
ATOM      7  N   LIG    1       -3.393  -3.460  -1.061  0.00  0.00    +0.080 N 
ATOM      8  O   LIG    1       -4.484  -3.787  -1.492  0.00  0.00    -0.140 OA
ATOM      9  O   LIG    1       -3.210  -2.323  -0.666  0.00  0.00    -0.210 OA
ENDBRANCH   6   7
BRANCH   1  10
ATOM     10  N   LIG    1       -0.793  -2.589  -1.448  0.00  0.00    -0.700 N 
ATOM     11  H   LIG    1       -1.518  -1.956  -1.566  0.00  0.00    +0.420 HD
BRANCH  10  12
ATOM     12  C   LIG    1        0.598  -2.131  -1.513  0.00  0.00    +0.280 C 
BRANCH  12  13
ATOM     13  C   LIG    1        0.626  -0.624  -1.775  0.00  0.00    +0.180 C 
BRANCH  13  15
ATOM     14  C   LIG    1        0.031   1.485  -0.805  0.00  0.00    +0.200 C 
ATOM     15  O   LIG    1        0.053   0.064  -0.661  0.00  0.00    -0.390 OA
ENDBRANCH  13  15
ENDBRANCH  12  13
ENDBRANCH  10  12
ENDBRANCH   1  10
TORSDOF 5
