REMARK  Name = ZINC000308173348
REMARK                            x       y       z     vdW  Elec       q    Type
REMARK                         _______ _______ _______ _____ _____    ______ ____
ROOT
ATOM      1  N   LIG    1        1.688  -2.223  -2.942  0.00  0.00    -0.450 N 
ATOM      2  C   LIG    1        1.129  -2.398  -4.159  0.00  0.00    +0.460 A 
ATOM      3  N   LIG    1        2.073  -2.663  -5.020  0.00  0.00    -0.450 NA
ATOM      4  C   LIG    1        3.258  -2.666  -4.390  0.00  0.00    +0.040 A 
ATOM      5  C   LIG    1        3.039  -2.387  -3.091  0.00  0.00    +0.270 A 
ENDROOT
BRANCH   4   6
ATOM      6  N   LIG    1        4.575  -2.923  -5.015  0.00  0.00    +0.060 N 
ATOM      7  O   LIG    1        5.586  -2.897  -4.337  0.00  0.00    -0.160 OA
ATOM      8  O   LIG    1        4.647  -3.159  -6.208  0.00  0.00    -0.130 OA
ENDBRANCH   4   6
BRANCH   1   9
ATOM      9  C   LIG    1        0.982  -1.910  -1.698  0.00  0.00    +0.360 C 
BRANCH   9  10
ATOM     10  C   LIG    1        0.877  -0.392  -1.539  0.00  0.00    +0.060 C 
BRANCH  10  12
ATOM     11  C   LIG    1       -0.022   1.810   0.012  0.00  0.00    +0.150 C 
ATOM     12  S   LIG    1        0.002  -0.004   0.002  0.00  0.00    -0.230 S 
ENDBRANCH  10  12
ENDBRANCH   9  10
ENDBRANCH   1   9
TORSDOF 4
