REMARK  Name = ZINC000774663160
REMARK                            x       y       z     vdW  Elec       q    Type
REMARK                         _______ _______ _______ _____ _____    ______ ____
ROOT
ATOM      1  C   LIG    1        1.736  -1.492   0.564  0.00  0.00    +0.120 A 
ATOM      2  C   LIG    1        1.965  -2.735   1.140  0.00  0.00    +0.030 A 
ATOM      3  C   LIG    1        2.950  -3.559   0.632  0.00  0.00    +0.080 A 
ATOM      4  C   LIG    1        3.709  -3.147  -0.448  0.00  0.00    -0.080 A 
ATOM      5  C   LIG    1        3.484  -1.910  -1.024  0.00  0.00    +0.100 A 
ATOM      6  C   LIG    1        4.784  -4.049  -0.999  0.00  0.00    +0.120 C 
ATOM      7  C   LIG    1        2.496  -1.084  -0.525  0.00  0.00    -0.010 A 
ENDROOT
BRANCH   7   8
ATOM      8  N   LIG    1        2.256   0.240  -1.142  0.00  0.00    +0.020 N 
ATOM      9  O   LIG    1        1.322   0.926  -0.767  0.00  0.00    -0.110 OA
ATOM     10  O   LIG    1        2.992   0.642  -2.025  0.00  0.00    -0.180 OA
ENDBRANCH   7   8
BRANCH   1  11
ATOM     11  N   LIG    1        0.739  -0.657   1.074  0.00  0.00    -0.330 N 
ATOM     12  C   LIG    1        1.075  -0.205   2.431  0.00  0.00    +0.250 C 
BRANCH  11  14
ATOM     13  C   LIG    1       -1.513  -0.706   0.176  0.00  0.00    +0.230 C 
ATOM     14  O   LIG    1       -0.564  -1.321   1.050  0.00  0.00    -0.250 OA
ENDBRANCH  11  14
ENDBRANCH   1  11
TORSDOF 3
