REMARK  Name = ZINC000899881313
REMARK                            x       y       z     vdW  Elec       q    Type
REMARK                         _______ _______ _______ _____ _____    ______ ____
ROOT
ATOM      1  C   LIG    1       -1.412  -0.526   0.013  0.00  0.00    +0.220 A 
ATOM      2  N   LIG    1       -2.302  -0.292   0.938  0.00  0.00    -0.480 NA
ATOM      3  C   LIG    1       -3.446  -0.914   0.619  0.00  0.00    +0.160 A 
ATOM      4  C   LIG    1       -3.258  -1.558  -0.549  0.00  0.00    +0.120 A 
ATOM      5  N   LIG    1       -1.969  -1.308  -0.936  0.00  0.00    -0.460 N 
ENDROOT
BRANCH   1   7
ATOM      6  C   LIG    1       -0.019   1.526   0.010  0.00  0.00    +0.050 C 
ATOM      7  C   LIG    1        0.002  -0.004   0.002  0.00  0.00    +0.070 C 
ATOM      8  C   LIG    1        0.742  -0.511   1.242  0.00  0.00    +0.050 C 
ENDBRANCH   1   7
BRANCH   5   9
ATOM      9  C   LIG    1       -1.315  -1.803  -2.150  0.00  0.00    +0.340 C 
BRANCH   9  10
ATOM     10  C   LIG    1       -0.539  -3.081  -1.826  0.00  0.00    +0.260 C 
BRANCH  10  11
ATOM     11  N   LIG    1        0.116  -3.576  -3.039  0.00  0.00    -0.020 N 
ATOM     12  O   LIG    1       -0.499  -3.617  -4.090  0.00  0.00    -0.150 OA
ATOM     13  O   LIG    1        1.275  -3.947  -2.998  0.00  0.00    -0.140 OA
ENDBRANCH  10  11
ENDBRANCH   9  10
ENDBRANCH   5   9
TORSDOF 4
