REMARK  Name = ZINC000604403206
REMARK                            x       y       z     vdW  Elec       q    Type
REMARK                         _______ _______ _______ _____ _____    ______ ____
ROOT
ATOM      1  C   LIG    1        0.939   0.299   2.149  0.00  0.00    +0.330 A 
ATOM      2  C   LIG    1       -0.004   0.282   3.171  0.00  0.00    +0.000 A 
ATOM      3  C   LIG    1        0.129   1.168   4.224  0.00  0.00    +0.170 A 
ATOM      4  C   LIG    1        1.206   2.045   4.221  0.00  0.00    -0.120 A 
ATOM      5  C   LIG    1        2.105   2.007   3.173  0.00  0.00    +0.390 A 
ATOM      6  N   LIG    1        1.955   1.147   2.184  0.00  0.00    -0.500 NA
ENDROOT
BRANCH   1  11
ATOM      7  C   LIG    1       -0.076   1.511   0.029  0.00  0.00    +0.040 C 
ATOM      8  C   LIG    1       -0.026  -0.018   0.017  0.00  0.00    +0.150 C 
ATOM      9  C   LIG    1        0.971  -0.589  -1.002  0.00  0.00    +0.050 C 
ATOM     10  C   LIG    1        1.965  -0.466   0.162  0.00  0.00    +0.200 C 
ATOM     11  N   LIG    1        0.818  -0.587   1.084  0.00  0.00    -0.430 N 
ENDBRANCH   1  11
BRANCH   4  12
ATOM     12  N   LIG    1        1.388   3.010   5.328  0.00  0.00    +0.030 N 
ATOM     13  O   LIG    1        2.335   3.776   5.318  0.00  0.00    -0.150 OA
ATOM     14  O   LIG    1        0.592   3.038   6.249  0.00  0.00    -0.160 OA
ENDBRANCH   4  12
TORSDOF 2
