REMARK  Name = ZINC000072190648
REMARK                            x       y       z     vdW  Elec       q    Type
REMARK                         _______ _______ _______ _____ _____    ______ ____
ROOT
ATOM      1  C   LIG    1       -0.016   1.321   0.009  0.00  0.00    +0.510 A 
ATOM      2  N   LIG    1        1.063   2.062   0.003  0.00  0.00    -0.500 NA
ATOM      3  C   LIG    1        2.277   1.484  -0.012  0.00  0.00    +0.130 A 
ATOM      4  C   LIG    1        3.448   2.238  -0.018  0.00  0.00    +0.130 A 
ATOM      5  C   LIG    1        4.678   1.586  -0.033  0.00  0.00    -0.140 A 
ATOM      6  C   LIG    1        5.899   2.298  -0.040  0.00  0.00    +0.400 A 
ATOM      7  N   LIG    1        7.019   1.609  -0.053  0.00  0.00    -0.520 NA
ATOM      8  C   LIG    1        7.037   0.283  -0.061  0.00  0.00    +0.510 A 
ATOM      9  N   LIG    1        5.958  -0.457  -0.055  0.00  0.00    -0.500 NA
ATOM     10  C   LIG    1        4.744   0.120  -0.042  0.00  0.00    +0.130 A 
ATOM     11  C   LIG    1        3.573  -0.633  -0.035  0.00  0.00    +0.130 A 
ATOM     12  C   LIG    1        2.343   0.018  -0.020  0.00  0.00    -0.140 A 
ATOM     13  C   LIG    1        1.122  -0.693  -0.012  0.00  0.00    +0.400 A 
ATOM     14  N   LIG    1        0.002  -0.004   0.002  0.00  0.00    -0.520 NA
ENDROOT
TORSDOF 0
