REMARK  Name = ZINC000600517791
REMARK                            x       y       z     vdW  Elec       q    Type
REMARK                         _______ _______ _______ _____ _____    ______ ____
ROOT
ATOM      1  N   LIG    1       -2.576  -4.020   0.005  0.00  0.00    -0.360 N 
ATOM      2  C   LIG    1       -1.416  -4.710  -0.004  0.00  0.00    +0.390 A 
ATOM      3  C   LIG    1       -1.720  -6.028  -0.011  0.00  0.00    -0.200 A 
ATOM      4  C   LIG    1       -3.113  -6.149  -0.005  0.00  0.00    +0.340 A 
ATOM      5  N   LIG    1       -3.627  -4.946   0.011  0.00  0.00    -0.260 NA
ENDROOT
BRANCH   3   6
ATOM      6  N   LIG    1       -0.749  -7.146  -0.021  0.00  0.00    +0.070 N 
ATOM      7  O   LIG    1       -1.146  -8.297  -0.026  0.00  0.00    -0.160 OA
ATOM      8  O   LIG    1        0.446  -6.914  -0.024  0.00  0.00    -0.170 OA
ENDBRANCH   3   6
BRANCH   1   9
ATOM      9  C   LIG    1       -2.711  -2.561   0.014  0.00  0.00    +0.490 C 
BRANCH   9  10
ATOM     10  O   LIG    1       -1.414  -1.962   0.005  0.00  0.00    -0.400 OA
BRANCH  10  11
ATOM     11  C   LIG    1       -1.433  -0.534   0.013  0.00  0.00    +0.190 C 
BRANCH  11  13
ATOM     12  C   LIG    1       -0.019   1.526   0.010  0.00  0.00    +0.040 C 
ATOM     13  C   LIG    1        0.002  -0.004   0.002  0.00  0.00    +0.030 C 
ENDBRANCH  11  13
ENDBRANCH  10  11
ENDBRANCH   9  10
ENDBRANCH   1   9
TORSDOF 5
