REMARK  Name = ZINC000591338273
REMARK                            x       y       z     vdW  Elec       q    Type
REMARK                         _______ _______ _______ _____ _____    ______ ____
ROOT
ATOM      1  N   LIG    1        2.452  -2.013   2.223  0.00  0.00    -0.340 N 
ATOM      2  C   LIG    1        2.490  -2.910   3.231  0.00  0.00    +0.370 A 
ATOM      3  C   LIG    1        3.599  -2.659   3.964  0.00  0.00    -0.200 A 
ATOM      4  C   LIG    1        4.261  -1.572   3.386  0.00  0.00    +0.330 A 
ATOM      5  N   LIG    1        3.577  -1.187   2.338  0.00  0.00    -0.270 NA
ENDROOT
BRANCH   3   6
ATOM      6  N   LIG    1        4.035  -3.405   5.166  0.00  0.00    +0.070 N 
ATOM      7  O   LIG    1        5.058  -3.084   5.745  0.00  0.00    -0.160 OA
ATOM      8  O   LIG    1        3.372  -4.341   5.576  0.00  0.00    -0.170 OA
ENDBRANCH   3   6
BRANCH   1   9
ATOM      9  C   LIG    1        1.418  -1.922   1.189  0.00  0.00    +0.350 C 
BRANCH   9  10
ATOM     10  C   LIG    1        0.840  -0.506   1.168  0.00  0.00    +0.150 C 
BRANCH  10  12
ATOM     11  C   LIG    1       -0.620   1.076  -0.100  0.00  0.00    +0.010 C 
ATOM     12  C   LIG    1       -0.149  -0.376   0.008  0.00  0.00    +0.020 C 
ENDBRANCH  10  12
BRANCH  10  13
ATOM     13  O   LIG    1        0.164  -0.249   2.401  0.00  0.00    -0.380 OA
ATOM     14  C   LIG    1        0.383   1.063   2.922  0.00  0.00    +0.210 C 
ENDBRANCH  10  13
ENDBRANCH   9  10
ENDBRANCH   1   9
TORSDOF 5
