REMARK  Name = ZINC000765002697
REMARK                            x       y       z     vdW  Elec       q    Type
REMARK                         _______ _______ _______ _____ _____    ______ ____
ROOT
ATOM      1  C   LIG    1       -2.947  -1.881   1.466  0.00  0.00    -0.020 A 
ATOM      2  C   LIG    1       -3.801  -1.173   2.291  0.00  0.00    +0.040 A 
ATOM      3  C   LIG    1       -5.110  -1.589   2.451  0.00  0.00    +0.080 A 
ATOM      4  C   LIG    1       -5.564  -2.712   1.786  0.00  0.00    +0.040 A 
ATOM      5  C   LIG    1       -4.710  -3.420   0.961  0.00  0.00    +0.100 A 
ATOM      6  C   LIG    1       -3.403  -3.002   0.797  0.00  0.00    -0.030 A 
ENDROOT
BRANCH   6   7
ATOM      7  N   LIG    1       -2.489  -3.759  -0.086  0.00  0.00    +0.030 N 
ATOM      8  O   LIG    1       -1.367  -3.339  -0.306  0.00  0.00    -0.130 OA
ATOM      9  O   LIG    1       -2.858  -4.803  -0.594  0.00  0.00    -0.180 OA
ENDBRANCH   6   7
BRANCH   1  10
ATOM     10  C   LIG    1       -1.520  -1.428   1.292  0.00  0.00    +0.250 C 
BRANCH  10  11
ATOM     11  N   LIG    1       -0.624  -2.348   2.005  0.00  0.00    -0.360 NA
ATOM     12  C   LIG    1       -0.907  -2.348   3.446  0.00  0.00    +0.210 C 
BRANCH  11  14
ATOM     13  C   LIG    1        1.520  -3.075   1.134  0.00  0.00    +0.230 C 
ATOM     14  O   LIG    1        0.778  -2.018   1.746  0.00  0.00    -0.250 OA
ENDBRANCH  11  14
ENDBRANCH  10  11
ENDBRANCH   1  10
TORSDOF 4
