REMARK  Name = ZINC000071261393
REMARK                            x       y       z     vdW  Elec       q    Type
REMARK                         _______ _______ _______ _____ _____    ______ ____
ROOT
ATOM      1  C   LIG    1        0.061   1.502  -0.130  0.00  0.00    +0.160 C 
ATOM      2  C   LIG    1        0.043  -0.004  -0.065  0.00  0.00    +0.240 A 
ATOM      3  C   LIG    1       -0.250  -0.732  -1.200  0.00  0.00    -0.080 A 
ATOM      4  C   LIG    1       -0.265  -2.119  -1.134  0.00  0.00    +0.200 A 
ATOM      5  C   LIG    1        0.016  -2.725   0.077  0.00  0.00    -0.200 A 
ATOM      6  C   LIG    1        0.303  -1.929   1.182  0.00  0.00    +0.480 A 
ATOM      7  N   LIG    1        0.312  -0.609   1.077  0.00  0.00    -0.530 NA
ENDROOT
BRANCH   5   8
ATOM      8  N   LIG    1        0.013  -4.076   0.187  0.00  0.00    +0.090 N 
ATOM      9  O   LIG    1       -0.428  -4.604   1.192  0.00  0.00    -0.210 OA
ATOM     10  O   LIG    1        0.450  -4.761  -0.720  0.00  0.00    -0.170 OA
ENDBRANCH   5   8
BRANCH   6  11
ATOM     11  N   LIG    1        0.587  -2.525   2.405  0.00  0.00    -0.660 N 
ATOM     12  H   LIG    1        0.664  -3.490   2.469  0.00  0.00    +0.420 HD
BRANCH  11  13
ATOM     13  C   LIG    1        0.771  -1.695   3.599  0.00  0.00    +0.230 C 
ATOM     14  C   LIG    1        0.105  -2.164   4.894  0.00  0.00    +0.020 C 
ATOM     15  C   LIG    1        1.623  -2.269   4.733  0.00  0.00    +0.020 C 
ENDBRANCH  11  13
ENDBRANCH   6  11
TORSDOF 3
