REMARK  Name = ZINC000306945539
REMARK                            x       y       z     vdW  Elec       q    Type
REMARK                         _______ _______ _______ _____ _____    ______ ____
ROOT
ATOM      1  C   LIG    1       -1.306   1.936   0.019  0.00  0.00    -0.030 A 
ATOM      2  C   LIG    1       -2.493   1.230   0.026  0.00  0.00    +0.080 A 
ATOM      3  C   LIG    1       -3.702   1.906   0.036  0.00  0.00    +0.100 A 
ATOM      4  C   LIG    1       -3.724   3.290   0.038  0.00  0.00    +0.070 A 
ATOM      5  C   LIG    1       -2.539   4.000   0.031  0.00  0.00    +0.060 A 
ATOM      6  F   LIG    1       -4.862   1.213   0.044  0.00  0.00    -0.120 F 
ATOM      7  C   LIG    1       -1.326   3.325   0.026  0.00  0.00    +0.270 A 
ENDROOT
BRANCH   7   8
ATOM      8  N   LIG    1       -0.125   4.042   0.019  0.00  0.00    -0.720 N 
ATOM      9  C   LIG    1        0.775   4.589  -1.008  0.00  0.00    +0.270 C 
ATOM     10  C   LIG    1        1.922   4.452   0.003  0.00  0.00    +0.040 C 
ATOM     11  C   LIG    1        0.789   4.588   1.034  0.00  0.00    +0.270 C 
ENDBRANCH   7   8
BRANCH   1  13
ATOM     12  O   LIG    1        0.002  -0.004   0.002  0.00  0.00    -0.180 OA
ATOM     13  N   LIG    1       -0.014   1.214   0.009  0.00  0.00    +0.030 N 
ATOM     14  O   LIG    1        1.032   1.837   0.002  0.00  0.00    -0.120 OA
ENDBRANCH   1  13
TORSDOF 2
