REMARK  Name = ZINC000098178485
REMARK                            x       y       z     vdW  Elec       q    Type
REMARK                         _______ _______ _______ _____ _____    ______ ____
ROOT
ATOM      1  C   LIG    1       -0.018   1.503   0.010  0.00  0.00    +0.120 C 
ATOM      2  C   LIG    1        0.002  -0.004   0.002  0.00  0.00    -0.100 A 
ATOM      3  C   LIG    1        0.006  -0.687  -1.200  0.00  0.00    +0.050 A 
ATOM      4  C   LIG    1        0.025  -2.073  -1.210  0.00  0.00    +0.160 A 
ATOM      5  C   LIG    1        0.040  -2.776  -0.006  0.00  0.00    +0.220 A 
ATOM      6  C   LIG    1        0.036  -2.085   1.196  0.00  0.00    -0.100 A 
ATOM      7  C   LIG    1        0.023  -0.701   1.198  0.00  0.00    +0.130 A 
ATOM      8  F   LIG    1        0.020  -0.029   2.370  0.00  0.00    -0.120 F 
ENDROOT
BRANCH   6   9
ATOM      9  N   LIG    1        0.053  -2.828   2.477  0.00  0.00    +0.020 N 
ATOM     10  O   LIG    1       -0.995  -3.147   3.009  0.00  0.00    -0.130 OA
ATOM     11  O   LIG    1        1.114  -3.118   2.998  0.00  0.00    -0.130 OA
ENDBRANCH   6   9
BRANCH   5  12
ATOM     12  N   LIG    1        0.059  -4.176  -0.011  0.00  0.00    -0.860 N 
ATOM     13  H   LIG    1        0.070  -4.664   0.827  0.00  0.00    +0.410 HD
ATOM     14  H   LIG    1        0.062  -4.658  -0.853  0.00  0.00    +0.410 HD
ENDBRANCH   5  12
BRANCH   4  15
ATOM     15  N   LIG    1        0.029  -2.767  -2.429  0.00  0.00    -0.870 N 
ATOM     16  H   LIG    1        0.042  -3.737  -2.434  0.00  0.00    +0.400 HD
ATOM     17  H   LIG    1        0.018  -2.277  -3.266  0.00  0.00    +0.410 HD
ENDBRANCH   4  15
TORSDOF 3
