REMARK  Name = ZINC000096550199
REMARK                            x       y       z     vdW  Elec       q    Type
REMARK                         _______ _______ _______ _____ _____    ______ ____
ROOT
ATOM      1  C   LIG    1        1.447  -3.856  -0.379  0.00  0.00    +0.170 A 
ATOM      2  C   LIG    1        0.799  -4.760   0.457  0.00  0.00    +0.000 A 
ATOM      3  C   LIG    1        0.894  -6.111   0.166  0.00  0.00    +0.100 A 
ATOM      4  C   LIG    1        1.623  -6.514  -0.937  0.00  0.00    +0.270 A 
ATOM      5  N   LIG    1        2.226  -5.632  -1.710  0.00  0.00    -0.380 NA
ATOM      6  C   LIG    1        2.156  -4.337  -1.471  0.00  0.00    +0.100 A 
ENDROOT
BRANCH   6   7
ATOM      7  N   LIG    1        2.792  -3.468  -2.293  0.00  0.00    +0.070 N 
ATOM      8  O   LIG    1        2.732  -2.271  -2.078  0.00  0.00    -0.150 OA
ATOM      9  O   LIG    1        3.424  -3.884  -3.247  0.00  0.00    -0.160 OA
ENDBRANCH   6   7
BRANCH   1  10
ATOM     10  O   LIG    1        1.382  -2.521  -0.133  0.00  0.00    -0.260 OA
BRANCH  10  11
ATOM     11  C   LIG    1        0.633  -2.108   1.011  0.00  0.00    +0.220 C 
BRANCH  11  12
ATOM     12  C   LIG    1        0.673  -0.582   1.123  0.00  0.00    +0.210 C 
BRANCH  12  14
ATOM     13  C   LIG    1       -0.017   1.425   0.010  0.00  0.00    +0.210 C 
ATOM     14  O   LIG    1        0.002  -0.004   0.002  0.00  0.00    -0.380 OA
ENDBRANCH  12  14
ENDBRANCH  11  12
ENDBRANCH  10  11
ENDBRANCH   1  10
TORSDOF 5
