REMARK  Name = ZINC000098178150
REMARK                            x       y       z     vdW  Elec       q    Type
REMARK                         _______ _______ _______ _____ _____    ______ ____
ROOT
ATOM      1  C   LIG    1       -1.269  -0.807   0.274  0.00  0.00    +0.220 A 
ATOM      2  N   LIG    1       -2.421  -0.157   0.384  0.00  0.00    -0.440 NA
ATOM      3  C   LIG    1       -3.574  -0.750   0.149  0.00  0.00    +0.320 A 
ATOM      4  C   LIG    1       -3.624  -2.084  -0.223  0.00  0.00    +0.050 A 
ATOM      5  C   LIG    1       -2.440  -2.801  -0.350  0.00  0.00    +0.120 A 
ATOM      6  F   LIG    1       -4.813  -2.681  -0.461  0.00  0.00    -0.110 F 
ATOM      7  C   LIG    1       -1.245  -2.151  -0.103  0.00  0.00    -0.070 A 
ENDROOT
BRANCH   7   8
ATOM      8  N   LIG    1        0.041  -2.873  -0.226  0.00  0.00    +0.030 N 
ATOM      9  O   LIG    1        0.125  -4.034   0.133  0.00  0.00    -0.140 OA
ATOM     10  O   LIG    1        1.016  -2.306  -0.686  0.00  0.00    -0.130 OA
ENDBRANCH   7   8
BRANCH   1  12
ATOM     11  C   LIG    1       -0.007   1.201   0.797  0.00  0.00    +0.150 C 
ATOM     12  C   LIG    1       -0.000  -0.101   0.547  0.00  0.00    -0.020 C 
ENDBRANCH   1  12
TORSDOF 2
