REMARK  Name = ZINC000899231282
REMARK                            x       y       z     vdW  Elec       q    Type
REMARK                         _______ _______ _______ _____ _____    ______ ____
ROOT
ATOM      1  C   LIG    1        0.707  -0.490  -1.238  0.00  0.00    -0.120 A 
ATOM      2  C   LIG    1       -0.012  -0.718  -2.397  0.00  0.00    +0.050 A 
ATOM      3  C   LIG    1        0.632  -1.164  -3.534  0.00  0.00    -0.010 A 
ATOM      4  C   LIG    1        2.002  -1.382  -3.514  0.00  0.00    +0.120 A 
ATOM      5  C   LIG    1        2.722  -1.152  -2.350  0.00  0.00    -0.090 A 
ATOM      6  C   LIG    1        2.074  -0.702  -1.216  0.00  0.00    +0.050 A 
ENDROOT
BRANCH   1   8
ATOM      7  C   LIG    1       -0.019   1.526   0.010  0.00  0.00    +0.020 C 
ATOM      8  C   LIG    1        0.002  -0.004   0.002  0.00  0.00    +0.060 C 
ENDBRANCH   1   8
BRANCH   4   9
ATOM      9  O   LIG    1        2.639  -1.820  -4.632  0.00  0.00    -0.300 OA
BRANCH   9  10
ATOM     10  C   LIG    1        4.050  -2.023  -4.538  0.00  0.00    +0.230 C 
BRANCH  10  11
ATOM     11  C   LIG    1        4.586  -2.512  -5.885  0.00  0.00    +0.290 C 
BRANCH  11  12
ATOM     12  N   LIG    1        4.411  -1.462  -6.891  0.00  0.00    -0.020 N 
ATOM     13  O   LIG    1        3.357  -0.856  -6.963  0.00  0.00    -0.130 OA
ATOM     14  O   LIG    1        5.321  -1.194  -7.656  0.00  0.00    -0.170 OA
ENDBRANCH  11  12
ENDBRANCH  10  11
ENDBRANCH   9  10
ENDBRANCH   4   9
TORSDOF 5
