REMARK  Name = ZINC000849170770
REMARK                            x       y       z     vdW  Elec       q    Type
REMARK                         _______ _______ _______ _____ _____    ______ ____
ROOT
ATOM      1  C   LIG    1       -0.018   1.503   0.010  0.00  0.00    +0.090 C 
ATOM      2  C   LIG    1        0.002  -0.004   0.002  0.00  0.00    -0.050 A 
ATOM      3  C   LIG    1        0.006  -0.688  -1.199  0.00  0.00    -0.020 A 
ATOM      4  C   LIG    1        0.024  -2.071  -1.210  0.00  0.00    +0.050 A 
ATOM      5  C   LIG    1        0.040  -2.772  -0.020  0.00  0.00    -0.120 A 
ATOM      6  C   LIG    1        0.036  -2.088   1.187  0.00  0.00    +0.130 A 
ATOM      7  C   LIG    1        0.060  -4.279  -0.033  0.00  0.00    +0.100 C 
ATOM      8  C   LIG    1        0.023  -0.701   1.195  0.00  0.00    -0.070 A 
ENDROOT
BRANCH   6   9
ATOM      9  O   LIG    1        0.051  -2.775   2.359  0.00  0.00    -0.320 OA
BRANCH   9  10
ATOM     10  C   LIG    1        0.046  -2.005   3.563  0.00  0.00    +0.250 C 
BRANCH  10  11
ATOM     11  C   LIG    1        0.065  -2.946   4.770  0.00  0.00    +0.290 C 
BRANCH  11  12
ATOM     12  N   LIG    1        1.328  -3.689   4.790  0.00  0.00    -0.020 N 
ATOM     13  O   LIG    1        1.325  -4.888   5.005  0.00  0.00    -0.150 OA
ATOM     14  O   LIG    1        2.380  -3.108   4.592  0.00  0.00    -0.160 OA
ENDBRANCH  11  12
ENDBRANCH  10  11
ENDBRANCH   9  10
ENDBRANCH   6   9
TORSDOF 4
