REMARK  Name = ZINC000905074003
REMARK                            x       y       z     vdW  Elec       q    Type
REMARK                         _______ _______ _______ _____ _____    ______ ____
ROOT
ATOM      1  C   LIG    1       -0.019   1.526   0.010  0.00  0.00    +0.060 C 
ATOM      2  C   LIG    1        0.002  -0.004   0.002  0.00  0.00    +0.210 C 
ENDROOT
BRANCH   2   3
ATOM      3  C   LIG    1        0.731  -0.503   1.223  0.00  0.00    +0.120 A 
ATOM      4  C   LIG    1        2.109  -0.608   1.201  0.00  0.00    -0.030 A 
ATOM      5  C   LIG    1        2.770  -1.068   2.329  0.00  0.00    +0.070 A 
ATOM      6  C   LIG    1        2.017  -1.407   3.443  0.00  0.00    -0.030 A 
ATOM      7  C   LIG    1        0.642  -1.276   3.391  0.00  0.00    +0.260 A 
ATOM      8  N   LIG    1        0.047  -0.830   2.302  0.00  0.00    -0.470 NA
ENDBRANCH   2   3
BRANCH   2   9
ATOM      9  N   LIG    1       -1.376  -0.512   0.012  0.00  0.00    -0.670 NA
ATOM     10  H   LIG    1       -1.426  -1.413   0.464  0.00  0.00    +0.350 HD
BRANCH   9  11
ATOM     11  C   LIG    1       -1.924  -0.575  -1.349  0.00  0.00    +0.210 C 
BRANCH  11  12
ATOM     12  C   LIG    1       -3.358  -1.108  -1.298  0.00  0.00    +0.270 C 
BRANCH  12  13
ATOM     13  N   LIG    1       -3.904  -1.171  -2.655  0.00  0.00    -0.020 N 
ATOM     14  O   LIG    1       -3.746  -0.236  -3.419  0.00  0.00    -0.160 OA
ATOM     15  O   LIG    1       -4.518  -2.158  -3.020  0.00  0.00    -0.160 OA
ENDBRANCH  12  13
ENDBRANCH  11  12
ENDBRANCH   9  11
ENDBRANCH   2   9
TORSDOF 5
