REMARK  Name = ZINC000248021770
REMARK                            x       y       z     vdW  Elec       q    Type
REMARK                         _______ _______ _______ _____ _____    ______ ____
ROOT
ATOM      1  C   LIG    1        0.054  -3.297   1.430  0.00  0.00    +0.120 A 
ATOM      2  C   LIG    1        0.075  -4.573   0.950  0.00  0.00    +0.070 A 
ATOM      3  C   LIG    1        0.090  -5.425   2.070  0.00  0.00    +0.120 A 
ATOM      4  C   LIG    1        0.078  -4.640   3.166  0.00  0.00    +0.040 A 
ATOM      5  O   LIG    1        0.062  -3.356   2.776  0.00  0.00    -0.140 OA
ENDROOT
BRANCH   1  10
ATOM      6  C   LIG    1       -0.018   1.503   0.010  0.00  0.00    +0.260 C 
ATOM      7  C   LIG    1        0.002  -0.004   0.002  0.00  0.00    +0.200 A 
ATOM      8  N   LIG    1        0.008  -0.767  -1.055  0.00  0.00    -0.280 NA
ATOM      9  N   LIG    1        0.027  -2.002  -0.694  0.00  0.00    -0.220 NA
ATOM     10  C   LIG    1        0.033  -2.070   0.619  0.00  0.00    +0.210 A 
ATOM     11  O   LIG    1        0.023  -0.803   1.084  0.00  0.00    -0.210 OA
ENDBRANCH   1  10
BRANCH   4  12
ATOM     12  N   LIG    1        0.087  -5.116   4.569  0.00  0.00    +0.060 N 
ATOM     13  O   LIG    1        0.074  -4.313   5.485  0.00  0.00    -0.120 OA
ATOM     14  O   LIG    1        0.107  -6.311   4.807  0.00  0.00    -0.110 OA
ENDBRANCH   4  12
TORSDOF 2
