REMARK  Name = ZINC000039199503
REMARK                            x       y       z     vdW  Elec       q    Type
REMARK                         _______ _______ _______ _____ _____    ______ ____
ROOT
ATOM      1  C   LIG    1       -1.306   1.936   0.019  0.00  0.00    -0.170 A 
ATOM      2  C   LIG    1       -1.928   2.281  -1.174  0.00  0.00    +0.260 A 
ATOM      3  C   LIG    1       -3.139   2.959  -1.116  0.00  0.00    -0.030 A 
ATOM      4  C   LIG    1       -3.682   3.266   0.118  0.00  0.00    +0.420 A 
ATOM      5  N   LIG    1       -3.062   2.922   1.234  0.00  0.00    -0.530 NA
ATOM      6  F   LIG    1       -4.860   3.925   0.185  0.00  0.00    -0.070 F 
ATOM      7  F   LIG    1       -1.369   1.964  -2.362  0.00  0.00    -0.080 F 
ATOM      8  C   LIG    1       -1.912   2.272   1.217  0.00  0.00    +0.450 A 
ATOM      9  F   LIG    1       -1.315   1.941   2.383  0.00  0.00    -0.070 F 
ENDROOT
BRANCH   1  11
ATOM     10  O   LIG    1        0.002  -0.004   0.002  0.00  0.00    -0.100 OA
ATOM     11  N   LIG    1       -0.014   1.214   0.009  0.00  0.00    +0.020 N 
ATOM     12  O   LIG    1        1.032   1.837   0.002  0.00  0.00    -0.100 OA
ENDBRANCH   1  11
TORSDOF 1
