REMARK  Name = ZINC000610675315
REMARK                            x       y       z     vdW  Elec       q    Type
REMARK                         _______ _______ _______ _____ _____    ______ ____
ROOT
ATOM      1  N   LIG    1        1.936  -4.810  -3.333  0.00  0.00    -0.450 N 
ATOM      2  C   LIG    1        1.355  -5.132  -4.509  0.00  0.00    +0.460 A 
ATOM      3  N   LIG    1        2.265  -5.623  -5.305  0.00  0.00    -0.450 NA
ATOM      4  C   LIG    1        3.448  -5.632  -4.672  0.00  0.00    +0.040 A 
ATOM      5  C   LIG    1        3.265  -5.122  -3.439  0.00  0.00    +0.270 A 
ENDROOT
BRANCH   4   6
ATOM      6  N   LIG    1        4.731  -6.111  -5.233  0.00  0.00    +0.060 N 
ATOM      7  O   LIG    1        5.745  -6.069  -4.559  0.00  0.00    -0.160 OA
ATOM      8  O   LIG    1        4.774  -6.549  -6.369  0.00  0.00    -0.130 OA
ENDBRANCH   4   6
BRANCH   1   9
ATOM      9  C   LIG    1        1.270  -4.229  -2.165  0.00  0.00    +0.320 C 
BRANCH   9  10
ATOM     10  C   LIG    1        1.309  -2.703  -2.261  0.00  0.00    +0.020 C 
BRANCH  10  11
ATOM     11  C   LIG    1        0.613  -2.097  -1.041  0.00  0.00    +0.040 C 
BRANCH  11  12
ATOM     12  C   LIG    1        0.652  -0.570  -1.138  0.00  0.00    +0.160 C 
BRANCH  12  14
ATOM     13  C   LIG    1       -0.017   1.425   0.010  0.00  0.00    +0.200 C 
ATOM     14  O   LIG    1        0.002  -0.004   0.002  0.00  0.00    -0.390 OA
ENDBRANCH  12  14
ENDBRANCH  11  12
ENDBRANCH  10  11
ENDBRANCH   9  10
ENDBRANCH   1   9
TORSDOF 6
