REMARK  Name = ZINC000078205308
REMARK                            x       y       z     vdW  Elec       q    Type
REMARK                         _______ _______ _______ _____ _____    ______ ____
ROOT
ATOM      1  N   LIG    1        0.722  -0.363  -1.227  0.00  0.00    -0.470 N 
ATOM      2  C   LIG    1        0.964  -1.821  -1.293  0.00  0.00    +0.220 C 
ATOM      3  C   LIG    1        0.943  -2.099  -2.814  0.00  0.00    +0.110 C 
ATOM      4  C   LIG    1        0.083  -0.971  -3.350  0.00  0.00    -0.150 A 
ATOM      5  C   LIG    1       -0.553  -0.803  -4.562  0.00  0.00    +0.140 A 
ATOM      6  C   LIG    1       -1.295   0.340  -4.802  0.00  0.00    -0.080 A 
ATOM      7  C   LIG    1       -1.398   1.313  -3.825  0.00  0.00    +0.140 A 
ATOM      8  C   LIG    1       -0.762   1.150  -2.612  0.00  0.00    +0.010 A 
ATOM      9  C   LIG    1       -0.010   0.003  -2.363  0.00  0.00    +0.150 A 
ENDROOT
BRANCH   6  10
ATOM     10  N   LIG    1       -1.977   0.521  -6.103  0.00  0.00    +0.030 N 
ATOM     11  O   LIG    1       -2.630   1.527  -6.314  0.00  0.00    -0.160 OA
ATOM     12  O   LIG    1       -1.885  -0.337  -6.963  0.00  0.00    -0.170 OA
ENDBRANCH   6  10
BRANCH   1  14
ATOM     13  C   LIG    1        0.963  -0.059   1.191  0.00  0.00    +0.050 C 
ATOM     14  C   LIG    1        0.002  -0.004   0.002  0.00  0.00    +0.190 C 
ENDBRANCH   1  14
TORSDOF 2
