REMARK  Name = ZINC000308321102
REMARK                            x       y       z     vdW  Elec       q    Type
REMARK                         _______ _______ _______ _____ _____    ______ ____
ROOT
ATOM      1  N   LIG    1        1.639  -2.482  -2.350  0.00  0.00    -0.330 N 
ATOM      2  N   LIG    1        1.135  -2.839  -3.608  0.00  0.00    -0.220 NA
ATOM      3  C   LIG    1        2.142  -3.197  -4.364  0.00  0.00    +0.260 A 
ATOM      4  C   LIG    1        3.316  -3.080  -3.612  0.00  0.00    +0.020 A 
ATOM      5  C   LIG    1        2.979  -2.634  -2.380  0.00  0.00    +0.110 A 
ENDROOT
BRANCH   5   6
ATOM      6  N   LIG    1        3.913  -2.368  -1.263  0.00  0.00    +0.050 N 
ATOM      7  O   LIG    1        3.487  -1.966  -0.196  0.00  0.00    -0.150 OA
ATOM      8  O   LIG    1        5.108  -2.552  -1.411  0.00  0.00    -0.120 OA
ENDBRANCH   5   6
BRANCH   1   9
ATOM      9  C   LIG    1        0.849  -2.021  -1.205  0.00  0.00    +0.350 C 
BRANCH   9  10
ATOM     10  C   LIG    1        0.718  -0.497  -1.257  0.00  0.00    -0.030 C 
ATOM     11  C   LIG    1       -0.089  -0.097  -2.493  0.00  0.00    +0.030 C 
BRANCH  10  13
ATOM     12  C   LIG    1       -0.019   1.526   0.010  0.00  0.00    +0.030 C 
ATOM     13  C   LIG    1        0.002  -0.004   0.002  0.00  0.00    +0.020 C 
ENDBRANCH  10  13
ENDBRANCH   9  10
ENDBRANCH   1   9
TORSDOF 4
