REMARK  Name = ZINC000140510457
REMARK                            x       y       z     vdW  Elec       q    Type
REMARK                         _______ _______ _______ _____ _____    ______ ____
ROOT
ATOM      1  C   LIG    1       -0.155   1.309   0.421  0.00  0.00    +0.120 C 
ATOM      2  C   LIG    1       -0.080  -0.184   0.233  0.00  0.00    -0.060 A 
ATOM      3  C   LIG    1       -0.137  -0.728  -1.043  0.00  0.00    +0.170 A 
ATOM      4  C   LIG    1       -0.068  -2.105  -1.212  0.00  0.00    +0.080 A 
ATOM      5  C   LIG    1        0.058  -2.929  -0.111  0.00  0.00    +0.050 A 
ATOM      6  C   LIG    1        0.114  -2.384   1.159  0.00  0.00    +0.080 A 
ATOM      7  C   LIG    1        0.052  -1.014   1.330  0.00  0.00    -0.020 A 
ENDROOT
BRANCH   3   8
ATOM      8  N   LIG    1       -0.264   0.110  -2.157  0.00  0.00    -0.680 N 
ATOM      9  H   LIG    1        0.152   0.986  -2.155  0.00  0.00    +0.410 HD
ATOM     10  C   LIG    1       -0.966  -0.301  -3.233  0.00  0.00    +0.710 C 
ATOM     11  O   LIG    1       -1.577  -1.351  -3.195  0.00  0.00    -0.570 OA
ATOM     12  N   LIG    1       -0.989   0.453  -4.349  0.00  0.00    -0.860 N 
ATOM     13  H   LIG    1       -1.494   0.158  -5.123  0.00  0.00    +0.420 HD
ATOM     14  H   LIG    1       -0.502   1.291  -4.379  0.00  0.00    +0.400 HD
ENDBRANCH   3   8
BRANCH   7  15
ATOM     15  N   LIG    1        0.113  -0.435   2.691  0.00  0.00    +0.020 N 
ATOM     16  O   LIG    1       -0.415  -1.014   3.623  0.00  0.00    -0.150 OA
ATOM     17  O   LIG    1        0.691   0.621   2.878  0.00  0.00    -0.150 OA
ENDBRANCH   7  15
TORSDOF 2
