REMARK  Name = ZINC000774664538
REMARK                            x       y       z     vdW  Elec       q    Type
REMARK                         _______ _______ _______ _____ _____    ______ ____
ROOT
ATOM      1  C   LIG    1        1.732  -1.488   0.567  0.00  0.00    +0.350 A 
ATOM      2  N   LIG    1        1.944  -2.671   1.122  0.00  0.00    -0.480 NA
ATOM      3  C   LIG    1        2.874  -3.491   0.669  0.00  0.00    +0.350 A 
ATOM      4  C   LIG    1        3.664  -3.140  -0.407  0.00  0.00    -0.140 A 
ATOM      5  C   LIG    1        3.473  -1.907  -1.018  0.00  0.00    +0.170 A 
ATOM      6  C   LIG    1        4.722  -4.086  -0.914  0.00  0.00    +0.140 C 
ATOM      7  C   LIG    1        2.488  -1.072  -0.524  0.00  0.00    -0.090 A 
ENDROOT
BRANCH   7   8
ATOM      8  N   LIG    1        2.269   0.140  -1.090  0.00  0.00    +0.070 N 
ATOM      9  O   LIG    1        1.335   0.827  -0.716  0.00  0.00    -0.120 OA
ATOM     10  O   LIG    1        3.005   0.542  -1.974  0.00  0.00    -0.200 OA
ENDBRANCH   7   8
BRANCH   1  11
ATOM     11  N   LIG    1        0.742  -0.656   1.076  0.00  0.00    -0.310 N 
ATOM     12  C   LIG    1        1.077  -0.208   2.434  0.00  0.00    +0.270 C 
BRANCH  11  14
ATOM     13  C   LIG    1       -1.510  -0.698   0.176  0.00  0.00    +0.240 C 
ATOM     14  O   LIG    1       -0.563  -1.317   1.049  0.00  0.00    -0.230 OA
ENDBRANCH  11  14
ENDBRANCH   1  11
TORSDOF 3
