REMARK  Name = ZINC000877879763
REMARK                            x       y       z     vdW  Elec       q    Type
REMARK                         _______ _______ _______ _____ _____    ______ ____
ROOT
ATOM      1  N   LIG    1        2.860  -3.074   1.490  0.00  0.00    -0.340 N 
ATOM      2  C   LIG    1        3.519  -4.240   1.329  0.00  0.00    +0.350 A 
ATOM      3  C   LIG    1        3.347  -4.970   2.455  0.00  0.00    -0.190 A 
ATOM      4  C   LIG    1        2.555  -4.224   3.334  0.00  0.00    +0.320 A 
ATOM      5  N   LIG    1        2.268  -3.084   2.759  0.00  0.00    -0.260 NA
ENDROOT
BRANCH   3   6
ATOM      6  N   LIG    1        3.899  -6.319   2.712  0.00  0.00    +0.070 N 
ATOM      7  O   LIG    1        3.674  -6.878   3.770  0.00  0.00    -0.160 OA
ATOM      8  O   LIG    1        4.579  -6.870   1.865  0.00  0.00    -0.170 OA
ENDBRANCH   3   6
BRANCH   1   9
ATOM      9  C   LIG    1        2.783  -1.985   0.512  0.00  0.00    +0.340 C 
BRANCH   9  13
ATOM     10  C   LIG    1       -0.019   1.526   0.010  0.00  0.00    +0.040 C 
ATOM     11  C   LIG    1        0.002  -0.004   0.002  0.00  0.00    -0.030 C 
ATOM     12  C   LIG    1        1.120  -0.600  -0.870  0.00  0.00    +0.030 C 
ATOM     13  C   LIG    1        1.315  -1.650   0.237  0.00  0.00    -0.030 C 
ATOM     14  C   LIG    1        0.727  -0.617   1.212  0.00  0.00    +0.030 C 
ENDBRANCH   9  13
ENDBRANCH   1   9
TORSDOF 3
