REMARK  Name = ZINC000929680856
REMARK                            x       y       z     vdW  Elec       q    Type
REMARK                         _______ _______ _______ _____ _____    ______ ____
ROOT
ATOM      1  N   LIG    1       -1.370  -0.513   0.133  0.00  0.00    -0.520 NA
ENDROOT
BRANCH   1   2
ATOM      2  C   LIG    1       -1.974  -0.078   1.399  0.00  0.00    +0.120 C 
ATOM      3  C   LIG    1       -2.666   1.293   1.312  0.00  0.00    +0.040 C 
ATOM      4  C   LIG    1       -3.773   0.702   2.201  0.00  0.00    +0.010 C 
ATOM      5  C   LIG    1       -3.367  -0.677   1.655  0.00  0.00    +0.020 C 
ENDBRANCH   1   2
BRANCH   1   7
ATOM      6  C   LIG    1        0.023   1.472  -0.211  0.00  0.00    +0.030 C 
ATOM      7  C   LIG    1        0.017  -0.040   0.021  0.00  0.00    +0.150 C 
ENDBRANCH   1   7
BRANCH   1   8
ATOM      8  C   LIG    1       -1.441  -1.973  -0.010  0.00  0.00    +0.210 C 
BRANCH   8   9
ATOM      9  C   LIG    1       -1.035  -2.367  -1.431  0.00  0.00    +0.270 C 
BRANCH   9  10
ATOM     10  N   LIG    1       -1.107  -3.824  -1.574  0.00  0.00    -0.020 N 
ATOM     11  O   LIG    1       -0.647  -4.544  -0.705  0.00  0.00    -0.160 OA
ATOM     12  O   LIG    1       -1.625  -4.315  -2.561  0.00  0.00    -0.160 OA
ENDBRANCH   9  10
ENDBRANCH   8   9
ENDBRANCH   1   8
TORSDOF 5
