REMARK  Name = ZINC000095829914
REMARK                            x       y       z     vdW  Elec       q    Type
REMARK                         _______ _______ _______ _____ _____    ______ ____
ROOT
ATOM      1  C   LIG    1       -0.264   1.488  -0.072  0.00  0.00    +0.120 C 
ATOM      2  C   LIG    1       -0.115  -0.011  -0.037  0.00  0.00    -0.200 A 
ATOM      3  C   LIG    1       -0.067  -0.743  -1.219  0.00  0.00    +0.450 A 
ATOM      4  N   LIG    1        0.065  -2.060  -1.192  0.00  0.00    -0.530 NA
ATOM      5  C   LIG    1        0.156  -2.723  -0.054  0.00  0.00    +0.410 A 
ATOM      6  C   LIG    1        0.116  -2.060   1.156  0.00  0.00    -0.160 A 
ATOM      7  C   LIG    1       -0.016  -0.678   1.171  0.00  0.00    +0.060 A 
ATOM      8  C   LIG    1       -0.063   0.078   2.474  0.00  0.00    +0.140 C 
ENDROOT
BRANCH   6   9
ATOM      9  N   LIG    1        0.219  -2.815   2.425  0.00  0.00    +0.040 N 
ATOM     10  O   LIG    1       -0.308  -3.908   2.528  0.00  0.00    -0.160 OA
ATOM     11  O   LIG    1        0.830  -2.342   3.367  0.00  0.00    -0.160 OA
ENDBRANCH   6   9
BRANCH   3  12
ATOM     12  N   LIG    1       -0.159  -0.085  -2.440  0.00  0.00    -0.830 N 
ATOM     13  H   LIG    1       -0.127  -0.591  -3.267  0.00  0.00    +0.410 HD
ATOM     14  H   LIG    1       -0.256   0.880  -2.465  0.00  0.00    +0.420 HD
ENDBRANCH   3  12
TORSDOF 2
