AutoDock-GPU version: pre-gridboxing-2025-09-02-2-g7a158b4220ccb7fae2f1ef28c415f546fce74080-dirty

**********************************************************
**    AutoDock-GPU AUTODOCKTOOLS-COMPATIBLE DLG FILE    **
**********************************************************


    DOCKING PARAMETERS
    ________________________


Ligand file:                               /home/taka/development/ultidock-gmx/docking/LIGANDS_DIR/escitalopram-e.pdbqt
Grid fld file:                             5i6x-edited.maps.fld

Random seed:                               1757959487, 58843
Number of runs:                            512
Number of energy evaluations:              139774
Number of generations:                     42000
Size of population:                        150
Rate of crossover:                         80.000000%
Tournament selection probability limit:    60.000000%
Rate of mutation:                          2.000000%
Maximal allowed delta movement:            +/- 6.000000A
Maximal allowed delta angle:               +/- 90.000000

Rate of local search:                      50.000000%
Maximal number of local search iterations: 300
Rho lower bound:                           0.010000
Spread of local search delta movement:     2.000000A
Spread of local search delta angle:        74.999999
Limit of consecutive successes/failures:   4

Handle symmetry during clustering:         YES
RMSD tolerance:                            2.000000A

Program call in command line was:          /home/taka/development/ultidock-gmx/docking/AUTODOCK_GPU_DIR/bin/autodock_gpu_cuda_64wi --lfile /home/taka/development/ultidock-gmx/docking/LIGANDS_DIR/escitalopram-e.pdbqt --ffile 5i6x-edited.maps.fld --nrun 512 --nev 5000000 --gbest 5 --xmloutput 1 --resnam /home/taka/development/ultidock-gmx/docking/DOCKING_DIR/S1__escitalopram-e_f36cd66e --devnum 1 --lsrat 50.0 --lsmet sw --initswgens 200 --stopstd 0.02 


    GRID PARAMETERS
    ________________________


Receptor name:                             /home/taka/development/ultidock-gmx/docking/MACRO_MOL_DIR/5i6x-edited
Number of grid points (x, y, z):           97, 97, 97
Grid center (x, y, z):                     -38.785000, -18.260000, 4.970000A
Grid size (x, y, z):                       36.000000, 36.000000, 36.000000A
Grid spacing:                              0.375000A


    LIGAND PARAMETERS
    ________________________


Ligand name:                               /home/taka/development/ultidock-gmx/docking/LIGANDS_DIR/escitalopram-e
Number of atoms:                           24
Number of rotatable bonds:                 5
Number of atom types:                      6


    DUMMY DATA (only for ADT-compatibility)
    ________________________


DPF> outlev 1
DPF> ga_run 512
DPF> fld 5i6x-edited.maps.fld
DPF> move /home/taka/development/ultidock-gmx/docking/LIGANDS_DIR/escitalopram-e.pdbqt


    COUNTER STATES
    ________________________


Number of energy evaluations performed:    153066
Number of generations used:                8


    INPUT LIGAND PDBQT FILE:
    ________________________


INPUT-LIGAND-PDBQT: REMARK  5 active torsions:
INPUT-LIGAND-PDBQT: REMARK  status: ('A' for Active; 'I' for Inactive)
INPUT-LIGAND-PDBQT: REMARK    1  A    between atoms: C_2  and  C_19 
INPUT-LIGAND-PDBQT: REMARK    2  A    between atoms: C_2  and  C_11 
INPUT-LIGAND-PDBQT: REMARK    3  A    between atoms: C_19  and  C_20 
INPUT-LIGAND-PDBQT: REMARK    4  A    between atoms: C_20  and  C_21 
INPUT-LIGAND-PDBQT: REMARK    5  A    between atoms: C_21  and  N_22 
INPUT-LIGAND-PDBQT: ROOT
INPUT-LIGAND-PDBQT: ATOM      1  O   UNL     1      -0.114  -0.606   1.632  0.00  0.00    -0.346 OA
INPUT-LIGAND-PDBQT: ATOM      2  C   UNL     1      -0.069  -0.235   0.217  0.00  0.00     0.130 C 
INPUT-LIGAND-PDBQT: ATOM      3  C   UNL     1       1.387  -0.336  -0.135  0.00  0.00     0.004 A 
INPUT-LIGAND-PDBQT: ATOM      4  C   UNL     1       2.097  -0.828   0.951  0.00  0.00     0.006 A 
INPUT-LIGAND-PDBQT: ATOM      5  C   UNL     1       1.173  -1.095   2.076  0.00  0.00     0.169 C 
INPUT-LIGAND-PDBQT: ATOM      6  C   UNL     1       2.030  -0.028  -1.325  0.00  0.00    -0.001 A 
INPUT-LIGAND-PDBQT: ATOM      7  C   UNL     1       3.466  -1.024   0.888  0.00  0.00     0.008 A 
INPUT-LIGAND-PDBQT: ATOM      8  C   UNL     1       3.411  -0.216  -1.403  0.00  0.00     0.010 A 
INPUT-LIGAND-PDBQT: ATOM      9  C   UNL     1       4.125  -0.712  -0.302  0.00  0.00     0.068 A 
INPUT-LIGAND-PDBQT: ATOM     10  N   UNL     1       6.687  -1.054  -0.482  0.00  0.00    -0.191 NA
INPUT-LIGAND-PDBQT: ATOM     11  C   UNL     1       5.538  -0.900  -0.401  0.00  0.00     0.101 C 
INPUT-LIGAND-PDBQT: ENDROOT
INPUT-LIGAND-PDBQT: BRANCH   2  12
INPUT-LIGAND-PDBQT: ATOM     12  C   UNL     1      -0.938  -1.212  -0.566  0.00  0.00     0.038 C 
INPUT-LIGAND-PDBQT: BRANCH  12  13
INPUT-LIGAND-PDBQT: ATOM     13  C   UNL     1      -2.364  -1.250  -0.020  0.00  0.00     0.038 C 
INPUT-LIGAND-PDBQT: BRANCH  13  14
INPUT-LIGAND-PDBQT: ATOM     14  C   UNL     1      -3.238  -2.204  -0.832  0.00  0.00     0.251 C 
INPUT-LIGAND-PDBQT: BRANCH  14  15
INPUT-LIGAND-PDBQT: ATOM     15  N   UNL     1      -4.589  -2.244  -0.285  0.00  0.00     0.141 N 
INPUT-LIGAND-PDBQT: ATOM     16  C   UNL     1      -5.439  -3.137  -1.074  0.00  0.00     0.285 C 
INPUT-LIGAND-PDBQT: ATOM     17  C   UNL     1      -4.566  -2.671   1.115  0.00  0.00     0.285 C 
INPUT-LIGAND-PDBQT: ENDBRANCH  14  15
INPUT-LIGAND-PDBQT: ENDBRANCH  13  14
INPUT-LIGAND-PDBQT: ENDBRANCH  12  13
INPUT-LIGAND-PDBQT: ENDBRANCH   2  12
INPUT-LIGAND-PDBQT: BRANCH   2  18
INPUT-LIGAND-PDBQT: ATOM     18  C   UNL     1      -0.597   1.157   0.114  0.00  0.00     0.006 A 
INPUT-LIGAND-PDBQT: ATOM     19  C   UNL     1      -1.137   1.610  -1.089  0.00  0.00     0.001 A 
INPUT-LIGAND-PDBQT: ATOM     20  C   UNL     1      -1.630   2.912  -1.184  0.00  0.00     0.029 A 
INPUT-LIGAND-PDBQT: ATOM     21  C   UNL     1      -1.583   3.758  -0.077  0.00  0.00     0.140 A 
INPUT-LIGAND-PDBQT: ATOM     22  C   UNL     1      -1.043   3.304   1.126  0.00  0.00     0.029 A 
INPUT-LIGAND-PDBQT: ATOM     23  F   UNL     1      -2.058   5.007  -0.168  0.00  0.00    -0.204 F 
INPUT-LIGAND-PDBQT: ATOM     24  C   UNL     1      -0.549   2.002   1.222  0.00  0.00     0.001 A 
INPUT-LIGAND-PDBQT: ENDBRANCH   2  18
INPUT-LIGAND-PDBQT: TORSDOF 5


    FINAL DOCKED STATE:
    ________________________


Run:   1 / 512
Time taken for this run:   0.001s

DOCKED: MODEL        1
DOCKED: USER    Run = 1
DOCKED: USER
DOCKED: USER    Estimated Free Energy of Binding    =  -5.58 kcal/mol  [=(1)+(2)+(3)-(4)]
DOCKED: USER
DOCKED: USER    (1) Final Intermolecular Energy     =  -7.07 kcal/mol
DOCKED: USER        vdW + Hbond + desolv Energy     =  -7.07 kcal/mol
DOCKED: USER        Electrostatic Energy            =  +0.00 kcal/mol
DOCKED: USER        Moving Ligand-Fixed Receptor    =  -7.07 kcal/mol
DOCKED: USER        Moving Ligand-Moving Receptor   =  +0.00 kcal/mol
DOCKED: USER    (2) Final Total Internal Energy     =  -1.34 kcal/mol
DOCKED: USER    (3) Torsional Free Energy           =  +1.49 kcal/mol
DOCKED: USER    (4) Unbound System's Energy         =  -1.34 kcal/mol
DOCKED: USER
DOCKED: USER
DOCKED: REMARK  5 active torsions:
DOCKED: REMARK  status: ('A' for Active; 'I' for Inactive)
DOCKED: REMARK    1  A    between atoms: C_2  and  C_19 
DOCKED: REMARK    2  A    between atoms: C_2  and  C_11 
DOCKED: REMARK    3  A    between atoms: C_19  and  C_20 
DOCKED: REMARK    4  A    between atoms: C_20  and  C_21 
DOCKED: REMARK    5  A    between atoms: C_21  and  N_22 
DOCKED: USER                              x       y       z     vdW  Elec       q    Type
DOCKED: USER                           _______ _______ _______ _____ _____    ______ ____
DOCKED: ROOT
DOCKED: ATOM      1  O   UNL     1     -51.356 -31.056   7.750 -0.06 -0.00    -0.346 OA 
DOCKED: ATOM      2  C   UNL     1     -51.159 -32.504   7.836 -0.22 +0.00    +0.130 C  
DOCKED: ATOM      3  C   UNL     1     -51.726 -33.021   6.546 -0.33 +0.00    +0.004 A  
DOCKED: ATOM      4  C   UNL     1     -52.112 -31.956   5.745 -0.31 +0.00    +0.006 A  
DOCKED: ATOM      5  C   UNL     1     -51.820 -30.678   6.433 -0.23 +0.00    +0.169 C  
DOCKED: ATOM      6  C   UNL     1     -51.878 -34.330   6.111 -0.42 -0.00    -0.001 A  
DOCKED: ATOM      7  C   UNL     1     -52.664 -32.159   4.492 +0.05 +0.00    +0.008 A  
DOCKED: ATOM      8  C   UNL     1     -52.437 -34.552   4.852 -0.47 +0.00    +0.010 A  
DOCKED: ATOM      9  C   UNL     1     -52.827 -33.472   4.046 -0.40 +0.00    +0.068 A  
DOCKED: ATOM     10  N   UNL     1     -53.856 -33.918   1.710 -2.89 -0.00    -0.191 NA 
DOCKED: ATOM     11  C   UNL     1     -53.395 -33.718   2.758 -0.45 +0.00    +0.101 C  
DOCKED: ENDROOT
DOCKED: BRANCH   2  12
DOCKED: ATOM     12  C   UNL     1     -49.667 -32.780   7.982 -0.22 +0.00    +0.038 C  
DOCKED: BRANCH  12  13
DOCKED: ATOM     13  C   UNL     1     -48.891 -31.501   8.286 -0.16 +0.00    +0.038 C  
DOCKED: BRANCH  13  14
DOCKED: ATOM     14  C   UNL     1     -47.867 -31.730   9.396 -0.09 +0.00    +0.251 C  
DOCKED: BRANCH  14  15
DOCKED: ATOM     15  N   UNL     1     -48.501 -31.614  10.703 -0.05 +0.00    +0.141 N  
DOCKED: ATOM     16  C   UNL     1     -49.500 -30.544  10.699 -0.01 +0.00    +0.285 C  
DOCKED: ATOM     17  C   UNL     1     -49.118 -32.883  11.092 -0.06 +0.00    +0.285 C  
DOCKED: ENDBRANCH  14  15
DOCKED: ENDBRANCH  13  14
DOCKED: ENDBRANCH  12  13
DOCKED: ENDBRANCH   2  12
DOCKED: BRANCH   2  18
DOCKED: ATOM     18  C   UNL     1     -51.913 -32.976   9.034 -0.16 +0.00    +0.006 A  
DOCKED: ATOM     19  C   UNL     1     -52.681 -32.077   9.773 -0.07 +0.00    +0.001 A  
DOCKED: ATOM     20  C   UNL     1     -53.386 -32.520  10.893 -0.05 +0.00    +0.029 A  
DOCKED: ATOM     21  C   UNL     1     -53.322 -33.860  11.272 -0.09 +0.00    +0.140 A  
DOCKED: ATOM     22  C   UNL     1     -52.554 -34.759  10.532 -0.12 +0.00    +0.029 A  
DOCKED: ATOM     23  F   UNL     1     -54.000 -34.286  12.346 -0.01 -0.00    -0.204 F  
DOCKED: ATOM     24  C   UNL     1     -51.848 -34.317   9.412 -0.25 +0.00    +0.001 A  
DOCKED: ENDBRANCH   2  18
DOCKED: TORSDOF 5
DOCKED: TER
DOCKED: ENDMDL
________________________________________________________________________________


    FINAL DOCKED STATE:
    ________________________


Run:   2 / 512
Time taken for this run:   0.001s

DOCKED: MODEL        2
DOCKED: USER    Run = 2
DOCKED: USER
DOCKED: USER    Estimated Free Energy of Binding    =  -4.41 kcal/mol  [=(1)+(2)+(3)-(4)]
DOCKED: USER
DOCKED: USER    (1) Final Intermolecular Energy     =  -5.90 kcal/mol
DOCKED: USER        vdW + Hbond + desolv Energy     =  -5.90 kcal/mol
DOCKED: USER        Electrostatic Energy            =  +0.00 kcal/mol
DOCKED: USER        Moving Ligand-Fixed Receptor    =  -5.90 kcal/mol
DOCKED: USER        Moving Ligand-Moving Receptor   =  +0.00 kcal/mol
DOCKED: USER    (2) Final Total Internal Energy     =  -1.04 kcal/mol
DOCKED: USER    (3) Torsional Free Energy           =  +1.49 kcal/mol
DOCKED: USER    (4) Unbound System's Energy         =  -1.04 kcal/mol
DOCKED: USER
DOCKED: USER
DOCKED: REMARK  5 active torsions:
DOCKED: REMARK  status: ('A' for Active; 'I' for Inactive)
DOCKED: REMARK    1  A    between atoms: C_2  and  C_19 
DOCKED: REMARK    2  A    between atoms: C_2  and  C_11 
DOCKED: REMARK    3  A    between atoms: C_19  and  C_20 
DOCKED: REMARK    4  A    between atoms: C_20  and  C_21 
DOCKED: REMARK    5  A    between atoms: C_21  and  N_22 
DOCKED: USER                              x       y       z     vdW  Elec       q    Type
DOCKED: USER                           _______ _______ _______ _____ _____    ______ ____
DOCKED: ROOT
DOCKED: ATOM      1  O   UNL     1     -54.734 -31.849   8.503 -0.00 -0.00    -0.346 OA 
DOCKED: ATOM      2  C   UNL     1     -53.296 -31.930   8.244 -0.10 +0.00    +0.130 C  
DOCKED: ATOM      3  C   UNL     1     -53.213 -32.459   6.841 -0.24 +0.00    +0.004 A  
DOCKED: ATOM      4  C   UNL     1     -54.488 -32.565   6.306 -0.25 +0.00    +0.006 A  
DOCKED: ATOM      5  C   UNL     1     -55.489 -32.110   7.297 -0.15 +0.00    +0.169 C  
DOCKED: ATOM      6  C   UNL     1     -52.096 -32.807   6.095 -0.36 -0.00    -0.001 A  
DOCKED: ATOM      7  C   UNL     1     -54.692 -33.024   5.016 -0.20 +0.00    +0.008 A  
DOCKED: ATOM      8  C   UNL     1     -52.286 -33.275   4.793 -0.28 +0.00    +0.010 A  
DOCKED: ATOM      9  C   UNL     1     -53.577 -33.383   4.257 -0.37 +0.00    +0.068 A  
DOCKED: ATOM     10  N   UNL     1     -53.893 -34.252   1.836 -2.56 -0.00    -0.191 NA 
DOCKED: ATOM     11  C   UNL     1     -53.752 -33.863   2.922 -0.32 +0.00    +0.101 C  
DOCKED: ENDROOT
DOCKED: BRANCH   2  12
DOCKED: ATOM     12  C   UNL     1     -52.700 -30.535   8.389 -0.11 +0.00    +0.038 C  
DOCKED: BRANCH  12  13
DOCKED: ATOM     13  C   UNL     1     -53.258 -29.816   9.615 -0.04 +0.00    +0.038 C  
DOCKED: BRANCH  13  14
DOCKED: ATOM     14  C   UNL     1     -53.727 -28.406   9.258 -0.02 +0.00    +0.251 C  
DOCKED: BRANCH  14  15
DOCKED: ATOM     15  N   UNL     1     -53.053 -27.420  10.095 -0.01 +0.00    +0.141 N  
DOCKED: ATOM     16  C   UNL     1     -52.300 -28.079  11.163 -0.00 +0.00    +0.285 C  
DOCKED: ATOM     17  C   UNL     1     -52.163 -26.583   9.289 -0.00 +0.00    +0.285 C  
DOCKED: ENDBRANCH  14  15
DOCKED: ENDBRANCH  13  14
DOCKED: ENDBRANCH  12  13
DOCKED: ENDBRANCH   2  12
DOCKED: BRANCH   2  18
DOCKED: ATOM     18  C   UNL     1     -52.723 -32.868   9.254 -0.12 +0.00    +0.006 A  
DOCKED: ATOM     19  C   UNL     1     -51.361 -32.828   9.548 -0.14 +0.00    +0.001 A  
DOCKED: ATOM     20  C   UNL     1     -50.826 -33.705  10.492 -0.13 +0.00    +0.029 A  
DOCKED: ATOM     21  C   UNL     1     -51.654 -34.621  11.140 -0.18 +0.00    +0.140 A  
DOCKED: ATOM     22  C   UNL     1     -53.016 -34.661  10.845 -0.08 +0.00    +0.029 A  
DOCKED: ATOM     23  F   UNL     1     -51.141 -35.462  12.048 -0.10 -0.00    -0.204 F  
DOCKED: ATOM     24  C   UNL     1     -53.552 -33.784   9.901 -0.16 +0.00    +0.001 A  
DOCKED: ENDBRANCH   2  18
DOCKED: TORSDOF 5
DOCKED: TER
DOCKED: ENDMDL
________________________________________________________________________________


    FINAL DOCKED STATE:
    ________________________


Run:   3 / 512
Time taken for this run:   0.001s

DOCKED: MODEL        3
DOCKED: USER    Run = 3
DOCKED: USER
DOCKED: USER    Estimated Free Energy of Binding    =  -4.15 kcal/mol  [=(1)+(2)+(3)-(4)]
DOCKED: USER
DOCKED: USER    (1) Final Intermolecular Energy     =  -5.64 kcal/mol
DOCKED: USER        vdW + Hbond + desolv Energy     =  -5.64 kcal/mol
DOCKED: USER        Electrostatic Energy            =  +0.00 kcal/mol
DOCKED: USER        Moving Ligand-Fixed Receptor    =  -5.64 kcal/mol
DOCKED: USER        Moving Ligand-Moving Receptor   =  +0.00 kcal/mol
DOCKED: USER    (2) Final Total Internal Energy     =  -1.07 kcal/mol
DOCKED: USER    (3) Torsional Free Energy           =  +1.49 kcal/mol
DOCKED: USER    (4) Unbound System's Energy         =  -1.07 kcal/mol
DOCKED: USER
DOCKED: USER
DOCKED: REMARK  5 active torsions:
DOCKED: REMARK  status: ('A' for Active; 'I' for Inactive)
DOCKED: REMARK    1  A    between atoms: C_2  and  C_19 
DOCKED: REMARK    2  A    between atoms: C_2  and  C_11 
DOCKED: REMARK    3  A    between atoms: C_19  and  C_20 
DOCKED: REMARK    4  A    between atoms: C_20  and  C_21 
DOCKED: REMARK    5  A    between atoms: C_21  and  N_22 
DOCKED: USER                              x       y       z     vdW  Elec       q    Type
DOCKED: USER                           _______ _______ _______ _____ _____    ______ ____
DOCKED: ROOT
DOCKED: ATOM      1  O   UNL     1     -47.897 -25.116   0.704 -0.05 -0.00    -0.346 OA 
DOCKED: ATOM      2  C   UNL     1     -49.288 -25.188   0.254 -0.23 +0.00    +0.130 C  
DOCKED: ATOM      3  C   UNL     1     -49.333 -24.262  -0.927 -0.29 +0.00    +0.004 A  
DOCKED: ATOM      4  C   UNL     1     -48.057 -23.788  -1.197 -0.15 +0.00    +0.006 A  
DOCKED: ATOM      5  C   UNL     1     -47.092 -24.369  -0.237 -0.12 +0.00    +0.169 C  
DOCKED: ATOM      6  C   UNL     1     -50.414 -23.878  -1.706 -0.29 -0.00    -0.001 A  
DOCKED: ATOM      7  C   UNL     1     -47.819 -22.916  -2.246 -0.21 +0.00    +0.008 A  
DOCKED: ATOM      8  C   UNL     1     -50.191 -22.996  -2.765 -0.40 +0.00    +0.010 A  
DOCKED: ATOM      9  C   UNL     1     -48.900 -22.518  -3.034 -0.31 +0.00    +0.068 A  
DOCKED: ATOM     10  N   UNL     1     -48.520 -20.886  -5.010 -0.79 -0.00    -0.191 NA 
DOCKED: ATOM     11  C   UNL     1     -48.690 -21.618  -4.123 -0.38 +0.00    +0.101 C  
DOCKED: ENDROOT
DOCKED: BRANCH   2  12
DOCKED: ATOM     12  C   UNL     1     -49.603 -26.633  -0.114 -0.16 +0.00    +0.038 C  
DOCKED: BRANCH  12  13
DOCKED: ATOM     13  C   UNL     1     -48.343 -27.496  -0.108 -0.19 +0.00    +0.038 C  
DOCKED: BRANCH  13  14
DOCKED: ATOM     14  C   UNL     1     -48.321 -28.429   1.102 -0.16 +0.00    +0.251 C  
DOCKED: BRANCH  14  15
DOCKED: ATOM     15  N   UNL     1     -47.329 -29.481   0.914 -0.18 +0.00    +0.141 N  
DOCKED: ATOM     16  C   UNL     1     -47.886 -30.786   1.270 -0.23 +0.00    +0.285 C  
DOCKED: ATOM     17  C   UNL     1     -46.847 -29.494  -0.469 -0.14 +0.00    +0.285 C  
DOCKED: ENDBRANCH  14  15
DOCKED: ENDBRANCH  13  14
DOCKED: ENDBRANCH  12  13
DOCKED: ENDBRANCH   2  12
DOCKED: BRANCH   2  18
DOCKED: ATOM     18  C   UNL     1     -50.138 -24.724   1.389 -0.27 +0.00    +0.006 A  
DOCKED: ATOM     19  C   UNL     1     -49.590 -23.919   2.387 -0.22 +0.00    +0.001 A  
DOCKED: ATOM     20  C   UNL     1     -50.385 -23.487   3.448 -0.21 +0.00    +0.029 A  
DOCKED: ATOM     21  C   UNL     1     -51.728 -23.858   3.511 -0.13 +0.00    +0.140 A  
DOCKED: ATOM     22  C   UNL     1     -52.276 -24.663   2.512 -0.26 +0.00    +0.029 A  
DOCKED: ATOM     23  F   UNL     1     -52.492 -23.441   4.528 +0.00 -0.00    -0.204 F  
DOCKED: ATOM     24  C   UNL     1     -51.480 -25.097   1.450 -0.26 +0.00    +0.001 A  
DOCKED: ENDBRANCH   2  18
DOCKED: TORSDOF 5
DOCKED: TER
DOCKED: ENDMDL
________________________________________________________________________________


    FINAL DOCKED STATE:
    ________________________


Run:   4 / 512
Time taken for this run:   0.001s

DOCKED: MODEL        4
DOCKED: USER    Run = 4
DOCKED: USER
DOCKED: USER    Estimated Free Energy of Binding    =  -4.65 kcal/mol  [=(1)+(2)+(3)-(4)]
DOCKED: USER
DOCKED: USER    (1) Final Intermolecular Energy     =  -6.14 kcal/mol
DOCKED: USER        vdW + Hbond + desolv Energy     =  -6.14 kcal/mol
DOCKED: USER        Electrostatic Energy            =  +0.00 kcal/mol
DOCKED: USER        Moving Ligand-Fixed Receptor    =  -6.14 kcal/mol
DOCKED: USER        Moving Ligand-Moving Receptor   =  +0.00 kcal/mol
DOCKED: USER    (2) Final Total Internal Energy     =  -1.36 kcal/mol
DOCKED: USER    (3) Torsional Free Energy           =  +1.49 kcal/mol
DOCKED: USER    (4) Unbound System's Energy         =  -1.36 kcal/mol
DOCKED: USER
DOCKED: USER
DOCKED: REMARK  5 active torsions:
DOCKED: REMARK  status: ('A' for Active; 'I' for Inactive)
DOCKED: REMARK    1  A    between atoms: C_2  and  C_19 
DOCKED: REMARK    2  A    between atoms: C_2  and  C_11 
DOCKED: REMARK    3  A    between atoms: C_19  and  C_20 
DOCKED: REMARK    4  A    between atoms: C_20  and  C_21 
DOCKED: REMARK    5  A    between atoms: C_21  and  N_22 
DOCKED: USER                              x       y       z     vdW  Elec       q    Type
DOCKED: USER                           _______ _______ _______ _____ _____    ______ ____
DOCKED: ROOT
DOCKED: ATOM      1  O   UNL     1     -51.455 -28.822   6.894 -0.07 -0.00    -0.346 OA 
DOCKED: ATOM      2  C   UNL     1     -52.776 -29.039   7.487 -0.15 +0.00    +0.130 C  
DOCKED: ATOM      3  C   UNL     1     -53.117 -30.448   7.097 -0.22 +0.00    +0.004 A  
DOCKED: ATOM      4  C   UNL     1     -52.042 -31.024   6.436 -0.28 +0.00    +0.006 A  
DOCKED: ATOM      5  C   UNL     1     -50.925 -30.055   6.355 -0.16 +0.00    +0.169 C  
DOCKED: ATOM      6  C   UNL     1     -54.283 -31.167   7.321 -0.19 -0.00    -0.001 A  
DOCKED: ATOM      7  C   UNL     1     -52.094 -32.328   5.974 -0.34 +0.00    +0.008 A  
DOCKED: ATOM      8  C   UNL     1     -54.352 -32.482   6.857 -0.22 +0.00    +0.010 A  
DOCKED: ATOM      9  C   UNL     1     -53.263 -33.059   6.188 -0.26 +0.00    +0.068 A  
DOCKED: ATOM     10  N   UNL     1     -53.424 -35.504   5.345 -2.61 -0.00    -0.191 NA 
DOCKED: ATOM     11  C   UNL     1     -53.352 -34.407   5.722 -0.36 +0.00    +0.101 C  
DOCKED: ENDROOT
DOCKED: BRANCH   2  12
DOCKED: ATOM     12  C   UNL     1     -52.665 -28.850   8.995 -0.05 +0.00    +0.038 C  
DOCKED: BRANCH  12  13
DOCKED: ATOM     13  C   UNL     1     -51.418 -29.534   9.552 -0.04 +0.00    +0.038 C  
DOCKED: BRANCH  13  14
DOCKED: ATOM     14  C   UNL     1     -51.761 -30.403  10.760 -0.01 +0.00    +0.251 C  
DOCKED: BRANCH  14  15
DOCKED: ATOM     15  N   UNL     1     -51.297 -31.769  10.550 -0.04 +0.00    +0.141 N  
DOCKED: ATOM     16  C   UNL     1     -52.365 -32.597   9.989 -0.04 +0.00    +0.285 C  
DOCKED: ATOM     17  C   UNL     1     -50.126 -31.786   9.671 -0.06 +0.00    +0.285 C  
DOCKED: ENDBRANCH  14  15
DOCKED: ENDBRANCH  13  14
DOCKED: ENDBRANCH  12  13
DOCKED: ENDBRANCH   2  12
DOCKED: BRANCH   2  18
DOCKED: ATOM     18  C   UNL     1     -53.695 -28.030   6.884 -0.20 +0.00    +0.006 A  
DOCKED: ATOM     19  C   UNL     1     -53.180 -27.000   6.098 -0.18 +0.00    +0.001 A  
DOCKED: ATOM     20  C   UNL     1     -54.041 -26.057   5.535 -0.14 +0.00    +0.029 A  
DOCKED: ATOM     21  C   UNL     1     -55.414 -26.145   5.758 -0.10 +0.00    +0.140 A  
DOCKED: ATOM     22  C   UNL     1     -55.929 -27.176   6.544 -0.19 +0.00    +0.029 A  
DOCKED: ATOM     23  F   UNL     1     -56.241 -25.241   5.216 -0.03 -0.00    -0.204 F  
DOCKED: ATOM     24  C   UNL     1     -55.068 -28.120   7.108 -0.21 +0.00    +0.001 A  
DOCKED: ENDBRANCH   2  18
DOCKED: TORSDOF 5
DOCKED: TER
DOCKED: ENDMDL
________________________________________________________________________________


    FINAL DOCKED STATE:
    ________________________


Run:   5 / 512
Time taken for this run:   0.001s

DOCKED: MODEL        5
DOCKED: USER    Run = 5
DOCKED: USER
DOCKED: USER    Estimated Free Energy of Binding    =  -4.33 kcal/mol  [=(1)+(2)+(3)-(4)]
DOCKED: USER
DOCKED: USER    (1) Final Intermolecular Energy     =  -5.83 kcal/mol
DOCKED: USER        vdW + Hbond + desolv Energy     =  -5.83 kcal/mol
DOCKED: USER        Electrostatic Energy            =  +0.00 kcal/mol
DOCKED: USER        Moving Ligand-Fixed Receptor    =  -5.83 kcal/mol
DOCKED: USER        Moving Ligand-Moving Receptor   =  +0.00 kcal/mol
DOCKED: USER    (2) Final Total Internal Energy     =  -1.06 kcal/mol
DOCKED: USER    (3) Torsional Free Energy           =  +1.49 kcal/mol
DOCKED: USER    (4) Unbound System's Energy         =  -1.06 kcal/mol
DOCKED: USER
DOCKED: USER
DOCKED: REMARK  5 active torsions:
DOCKED: REMARK  status: ('A' for Active; 'I' for Inactive)
DOCKED: REMARK    1  A    between atoms: C_2  and  C_19 
DOCKED: REMARK    2  A    between atoms: C_2  and  C_11 
DOCKED: REMARK    3  A    between atoms: C_19  and  C_20 
DOCKED: REMARK    4  A    between atoms: C_20  and  C_21 
DOCKED: REMARK    5  A    between atoms: C_21  and  N_22 
DOCKED: USER                              x       y       z     vdW  Elec       q    Type
DOCKED: USER                           _______ _______ _______ _____ _____    ______ ____
DOCKED: ROOT
DOCKED: ATOM      1  O   UNL     1     -54.615 -28.523   7.595 -0.06 -0.00    -0.346 OA 
DOCKED: ATOM      2  C   UNL     1     -53.204 -28.696   7.247 -0.17 +0.00    +0.130 C  
DOCKED: ATOM      3  C   UNL     1     -53.114 -30.130   6.812 -0.23 +0.00    +0.004 A  
DOCKED: ATOM      4  C   UNL     1     -54.381 -30.697   6.806 -0.21 +0.00    +0.006 A  
DOCKED: ATOM      5  C   UNL     1     -55.384 -29.689   7.217 -0.18 +0.00    +0.169 C  
DOCKED: ATOM      6  C   UNL     1     -52.002 -30.871   6.440 -0.28 -0.00    -0.001 A  
DOCKED: ATOM      7  C   UNL     1     -54.579 -32.016   6.435 -0.22 +0.00    +0.008 A  
DOCKED: ATOM      8  C   UNL     1     -52.184 -32.204   6.067 -0.34 +0.00    +0.010 A  
DOCKED: ATOM      9  C   UNL     1     -53.467 -32.773   6.064 -0.26 +0.00    +0.068 A  
DOCKED: ATOM     10  N   UNL     1     -53.771 -35.248   5.363 -2.55 -0.00    -0.191 NA 
DOCKED: ATOM     11  C   UNL     1     -53.634 -34.138   5.678 -0.36 +0.00    +0.101 C  
DOCKED: ENDROOT
DOCKED: BRANCH   2  12
DOCKED: ATOM     12  C   UNL     1     -52.859 -27.715   6.133 -0.16 +0.00    +0.038 C  
DOCKED: BRANCH  12  13
DOCKED: ATOM     13  C   UNL     1     -53.976 -26.695   5.922 -0.17 +0.00    +0.038 C  
DOCKED: BRANCH  13  14
DOCKED: ATOM     14  C   UNL     1     -53.443 -25.426   5.259 -0.11 +0.00    +0.251 C  
DOCKED: BRANCH  14  15
DOCKED: ATOM     15  N   UNL     1     -52.356 -25.751   4.343 -0.15 +0.00    +0.141 N  
DOCKED: ATOM     16  C   UNL     1     -52.689 -25.337   2.979 -0.16 +0.00    +0.285 C  
DOCKED: ATOM     17  C   UNL     1     -51.110 -25.116   4.776 -0.06 +0.00    +0.285 C  
DOCKED: ENDBRANCH  14  15
DOCKED: ENDBRANCH  13  14
DOCKED: ENDBRANCH  12  13
DOCKED: ENDBRANCH   2  12
DOCKED: BRANCH   2  18
DOCKED: ATOM     18  C   UNL     1     -52.413 -28.411   8.479 -0.06 +0.00    +0.006 A  
DOCKED: ATOM     19  C   UNL     1     -51.204 -27.723   8.387 -0.04 +0.00    +0.001 A  
DOCKED: ATOM     20  C   UNL     1     -50.464 -27.458   9.541 -0.01 +0.00    +0.029 A  
DOCKED: ATOM     21  C   UNL     1     -50.934 -27.881  10.783 -0.00 +0.00    +0.140 A  
DOCKED: ATOM     22  C   UNL     1     -52.144 -28.569  10.874 -0.00 +0.00    +0.029 A  
DOCKED: ATOM     23  F   UNL     1     -50.225 -27.624  11.890 +0.00 -0.00    -0.204 F  
DOCKED: ATOM     24  C   UNL     1     -52.884 -28.835   9.721 -0.02 +0.00    +0.001 A  
DOCKED: ENDBRANCH   2  18
DOCKED: TORSDOF 5
DOCKED: TER
DOCKED: ENDMDL
________________________________________________________________________________


    FINAL DOCKED STATE:
    ________________________


Run:   6 / 512
Time taken for this run:   0.001s

DOCKED: MODEL        6
DOCKED: USER    Run = 6
DOCKED: USER
DOCKED: USER    Estimated Free Energy of Binding    =  -3.90 kcal/mol  [=(1)+(2)+(3)-(4)]
DOCKED: USER
DOCKED: USER    (1) Final Intermolecular Energy     =  -5.39 kcal/mol
DOCKED: USER        vdW + Hbond + desolv Energy     =  -5.39 kcal/mol
DOCKED: USER        Electrostatic Energy            =  +0.00 kcal/mol
DOCKED: USER        Moving Ligand-Fixed Receptor    =  -5.39 kcal/mol
DOCKED: USER        Moving Ligand-Moving Receptor   =  +0.00 kcal/mol
DOCKED: USER    (2) Final Total Internal Energy     =  -1.49 kcal/mol
DOCKED: USER    (3) Torsional Free Energy           =  +1.49 kcal/mol
DOCKED: USER    (4) Unbound System's Energy         =  -1.49 kcal/mol
DOCKED: USER
DOCKED: USER
DOCKED: REMARK  5 active torsions:
DOCKED: REMARK  status: ('A' for Active; 'I' for Inactive)
DOCKED: REMARK    1  A    between atoms: C_2  and  C_19 
DOCKED: REMARK    2  A    between atoms: C_2  and  C_11 
DOCKED: REMARK    3  A    between atoms: C_19  and  C_20 
DOCKED: REMARK    4  A    between atoms: C_20  and  C_21 
DOCKED: REMARK    5  A    between atoms: C_21  and  N_22 
DOCKED: USER                              x       y       z     vdW  Elec       q    Type
DOCKED: USER                           _______ _______ _______ _____ _____    ______ ____
DOCKED: ROOT
DOCKED: ATOM      1  O   UNL     1     -53.394 -28.697   7.453 -0.07 -0.00    -0.346 OA 
DOCKED: ATOM      2  C   UNL     1     -52.018 -29.194   7.477 -0.14 +0.00    +0.130 C  
DOCKED: ATOM      3  C   UNL     1     -52.145 -30.625   7.042 -0.23 +0.00    +0.004 A  
DOCKED: ATOM      4  C   UNL     1     -53.461 -30.892   6.693 -0.23 +0.00    +0.006 A  
DOCKED: ATOM      5  C   UNL     1     -54.282 -29.672   6.858 -0.20 +0.00    +0.169 C  
DOCKED: ATOM      6  C   UNL     1     -51.171 -31.609   6.952 -0.25 -0.00    -0.001 A  
DOCKED: ATOM      7  C   UNL     1     -53.849 -32.145   6.249 -0.25 +0.00    +0.008 A  
DOCKED: ATOM      8  C   UNL     1     -51.547 -32.879   6.509 -0.32 +0.00    +0.010 A  
DOCKED: ATOM      9  C   UNL     1     -52.880 -33.144   6.160 -0.29 +0.00    +0.068 A  
DOCKED: ATOM     10  N   UNL     1     -53.543 -35.510   5.338 -2.59 -0.00    -0.191 NA 
DOCKED: ATOM     11  C   UNL     1     -53.246 -34.449   5.707 -0.35 +0.00    +0.101 C  
DOCKED: ENDROOT
DOCKED: BRANCH   2  12
DOCKED: ATOM     12  C   UNL     1     -51.184 -28.354   6.517 -0.16 +0.00    +0.038 C  
DOCKED: BRANCH  12  13
DOCKED: ATOM     13  C   UNL     1     -51.073 -26.907   6.995 -0.09 +0.00    +0.038 C  
DOCKED: BRANCH  13  14
DOCKED: ATOM     14  C   UNL     1     -52.334 -26.117   6.651 -0.07 +0.00    +0.251 C  
DOCKED: BRANCH  14  15
DOCKED: ATOM     15  N   UNL     1     -52.776 -25.341   7.803 -0.02 +0.00    +0.141 N  
DOCKED: ATOM     16  C   UNL     1     -53.905 -25.998   8.465 -0.01 +0.00    +0.285 C  
DOCKED: ATOM     17  C   UNL     1     -51.675 -25.148   8.749 -0.00 +0.00    +0.285 C  
DOCKED: ENDBRANCH  14  15
DOCKED: ENDBRANCH  13  14
DOCKED: ENDBRANCH  12  13
DOCKED: ENDBRANCH   2  12
DOCKED: BRANCH   2  18
DOCKED: ATOM     18  C   UNL     1     -51.528 -29.053   8.880 -0.05 +0.00    +0.006 A  
DOCKED: ATOM     19  C   UNL     1     -50.159 -29.062   9.143 -0.04 +0.00    +0.001 A  
DOCKED: ATOM     20  C   UNL     1     -49.702 -28.931  10.456 -0.01 +0.00    +0.029 A  
DOCKED: ATOM     21  C   UNL     1     -50.614 -28.791  11.501 -0.00 +0.00    +0.140 A  
DOCKED: ATOM     22  C   UNL     1     -51.983 -28.782  11.236 -0.00 +0.00    +0.029 A  
DOCKED: ATOM     23  F   UNL     1     -50.175 -28.663  12.760 +0.00 -0.00    -0.204 F  
DOCKED: ATOM     24  C   UNL     1     -52.441 -28.914   9.924 -0.02 +0.00    +0.001 A  
DOCKED: ENDBRANCH   2  18
DOCKED: TORSDOF 5
DOCKED: TER
DOCKED: ENDMDL
________________________________________________________________________________


    FINAL DOCKED STATE:
    ________________________


Run:   7 / 512
Time taken for this run:   0.001s

DOCKED: MODEL        7
DOCKED: USER    Run = 7
DOCKED: USER
DOCKED: USER    Estimated Free Energy of Binding    =  -4.06 kcal/mol  [=(1)+(2)+(3)-(4)]
DOCKED: USER
DOCKED: USER    (1) Final Intermolecular Energy     =  -5.55 kcal/mol
DOCKED: USER        vdW + Hbond + desolv Energy     =  -5.55 kcal/mol
DOCKED: USER        Electrostatic Energy            =  +0.00 kcal/mol
DOCKED: USER        Moving Ligand-Fixed Receptor    =  -5.55 kcal/mol
DOCKED: USER        Moving Ligand-Moving Receptor   =  +0.00 kcal/mol
DOCKED: USER    (2) Final Total Internal Energy     =  -1.45 kcal/mol
DOCKED: USER    (3) Torsional Free Energy           =  +1.49 kcal/mol
DOCKED: USER    (4) Unbound System's Energy         =  -1.45 kcal/mol
DOCKED: USER
DOCKED: USER
DOCKED: REMARK  5 active torsions:
DOCKED: REMARK  status: ('A' for Active; 'I' for Inactive)
DOCKED: REMARK    1  A    between atoms: C_2  and  C_19 
DOCKED: REMARK    2  A    between atoms: C_2  and  C_11 
DOCKED: REMARK    3  A    between atoms: C_19  and  C_20 
DOCKED: REMARK    4  A    between atoms: C_20  and  C_21 
DOCKED: REMARK    5  A    between atoms: C_21  and  N_22 
DOCKED: USER                              x       y       z     vdW  Elec       q    Type
DOCKED: USER                           _______ _______ _______ _____ _____    ______ ____
DOCKED: ROOT
DOCKED: ATOM      1  O   UNL     1     -55.098 -28.882   7.379 -0.09 -0.00    -0.346 OA 
DOCKED: ATOM      2  C   UNL     1     -53.646 -28.929   7.198 -0.19 +0.00    +0.130 C  
DOCKED: ATOM      3  C   UNL     1     -53.380 -30.350   6.794 -0.23 +0.00    +0.004 A  
DOCKED: ATOM      4  C   UNL     1     -54.582 -31.028   6.649 -0.17 +0.00    +0.006 A  
DOCKED: ATOM      5  C   UNL     1     -55.711 -30.113   6.930 -0.19 +0.00    +0.169 C  
DOCKED: ATOM      6  C   UNL     1     -52.170 -30.989   6.563 -0.28 -0.00    -0.001 A  
DOCKED: ATOM      7  C   UNL     1     -54.618 -32.360   6.275 -0.24 +0.00    +0.008 A  
DOCKED: ATOM      8  C   UNL     1     -52.189 -32.333   6.189 -0.33 +0.00    +0.010 A  
DOCKED: ATOM      9  C   UNL     1     -53.407 -33.015   6.045 -0.27 +0.00    +0.068 A  
DOCKED: ATOM     10  N   UNL     1     -53.407 -35.509   5.344 -2.62 -0.00    -0.191 NA 
DOCKED: ATOM     11  C   UNL     1     -53.407 -34.391   5.659 -0.38 +0.00    +0.101 C  
DOCKED: ENDROOT
DOCKED: BRANCH   2  12
DOCKED: ATOM     12  C   UNL     1     -53.262 -27.923   6.119 -0.15 +0.00    +0.038 C  
DOCKED: BRANCH  12  13
DOCKED: ATOM     13  C   UNL     1     -54.264 -26.773   6.048 -0.19 +0.00    +0.038 C  
DOCKED: BRANCH  13  14
DOCKED: ATOM     14  C   UNL     1     -53.673 -25.492   6.635 -0.06 +0.00    +0.251 C  
DOCKED: BRANCH  14  15
DOCKED: ATOM     15  N   UNL     1     -54.079 -25.338   8.027 -0.02 +0.00    +0.141 N  
DOCKED: ATOM     16  C   UNL     1     -54.249 -23.924   8.362 +0.00 +0.00    +0.285 C  
DOCKED: ATOM     17  C   UNL     1     -55.318 -26.074   8.287 -0.01 +0.00    +0.285 C  
DOCKED: ENDBRANCH  14  15
DOCKED: ENDBRANCH  13  14
DOCKED: ENDBRANCH  12  13
DOCKED: ENDBRANCH   2  12
DOCKED: BRANCH   2  18
DOCKED: ATOM     18  C   UNL     1     -53.031 -28.572   8.510 -0.06 +0.00    +0.006 A  
DOCKED: ATOM     19  C   UNL     1     -51.915 -27.737   8.552 -0.04 +0.00    +0.001 A  
DOCKED: ATOM     20  C   UNL     1     -51.341 -27.404   9.780 -0.01 +0.00    +0.029 A  
DOCKED: ATOM     21  C   UNL     1     -51.883 -27.905  10.962 -0.00 +0.00    +0.140 A  
DOCKED: ATOM     22  C   UNL     1     -53.000 -28.740  10.919 -0.00 +0.00    +0.029 A  
DOCKED: ATOM     23  F   UNL     1     -51.333 -27.584  12.140 +0.00 -0.00    -0.204 F  
DOCKED: ATOM     24  C   UNL     1     -53.575 -29.074   9.692 -0.03 +0.00    +0.001 A  
DOCKED: ENDBRANCH   2  18
DOCKED: TORSDOF 5
DOCKED: TER
DOCKED: ENDMDL
________________________________________________________________________________


    FINAL DOCKED STATE:
    ________________________


Run:   8 / 512
Time taken for this run:   0.001s

DOCKED: MODEL        8
DOCKED: USER    Run = 8
DOCKED: USER
DOCKED: USER    Estimated Free Energy of Binding    =  -4.22 kcal/mol  [=(1)+(2)+(3)-(4)]
DOCKED: USER
DOCKED: USER    (1) Final Intermolecular Energy     =  -5.71 kcal/mol
DOCKED: USER        vdW + Hbond + desolv Energy     =  -5.71 kcal/mol
DOCKED: USER        Electrostatic Energy            =  +0.00 kcal/mol
DOCKED: USER        Moving Ligand-Fixed Receptor    =  -5.71 kcal/mol
DOCKED: USER        Moving Ligand-Moving Receptor   =  +0.00 kcal/mol
DOCKED: USER    (2) Final Total Internal Energy     =  -1.28 kcal/mol
DOCKED: USER    (3) Torsional Free Energy           =  +1.49 kcal/mol
DOCKED: USER    (4) Unbound System's Energy         =  -1.28 kcal/mol
DOCKED: USER
DOCKED: USER
DOCKED: REMARK  5 active torsions:
DOCKED: REMARK  status: ('A' for Active; 'I' for Inactive)
DOCKED: REMARK    1  A    between atoms: C_2  and  C_19 
DOCKED: REMARK    2  A    between atoms: C_2  and  C_11 
DOCKED: REMARK    3  A    between atoms: C_19  and  C_20 
DOCKED: REMARK    4  A    between atoms: C_20  and  C_21 
DOCKED: REMARK    5  A    between atoms: C_21  and  N_22 
DOCKED: USER                              x       y       z     vdW  Elec       q    Type
DOCKED: USER                           _______ _______ _______ _____ _____    ______ ____
DOCKED: ROOT
DOCKED: ATOM      1  O   UNL     1     -50.354 -29.558   7.850 -0.04 -0.00    -0.346 OA 
DOCKED: ATOM      2  C   UNL     1     -51.792 -29.301   7.747 -0.12 +0.00    +0.130 C  
DOCKED: ATOM      3  C   UNL     1     -52.347 -30.584   7.198 -0.22 +0.00    +0.004 A  
DOCKED: ATOM      4  C   UNL     1     -51.334 -31.527   7.100 -0.25 +0.00    +0.006 A  
DOCKED: ATOM      5  C   UNL     1     -50.060 -30.949   7.583 -0.13 +0.00    +0.169 C  
DOCKED: ATOM      6  C   UNL     1     -53.647 -30.894   6.825 -0.23 -0.00    -0.001 A  
DOCKED: ATOM      7  C   UNL     1     -51.582 -32.804   6.626 -0.32 +0.00    +0.008 A  
DOCKED: ATOM      8  C   UNL     1     -53.912 -32.176   6.341 -0.25 +0.00    +0.010 A  
DOCKED: ATOM      9  C   UNL     1     -52.885 -33.126   6.242 -0.28 +0.00    +0.068 A  
DOCKED: ATOM     10  N   UNL     1     -53.412 -35.498   5.344 -2.61 -0.00    -0.191 NA 
DOCKED: ATOM     11  C   UNL     1     -53.175 -34.434   5.746 -0.34 +0.00    +0.101 C  
DOCKED: ENDROOT
DOCKED: BRANCH   2  12
DOCKED: ATOM     12  C   UNL     1     -52.324 -28.971   9.136 -0.04 +0.00    +0.038 C  
DOCKED: BRANCH  12  13
DOCKED: ATOM     13  C   UNL     1     -51.924 -27.560   9.565 -0.02 +0.00    +0.038 C  
DOCKED: BRANCH  13  14
DOCKED: ATOM     14  C   UNL     1     -50.405 -27.416   9.629 -0.00 +0.00    +0.251 C  
DOCKED: BRANCH  14  15
DOCKED: ATOM     15  N   UNL     1     -50.025 -26.010   9.551 -0.00 +0.00    +0.141 N  
DOCKED: ATOM     16  C   UNL     1     -50.999 -25.256   8.760 -0.00 +0.00    +0.285 C  
DOCKED: ATOM     17  C   UNL     1     -49.904 -25.434  10.891 +0.00 +0.00    +0.285 C  
DOCKED: ENDBRANCH  14  15
DOCKED: ENDBRANCH  13  14
DOCKED: ENDBRANCH  12  13
DOCKED: ENDBRANCH   2  12
DOCKED: BRANCH   2  18
DOCKED: ATOM     18  C   UNL     1     -51.963 -28.148   6.816 -0.16 +0.00    +0.006 A  
DOCKED: ATOM     19  C   UNL     1     -50.854 -27.604   6.169 -0.12 +0.00    +0.001 A  
DOCKED: ATOM     20  C   UNL     1     -51.016 -26.524   5.299 -0.09 +0.00    +0.029 A  
DOCKED: ATOM     21  C   UNL     1     -52.285 -25.992   5.077 -0.11 +0.00    +0.140 A  
DOCKED: ATOM     22  C   UNL     1     -53.394 -26.537   5.724 -0.16 +0.00    +0.029 A  
DOCKED: ATOM     23  F   UNL     1     -52.440 -24.958   4.240 -0.03 -0.00    -0.204 F  
DOCKED: ATOM     24  C   UNL     1     -53.233 -27.616   6.595 -0.19 +0.00    +0.001 A  
DOCKED: ENDBRANCH   2  18
DOCKED: TORSDOF 5
DOCKED: TER
DOCKED: ENDMDL
________________________________________________________________________________


    FINAL DOCKED STATE:
    ________________________


Run:   9 / 512
Time taken for this run:   0.001s

DOCKED: MODEL        9
DOCKED: USER    Run = 9
DOCKED: USER
DOCKED: USER    Estimated Free Energy of Binding    =  -4.55 kcal/mol  [=(1)+(2)+(3)-(4)]
DOCKED: USER
DOCKED: USER    (1) Final Intermolecular Energy     =  -6.04 kcal/mol
DOCKED: USER        vdW + Hbond + desolv Energy     =  -6.04 kcal/mol
DOCKED: USER        Electrostatic Energy            =  +0.00 kcal/mol
DOCKED: USER        Moving Ligand-Fixed Receptor    =  -6.04 kcal/mol
DOCKED: USER        Moving Ligand-Moving Receptor   =  +0.00 kcal/mol
DOCKED: USER    (2) Final Total Internal Energy     =  -1.31 kcal/mol
DOCKED: USER    (3) Torsional Free Energy           =  +1.49 kcal/mol
DOCKED: USER    (4) Unbound System's Energy         =  -1.31 kcal/mol
DOCKED: USER
DOCKED: USER
DOCKED: REMARK  5 active torsions:
DOCKED: REMARK  status: ('A' for Active; 'I' for Inactive)
DOCKED: REMARK    1  A    between atoms: C_2  and  C_19 
DOCKED: REMARK    2  A    between atoms: C_2  and  C_11 
DOCKED: REMARK    3  A    between atoms: C_19  and  C_20 
DOCKED: REMARK    4  A    between atoms: C_20  and  C_21 
DOCKED: REMARK    5  A    between atoms: C_21  and  N_22 
DOCKED: USER                              x       y       z     vdW  Elec       q    Type
DOCKED: USER                           _______ _______ _______ _____ _____    ______ ____
DOCKED: ROOT
DOCKED: ATOM      1  O   UNL     1     -52.864 -31.241   8.167 -0.02 -0.00    -0.346 OA 
DOCKED: ATOM      2  C   UNL     1     -51.785 -32.210   7.970 -0.17 +0.00    +0.130 C  
DOCKED: ATOM      3  C   UNL     1     -52.160 -32.912   6.697 -0.32 +0.00    +0.004 A  
DOCKED: ATOM      4  C   UNL     1     -53.293 -32.323   6.154 -0.30 +0.00    +0.006 A  
DOCKED: ATOM      5  C   UNL     1     -53.733 -31.198   7.010 -0.18 +0.00    +0.169 C  
DOCKED: ATOM      6  C   UNL     1     -51.541 -33.980   6.064 -0.39 -0.00    -0.001 A  
DOCKED: ATOM      7  C   UNL     1     -53.846 -32.779   4.970 -0.12 +0.00    +0.008 A  
DOCKED: ATOM      8  C   UNL     1     -52.089 -34.455   4.871 -0.30 +0.00    +0.010 A  
DOCKED: ATOM      9  C   UNL     1     -53.235 -33.856   4.327 -0.43 +0.00    +0.068 A  
DOCKED: ATOM     10  N   UNL     1     -54.224 -34.759   2.108 -1.91 -0.00    -0.191 NA 
DOCKED: ATOM     11  C   UNL     1     -53.781 -34.354   3.104 -0.43 +0.00    +0.101 C  
DOCKED: ENDROOT
DOCKED: BRANCH   2  12
DOCKED: ATOM     12  C   UNL     1     -50.468 -31.451   7.864 -0.21 +0.00    +0.038 C  
DOCKED: BRANCH  12  13
DOCKED: ATOM     13  C   UNL     1     -50.594 -30.245   6.935 -0.22 +0.00    +0.038 C  
DOCKED: BRANCH  13  14
DOCKED: ATOM     14  C   UNL     1     -51.007 -28.995   7.711 -0.08 +0.00    +0.251 C  
DOCKED: BRANCH  14  15
DOCKED: ATOM     15  N   UNL     1     -50.332 -28.954   9.003 -0.03 +0.00    +0.141 N  
DOCKED: ATOM     16  C   UNL     1     -49.379 -27.844   9.052 -0.01 +0.00    +0.285 C  
DOCKED: ATOM     17  C   UNL     1     -51.306 -28.835  10.090 -0.00 +0.00    +0.285 C  
DOCKED: ENDBRANCH  14  15
DOCKED: ENDBRANCH  13  14
DOCKED: ENDBRANCH  12  13
DOCKED: ENDBRANCH   2  12
DOCKED: BRANCH   2  18
DOCKED: ATOM     18  C   UNL     1     -51.791 -33.115   9.157 -0.16 +0.00    +0.006 A  
DOCKED: ATOM     19  C   UNL     1     -52.905 -33.910   9.422 -0.20 +0.00    +0.001 A  
DOCKED: ATOM     20  C   UNL     1     -52.909 -34.756  10.532 -0.04 +0.00    +0.029 A  
DOCKED: ATOM     21  C   UNL     1     -51.799 -34.806  11.374 -0.18 +0.00    +0.140 A  
DOCKED: ATOM     22  C   UNL     1     -50.684 -34.011  11.108 -0.14 +0.00    +0.029 A  
DOCKED: ATOM     23  F   UNL     1     -51.802 -35.619  12.438 -0.07 -0.00    -0.204 F  
DOCKED: ATOM     24  C   UNL     1     -50.680 -33.164   9.998 -0.14 +0.00    +0.001 A  
DOCKED: ENDBRANCH   2  18
DOCKED: TORSDOF 5
DOCKED: TER
DOCKED: ENDMDL
________________________________________________________________________________


    FINAL DOCKED STATE:
    ________________________


Run:   10 / 512
Time taken for this run:   0.001s

DOCKED: MODEL        10
DOCKED: USER    Run = 10
DOCKED: USER
DOCKED: USER    Estimated Free Energy of Binding    =  -3.70 kcal/mol  [=(1)+(2)+(3)-(4)]
DOCKED: USER
DOCKED: USER    (1) Final Intermolecular Energy     =  -5.19 kcal/mol
DOCKED: USER        vdW + Hbond + desolv Energy     =  -5.19 kcal/mol
DOCKED: USER        Electrostatic Energy            =  +0.00 kcal/mol
DOCKED: USER        Moving Ligand-Fixed Receptor    =  -5.19 kcal/mol
DOCKED: USER        Moving Ligand-Moving Receptor   =  +0.00 kcal/mol
DOCKED: USER    (2) Final Total Internal Energy     =  -1.29 kcal/mol
DOCKED: USER    (3) Torsional Free Energy           =  +1.49 kcal/mol
DOCKED: USER    (4) Unbound System's Energy         =  -1.29 kcal/mol
DOCKED: USER
DOCKED: USER
DOCKED: REMARK  5 active torsions:
DOCKED: REMARK  status: ('A' for Active; 'I' for Inactive)
DOCKED: REMARK    1  A    between atoms: C_2  and  C_19 
DOCKED: REMARK    2  A    between atoms: C_2  and  C_11 
DOCKED: REMARK    3  A    between atoms: C_19  and  C_20 
DOCKED: REMARK    4  A    between atoms: C_20  and  C_21 
DOCKED: REMARK    5  A    between atoms: C_21  and  N_22 
DOCKED: USER                              x       y       z     vdW  Elec       q    Type
DOCKED: USER                           _______ _______ _______ _____ _____    ______ ____
DOCKED: ROOT
DOCKED: ATOM      1  O   UNL     1     -42.446 -32.499  -0.719 +0.01 -0.00    -0.346 OA 
DOCKED: ATOM      2  C   UNL     1     -43.645 -31.696  -0.477 -0.05 +0.00    +0.130 C  
DOCKED: ATOM      3  C   UNL     1     -44.405 -32.485   0.549 -0.10 +0.00    +0.004 A  
DOCKED: ATOM      4  C   UNL     1     -43.656 -33.585   0.941 -0.09 +0.00    +0.006 A  
DOCKED: ATOM      5  C   UNL     1     -42.362 -33.594   0.223 -0.02 +0.00    +0.169 C  
DOCKED: ATOM      6  C   UNL     1     -45.655 -32.243   1.100 -0.20 -0.00    -0.001 A  
DOCKED: ATOM      7  C   UNL     1     -44.128 -34.479   1.888 -0.19 +0.00    +0.008 A  
DOCKED: ATOM      8  C   UNL     1     -46.147 -33.137   2.053 -0.32 +0.00    +0.010 A  
DOCKED: ATOM      9  C   UNL     1     -45.387 -34.249   2.445 -0.29 +0.00    +0.068 A  
DOCKED: ATOM     10  N   UNL     1     -46.327 -35.886   4.220 -2.64 -0.00    -0.191 NA 
DOCKED: ATOM     11  C   UNL     1     -45.905 -35.152   3.423 -0.41 +0.00    +0.101 C  
DOCKED: ENDROOT
DOCKED: BRANCH   2  12
DOCKED: ATOM     12  C   UNL     1     -43.214 -30.325   0.030 -0.02 +0.00    +0.038 C  
DOCKED: BRANCH  12  13
DOCKED: ATOM     13  C   UNL     1     -41.847 -29.930  -0.527 -0.00 +0.00    +0.038 C  
DOCKED: BRANCH  13  14
DOCKED: ATOM     14  C   UNL     1     -40.927 -29.423   0.582 +0.00 +0.00    +0.251 C  
DOCKED: BRANCH  14  15
DOCKED: ATOM     15  N   UNL     1     -41.087 -30.234   1.783 -0.00 +0.00    +0.141 N  
DOCKED: ATOM     16  C   UNL     1     -40.134 -31.345   1.786 -0.00 +0.00    +0.285 C  
DOCKED: ATOM     17  C   UNL     1     -40.915 -29.415   2.985 +0.00 +0.00    +0.285 C  
DOCKED: ENDBRANCH  14  15
DOCKED: ENDBRANCH  13  14
DOCKED: ENDBRANCH  12  13
DOCKED: ENDBRANCH   2  12
DOCKED: BRANCH   2  18
DOCKED: ATOM     18  C   UNL     1     -44.367 -31.586  -1.778 -0.11 +0.00    +0.006 A  
DOCKED: ATOM     19  C   UNL     1     -44.070 -32.468  -2.816 -0.11 +0.00    +0.001 A  
DOCKED: ATOM     20  C   UNL     1     -44.745 -32.364  -4.033 -0.09 +0.00    +0.029 A  
DOCKED: ATOM     21  C   UNL     1     -45.717 -31.380  -4.209 -0.14 +0.00    +0.140 A  
DOCKED: ATOM     22  C   UNL     1     -46.014 -30.498  -3.170 -0.17 +0.00    +0.029 A  
DOCKED: ATOM     23  F   UNL     1     -46.366 -31.282  -5.376 -0.09 -0.00    -0.204 F  
DOCKED: ATOM     24  C   UNL     1     -45.338 -30.601  -1.953 -0.14 +0.00    +0.001 A  
DOCKED: ENDBRANCH   2  18
DOCKED: TORSDOF 5
DOCKED: TER
DOCKED: ENDMDL
________________________________________________________________________________


    FINAL DOCKED STATE:
    ________________________


Run:   11 / 512
Time taken for this run:   0.001s

DOCKED: MODEL        11
DOCKED: USER    Run = 11
DOCKED: USER
DOCKED: USER    Estimated Free Energy of Binding    =  -3.70 kcal/mol  [=(1)+(2)+(3)-(4)]
DOCKED: USER
DOCKED: USER    (1) Final Intermolecular Energy     =  -5.19 kcal/mol
DOCKED: USER        vdW + Hbond + desolv Energy     =  -5.19 kcal/mol
DOCKED: USER        Electrostatic Energy            =  +0.00 kcal/mol
DOCKED: USER        Moving Ligand-Fixed Receptor    =  -5.19 kcal/mol
DOCKED: USER        Moving Ligand-Moving Receptor   =  +0.00 kcal/mol
DOCKED: USER    (2) Final Total Internal Energy     =  -1.43 kcal/mol
DOCKED: USER    (3) Torsional Free Energy           =  +1.49 kcal/mol
DOCKED: USER    (4) Unbound System's Energy         =  -1.43 kcal/mol
DOCKED: USER
DOCKED: USER
DOCKED: REMARK  5 active torsions:
DOCKED: REMARK  status: ('A' for Active; 'I' for Inactive)
DOCKED: REMARK    1  A    between atoms: C_2  and  C_19 
DOCKED: REMARK    2  A    between atoms: C_2  and  C_11 
DOCKED: REMARK    3  A    between atoms: C_19  and  C_20 
DOCKED: REMARK    4  A    between atoms: C_20  and  C_21 
DOCKED: REMARK    5  A    between atoms: C_21  and  N_22 
DOCKED: USER                              x       y       z     vdW  Elec       q    Type
DOCKED: USER                           _______ _______ _______ _____ _____    ______ ____
DOCKED: ROOT
DOCKED: ATOM      1  O   UNL     1     -50.565 -30.924   9.599 -0.01 -0.00    -0.346 OA 
DOCKED: ATOM      2  C   UNL     1     -50.804 -30.205   8.346 -0.10 +0.00    +0.130 C  
DOCKED: ATOM      3  C   UNL     1     -51.421 -31.240   7.450 -0.21 +0.00    +0.004 A  
DOCKED: ATOM      4  C   UNL     1     -51.620 -32.415   8.160 -0.19 +0.00    +0.006 A  
DOCKED: ATOM      5  C   UNL     1     -51.167 -32.239   9.559 -0.09 +0.00    +0.169 C  
DOCKED: ATOM      6  C   UNL     1     -51.787 -31.145   6.115 -0.27 -0.00    -0.001 A  
DOCKED: ATOM      7  C   UNL     1     -52.184 -33.530   7.565 -0.27 +0.00    +0.008 A  
DOCKED: ATOM      8  C   UNL     1     -52.353 -32.262   5.499 -0.34 +0.00    +0.010 A  
DOCKED: ATOM      9  C   UNL     1     -52.551 -33.449   6.221 -0.31 +0.00    +0.068 A  
DOCKED: ATOM     10  N   UNL     1     -53.609 -35.503   5.049 -2.41 -0.00    -0.191 NA 
DOCKED: ATOM     11  C   UNL     1     -53.134 -34.582   5.575 -0.33 +0.00    +0.101 C  
DOCKED: ENDROOT
DOCKED: BRANCH   2  12
DOCKED: ATOM     12  C   UNL     1     -51.737 -29.035   8.632 -0.06 +0.00    +0.038 C  
DOCKED: BRANCH  12  13
DOCKED: ATOM     13  C   UNL     1     -51.496 -28.457  10.025 -0.02 +0.00    +0.038 C  
DOCKED: BRANCH  13  14
DOCKED: ATOM     14  C   UNL     1     -50.407 -27.387   9.995 -0.00 +0.00    +0.251 C  
DOCKED: BRANCH  14  15
DOCKED: ATOM     15  N   UNL     1     -49.499 -27.555  11.123 -0.00 +0.00    +0.141 N  
DOCKED: ATOM     16  C   UNL     1     -49.611 -28.904  11.679 -0.00 +0.00    +0.285 C  
DOCKED: ATOM     17  C   UNL     1     -48.118 -27.285  10.718 -0.00 +0.00    +0.285 C  
DOCKED: ENDBRANCH  14  15
DOCKED: ENDBRANCH  13  14
DOCKED: ENDBRANCH  12  13
DOCKED: ENDBRANCH   2  12
DOCKED: BRANCH   2  18
DOCKED: ATOM     18  C   UNL     1     -49.477 -29.729   7.857 -0.12 +0.00    +0.006 A  
DOCKED: ATOM     19  C   UNL     1     -48.355 -30.548   7.977 -0.12 +0.00    +0.001 A  
DOCKED: ATOM     20  C   UNL     1     -47.115 -30.101   7.520 -0.10 +0.00    +0.029 A  
DOCKED: ATOM     21  C   UNL     1     -46.998 -28.837   6.944 -0.06 +0.00    +0.140 A  
DOCKED: ATOM     22  C   UNL     1     -48.121 -28.018   6.824 -0.07 +0.00    +0.029 A  
DOCKED: ATOM     23  F   UNL     1     -45.808 -28.409   6.503 -0.00 -0.00    -0.204 F  
DOCKED: ATOM     24  C   UNL     1     -49.362 -28.464   7.282 -0.10 +0.00    +0.001 A  
DOCKED: ENDBRANCH   2  18
DOCKED: TORSDOF 5
DOCKED: TER
DOCKED: ENDMDL
________________________________________________________________________________


    FINAL DOCKED STATE:
    ________________________


Run:   12 / 512
Time taken for this run:   0.001s

DOCKED: MODEL        12
DOCKED: USER    Run = 12
DOCKED: USER
DOCKED: USER    Estimated Free Energy of Binding    =  -3.64 kcal/mol  [=(1)+(2)+(3)-(4)]
DOCKED: USER
DOCKED: USER    (1) Final Intermolecular Energy     =  -5.14 kcal/mol
DOCKED: USER        vdW + Hbond + desolv Energy     =  -5.14 kcal/mol
DOCKED: USER        Electrostatic Energy            =  +0.00 kcal/mol
DOCKED: USER        Moving Ligand-Fixed Receptor    =  -5.14 kcal/mol
DOCKED: USER        Moving Ligand-Moving Receptor   =  +0.00 kcal/mol
DOCKED: USER    (2) Final Total Internal Energy     =  -1.43 kcal/mol
DOCKED: USER    (3) Torsional Free Energy           =  +1.49 kcal/mol
DOCKED: USER    (4) Unbound System's Energy         =  -1.43 kcal/mol
DOCKED: USER
DOCKED: USER
DOCKED: REMARK  5 active torsions:
DOCKED: REMARK  status: ('A' for Active; 'I' for Inactive)
DOCKED: REMARK    1  A    between atoms: C_2  and  C_19 
DOCKED: REMARK    2  A    between atoms: C_2  and  C_11 
DOCKED: REMARK    3  A    between atoms: C_19  and  C_20 
DOCKED: REMARK    4  A    between atoms: C_20  and  C_21 
DOCKED: REMARK    5  A    between atoms: C_21  and  N_22 
DOCKED: USER                              x       y       z     vdW  Elec       q    Type
DOCKED: USER                           _______ _______ _______ _____ _____    ______ ____
DOCKED: ROOT
DOCKED: ATOM      1  O   UNL     1     -53.681 -32.447   8.378 -0.01 -0.00    -0.346 OA 
DOCKED: ATOM      2  C   UNL     1     -52.776 -31.616   7.583 -0.16 +0.00    +0.130 C  
DOCKED: ATOM      3  C   UNL     1     -52.895 -32.178   6.196 -0.31 +0.00    +0.004 A  
DOCKED: ATOM      4  C   UNL     1     -53.865 -33.170   6.176 -0.29 +0.00    +0.006 A  
DOCKED: ATOM      5  C   UNL     1     -54.456 -33.323   7.525 -0.14 +0.00    +0.169 C  
DOCKED: ATOM      6  C   UNL     1     -52.209 -31.832   5.042 +0.02 -0.00    -0.001 A  
DOCKED: ATOM      7  C   UNL     1     -54.178 -33.849   5.011 -0.39 +0.00    +0.008 A  
DOCKED: ATOM      8  C   UNL     1     -52.509 -32.510   3.860 +0.21 +0.00    +0.010 A  
DOCKED: ATOM      9  C   UNL     1     -53.490 -33.514   3.845 -0.41 +0.00    +0.068 A  
DOCKED: ATOM     10  N   UNL     1     -54.027 -34.750   1.632 -2.28 -0.00    -0.191 NA 
DOCKED: ATOM     11  C   UNL     1     -53.786 -34.196   2.625 -0.32 +0.00    +0.101 C  
DOCKED: ENDROOT
DOCKED: BRANCH   2  12
DOCKED: ATOM     12  C   UNL     1     -53.241 -30.168   7.679 -0.17 +0.00    +0.038 C  
DOCKED: BRANCH  12  13
DOCKED: ATOM     13  C   UNL     1     -52.879 -29.555   9.030 -0.06 +0.00    +0.038 C  
DOCKED: BRANCH  13  14
DOCKED: ATOM     14  C   UNL     1     -53.956 -29.847  10.073 -0.01 +0.00    +0.251 C  
DOCKED: BRANCH  14  15
DOCKED: ATOM     15  N   UNL     1     -53.354 -30.025  11.388 -0.00 +0.00    +0.141 N  
DOCKED: ATOM     16  C   UNL     1     -53.472 -31.417  11.826 -0.00 +0.00    +0.285 C  
DOCKED: ATOM     17  C   UNL     1     -51.948 -29.616  11.371 -0.00 +0.00    +0.285 C  
DOCKED: ENDBRANCH  14  15
DOCKED: ENDBRANCH  13  14
DOCKED: ENDBRANCH  12  13
DOCKED: ENDBRANCH   2  12
DOCKED: BRANCH   2  18
DOCKED: ATOM     18  C   UNL     1     -51.411 -31.782   8.162 -0.17 +0.00    +0.006 A  
DOCKED: ATOM     19  C   UNL     1     -50.393 -30.896   7.811 -0.17 +0.00    +0.001 A  
DOCKED: ATOM     20  C   UNL     1     -49.116 -31.053   8.353 -0.14 +0.00    +0.029 A  
DOCKED: ATOM     21  C   UNL     1     -48.860 -32.093   9.245 -0.12 +0.00    +0.140 A  
DOCKED: ATOM     22  C   UNL     1     -49.879 -32.978   9.596 -0.03 +0.00    +0.029 A  
DOCKED: ATOM     23  F   UNL     1     -47.635 -32.242   9.767 -0.03 -0.00    -0.204 F  
DOCKED: ATOM     24  C   UNL     1     -51.156 -32.823   9.054 -0.17 +0.00    +0.001 A  
DOCKED: ENDBRANCH   2  18
DOCKED: TORSDOF 5
DOCKED: TER
DOCKED: ENDMDL
________________________________________________________________________________


    FINAL DOCKED STATE:
    ________________________


Run:   13 / 512
Time taken for this run:   0.001s

DOCKED: MODEL        13
DOCKED: USER    Run = 13
DOCKED: USER
DOCKED: USER    Estimated Free Energy of Binding    =  -3.97 kcal/mol  [=(1)+(2)+(3)-(4)]
DOCKED: USER
DOCKED: USER    (1) Final Intermolecular Energy     =  -5.46 kcal/mol
DOCKED: USER        vdW + Hbond + desolv Energy     =  -5.46 kcal/mol
DOCKED: USER        Electrostatic Energy            =  +0.00 kcal/mol
DOCKED: USER        Moving Ligand-Fixed Receptor    =  -5.46 kcal/mol
DOCKED: USER        Moving Ligand-Moving Receptor   =  +0.00 kcal/mol
DOCKED: USER    (2) Final Total Internal Energy     =  -1.18 kcal/mol
DOCKED: USER    (3) Torsional Free Energy           =  +1.49 kcal/mol
DOCKED: USER    (4) Unbound System's Energy         =  -1.18 kcal/mol
DOCKED: USER
DOCKED: USER
DOCKED: REMARK  5 active torsions:
DOCKED: REMARK  status: ('A' for Active; 'I' for Inactive)
DOCKED: REMARK    1  A    between atoms: C_2  and  C_19 
DOCKED: REMARK    2  A    between atoms: C_2  and  C_11 
DOCKED: REMARK    3  A    between atoms: C_19  and  C_20 
DOCKED: REMARK    4  A    between atoms: C_20  and  C_21 
DOCKED: REMARK    5  A    between atoms: C_21  and  N_22 
DOCKED: USER                              x       y       z     vdW  Elec       q    Type
DOCKED: USER                           _______ _______ _______ _____ _____    ______ ____
DOCKED: ROOT
DOCKED: ATOM      1  O   UNL     1     -52.312 -28.744   7.275 -0.06 -0.00    -0.346 OA 
DOCKED: ATOM      2  C   UNL     1     -51.141 -29.519   7.686 -0.13 +0.00    +0.130 C  
DOCKED: ATOM      3  C   UNL     1     -51.466 -30.919   7.252 -0.22 +0.00    +0.004 A  
DOCKED: ATOM      4  C   UNL     1     -52.667 -30.926   6.557 -0.27 +0.00    +0.006 A  
DOCKED: ATOM      5  C   UNL     1     -53.205 -29.550   6.472 -0.17 +0.00    +0.169 C  
DOCKED: ATOM      6  C   UNL     1     -50.750 -32.092   7.448 -0.23 -0.00    -0.001 A  
DOCKED: ATOM      7  C   UNL     1     -53.193 -32.097   6.039 -0.29 +0.00    +0.008 A  
DOCKED: ATOM      8  C   UNL     1     -51.271 -33.282   6.936 -0.33 +0.00    +0.010 A  
DOCKED: ATOM      9  C   UNL     1     -52.486 -33.284   6.235 -0.31 +0.00    +0.068 A  
DOCKED: ATOM     10  N   UNL     1     -53.421 -35.509   5.293 -2.58 -0.00    -0.191 NA 
DOCKED: ATOM     11  C   UNL     1     -53.002 -34.511   5.716 -0.31 +0.00    +0.101 C  
DOCKED: ENDROOT
DOCKED: BRANCH   2  12
DOCKED: ATOM     12  C   UNL     1     -49.914 -28.950   6.983 -0.16 +0.00    +0.038 C  
DOCKED: BRANCH  12  13
DOCKED: ATOM     13  C   UNL     1     -49.525 -27.589   7.557 -0.06 +0.00    +0.038 C  
DOCKED: BRANCH  13  14
DOCKED: ATOM     14  C   UNL     1     -49.006 -26.659   6.462 -0.03 +0.00    +0.251 C  
DOCKED: BRANCH  14  15
DOCKED: ATOM     15  N   UNL     1     -49.735 -26.882   5.219 -0.08 +0.00    +0.141 N  
DOCKED: ATOM     16  C   UNL     1     -50.909 -26.010   5.146 -0.07 +0.00    +0.285 C  
DOCKED: ATOM     17  C   UNL     1     -48.865 -26.659   4.063 -0.05 +0.00    +0.285 C  
DOCKED: ENDBRANCH  14  15
DOCKED: ENDBRANCH  13  14
DOCKED: ENDBRANCH  12  13
DOCKED: ENDBRANCH   2  12
DOCKED: BRANCH   2  18
DOCKED: ATOM     18  C   UNL     1     -51.024 -29.382   9.167 -0.04 +0.00    +0.006 A  
DOCKED: ATOM     19  C   UNL     1     -51.999 -28.686   9.881 -0.02 +0.00    +0.001 A  
DOCKED: ATOM     20  C   UNL     1     -51.888 -28.558  11.267 -0.00 +0.00    +0.029 A  
DOCKED: ATOM     21  C   UNL     1     -50.804 -29.125  11.935 -0.00 +0.00    +0.140 A  
DOCKED: ATOM     22  C   UNL     1     -49.830 -29.821  11.220 -0.01 +0.00    +0.029 A  
DOCKED: ATOM     23  F   UNL     1     -50.699 -29.004  13.265 +0.00 -0.00    -0.204 F  
DOCKED: ATOM     24  C   UNL     1     -49.939 -29.950   9.834 -0.03 +0.00    +0.001 A  
DOCKED: ENDBRANCH   2  18
DOCKED: TORSDOF 5
DOCKED: TER
DOCKED: ENDMDL
________________________________________________________________________________


    FINAL DOCKED STATE:
    ________________________


Run:   14 / 512
Time taken for this run:   0.001s

DOCKED: MODEL        14
DOCKED: USER    Run = 14
DOCKED: USER
DOCKED: USER    Estimated Free Energy of Binding    =  -4.53 kcal/mol  [=(1)+(2)+(3)-(4)]
DOCKED: USER
DOCKED: USER    (1) Final Intermolecular Energy     =  -6.02 kcal/mol
DOCKED: USER        vdW + Hbond + desolv Energy     =  -6.02 kcal/mol
DOCKED: USER        Electrostatic Energy            =  +0.00 kcal/mol
DOCKED: USER        Moving Ligand-Fixed Receptor    =  -6.02 kcal/mol
DOCKED: USER        Moving Ligand-Moving Receptor   =  +0.00 kcal/mol
DOCKED: USER    (2) Final Total Internal Energy     =  -1.16 kcal/mol
DOCKED: USER    (3) Torsional Free Energy           =  +1.49 kcal/mol
DOCKED: USER    (4) Unbound System's Energy         =  -1.16 kcal/mol
DOCKED: USER
DOCKED: USER
DOCKED: REMARK  5 active torsions:
DOCKED: REMARK  status: ('A' for Active; 'I' for Inactive)
DOCKED: REMARK    1  A    between atoms: C_2  and  C_19 
DOCKED: REMARK    2  A    between atoms: C_2  and  C_11 
DOCKED: REMARK    3  A    between atoms: C_19  and  C_20 
DOCKED: REMARK    4  A    between atoms: C_20  and  C_21 
DOCKED: REMARK    5  A    between atoms: C_21  and  N_22 
DOCKED: USER                              x       y       z     vdW  Elec       q    Type
DOCKED: USER                           _______ _______ _______ _____ _____    ______ ____
DOCKED: ROOT
DOCKED: ATOM      1  O   UNL     1     -49.934 -25.198   1.578 -0.09 -0.00    -0.346 OA 
DOCKED: ATOM      2  C   UNL     1     -48.704 -25.313   0.794 -0.17 +0.00    +0.130 C  
DOCKED: ATOM      3  C   UNL     1     -49.058 -24.687  -0.525 -0.27 +0.00    +0.004 A  
DOCKED: ATOM      4  C   UNL     1     -50.341 -24.162  -0.463 -0.20 +0.00    +0.006 A  
DOCKED: ATOM      5  C   UNL     1     -50.912 -24.388   0.884 -0.26 +0.00    +0.169 C  
DOCKED: ATOM      6  C   UNL     1     -48.301 -24.581  -1.682 -0.24 -0.00    -0.001 A  
DOCKED: ATOM      7  C   UNL     1     -50.910 -23.520  -1.549 -0.11 +0.00    +0.008 A  
DOCKED: ATOM      8  C   UNL     1     -48.862 -23.941  -2.788 -0.24 +0.00    +0.010 A  
DOCKED: ATOM      9  C   UNL     1     -50.160 -23.413  -2.722 -0.22 +0.00    +0.068 A  
DOCKED: ATOM     10  N   UNL     1     -51.171 -22.226  -4.791 -2.43 -0.00    -0.191 NA 
DOCKED: ATOM     11  C   UNL     1     -50.718 -22.759  -3.863 -0.29 +0.00    +0.101 C  
DOCKED: ENDROOT
DOCKED: BRANCH   2  12
DOCKED: ATOM     12  C   UNL     1     -47.594 -24.567   1.525 -0.16 +0.00    +0.038 C  
DOCKED: BRANCH  12  13
DOCKED: ATOM     13  C   UNL     1     -47.026 -25.400   2.673 -0.08 +0.00    +0.038 C  
DOCKED: BRANCH  13  14
DOCKED: ATOM     14  C   UNL     1     -47.828 -25.187   3.956 -0.05 +0.00    +0.251 C  
DOCKED: BRANCH  14  15
DOCKED: ATOM     15  N   UNL     1     -47.039 -25.581   5.117 -0.02 +0.00    +0.141 N  
DOCKED: ATOM     16  C   UNL     1     -46.862 -27.033   5.153 -0.02 +0.00    +0.285 C  
DOCKED: ATOM     17  C   UNL     1     -45.738 -24.911   5.109 -0.01 +0.00    +0.285 C  
DOCKED: ENDBRANCH  14  15
DOCKED: ENDBRANCH  13  14
DOCKED: ENDBRANCH  12  13
DOCKED: ENDBRANCH   2  12
DOCKED: BRANCH   2  18
DOCKED: ATOM     18  C   UNL     1     -48.392 -26.768   0.682 -0.15 +0.00    +0.006 A  
DOCKED: ATOM     19  C   UNL     1     -47.314 -27.191  -0.094 -0.11 +0.00    +0.001 A  
DOCKED: ATOM     20  C   UNL     1     -47.023 -28.552  -0.199 -0.15 +0.00    +0.029 A  
DOCKED: ATOM     21  C   UNL     1     -47.810 -29.487   0.473 -0.20 +0.00    +0.140 A  
DOCKED: ATOM     22  C   UNL     1     -48.888 -29.062   1.249 -0.28 +0.00    +0.029 A  
DOCKED: ATOM     23  F   UNL     1     -47.530 -30.793   0.374 -0.08 -0.00    -0.204 F  
DOCKED: ATOM     24  C   UNL     1     -49.180 -27.701   1.354 -0.21 +0.00    +0.001 A  
DOCKED: ENDBRANCH   2  18
DOCKED: TORSDOF 5
DOCKED: TER
DOCKED: ENDMDL
________________________________________________________________________________


    FINAL DOCKED STATE:
    ________________________


Run:   15 / 512
Time taken for this run:   0.001s

DOCKED: MODEL        15
DOCKED: USER    Run = 15
DOCKED: USER
DOCKED: USER    Estimated Free Energy of Binding    =  -4.17 kcal/mol  [=(1)+(2)+(3)-(4)]
DOCKED: USER
DOCKED: USER    (1) Final Intermolecular Energy     =  -5.66 kcal/mol
DOCKED: USER        vdW + Hbond + desolv Energy     =  -5.66 kcal/mol
DOCKED: USER        Electrostatic Energy            =  +0.00 kcal/mol
DOCKED: USER        Moving Ligand-Fixed Receptor    =  -5.66 kcal/mol
DOCKED: USER        Moving Ligand-Moving Receptor   =  +0.00 kcal/mol
DOCKED: USER    (2) Final Total Internal Energy     =  -1.43 kcal/mol
DOCKED: USER    (3) Torsional Free Energy           =  +1.49 kcal/mol
DOCKED: USER    (4) Unbound System's Energy         =  -1.43 kcal/mol
DOCKED: USER
DOCKED: USER
DOCKED: REMARK  5 active torsions:
DOCKED: REMARK  status: ('A' for Active; 'I' for Inactive)
DOCKED: REMARK    1  A    between atoms: C_2  and  C_19 
DOCKED: REMARK    2  A    between atoms: C_2  and  C_11 
DOCKED: REMARK    3  A    between atoms: C_19  and  C_20 
DOCKED: REMARK    4  A    between atoms: C_20  and  C_21 
DOCKED: REMARK    5  A    between atoms: C_21  and  N_22 
DOCKED: USER                              x       y       z     vdW  Elec       q    Type
DOCKED: USER                           _______ _______ _______ _____ _____    ______ ____
DOCKED: ROOT
DOCKED: ATOM      1  O   UNL     1     -49.592 -30.398   8.179 -0.06 -0.00    -0.346 OA 
DOCKED: ATOM      2  C   UNL     1     -50.874 -29.789   7.822 -0.12 +0.00    +0.130 C  
DOCKED: ATOM      3  C   UNL     1     -51.651 -30.920   7.212 -0.23 +0.00    +0.004 A  
DOCKED: ATOM      4  C   UNL     1     -50.922 -32.096   7.313 -0.24 +0.00    +0.006 A  
DOCKED: ATOM      5  C   UNL     1     -49.636 -31.833   7.996 -0.14 +0.00    +0.169 C  
DOCKED: ATOM      6  C   UNL     1     -52.909 -30.910   6.627 -0.26 -0.00    -0.001 A  
DOCKED: ATOM      7  C   UNL     1     -51.418 -33.295   6.830 -0.33 +0.00    +0.008 A  
DOCKED: ATOM      8  C   UNL     1     -53.421 -32.111   6.131 -0.28 +0.00    +0.010 A  
DOCKED: ATOM      9  C   UNL     1     -52.680 -33.297   6.233 -0.30 +0.00    +0.068 A  
DOCKED: ATOM     10  N   UNL     1     -53.662 -35.509   5.309 -2.55 -0.00    -0.191 NA 
DOCKED: ATOM     11  C   UNL     1     -53.221 -34.517   5.723 -0.32 +0.00    +0.101 C  
DOCKED: ENDROOT
DOCKED: BRANCH   2  12
DOCKED: ATOM     12  C   UNL     1     -51.518 -29.242   9.090 -0.05 +0.00    +0.038 C  
DOCKED: BRANCH  12  13
DOCKED: ATOM     13  C   UNL     1     -50.464 -28.792  10.100 -0.02 +0.00    +0.038 C  
DOCKED: BRANCH  13  14
DOCKED: ATOM     14  C   UNL     1     -49.989 -27.371   9.803 -0.00 +0.00    +0.251 C  
DOCKED: BRANCH  14  15
DOCKED: ATOM     15  N   UNL     1     -48.573 -27.232  10.121 -0.00 +0.00    +0.141 N  
DOCKED: ATOM     16  C   UNL     1     -47.765 -28.114   9.278 -0.01 +0.00    +0.285 C  
DOCKED: ATOM     17  C   UNL     1     -48.143 -25.842   9.960 -0.00 +0.00    +0.285 C  
DOCKED: ENDBRANCH  14  15
DOCKED: ENDBRANCH  13  14
DOCKED: ENDBRANCH  12  13
DOCKED: ENDBRANCH   2  12
DOCKED: BRANCH   2  18
DOCKED: ATOM     18  C   UNL     1     -50.581 -28.695   6.850 -0.15 +0.00    +0.006 A  
DOCKED: ATOM     19  C   UNL     1     -51.470 -27.629   6.713 -0.13 +0.00    +0.001 A  
DOCKED: ATOM     20  C   UNL     1     -51.196 -26.607   5.804 -0.11 +0.00    +0.029 A  
DOCKED: ATOM     21  C   UNL     1     -50.034 -26.650   5.035 -0.07 +0.00    +0.140 A  
DOCKED: ATOM     22  C   UNL     1     -49.145 -27.716   5.174 -0.12 +0.00    +0.029 A  
DOCKED: ATOM     23  F   UNL     1     -49.769 -25.668   4.165 -0.02 -0.00    -0.204 F  
DOCKED: ATOM     24  C   UNL     1     -49.419 -28.740   6.082 -0.16 +0.00    +0.001 A  
DOCKED: ENDBRANCH   2  18
DOCKED: TORSDOF 5
DOCKED: TER
DOCKED: ENDMDL
________________________________________________________________________________


    FINAL DOCKED STATE:
    ________________________


Run:   16 / 512
Time taken for this run:   0.001s

DOCKED: MODEL        16
DOCKED: USER    Run = 16
DOCKED: USER
DOCKED: USER    Estimated Free Energy of Binding    =  -3.56 kcal/mol  [=(1)+(2)+(3)-(4)]
DOCKED: USER
DOCKED: USER    (1) Final Intermolecular Energy     =  -5.06 kcal/mol
DOCKED: USER        vdW + Hbond + desolv Energy     =  -5.06 kcal/mol
DOCKED: USER        Electrostatic Energy            =  +0.00 kcal/mol
DOCKED: USER        Moving Ligand-Fixed Receptor    =  -5.06 kcal/mol
DOCKED: USER        Moving Ligand-Moving Receptor   =  +0.00 kcal/mol
DOCKED: USER    (2) Final Total Internal Energy     =  -1.59 kcal/mol
DOCKED: USER    (3) Torsional Free Energy           =  +1.49 kcal/mol
DOCKED: USER    (4) Unbound System's Energy         =  -1.59 kcal/mol
DOCKED: USER
DOCKED: USER
DOCKED: REMARK  5 active torsions:
DOCKED: REMARK  status: ('A' for Active; 'I' for Inactive)
DOCKED: REMARK    1  A    between atoms: C_2  and  C_19 
DOCKED: REMARK    2  A    between atoms: C_2  and  C_11 
DOCKED: REMARK    3  A    between atoms: C_19  and  C_20 
DOCKED: REMARK    4  A    between atoms: C_20  and  C_21 
DOCKED: REMARK    5  A    between atoms: C_21  and  N_22 
DOCKED: USER                              x       y       z     vdW  Elec       q    Type
DOCKED: USER                           _______ _______ _______ _____ _____    ______ ____
DOCKED: ROOT
DOCKED: ATOM      1  O   UNL     1     -52.425 -29.563   9.059 -0.00 -0.00    -0.346 OA 
DOCKED: ATOM      2  C   UNL     1     -51.900 -29.370   7.707 -0.12 +0.00    +0.130 C  
DOCKED: ATOM      3  C   UNL     1     -52.211 -30.663   7.011 -0.23 +0.00    +0.004 A  
DOCKED: ATOM      4  C   UNL     1     -52.947 -31.482   7.856 -0.14 +0.00    +0.006 A  
DOCKED: ATOM      5  C   UNL     1     -53.182 -30.793   9.145 -0.04 +0.00    +0.169 C  
DOCKED: ATOM      6  C   UNL     1     -51.880 -31.077   5.729 -0.12 -0.00    -0.001 A  
DOCKED: ATOM      7  C   UNL     1     -53.371 -32.737   7.453 -0.19 +0.00    +0.008 A  
DOCKED: ATOM      8  C   UNL     1     -52.296 -32.342   5.310 -0.33 +0.00    +0.010 A  
DOCKED: ATOM      9  C   UNL     1     -53.039 -33.167   6.168 -0.28 +0.00    +0.068 A  
DOCKED: ATOM     10  N   UNL     1     -53.801 -35.507   5.357 -2.54 -0.00    -0.191 NA 
DOCKED: ATOM     11  C   UNL     1     -53.458 -34.458   5.721 -0.34 +0.00    +0.101 C  
DOCKED: ENDROOT
DOCKED: BRANCH   2  12
DOCKED: ATOM     12  C   UNL     1     -52.608 -28.174   7.081 -0.17 +0.00    +0.038 C  
DOCKED: BRANCH  12  13
DOCKED: ATOM     13  C   UNL     1     -53.539 -27.492   8.081 -0.08 +0.00    +0.038 C  
DOCKED: BRANCH  13  14
DOCKED: ATOM     14  C   UNL     1     -52.841 -26.323   8.773 -0.01 +0.00    +0.251 C  
DOCKED: BRANCH  14  15
DOCKED: ATOM     15  N   UNL     1     -51.762 -26.808   9.625 -0.01 +0.00    +0.141 N  
DOCKED: ATOM     16  C   UNL     1     -50.677 -25.829   9.692 -0.00 +0.00    +0.285 C  
DOCKED: ATOM     17  C   UNL     1     -52.261 -27.106  10.969 +0.00 +0.00    +0.285 C  
DOCKED: ENDBRANCH  14  15
DOCKED: ENDBRANCH  13  14
DOCKED: ENDBRANCH  12  13
DOCKED: ENDBRANCH   2  12
DOCKED: BRANCH   2  18
DOCKED: ATOM     18  C   UNL     1     -50.435 -29.119   7.839 -0.10 +0.00    +0.006 A  
DOCKED: ATOM     19  C   UNL     1     -49.776 -29.450   9.022 -0.05 +0.00    +0.001 A  
DOCKED: ATOM     20  C   UNL     1     -48.406 -29.214   9.145 -0.04 +0.00    +0.029 A  
DOCKED: ATOM     21  C   UNL     1     -47.697 -28.650   8.086 -0.04 +0.00    +0.140 A  
DOCKED: ATOM     22  C   UNL     1     -48.357 -28.319   6.902 -0.09 +0.00    +0.029 A  
DOCKED: ATOM     23  F   UNL     1     -46.382 -28.426   8.203 -0.00 -0.00    -0.204 F  
DOCKED: ATOM     24  C   UNL     1     -49.728 -28.554   6.779 -0.14 +0.00    +0.001 A  
DOCKED: ENDBRANCH   2  18
DOCKED: TORSDOF 5
DOCKED: TER
DOCKED: ENDMDL
________________________________________________________________________________


    FINAL DOCKED STATE:
    ________________________


Run:   17 / 512
Time taken for this run:   0.001s

DOCKED: MODEL        17
DOCKED: USER    Run = 17
DOCKED: USER
DOCKED: USER    Estimated Free Energy of Binding    =  -3.99 kcal/mol  [=(1)+(2)+(3)-(4)]
DOCKED: USER
DOCKED: USER    (1) Final Intermolecular Energy     =  -5.49 kcal/mol
DOCKED: USER        vdW + Hbond + desolv Energy     =  -5.49 kcal/mol
DOCKED: USER        Electrostatic Energy            =  +0.00 kcal/mol
DOCKED: USER        Moving Ligand-Fixed Receptor    =  -5.49 kcal/mol
DOCKED: USER        Moving Ligand-Moving Receptor   =  +0.00 kcal/mol
DOCKED: USER    (2) Final Total Internal Energy     =  -1.27 kcal/mol
DOCKED: USER    (3) Torsional Free Energy           =  +1.49 kcal/mol
DOCKED: USER    (4) Unbound System's Energy         =  -1.27 kcal/mol
DOCKED: USER
DOCKED: USER
DOCKED: REMARK  5 active torsions:
DOCKED: REMARK  status: ('A' for Active; 'I' for Inactive)
DOCKED: REMARK    1  A    between atoms: C_2  and  C_19 
DOCKED: REMARK    2  A    between atoms: C_2  and  C_11 
DOCKED: REMARK    3  A    between atoms: C_19  and  C_20 
DOCKED: REMARK    4  A    between atoms: C_20  and  C_21 
DOCKED: REMARK    5  A    between atoms: C_21  and  N_22 
DOCKED: USER                              x       y       z     vdW  Elec       q    Type
DOCKED: USER                           _______ _______ _______ _____ _____    ______ ____
DOCKED: ROOT
DOCKED: ATOM      1  O   UNL     1     -52.579 -28.705   7.294 -0.07 -0.00    -0.346 OA 
DOCKED: ATOM      2  C   UNL     1     -51.397 -29.442   7.742 -0.12 +0.00    +0.130 C  
DOCKED: ATOM      3  C   UNL     1     -51.664 -30.852   7.303 -0.21 +0.00    +0.004 A  
DOCKED: ATOM      4  C   UNL     1     -52.842 -30.898   6.571 -0.26 +0.00    +0.006 A  
DOCKED: ATOM      5  C   UNL     1     -53.421 -29.540   6.466 -0.16 +0.00    +0.169 C  
DOCKED: ATOM      6  C   UNL     1     -50.918 -32.001   7.523 -0.24 -0.00    -0.001 A  
DOCKED: ATOM      7  C   UNL     1     -53.315 -32.086   6.041 -0.28 +0.00    +0.008 A  
DOCKED: ATOM      8  C   UNL     1     -51.384 -33.207   6.999 -0.32 +0.00    +0.010 A  
DOCKED: ATOM      9  C   UNL     1     -52.577 -33.249   6.261 -0.30 +0.00    +0.068 A  
DOCKED: ATOM     10  N   UNL     1     -53.412 -35.505   5.297 -2.59 -0.00    -0.191 NA 
DOCKED: ATOM     11  C   UNL     1     -53.038 -34.493   5.730 -0.32 +0.00    +0.101 C  
DOCKED: ENDROOT
DOCKED: BRANCH   2  12
DOCKED: ATOM     12  C   UNL     1     -50.168 -28.835   7.075 -0.15 +0.00    +0.038 C  
DOCKED: BRANCH  12  13
DOCKED: ATOM     13  C   UNL     1     -50.556 -27.730   6.094 -0.13 +0.00    +0.038 C  
DOCKED: BRANCH  13  14
DOCKED: ATOM     14  C   UNL     1     -50.606 -26.371   6.789 -0.04 +0.00    +0.251 C  
DOCKED: BRANCH  14  15
DOCKED: ATOM     15  N   UNL     1     -51.431 -25.441   6.027 -0.05 +0.00    +0.141 N  
DOCKED: ATOM     16  C   UNL     1     -50.675 -24.883   4.904 -0.05 +0.00    +0.285 C  
DOCKED: ATOM     17  C   UNL     1     -52.643 -26.104   5.543 -0.11 +0.00    +0.285 C  
DOCKED: ENDBRANCH  14  15
DOCKED: ENDBRANCH  13  14
DOCKED: ENDBRANCH  12  13
DOCKED: ENDBRANCH   2  12
DOCKED: BRANCH   2  18
DOCKED: ATOM     18  C   UNL     1     -51.330 -29.298   9.226 -0.04 +0.00    +0.006 A  
DOCKED: ATOM     19  C   UNL     1     -50.354 -28.487   9.804 -0.02 +0.00    +0.001 A  
DOCKED: ATOM     20  C   UNL     1     -50.292 -28.354  11.192 -0.00 +0.00    +0.029 A  
DOCKED: ATOM     21  C   UNL     1     -51.205 -29.030  11.999 -0.00 +0.00    +0.140 A  
DOCKED: ATOM     22  C   UNL     1     -52.182 -29.841  11.420 -0.00 +0.00    +0.029 A  
DOCKED: ATOM     23  F   UNL     1     -51.147 -28.901  13.330 +0.00 -0.00    -0.204 F  
DOCKED: ATOM     24  C   UNL     1     -52.244 -29.975  10.032 -0.03 +0.00    +0.001 A  
DOCKED: ENDBRANCH   2  18
DOCKED: TORSDOF 5
DOCKED: TER
DOCKED: ENDMDL
________________________________________________________________________________


    FINAL DOCKED STATE:
    ________________________


Run:   18 / 512
Time taken for this run:   0.001s

DOCKED: MODEL        18
DOCKED: USER    Run = 18
DOCKED: USER
DOCKED: USER    Estimated Free Energy of Binding    =  -5.02 kcal/mol  [=(1)+(2)+(3)-(4)]
DOCKED: USER
DOCKED: USER    (1) Final Intermolecular Energy     =  -6.51 kcal/mol
DOCKED: USER        vdW + Hbond + desolv Energy     =  -6.51 kcal/mol
DOCKED: USER        Electrostatic Energy            =  +0.00 kcal/mol
DOCKED: USER        Moving Ligand-Fixed Receptor    =  -6.51 kcal/mol
DOCKED: USER        Moving Ligand-Moving Receptor   =  +0.00 kcal/mol
DOCKED: USER    (2) Final Total Internal Energy     =  -1.18 kcal/mol
DOCKED: USER    (3) Torsional Free Energy           =  +1.49 kcal/mol
DOCKED: USER    (4) Unbound System's Energy         =  -1.18 kcal/mol
DOCKED: USER
DOCKED: USER
DOCKED: REMARK  5 active torsions:
DOCKED: REMARK  status: ('A' for Active; 'I' for Inactive)
DOCKED: REMARK    1  A    between atoms: C_2  and  C_19 
DOCKED: REMARK    2  A    between atoms: C_2  and  C_11 
DOCKED: REMARK    3  A    between atoms: C_19  and  C_20 
DOCKED: REMARK    4  A    between atoms: C_20  and  C_21 
DOCKED: REMARK    5  A    between atoms: C_21  and  N_22 
DOCKED: USER                              x       y       z     vdW  Elec       q    Type
DOCKED: USER                           _______ _______ _______ _____ _____    ______ ____
DOCKED: ROOT
DOCKED: ATOM      1  O   UNL     1     -51.377 -33.696   8.157 -0.11 -0.00    -0.346 OA 
DOCKED: ATOM      2  C   UNL     1     -52.638 -32.958   8.089 -0.15 +0.00    +0.130 C  
DOCKED: ATOM      3  C   UNL     1     -53.100 -33.165   6.676 -0.28 +0.00    +0.004 A  
DOCKED: ATOM      4  C   UNL     1     -52.237 -34.035   6.025 -0.41 +0.00    +0.006 A  
DOCKED: ATOM      5  C   UNL     1     -51.168 -34.468   6.952 -0.35 +0.00    +0.169 C  
DOCKED: ATOM      6  C   UNL     1     -54.203 -32.634   6.022 -0.27 -0.00    -0.001 A  
DOCKED: ATOM      7  C   UNL     1     -52.442 -34.400   4.705 -0.47 +0.00    +0.008 A  
DOCKED: ATOM      8  C   UNL     1     -54.420 -32.989   4.690 -0.05 +0.00    +0.010 A  
DOCKED: ATOM      9  C   UNL     1     -53.544 -33.868   4.035 -0.42 +0.00    +0.068 A  
DOCKED: ATOM     10  N   UNL     1     -53.980 -34.510   1.563 -2.58 -0.00    -0.191 NA 
DOCKED: ATOM     11  C   UNL     1     -53.784 -34.221   2.671 -0.33 +0.00    +0.101 C  
DOCKED: ENDROOT
DOCKED: BRANCH   2  12
DOCKED: ATOM     12  C   UNL     1     -53.597 -33.544   9.119 -0.18 +0.00    +0.038 C  
DOCKED: BRANCH  12  13
DOCKED: ATOM     13  C   UNL     1     -54.777 -32.610   9.377 -0.10 +0.00    +0.038 C  
DOCKED: BRANCH  13  14
DOCKED: ATOM     14  C   UNL     1     -56.060 -33.162   8.760 -0.05 +0.00    +0.251 C  
DOCKED: BRANCH  14  15
DOCKED: ATOM     15  N   UNL     1     -55.938 -34.597   8.535 -0.16 +0.00    +0.141 N  
DOCKED: ATOM     16  C   UNL     1     -56.298 -35.341   9.743 -0.07 +0.00    +0.285 C  
DOCKED: ATOM     17  C   UNL     1     -56.778 -35.016   7.411 -0.00 +0.00    +0.285 C  
DOCKED: ENDBRANCH  14  15
DOCKED: ENDBRANCH  13  14
DOCKED: ENDBRANCH  12  13
DOCKED: ENDBRANCH   2  12
DOCKED: BRANCH   2  18
DOCKED: ATOM     18  C   UNL     1     -52.326 -31.531   8.396 -0.11 +0.00    +0.006 A  
DOCKED: ATOM     19  C   UNL     1     -52.531 -30.549   7.428 -0.19 +0.00    +0.001 A  
DOCKED: ATOM     20  C   UNL     1     -52.238 -29.216   7.716 -0.13 +0.00    +0.029 A  
DOCKED: ATOM     21  C   UNL     1     -51.742 -28.866   8.971 -0.03 +0.00    +0.140 A  
DOCKED: ATOM     22  C   UNL     1     -51.537 -29.849   9.939 -0.02 +0.00    +0.029 A  
DOCKED: ATOM     23  F   UNL     1     -51.463 -27.586   9.247 +0.00 -0.00    -0.204 F  
DOCKED: ATOM     24  C   UNL     1     -51.829 -31.183   9.652 -0.06 +0.00    +0.001 A  
DOCKED: ENDBRANCH   2  18
DOCKED: TORSDOF 5
DOCKED: TER
DOCKED: ENDMDL
________________________________________________________________________________


    FINAL DOCKED STATE:
    ________________________


Run:   19 / 512
Time taken for this run:   0.001s

DOCKED: MODEL        19
DOCKED: USER    Run = 19
DOCKED: USER
DOCKED: USER    Estimated Free Energy of Binding    =  -4.19 kcal/mol  [=(1)+(2)+(3)-(4)]
DOCKED: USER
DOCKED: USER    (1) Final Intermolecular Energy     =  -5.68 kcal/mol
DOCKED: USER        vdW + Hbond + desolv Energy     =  -5.68 kcal/mol
DOCKED: USER        Electrostatic Energy            =  +0.00 kcal/mol
DOCKED: USER        Moving Ligand-Fixed Receptor    =  -5.68 kcal/mol
DOCKED: USER        Moving Ligand-Moving Receptor   =  +0.00 kcal/mol
DOCKED: USER    (2) Final Total Internal Energy     =  -1.36 kcal/mol
DOCKED: USER    (3) Torsional Free Energy           =  +1.49 kcal/mol
DOCKED: USER    (4) Unbound System's Energy         =  -1.36 kcal/mol
DOCKED: USER
DOCKED: USER
DOCKED: REMARK  5 active torsions:
DOCKED: REMARK  status: ('A' for Active; 'I' for Inactive)
DOCKED: REMARK    1  A    between atoms: C_2  and  C_19 
DOCKED: REMARK    2  A    between atoms: C_2  and  C_11 
DOCKED: REMARK    3  A    between atoms: C_19  and  C_20 
DOCKED: REMARK    4  A    between atoms: C_20  and  C_21 
DOCKED: REMARK    5  A    between atoms: C_21  and  N_22 
DOCKED: USER                              x       y       z     vdW  Elec       q    Type
DOCKED: USER                           _______ _______ _______ _____ _____    ______ ____
DOCKED: ROOT
DOCKED: ATOM      1  O   UNL     1     -50.411 -29.798   8.325 -0.03 -0.00    -0.346 OA 
DOCKED: ATOM      2  C   UNL     1     -51.759 -29.414   7.904 -0.11 +0.00    +0.130 C  
DOCKED: ATOM      3  C   UNL     1     -52.302 -30.658   7.261 -0.21 +0.00    +0.004 A  
DOCKED: ATOM      4  C   UNL     1     -51.388 -31.693   7.400 -0.23 +0.00    +0.006 A  
DOCKED: ATOM      5  C   UNL     1     -50.201 -31.217   8.145 -0.14 +0.00    +0.169 C  
DOCKED: ATOM      6  C   UNL     1     -53.512 -30.860   6.614 -0.23 -0.00    -0.001 A  
DOCKED: ATOM      7  C   UNL     1     -51.648 -32.956   6.897 -0.31 +0.00    +0.008 A  
DOCKED: ATOM      8  C   UNL     1     -53.787 -32.127   6.098 -0.25 +0.00    +0.010 A  
DOCKED: ATOM      9  C   UNL     1     -52.860 -33.170   6.239 -0.29 +0.00    +0.068 A  
DOCKED: ATOM     10  N   UNL     1     -53.404 -35.512   5.274 -2.57 -0.00    -0.191 NA 
DOCKED: ATOM     11  C   UNL     1     -53.160 -34.461   5.706 -0.34 +0.00    +0.101 C  
DOCKED: ENDROOT
DOCKED: BRANCH   2  12
DOCKED: ATOM     12  C   UNL     1     -52.548 -28.992   9.137 -0.04 +0.00    +0.038 C  
DOCKED: BRANCH  12  13
DOCKED: ATOM     13  C   UNL     1     -53.728 -29.928   9.392 -0.05 +0.00    +0.038 C  
DOCKED: BRANCH  13  14
DOCKED: ATOM     14  C   UNL     1     -53.429 -30.887  10.543 -0.01 +0.00    +0.251 C  
DOCKED: BRANCH  14  15
DOCKED: ATOM     15  N   UNL     1     -53.117 -32.215  10.029 -0.04 +0.00    +0.141 N  
DOCKED: ATOM     16  C   UNL     1     -52.051 -32.836  10.816 -0.05 +0.00    +0.285 C  
DOCKED: ATOM     17  C   UNL     1     -54.311 -33.063  10.034 -0.03 +0.00    +0.285 C  
DOCKED: ENDBRANCH  14  15
DOCKED: ENDBRANCH  13  14
DOCKED: ENDBRANCH  12  13
DOCKED: ENDBRANCH   2  12
DOCKED: BRANCH   2  18
DOCKED: ATOM     18  C   UNL     1     -51.611 -28.281   6.945 -0.15 +0.00    +0.006 A  
DOCKED: ATOM     19  C   UNL     1     -52.662 -27.384   6.758 -0.16 +0.00    +0.001 A  
DOCKED: ATOM     20  C   UNL     1     -52.523 -26.325   5.861 -0.14 +0.00    +0.029 A  
DOCKED: ATOM     21  C   UNL     1     -51.333 -26.163   5.153 -0.08 +0.00    +0.140 A  
DOCKED: ATOM     22  C   UNL     1     -50.281 -27.060   5.341 -0.07 +0.00    +0.029 A  
DOCKED: ATOM     23  F   UNL     1     -51.198 -25.145   4.293 -0.02 -0.00    -0.204 F  
DOCKED: ATOM     24  C   UNL     1     -50.420 -28.120   6.238 -0.14 +0.00    +0.001 A  
DOCKED: ENDBRANCH   2  18
DOCKED: TORSDOF 5
DOCKED: TER
DOCKED: ENDMDL
________________________________________________________________________________


    FINAL DOCKED STATE:
    ________________________


Run:   20 / 512
Time taken for this run:   0.001s

DOCKED: MODEL        20
DOCKED: USER    Run = 20
DOCKED: USER
DOCKED: USER    Estimated Free Energy of Binding    =  -4.37 kcal/mol  [=(1)+(2)+(3)-(4)]
DOCKED: USER
DOCKED: USER    (1) Final Intermolecular Energy     =  -5.86 kcal/mol
DOCKED: USER        vdW + Hbond + desolv Energy     =  -5.86 kcal/mol
DOCKED: USER        Electrostatic Energy            =  +0.00 kcal/mol
DOCKED: USER        Moving Ligand-Fixed Receptor    =  -5.86 kcal/mol
DOCKED: USER        Moving Ligand-Moving Receptor   =  +0.00 kcal/mol
DOCKED: USER    (2) Final Total Internal Energy     =  -1.43 kcal/mol
DOCKED: USER    (3) Torsional Free Energy           =  +1.49 kcal/mol
DOCKED: USER    (4) Unbound System's Energy         =  -1.43 kcal/mol
DOCKED: USER
DOCKED: USER
DOCKED: REMARK  5 active torsions:
DOCKED: REMARK  status: ('A' for Active; 'I' for Inactive)
DOCKED: REMARK    1  A    between atoms: C_2  and  C_19 
DOCKED: REMARK    2  A    between atoms: C_2  and  C_11 
DOCKED: REMARK    3  A    between atoms: C_19  and  C_20 
DOCKED: REMARK    4  A    between atoms: C_20  and  C_21 
DOCKED: REMARK    5  A    between atoms: C_21  and  N_22 
DOCKED: USER                              x       y       z     vdW  Elec       q    Type
DOCKED: USER                           _______ _______ _______ _____ _____    ______ ____
DOCKED: ROOT
DOCKED: ATOM      1  O   UNL     1     -51.376 -29.349   7.983 -0.03 -0.00    -0.346 OA 
DOCKED: ATOM      2  C   UNL     1     -52.838 -29.342   7.916 -0.11 +0.00    +0.130 C  
DOCKED: ATOM      3  C   UNL     1     -53.174 -30.653   7.265 -0.20 +0.00    +0.004 A  
DOCKED: ATOM      4  C   UNL     1     -52.014 -31.392   7.078 -0.25 +0.00    +0.006 A  
DOCKED: ATOM      5  C   UNL     1     -50.849 -30.639   7.595 -0.16 +0.00    +0.169 C  
DOCKED: ATOM      6  C   UNL     1     -54.408 -31.156   6.880 -0.22 -0.00    -0.001 A  
DOCKED: ATOM      7  C   UNL     1     -52.046 -32.649   6.499 -0.32 +0.00    +0.008 A  
DOCKED: ATOM      8  C   UNL     1     -54.457 -32.421   6.291 -0.24 +0.00    +0.010 A  
DOCKED: ATOM      9  C   UNL     1     -53.282 -33.163   6.102 -0.27 +0.00    +0.068 A  
DOCKED: ATOM     10  N   UNL     1     -53.408 -35.510   5.011 -2.41 -0.00    -0.191 NA 
DOCKED: ATOM     11  C   UNL     1     -53.351 -34.457   5.500 -0.39 +0.00    +0.101 C  
DOCKED: ENDROOT
DOCKED: BRANCH   2  12
DOCKED: ATOM     12  C   UNL     1     -53.385 -29.226   9.333 -0.04 +0.00    +0.038 C  
DOCKED: BRANCH  12  13
DOCKED: ATOM     13  C   UNL     1     -53.834 -30.584   9.870 -0.04 +0.00    +0.038 C  
DOCKED: BRANCH  13  14
DOCKED: ATOM     14  C   UNL     1     -52.736 -31.232  10.711 -0.01 +0.00    +0.251 C  
DOCKED: BRANCH  14  15
DOCKED: ATOM     15  N   UNL     1     -52.834 -32.685  10.639 -0.05 +0.00    +0.141 N  
DOCKED: ATOM     16  C   UNL     1     -53.929 -33.086   9.754 -0.04 +0.00    +0.285 C  
DOCKED: ATOM     17  C   UNL     1     -51.571 -33.265  10.177 -0.08 +0.00    +0.285 C  
DOCKED: ENDBRANCH  14  15
DOCKED: ENDBRANCH  13  14
DOCKED: ENDBRANCH  12  13
DOCKED: ENDBRANCH   2  12
DOCKED: BRANCH   2  18
DOCKED: ATOM     18  C   UNL     1     -53.231 -28.165   7.088 -0.18 +0.00    +0.006 A  
DOCKED: ATOM     19  C   UNL     1     -54.572 -27.792   7.000 -0.20 +0.00    +0.001 A  
DOCKED: ATOM     20  C   UNL     1     -54.939 -26.691   6.225 -0.17 +0.00    +0.029 A  
DOCKED: ATOM     21  C   UNL     1     -53.965 -25.964   5.541 -0.12 +0.00    +0.140 A  
DOCKED: ATOM     22  C   UNL     1     -52.624 -26.337   5.631 -0.15 +0.00    +0.029 A  
DOCKED: ATOM     23  F   UNL     1     -54.317 -24.906   4.799 -0.03 -0.00    -0.204 F  
DOCKED: ATOM     24  C   UNL     1     -52.257 -27.439   6.405 -0.15 +0.00    +0.001 A  
DOCKED: ENDBRANCH   2  18
DOCKED: TORSDOF 5
DOCKED: TER
DOCKED: ENDMDL
________________________________________________________________________________


    FINAL DOCKED STATE:
    ________________________


Run:   21 / 512
Time taken for this run:   0.001s

DOCKED: MODEL        21
DOCKED: USER    Run = 21
DOCKED: USER
DOCKED: USER    Estimated Free Energy of Binding    =  -3.58 kcal/mol  [=(1)+(2)+(3)-(4)]
DOCKED: USER
DOCKED: USER    (1) Final Intermolecular Energy     =  -5.07 kcal/mol
DOCKED: USER        vdW + Hbond + desolv Energy     =  -5.07 kcal/mol
DOCKED: USER        Electrostatic Energy            =  +0.00 kcal/mol
DOCKED: USER        Moving Ligand-Fixed Receptor    =  -5.07 kcal/mol
DOCKED: USER        Moving Ligand-Moving Receptor   =  +0.00 kcal/mol
DOCKED: USER    (2) Final Total Internal Energy     =  -1.33 kcal/mol
DOCKED: USER    (3) Torsional Free Energy           =  +1.49 kcal/mol
DOCKED: USER    (4) Unbound System's Energy         =  -1.33 kcal/mol
DOCKED: USER
DOCKED: USER
DOCKED: REMARK  5 active torsions:
DOCKED: REMARK  status: ('A' for Active; 'I' for Inactive)
DOCKED: REMARK    1  A    between atoms: C_2  and  C_19 
DOCKED: REMARK    2  A    between atoms: C_2  and  C_11 
DOCKED: REMARK    3  A    between atoms: C_19  and  C_20 
DOCKED: REMARK    4  A    between atoms: C_20  and  C_21 
DOCKED: REMARK    5  A    between atoms: C_21  and  N_22 
DOCKED: USER                              x       y       z     vdW  Elec       q    Type
DOCKED: USER                           _______ _______ _______ _____ _____    ______ ____
DOCKED: ROOT
DOCKED: ATOM      1  O   UNL     1     -45.103 -20.594  -2.236 -0.02 -0.00    -0.346 OA 
DOCKED: ATOM      2  C   UNL     1     -45.129 -20.498  -3.696 -0.10 +0.00    +0.130 C  
DOCKED: ATOM      3  C   UNL     1     -46.500 -20.988  -4.064 -0.10 +0.00    +0.004 A  
DOCKED: ATOM      4  C   UNL     1     -47.231 -21.238  -2.911 -0.23 +0.00    +0.006 A  
DOCKED: ATOM      5  C   UNL     1     -46.413 -20.923  -1.719 -0.17 +0.00    +0.169 C  
DOCKED: ATOM      6  C   UNL     1     -47.058 -21.187  -5.318 -0.22 -0.00    -0.001 A  
DOCKED: ATOM      7  C   UNL     1     -48.536 -21.696  -2.971 -0.34 +0.00    +0.008 A  
DOCKED: ATOM      8  C   UNL     1     -48.372 -21.653  -5.395 -0.34 +0.00    +0.010 A  
DOCKED: ATOM      9  C   UNL     1     -49.107 -21.906  -4.228 -0.38 +0.00    +0.068 A  
DOCKED: ATOM     10  N   UNL     1     -51.545 -22.765  -4.406 -2.34 -0.00    -0.191 NA 
DOCKED: ATOM     11  C   UNL     1     -50.451 -22.380  -4.326 -0.36 +0.00    +0.101 C  
DOCKED: ENDROOT
DOCKED: BRANCH   2  12
DOCKED: ATOM     12  C   UNL     1     -44.894 -19.044  -4.088 -0.11 +0.00    +0.038 C  
DOCKED: BRANCH  12  13
DOCKED: ATOM     13  C   UNL     1     -45.759 -18.097  -3.258 -0.18 +0.00    +0.038 C  
DOCKED: BRANCH  13  14
DOCKED: ATOM     14  C   UNL     1     -45.056 -17.709  -1.958 -0.05 +0.00    +0.251 C  
DOCKED: BRANCH  14  15
DOCKED: ATOM     15  N   UNL     1     -43.614 -17.634  -2.163 -0.02 +0.00    +0.141 N  
DOCKED: ATOM     16  C   UNL     1     -43.169 -16.240  -2.195 +0.00 +0.00    +0.285 C  
DOCKED: ATOM     17  C   UNL     1     -42.905 -18.370  -1.115 +0.00 +0.00    +0.285 C  
DOCKED: ENDBRANCH  14  15
DOCKED: ENDBRANCH  13  14
DOCKED: ENDBRANCH  12  13
DOCKED: ENDBRANCH   2  12
DOCKED: BRANCH   2  18
DOCKED: ATOM     18  C   UNL     1     -44.039 -21.377  -4.211 -0.04 +0.00    +0.006 A  
DOCKED: ATOM     19  C   UNL     1     -42.792 -20.834  -4.517 -0.02 +0.00    +0.001 A  
DOCKED: ATOM     20  C   UNL     1     -41.773 -21.657  -4.999 -0.01 +0.00    +0.029 A  
DOCKED: ATOM     21  C   UNL     1     -42.003 -23.021  -5.174 +0.00 +0.00    +0.140 A  
DOCKED: ATOM     22  C   UNL     1     -43.251 -23.563  -4.868 -0.00 +0.00    +0.029 A  
DOCKED: ATOM     23  F   UNL     1     -41.025 -23.811  -5.635 +0.00 -0.00    -0.204 F  
DOCKED: ATOM     24  C   UNL     1     -44.270 -22.741  -4.386 -0.02 +0.00    +0.001 A  
DOCKED: ENDBRANCH   2  18
DOCKED: TORSDOF 5
DOCKED: TER
DOCKED: ENDMDL
________________________________________________________________________________


    FINAL DOCKED STATE:
    ________________________


Run:   22 / 512
Time taken for this run:   0.001s

DOCKED: MODEL        22
DOCKED: USER    Run = 22
DOCKED: USER
DOCKED: USER    Estimated Free Energy of Binding    =  -5.81 kcal/mol  [=(1)+(2)+(3)-(4)]
DOCKED: USER
DOCKED: USER    (1) Final Intermolecular Energy     =  -7.30 kcal/mol
DOCKED: USER        vdW + Hbond + desolv Energy     =  -7.30 kcal/mol
DOCKED: USER        Electrostatic Energy            =  +0.00 kcal/mol
DOCKED: USER        Moving Ligand-Fixed Receptor    =  -7.30 kcal/mol
DOCKED: USER        Moving Ligand-Moving Receptor   =  +0.00 kcal/mol
DOCKED: USER    (2) Final Total Internal Energy     =  -1.49 kcal/mol
DOCKED: USER    (3) Torsional Free Energy           =  +1.49 kcal/mol
DOCKED: USER    (4) Unbound System's Energy         =  -1.49 kcal/mol
DOCKED: USER
DOCKED: USER
DOCKED: REMARK  5 active torsions:
DOCKED: REMARK  status: ('A' for Active; 'I' for Inactive)
DOCKED: REMARK    1  A    between atoms: C_2  and  C_19 
DOCKED: REMARK    2  A    between atoms: C_2  and  C_11 
DOCKED: REMARK    3  A    between atoms: C_19  and  C_20 
DOCKED: REMARK    4  A    between atoms: C_20  and  C_21 
DOCKED: REMARK    5  A    between atoms: C_21  and  N_22 
DOCKED: USER                              x       y       z     vdW  Elec       q    Type
DOCKED: USER                           _______ _______ _______ _____ _____    ______ ____
DOCKED: ROOT
DOCKED: ATOM      1  O   UNL     1     -51.597 -31.393   7.975 -0.05 -0.00    -0.346 OA 
DOCKED: ATOM      2  C   UNL     1     -51.282 -32.820   7.898 -0.23 +0.00    +0.130 C  
DOCKED: ATOM      3  C   UNL     1     -51.801 -33.231   6.550 -0.34 +0.00    +0.004 A  
DOCKED: ATOM      4  C   UNL     1     -52.270 -32.116   5.871 -0.34 +0.00    +0.006 A  
DOCKED: ATOM      5  C   UNL     1     -52.086 -30.906   6.703 -0.23 +0.00    +0.169 C  
DOCKED: ATOM      6  C   UNL     1     -51.842 -34.489   5.967 -0.39 -0.00    -0.001 A  
DOCKED: ATOM      7  C   UNL     1     -52.799 -32.219   4.595 +0.05 +0.00    +0.008 A  
DOCKED: ATOM      8  C   UNL     1     -52.376 -34.610   4.683 -0.45 +0.00    +0.010 A  
DOCKED: ATOM      9  C   UNL     1     -52.852 -33.480   4.001 -0.40 +0.00    +0.068 A  
DOCKED: ATOM     10  N   UNL     1     -53.832 -33.739   1.616 -3.09 -0.00    -0.191 NA 
DOCKED: ATOM     11  C   UNL     1     -53.393 -33.623   2.686 -0.42 +0.00    +0.101 C  
DOCKED: ENDROOT
DOCKED: BRANCH   2  12
DOCKED: ATOM     12  C   UNL     1     -49.773 -32.989   8.030 -0.21 +0.00    +0.038 C  
DOCKED: BRANCH  12  13
DOCKED: ATOM     13  C   UNL     1     -49.065 -31.637   8.096 -0.13 +0.00    +0.038 C  
DOCKED: BRANCH  13  14
DOCKED: ATOM     14  C   UNL     1     -48.694 -31.281   9.535 -0.07 +0.00    +0.251 C  
DOCKED: BRANCH  14  15
DOCKED: ATOM     15  N   UNL     1     -49.847 -30.729  10.235 -0.03 +0.00    +0.141 N  
DOCKED: ATOM     16  C   UNL     1     -49.734 -30.956  11.676 -0.01 +0.00    +0.285 C  
DOCKED: ATOM     17  C   UNL     1     -49.984 -29.298   9.955 -0.01 +0.00    +0.285 C  
DOCKED: ENDBRANCH  14  15
DOCKED: ENDBRANCH  13  14
DOCKED: ENDBRANCH  12  13
DOCKED: ENDBRANCH   2  12
DOCKED: BRANCH   2  18
DOCKED: ATOM     18  C   UNL     1     -51.999 -33.486   9.024 -0.19 +0.00    +0.006 A  
DOCKED: ATOM     19  C   UNL     1     -53.363 -33.757   8.919 -0.18 +0.00    +0.001 A  
DOCKED: ATOM     20  C   UNL     1     -54.032 -34.380   9.973 -0.16 +0.00    +0.029 A  
DOCKED: ATOM     21  C   UNL     1     -53.338 -34.731  11.130 -0.01 +0.00    +0.140 A  
DOCKED: ATOM     22  C   UNL     1     -51.974 -34.460  11.234 -0.20 +0.00    +0.029 A  
DOCKED: ATOM     23  F   UNL     1     -53.980 -35.330  12.141 -0.03 -0.00    -0.204 F  
DOCKED: ATOM     24  C   UNL     1     -51.303 -33.836  10.181 -0.18 +0.00    +0.001 A  
DOCKED: ENDBRANCH   2  18
DOCKED: TORSDOF 5
DOCKED: TER
DOCKED: ENDMDL
________________________________________________________________________________


    FINAL DOCKED STATE:
    ________________________


Run:   23 / 512
Time taken for this run:   0.001s

DOCKED: MODEL        23
DOCKED: USER    Run = 23
DOCKED: USER
DOCKED: USER    Estimated Free Energy of Binding    =  -3.87 kcal/mol  [=(1)+(2)+(3)-(4)]
DOCKED: USER
DOCKED: USER    (1) Final Intermolecular Energy     =  -5.36 kcal/mol
DOCKED: USER        vdW + Hbond + desolv Energy     =  -5.36 kcal/mol
DOCKED: USER        Electrostatic Energy            =  +0.00 kcal/mol
DOCKED: USER        Moving Ligand-Fixed Receptor    =  -5.36 kcal/mol
DOCKED: USER        Moving Ligand-Moving Receptor   =  +0.00 kcal/mol
DOCKED: USER    (2) Final Total Internal Energy     =  -1.28 kcal/mol
DOCKED: USER    (3) Torsional Free Energy           =  +1.49 kcal/mol
DOCKED: USER    (4) Unbound System's Energy         =  -1.28 kcal/mol
DOCKED: USER
DOCKED: USER
DOCKED: REMARK  5 active torsions:
DOCKED: REMARK  status: ('A' for Active; 'I' for Inactive)
DOCKED: REMARK    1  A    between atoms: C_2  and  C_19 
DOCKED: REMARK    2  A    between atoms: C_2  and  C_11 
DOCKED: REMARK    3  A    between atoms: C_19  and  C_20 
DOCKED: REMARK    4  A    between atoms: C_20  and  C_21 
DOCKED: REMARK    5  A    between atoms: C_21  and  N_22 
DOCKED: USER                              x       y       z     vdW  Elec       q    Type
DOCKED: USER                           _______ _______ _______ _____ _____    ______ ____
DOCKED: ROOT
DOCKED: ATOM      1  O   UNL     1     -42.764 -32.742  -1.131 +0.00 -0.00    -0.346 OA 
DOCKED: ATOM      2  C   UNL     1     -43.657 -31.741  -0.546 -0.06 +0.00    +0.130 C  
DOCKED: ATOM      3  C   UNL     1     -44.366 -32.486   0.547 -0.10 +0.00    +0.004 A  
DOCKED: ATOM      4  C   UNL     1     -43.846 -33.769   0.651 -0.11 +0.00    +0.006 A  
DOCKED: ATOM      5  C   UNL     1     -42.764 -33.954  -0.341 -0.04 +0.00    +0.169 C  
DOCKED: ATOM      6  C   UNL     1     -45.383 -32.060   1.389 -0.17 -0.00    -0.001 A  
DOCKED: ATOM      7  C   UNL     1     -44.323 -34.665   1.592 -0.21 +0.00    +0.008 A  
DOCKED: ATOM      8  C   UNL     1     -45.877 -32.954   2.340 -0.29 +0.00    +0.010 A  
DOCKED: ATOM      9  C   UNL     1     -45.349 -34.250   2.441 -0.29 +0.00    +0.068 A  
DOCKED: ATOM     10  N   UNL     1     -46.287 -35.883   4.221 -2.68 -0.00    -0.191 NA 
DOCKED: ATOM     11  C   UNL     1     -45.867 -35.151   3.422 -0.38 +0.00    +0.101 C  
DOCKED: ENDROOT
DOCKED: BRANCH   2  12
DOCKED: ATOM     12  C   UNL     1     -42.811 -30.585  -0.025 -0.01 +0.00    +0.038 C  
DOCKED: BRANCH  12  13
DOCKED: ATOM     13  C   UNL     1     -41.439 -30.553  -0.694 -0.00 +0.00    +0.038 C  
DOCKED: BRANCH  13  14
DOCKED: ATOM     14  C   UNL     1     -41.160 -29.184  -1.311 -0.00 +0.00    +0.251 C  
DOCKED: BRANCH  14  15
DOCKED: ATOM     15  N   UNL     1     -41.007 -29.301  -2.757 +0.00 +0.00    +0.141 N  
DOCKED: ATOM     16  C   UNL     1     -39.721 -28.750  -3.185 +0.00 +0.00    +0.285 C  
DOCKED: ATOM     17  C   UNL     1     -41.125 -30.699  -3.176 +0.00 +0.00    +0.285 C  
DOCKED: ENDBRANCH  14  15
DOCKED: ENDBRANCH  13  14
DOCKED: ENDBRANCH  12  13
DOCKED: ENDBRANCH   2  12
DOCKED: BRANCH   2  18
DOCKED: ATOM     18  C   UNL     1     -44.575 -31.289  -1.632 -0.11 +0.00    +0.006 A  
DOCKED: ATOM     19  C   UNL     1     -45.516 -30.291  -1.379 -0.14 +0.00    +0.001 A  
DOCKED: ATOM     20  C   UNL     1     -46.375 -29.870  -2.395 -0.18 +0.00    +0.029 A  
DOCKED: ATOM     21  C   UNL     1     -46.291 -30.445  -3.662 -0.18 +0.00    +0.140 A  
DOCKED: ATOM     22  C   UNL     1     -45.349 -31.442  -3.915 -0.16 +0.00    +0.029 A  
DOCKED: ATOM     23  F   UNL     1     -47.114 -30.038  -4.638 -0.13 -0.00    -0.204 F  
DOCKED: ATOM     24  C   UNL     1     -44.491 -31.865  -2.899 -0.13 +0.00    +0.001 A  
DOCKED: ENDBRANCH   2  18
DOCKED: TORSDOF 5
DOCKED: TER
DOCKED: ENDMDL
________________________________________________________________________________


    FINAL DOCKED STATE:
    ________________________


Run:   24 / 512
Time taken for this run:   0.001s

DOCKED: MODEL        24
DOCKED: USER    Run = 24
DOCKED: USER
DOCKED: USER    Estimated Free Energy of Binding    =  -5.61 kcal/mol  [=(1)+(2)+(3)-(4)]
DOCKED: USER
DOCKED: USER    (1) Final Intermolecular Energy     =  -7.10 kcal/mol
DOCKED: USER        vdW + Hbond + desolv Energy     =  -7.10 kcal/mol
DOCKED: USER        Electrostatic Energy            =  +0.00 kcal/mol
DOCKED: USER        Moving Ligand-Fixed Receptor    =  -7.10 kcal/mol
DOCKED: USER        Moving Ligand-Moving Receptor   =  +0.00 kcal/mol
DOCKED: USER    (2) Final Total Internal Energy     =  -1.08 kcal/mol
DOCKED: USER    (3) Torsional Free Energy           =  +1.49 kcal/mol
DOCKED: USER    (4) Unbound System's Energy         =  -1.08 kcal/mol
DOCKED: USER
DOCKED: USER
DOCKED: REMARK  5 active torsions:
DOCKED: REMARK  status: ('A' for Active; 'I' for Inactive)
DOCKED: REMARK    1  A    between atoms: C_2  and  C_19 
DOCKED: REMARK    2  A    between atoms: C_2  and  C_11 
DOCKED: REMARK    3  A    between atoms: C_19  and  C_20 
DOCKED: REMARK    4  A    between atoms: C_20  and  C_21 
DOCKED: REMARK    5  A    between atoms: C_21  and  N_22 
DOCKED: USER                              x       y       z     vdW  Elec       q    Type
DOCKED: USER                           _______ _______ _______ _____ _____    ______ ____
DOCKED: ROOT
DOCKED: ATOM      1  O   UNL     1     -50.618 -34.179   8.244 -0.07 -0.00    -0.346 OA 
DOCKED: ATOM      2  C   UNL     1     -51.001 -32.792   7.979 -0.23 +0.00    +0.130 C  
DOCKED: ATOM      3  C   UNL     1     -51.645 -32.848   6.624 -0.32 +0.00    +0.004 A  
DOCKED: ATOM      4  C   UNL     1     -51.724 -34.166   6.199 -0.41 +0.00    +0.006 A  
DOCKED: ATOM      5  C   UNL     1     -51.159 -35.062   7.233 -0.23 +0.00    +0.169 C  
DOCKED: ATOM      6  C   UNL     1     -52.132 -31.815   5.836 -0.31 -0.00    -0.001 A  
DOCKED: ATOM      7  C   UNL     1     -52.285 -34.497   4.978 -0.47 +0.00    +0.008 A  
DOCKED: ATOM      8  C   UNL     1     -52.697 -32.132   4.600 +0.02 +0.00    +0.010 A  
DOCKED: ATOM      9  C   UNL     1     -52.773 -33.467   4.173 -0.39 +0.00    +0.068 A  
DOCKED: ATOM     10  N   UNL     1     -53.833 -34.021   1.874 -2.66 -0.00    -0.191 NA 
DOCKED: ATOM     11  C   UNL     1     -53.357 -33.772   2.905 -0.45 +0.00    +0.101 C  
DOCKED: ENDROOT
DOCKED: BRANCH   2  12
DOCKED: ATOM     12  C   UNL     1     -51.960 -32.338   9.074 -0.13 +0.00    +0.038 C  
DOCKED: BRANCH  12  13
DOCKED: ATOM     13  C   UNL     1     -51.820 -33.199  10.328 -0.15 +0.00    +0.038 C  
DOCKED: BRANCH  13  14
DOCKED: ATOM     14  C   UNL     1     -52.878 -34.299  10.361 -0.12 +0.00    +0.251 C  
DOCKED: BRANCH  14  15
DOCKED: ATOM     15  N   UNL     1     -53.102 -34.748  11.730 -0.14 +0.00    +0.141 N  
DOCKED: ATOM     16  C   UNL     1     -51.859 -35.251  12.317 -0.15 +0.00    +0.285 C  
DOCKED: ATOM     17  C   UNL     1     -53.645 -33.661  12.547 -0.03 +0.00    +0.285 C  
DOCKED: ENDBRANCH  14  15
DOCKED: ENDBRANCH  13  14
DOCKED: ENDBRANCH  12  13
DOCKED: ENDBRANCH   2  12
DOCKED: BRANCH   2  18
DOCKED: ATOM     18  C   UNL     1     -49.746 -31.983   7.994 -0.18 +0.00    +0.006 A  
DOCKED: ATOM     19  C   UNL     1     -49.786 -30.629   7.664 -0.15 +0.00    +0.001 A  
DOCKED: ATOM     20  C   UNL     1     -48.613 -29.875   7.678 -0.11 +0.00    +0.029 A  
DOCKED: ATOM     21  C   UNL     1     -47.402 -30.474   8.022 -0.09 +0.00    +0.140 A  
DOCKED: ATOM     22  C   UNL     1     -47.363 -31.829   8.352 -0.15 +0.00    +0.029 A  
DOCKED: ATOM     23  F   UNL     1     -46.276 -29.749   8.037 -0.01 -0.00    -0.204 F  
DOCKED: ATOM     24  C   UNL     1     -48.536 -32.585   8.338 -0.16 +0.00    +0.001 A  
DOCKED: ENDBRANCH   2  18
DOCKED: TORSDOF 5
DOCKED: TER
DOCKED: ENDMDL
________________________________________________________________________________


    FINAL DOCKED STATE:
    ________________________


Run:   25 / 512
Time taken for this run:   0.001s

DOCKED: MODEL        25
DOCKED: USER    Run = 25
DOCKED: USER
DOCKED: USER    Estimated Free Energy of Binding    =  -4.04 kcal/mol  [=(1)+(2)+(3)-(4)]
DOCKED: USER
DOCKED: USER    (1) Final Intermolecular Energy     =  -5.53 kcal/mol
DOCKED: USER        vdW + Hbond + desolv Energy     =  -5.53 kcal/mol
DOCKED: USER        Electrostatic Energy            =  +0.00 kcal/mol
DOCKED: USER        Moving Ligand-Fixed Receptor    =  -5.53 kcal/mol
DOCKED: USER        Moving Ligand-Moving Receptor   =  +0.00 kcal/mol
DOCKED: USER    (2) Final Total Internal Energy     =  -0.97 kcal/mol
DOCKED: USER    (3) Torsional Free Energy           =  +1.49 kcal/mol
DOCKED: USER    (4) Unbound System's Energy         =  -0.97 kcal/mol
DOCKED: USER
DOCKED: USER
DOCKED: REMARK  5 active torsions:
DOCKED: REMARK  status: ('A' for Active; 'I' for Inactive)
DOCKED: REMARK    1  A    between atoms: C_2  and  C_19 
DOCKED: REMARK    2  A    between atoms: C_2  and  C_11 
DOCKED: REMARK    3  A    between atoms: C_19  and  C_20 
DOCKED: REMARK    4  A    between atoms: C_20  and  C_21 
DOCKED: REMARK    5  A    between atoms: C_21  and  N_22 
DOCKED: USER                              x       y       z     vdW  Elec       q    Type
DOCKED: USER                           _______ _______ _______ _____ _____    ______ ____
DOCKED: ROOT
DOCKED: ATOM      1  O   UNL     1     -50.006 -30.711   9.600 -0.02 -0.00    -0.346 OA 
DOCKED: ATOM      2  C   UNL     1     -50.457 -29.970   8.421 -0.09 +0.00    +0.130 C  
DOCKED: ATOM      3  C   UNL     1     -51.137 -31.011   7.580 -0.19 +0.00    +0.004 A  
DOCKED: ATOM      4  C   UNL     1     -51.169 -32.217   8.266 -0.19 +0.00    +0.006 A  
DOCKED: ATOM      5  C   UNL     1     -50.535 -32.057   9.594 -0.09 +0.00    +0.169 C  
DOCKED: ATOM      6  C   UNL     1     -51.692 -30.897   6.314 -0.26 -0.00    -0.001 A  
DOCKED: ATOM      7  C   UNL     1     -51.750 -33.345   7.713 -0.27 +0.00    +0.008 A  
DOCKED: ATOM      8  C   UNL     1     -52.278 -32.027   5.741 -0.34 +0.00    +0.010 A  
DOCKED: ATOM      9  C   UNL     1     -52.307 -33.245   6.437 -0.30 +0.00    +0.068 A  
DOCKED: ATOM     10  N   UNL     1     -53.406 -35.322   5.345 -2.51 -0.00    -0.191 NA 
DOCKED: ATOM     11  C   UNL     1     -52.913 -34.390   5.835 -0.36 +0.00    +0.101 C  
DOCKED: ENDROOT
DOCKED: BRANCH   2  12
DOCKED: ATOM     12  C   UNL     1     -51.403 -28.866   8.879 -0.05 +0.00    +0.038 C  
DOCKED: BRANCH  12  13
DOCKED: ATOM     13  C   UNL     1     -52.280 -28.372   7.729 -0.12 +0.00    +0.038 C  
DOCKED: BRANCH  13  14
DOCKED: ATOM     14  C   UNL     1     -53.576 -27.756   8.252 -0.04 +0.00    +0.251 C  
DOCKED: BRANCH  14  15
DOCKED: ATOM     15  N   UNL     1     -54.523 -27.563   7.161 -0.13 +0.00    +0.141 N  
DOCKED: ATOM     16  C   UNL     1     -53.910 -26.796   6.075 -0.12 +0.00    +0.285 C  
DOCKED: ATOM     17  C   UNL     1     -55.004 -28.853   6.662 -0.14 +0.00    +0.285 C  
DOCKED: ENDBRANCH  14  15
DOCKED: ENDBRANCH  13  14
DOCKED: ENDBRANCH  12  13
DOCKED: ENDBRANCH   2  12
DOCKED: BRANCH   2  18
DOCKED: ATOM     18  C   UNL     1     -49.240 -29.401   7.772 -0.11 +0.00    +0.006 A  
DOCKED: ATOM     19  C   UNL     1     -49.097 -28.019   7.649 -0.06 +0.00    +0.001 A  
DOCKED: ATOM     20  C   UNL     1     -47.959 -27.489   7.041 -0.04 +0.00    +0.029 A  
DOCKED: ATOM     21  C   UNL     1     -46.966 -28.339   6.557 -0.05 +0.00    +0.140 A  
DOCKED: ATOM     22  C   UNL     1     -47.110 -29.721   6.680 -0.07 +0.00    +0.029 A  
DOCKED: ATOM     23  F   UNL     1     -45.873 -27.829   5.975 -0.00 -0.00    -0.204 F  
DOCKED: ATOM     24  C   UNL     1     -48.248 -30.253   7.288 +0.04 +0.00    +0.001 A  
DOCKED: ENDBRANCH   2  18
DOCKED: TORSDOF 5
DOCKED: TER
DOCKED: ENDMDL
________________________________________________________________________________


    FINAL DOCKED STATE:
    ________________________


Run:   26 / 512
Time taken for this run:   0.001s

DOCKED: MODEL        26
DOCKED: USER    Run = 26
DOCKED: USER
DOCKED: USER    Estimated Free Energy of Binding    =  -3.52 kcal/mol  [=(1)+(2)+(3)-(4)]
DOCKED: USER
DOCKED: USER    (1) Final Intermolecular Energy     =  -5.01 kcal/mol
DOCKED: USER        vdW + Hbond + desolv Energy     =  -5.01 kcal/mol
DOCKED: USER        Electrostatic Energy            =  +0.00 kcal/mol
DOCKED: USER        Moving Ligand-Fixed Receptor    =  -5.01 kcal/mol
DOCKED: USER        Moving Ligand-Moving Receptor   =  +0.00 kcal/mol
DOCKED: USER    (2) Final Total Internal Energy     =  -1.50 kcal/mol
DOCKED: USER    (3) Torsional Free Energy           =  +1.49 kcal/mol
DOCKED: USER    (4) Unbound System's Energy         =  -1.50 kcal/mol
DOCKED: USER
DOCKED: USER
DOCKED: REMARK  5 active torsions:
DOCKED: REMARK  status: ('A' for Active; 'I' for Inactive)
DOCKED: REMARK    1  A    between atoms: C_2  and  C_19 
DOCKED: REMARK    2  A    between atoms: C_2  and  C_11 
DOCKED: REMARK    3  A    between atoms: C_19  and  C_20 
DOCKED: REMARK    4  A    between atoms: C_20  and  C_21 
DOCKED: REMARK    5  A    between atoms: C_21  and  N_22 
DOCKED: USER                              x       y       z     vdW  Elec       q    Type
DOCKED: USER                           _______ _______ _______ _____ _____    ______ ____
DOCKED: ROOT
DOCKED: ATOM      1  O   UNL     1     -45.789 -29.407   0.960 +0.01 -0.00    -0.346 OA 
DOCKED: ATOM      2  C   UNL     1     -45.070 -30.339   0.091 -0.08 +0.00    +0.130 C  
DOCKED: ATOM      3  C   UNL     1     -45.208 -31.661   0.789 -0.14 +0.00    +0.004 A  
DOCKED: ATOM      4  C   UNL     1     -46.026 -31.519   1.901 -0.22 +0.00    +0.006 A  
DOCKED: ATOM      5  C   UNL     1     -46.490 -30.117   2.007 -0.15 +0.00    +0.169 C  
DOCKED: ATOM      6  C   UNL     1     -44.661 -32.893   0.461 -0.13 -0.00    -0.001 A  
DOCKED: ATOM      7  C   UNL     1     -46.321 -32.595   2.720 -0.28 +0.00    +0.008 A  
DOCKED: ATOM      8  C   UNL     1     -44.947 -33.987   1.279 -0.21 +0.00    +0.010 A  
DOCKED: ATOM      9  C   UNL     1     -45.773 -33.838   2.403 -0.30 +0.00    +0.068 A  
DOCKED: ATOM     10  N   UNL     1     -46.286 -35.890   3.899 -2.57 -0.00    -0.191 NA 
DOCKED: ATOM     11  C   UNL     1     -46.055 -34.970   3.229 -0.38 +0.00    +0.101 C  
DOCKED: ENDROOT
DOCKED: BRANCH   2  12
DOCKED: ATOM     12  C   UNL     1     -45.729 -30.323  -1.284 -0.15 +0.00    +0.038 C  
DOCKED: BRANCH  12  13
DOCKED: ATOM     13  C   UNL     1     -47.010 -29.492  -1.277 -0.18 +0.00    +0.038 C  
DOCKED: BRANCH  13  14
DOCKED: ATOM     14  C   UNL     1     -46.788 -28.134  -1.941 -0.14 +0.00    +0.251 C  
DOCKED: BRANCH  14  15
DOCKED: ATOM     15  N   UNL     1     -45.554 -27.528  -1.455 -0.03 +0.00    +0.141 N  
DOCKED: ATOM     16  C   UNL     1     -44.594 -27.365  -2.547 -0.00 +0.00    +0.285 C  
DOCKED: ATOM     17  C   UNL     1     -45.828 -26.236  -0.824 -0.01 +0.00    +0.285 C  
DOCKED: ENDBRANCH  14  15
DOCKED: ENDBRANCH  13  14
DOCKED: ENDBRANCH  12  13
DOCKED: ENDBRANCH   2  12
DOCKED: BRANCH   2  18
DOCKED: ATOM     18  C   UNL     1     -43.657 -29.865   0.016 -0.02 +0.00    +0.006 A  
DOCKED: ATOM     19  C   UNL     1     -43.055 -29.291   1.135 -0.01 +0.00    +0.001 A  
DOCKED: ATOM     20  C   UNL     1     -41.734 -28.848   1.064 -0.00 +0.00    +0.029 A  
DOCKED: ATOM     21  C   UNL     1     -41.017 -28.979  -0.125 +0.00 +0.00    +0.140 A  
DOCKED: ATOM     22  C   UNL     1     -41.620 -29.553  -1.243 -0.00 +0.00    +0.029 A  
DOCKED: ATOM     23  F   UNL     1     -39.749 -28.555  -0.192 +0.00 -0.00    -0.204 F  
DOCKED: ATOM     24  C   UNL     1     -42.942 -29.996  -1.174 -0.01 +0.00    +0.001 A  
DOCKED: ENDBRANCH   2  18
DOCKED: TORSDOF 5
DOCKED: TER
DOCKED: ENDMDL
________________________________________________________________________________


    FINAL DOCKED STATE:
    ________________________


Run:   27 / 512
Time taken for this run:   0.001s

DOCKED: MODEL        27
DOCKED: USER    Run = 27
DOCKED: USER
DOCKED: USER    Estimated Free Energy of Binding    =  -3.78 kcal/mol  [=(1)+(2)+(3)-(4)]
DOCKED: USER
DOCKED: USER    (1) Final Intermolecular Energy     =  -5.27 kcal/mol
DOCKED: USER        vdW + Hbond + desolv Energy     =  -5.27 kcal/mol
DOCKED: USER        Electrostatic Energy            =  +0.00 kcal/mol
DOCKED: USER        Moving Ligand-Fixed Receptor    =  -5.27 kcal/mol
DOCKED: USER        Moving Ligand-Moving Receptor   =  +0.00 kcal/mol
DOCKED: USER    (2) Final Total Internal Energy     =  -1.03 kcal/mol
DOCKED: USER    (3) Torsional Free Energy           =  +1.49 kcal/mol
DOCKED: USER    (4) Unbound System's Energy         =  -1.03 kcal/mol
DOCKED: USER
DOCKED: USER
DOCKED: REMARK  5 active torsions:
DOCKED: REMARK  status: ('A' for Active; 'I' for Inactive)
DOCKED: REMARK    1  A    between atoms: C_2  and  C_19 
DOCKED: REMARK    2  A    between atoms: C_2  and  C_11 
DOCKED: REMARK    3  A    between atoms: C_19  and  C_20 
DOCKED: REMARK    4  A    between atoms: C_20  and  C_21 
DOCKED: REMARK    5  A    between atoms: C_21  and  N_22 
DOCKED: USER                              x       y       z     vdW  Elec       q    Type
DOCKED: USER                           _______ _______ _______ _____ _____    ______ ____
DOCKED: ROOT
DOCKED: ATOM      1  O   UNL     1     -45.581 -29.000   2.205 -0.00 -0.00    -0.346 OA 
DOCKED: ATOM      2  C   UNL     1     -45.556 -29.768   0.960 -0.08 +0.00    +0.130 C  
DOCKED: ATOM      3  C   UNL     1     -45.688 -31.193   1.414 -0.16 +0.00    +0.004 A  
DOCKED: ATOM      4  C   UNL     1     -45.882 -31.230   2.787 -0.19 +0.00    +0.006 A  
DOCKED: ATOM      5  C   UNL     1     -45.905 -29.853   3.328 -0.10 +0.00    +0.169 C  
DOCKED: ATOM      6  C   UNL     1     -45.650 -32.363   0.669 -0.13 -0.00    -0.001 A  
DOCKED: ATOM      7  C   UNL     1     -46.040 -32.429   3.461 -0.12 +0.00    +0.008 A  
DOCKED: ATOM      8  C   UNL     1     -45.803 -33.581   1.334 -0.27 +0.00    +0.010 A  
DOCKED: ATOM      9  C   UNL     1     -45.997 -33.613   2.723 -0.29 +0.00    +0.068 A  
DOCKED: ATOM     10  N   UNL     1     -46.283 -35.890   3.926 -2.58 -0.00    -0.191 NA 
DOCKED: ATOM     11  C   UNL     1     -46.155 -34.869   3.387 -0.30 +0.00    +0.101 C  
DOCKED: ENDROOT
DOCKED: BRANCH   2  12
DOCKED: ATOM     12  C   UNL     1     -46.721 -29.313   0.089 -0.18 +0.00    +0.038 C  
DOCKED: BRANCH  12  13
DOCKED: ATOM     13  C   UNL     1     -46.609 -29.871  -1.328 -0.16 +0.00    +0.038 C  
DOCKED: BRANCH  13  14
DOCKED: ATOM     14  C   UNL     1     -47.003 -28.820  -2.365 -0.19 +0.00    +0.251 C  
DOCKED: BRANCH  14  15
DOCKED: ATOM     15  N   UNL     1     -46.282 -29.044  -3.613 -0.16 +0.00    +0.141 N  
DOCKED: ATOM     16  C   UNL     1     -47.015 -29.975  -4.472 -0.22 +0.00    +0.285 C  
DOCKED: ATOM     17  C   UNL     1     -46.057 -27.778  -4.312 -0.08 +0.00    +0.285 C  
DOCKED: ENDBRANCH  14  15
DOCKED: ENDBRANCH  13  14
DOCKED: ENDBRANCH  12  13
DOCKED: ENDBRANCH   2  12
DOCKED: BRANCH   2  18
DOCKED: ATOM     18  C   UNL     1     -44.248 -29.486   0.299 -0.03 +0.00    +0.006 A  
DOCKED: ATOM     19  C   UNL     1     -44.056 -28.285  -0.381 -0.01 +0.00    +0.001 A  
DOCKED: ATOM     20  C   UNL     1     -42.832 -28.023  -0.998 -0.00 +0.00    +0.029 A  
DOCKED: ATOM     21  C   UNL     1     -41.804 -28.962  -0.935 -0.00 +0.00    +0.140 A  
DOCKED: ATOM     22  C   UNL     1     -41.997 -30.163  -0.254 -0.00 +0.00    +0.029 A  
DOCKED: ATOM     23  F   UNL     1     -40.629 -28.709  -1.526 +0.00 -0.00    -0.204 F  
DOCKED: ATOM     24  C   UNL     1     -43.221 -30.427   0.364 -0.02 +0.00    +0.001 A  
DOCKED: ENDBRANCH   2  18
DOCKED: TORSDOF 5
DOCKED: TER
DOCKED: ENDMDL
________________________________________________________________________________


    FINAL DOCKED STATE:
    ________________________


Run:   28 / 512
Time taken for this run:   0.001s

DOCKED: MODEL        28
DOCKED: USER    Run = 28
DOCKED: USER
DOCKED: USER    Estimated Free Energy of Binding    =  -4.00 kcal/mol  [=(1)+(2)+(3)-(4)]
DOCKED: USER
DOCKED: USER    (1) Final Intermolecular Energy     =  -5.49 kcal/mol
DOCKED: USER        vdW + Hbond + desolv Energy     =  -5.49 kcal/mol
DOCKED: USER        Electrostatic Energy            =  +0.00 kcal/mol
DOCKED: USER        Moving Ligand-Fixed Receptor    =  -5.49 kcal/mol
DOCKED: USER        Moving Ligand-Moving Receptor   =  +0.00 kcal/mol
DOCKED: USER    (2) Final Total Internal Energy     =  -1.22 kcal/mol
DOCKED: USER    (3) Torsional Free Energy           =  +1.49 kcal/mol
DOCKED: USER    (4) Unbound System's Energy         =  -1.22 kcal/mol
DOCKED: USER
DOCKED: USER
DOCKED: REMARK  5 active torsions:
DOCKED: REMARK  status: ('A' for Active; 'I' for Inactive)
DOCKED: REMARK    1  A    between atoms: C_2  and  C_19 
DOCKED: REMARK    2  A    between atoms: C_2  and  C_11 
DOCKED: REMARK    3  A    between atoms: C_19  and  C_20 
DOCKED: REMARK    4  A    between atoms: C_20  and  C_21 
DOCKED: REMARK    5  A    between atoms: C_21  and  N_22 
DOCKED: USER                              x       y       z     vdW  Elec       q    Type
DOCKED: USER                           _______ _______ _______ _____ _____    ______ ____
DOCKED: ROOT
DOCKED: ATOM      1  O   UNL     1     -54.123 -32.973   9.819 -0.01 -0.00    -0.346 OA 
DOCKED: ATOM      2  C   UNL     1     -52.700 -32.719   9.590 -0.09 +0.00    +0.130 C  
DOCKED: ATOM      3  C   UNL     1     -52.481 -33.152   8.169 -0.19 +0.00    +0.004 A  
DOCKED: ATOM      4  C   UNL     1     -53.693 -33.518   7.601 -0.21 +0.00    +0.006 A  
DOCKED: ATOM      5  C   UNL     1     -54.784 -33.342   8.586 -0.11 +0.00    +0.169 C  
DOCKED: ATOM      6  C   UNL     1     -51.305 -33.208   7.436 -0.31 -0.00    -0.001 A  
DOCKED: ATOM      7  C   UNL     1     -53.772 -33.953   6.289 -0.31 +0.00    +0.008 A  
DOCKED: ATOM      8  C   UNL     1     -51.367 -33.649   6.113 -0.30 +0.00    +0.010 A  
DOCKED: ATOM      9  C   UNL     1     -52.594 -34.019   5.542 -0.38 +0.00    +0.068 A  
DOCKED: ATOM     10  N   UNL     1     -52.674 -34.827   3.082 -1.46 -0.00    -0.191 NA 
DOCKED: ATOM     11  C   UNL     1     -52.638 -34.465   4.186 -0.50 +0.00    +0.101 C  
DOCKED: ENDROOT
DOCKED: BRANCH   2  12
DOCKED: ATOM     12  C   UNL     1     -52.435 -31.234   9.805 -0.06 +0.00    +0.038 C  
DOCKED: BRANCH  12  13
DOCKED: ATOM     13  C   UNL     1     -53.503 -30.374   9.133 -0.06 +0.00    +0.038 C  
DOCKED: BRANCH  13  14
DOCKED: ATOM     14  C   UNL     1     -52.893 -29.109   8.531 -0.04 +0.00    +0.251 C  
DOCKED: BRANCH  14  15
DOCKED: ATOM     15  N   UNL     1     -52.885 -29.193   7.076 -0.16 +0.00    +0.141 N  
DOCKED: ATOM     16  C   UNL     1     -53.623 -30.373   6.623 -0.12 +0.00    +0.285 C  
DOCKED: ATOM     17  C   UNL     1     -53.455 -27.980   6.486 -0.15 +0.00    +0.285 C  
DOCKED: ENDBRANCH  14  15
DOCKED: ENDBRANCH  13  14
DOCKED: ENDBRANCH  12  13
DOCKED: ENDBRANCH   2  12
DOCKED: BRANCH   2  18
DOCKED: ATOM     18  C   UNL     1     -51.945 -33.549  10.574 -0.15 +0.00    +0.006 A  
DOCKED: ATOM     19  C   UNL     1     -50.663 -33.169  10.967 -0.13 +0.00    +0.001 A  
DOCKED: ATOM     20  C   UNL     1     -49.958 -33.946  11.887 -0.15 +0.00    +0.029 A  
DOCKED: ATOM     21  C   UNL     1     -50.536 -35.100  12.413 -0.17 +0.00    +0.140 A  
DOCKED: ATOM     22  C   UNL     1     -51.819 -35.480  12.019 -0.21 +0.00    +0.029 A  
DOCKED: ATOM     23  F   UNL     1     -49.860 -35.845  13.297 -0.05 -0.00    -0.204 F  
DOCKED: ATOM     24  C   UNL     1     -52.525 -34.703  11.099 -0.17 +0.00    +0.001 A  
DOCKED: ENDBRANCH   2  18
DOCKED: TORSDOF 5
DOCKED: TER
DOCKED: ENDMDL
________________________________________________________________________________


    FINAL DOCKED STATE:
    ________________________


Run:   29 / 512
Time taken for this run:   0.001s

DOCKED: MODEL        29
DOCKED: USER    Run = 29
DOCKED: USER
DOCKED: USER    Estimated Free Energy of Binding    =  -4.92 kcal/mol  [=(1)+(2)+(3)-(4)]
DOCKED: USER
DOCKED: USER    (1) Final Intermolecular Energy     =  -6.41 kcal/mol
DOCKED: USER        vdW + Hbond + desolv Energy     =  -6.41 kcal/mol
DOCKED: USER        Electrostatic Energy            =  +0.00 kcal/mol
DOCKED: USER        Moving Ligand-Fixed Receptor    =  -6.41 kcal/mol
DOCKED: USER        Moving Ligand-Moving Receptor   =  +0.00 kcal/mol
DOCKED: USER    (2) Final Total Internal Energy     =  -0.92 kcal/mol
DOCKED: USER    (3) Torsional Free Energy           =  +1.49 kcal/mol
DOCKED: USER    (4) Unbound System's Energy         =  -0.92 kcal/mol
DOCKED: USER
DOCKED: USER
DOCKED: REMARK  5 active torsions:
DOCKED: REMARK  status: ('A' for Active; 'I' for Inactive)
DOCKED: REMARK    1  A    between atoms: C_2  and  C_19 
DOCKED: REMARK    2  A    between atoms: C_2  and  C_11 
DOCKED: REMARK    3  A    between atoms: C_19  and  C_20 
DOCKED: REMARK    4  A    between atoms: C_20  and  C_21 
DOCKED: REMARK    5  A    between atoms: C_21  and  N_22 
DOCKED: USER                              x       y       z     vdW  Elec       q    Type
DOCKED: USER                           _______ _______ _______ _____ _____    ______ ____
DOCKED: ROOT
DOCKED: ATOM      1  O   UNL     1     -52.443 -31.050   8.356 -0.02 -0.00    -0.346 OA 
DOCKED: ATOM      2  C   UNL     1     -51.538 -32.198   8.288 -0.16 +0.00    +0.130 C  
DOCKED: ATOM      3  C   UNL     1     -51.901 -32.866   6.994 -0.30 +0.00    +0.004 A  
DOCKED: ATOM      4  C   UNL     1     -52.852 -32.106   6.327 -0.30 +0.00    +0.006 A  
DOCKED: ATOM      5  C   UNL     1     -53.170 -30.895   7.115 -0.18 +0.00    +0.169 C  
DOCKED: ATOM      6  C   UNL     1     -51.420 -34.045   6.445 -0.40 -0.00    -0.001 A  
DOCKED: ATOM      7  C   UNL     1     -53.355 -32.498   5.098 -0.19 +0.00    +0.008 A  
DOCKED: ATOM      8  C   UNL     1     -51.921 -34.457   5.208 -0.36 +0.00    +0.010 A  
DOCKED: ATOM      9  C   UNL     1     -52.883 -33.686   4.538 -0.42 +0.00    +0.068 A  
DOCKED: ATOM     10  N   UNL     1     -53.788 -34.476   2.242 -2.02 -0.00    -0.191 NA 
DOCKED: ATOM     11  C   UNL     1     -53.383 -34.122   3.272 -0.52 +0.00    +0.101 C  
DOCKED: ENDROOT
DOCKED: BRANCH   2  12
DOCKED: ATOM     12  C   UNL     1     -50.104 -31.683   8.309 -0.20 +0.00    +0.038 C  
DOCKED: BRANCH  12  13
DOCKED: ATOM     13  C   UNL     1     -49.099 -32.831   8.224 -0.13 +0.00    +0.038 C  
DOCKED: BRANCH  13  14
DOCKED: ATOM     14  C   UNL     1     -47.670 -32.325   8.407 -0.12 +0.00    +0.251 C  
DOCKED: BRANCH  14  15
DOCKED: ATOM     15  N   UNL     1     -46.831 -33.370   8.981 -0.12 +0.00    +0.141 N  
DOCKED: ATOM     16  C   UNL     1     -45.528 -33.410   8.316 -0.12 +0.00    +0.285 C  
DOCKED: ATOM     17  C   UNL     1     -46.661 -33.162  10.420 -0.07 +0.00    +0.285 C  
DOCKED: ENDBRANCH  14  15
DOCKED: ENDBRANCH  13  14
DOCKED: ENDBRANCH  12  13
DOCKED: ENDBRANCH   2  12
DOCKED: BRANCH   2  18
DOCKED: ATOM     18  C   UNL     1     -51.823 -33.048   9.481 -0.15 +0.00    +0.006 A  
DOCKED: ATOM     19  C   UNL     1     -51.003 -32.967  10.606 -0.12 +0.00    +0.001 A  
DOCKED: ATOM     20  C   UNL     1     -51.269 -33.763  11.720 -0.14 +0.00    +0.029 A  
DOCKED: ATOM     21  C   UNL     1     -52.355 -34.638  11.709 -0.14 +0.00    +0.140 A  
DOCKED: ATOM     22  C   UNL     1     -53.174 -34.719  10.584 -0.02 +0.00    +0.029 A  
DOCKED: ATOM     23  F   UNL     1     -52.611 -35.401  12.780 -0.04 -0.00    -0.204 F  
DOCKED: ATOM     24  C   UNL     1     -52.908 -33.923   9.468 -0.20 +0.00    +0.001 A  
DOCKED: ENDBRANCH   2  18
DOCKED: TORSDOF 5
DOCKED: TER
DOCKED: ENDMDL
________________________________________________________________________________


    FINAL DOCKED STATE:
    ________________________


Run:   30 / 512
Time taken for this run:   0.001s

DOCKED: MODEL        30
DOCKED: USER    Run = 30
DOCKED: USER
DOCKED: USER    Estimated Free Energy of Binding    =  -4.56 kcal/mol  [=(1)+(2)+(3)-(4)]
DOCKED: USER
DOCKED: USER    (1) Final Intermolecular Energy     =  -6.05 kcal/mol
DOCKED: USER        vdW + Hbond + desolv Energy     =  -6.05 kcal/mol
DOCKED: USER        Electrostatic Energy            =  +0.00 kcal/mol
DOCKED: USER        Moving Ligand-Fixed Receptor    =  -6.05 kcal/mol
DOCKED: USER        Moving Ligand-Moving Receptor   =  +0.00 kcal/mol
DOCKED: USER    (2) Final Total Internal Energy     =  -1.24 kcal/mol
DOCKED: USER    (3) Torsional Free Energy           =  +1.49 kcal/mol
DOCKED: USER    (4) Unbound System's Energy         =  -1.24 kcal/mol
DOCKED: USER
DOCKED: USER
DOCKED: REMARK  5 active torsions:
DOCKED: REMARK  status: ('A' for Active; 'I' for Inactive)
DOCKED: REMARK    1  A    between atoms: C_2  and  C_19 
DOCKED: REMARK    2  A    between atoms: C_2  and  C_11 
DOCKED: REMARK    3  A    between atoms: C_19  and  C_20 
DOCKED: REMARK    4  A    between atoms: C_20  and  C_21 
DOCKED: REMARK    5  A    between atoms: C_21  and  N_22 
DOCKED: USER                              x       y       z     vdW  Elec       q    Type
DOCKED: USER                           _______ _______ _______ _____ _____    ______ ____
DOCKED: ROOT
DOCKED: ATOM      1  O   UNL     1     -46.593 -24.400  -0.151 -0.04 -0.00    -0.346 OA 
DOCKED: ATOM      2  C   UNL     1     -47.941 -24.931   0.055 -0.15 +0.00    +0.130 C  
DOCKED: ATOM      3  C   UNL     1     -48.752 -24.288  -1.033 -0.25 +0.00    +0.004 A  
DOCKED: ATOM      4  C   UNL     1     -47.920 -23.543  -1.857 -0.21 +0.00    +0.006 A  
DOCKED: ATOM      5  C   UNL     1     -46.521 -23.649  -1.386 -0.10 +0.00    +0.169 C  
DOCKED: ATOM      6  C   UNL     1     -50.114 -24.366  -1.281 -0.13 -0.00    -0.001 A  
DOCKED: ATOM      7  C   UNL     1     -48.418 -22.851  -2.947 -0.28 +0.00    +0.008 A  
DOCKED: ATOM      8  C   UNL     1     -50.633 -23.670  -2.374 -0.16 +0.00    +0.010 A  
DOCKED: ATOM      9  C   UNL     1     -49.788 -22.916  -3.203 -0.34 +0.00    +0.068 A  
DOCKED: ATOM     10  N   UNL     1     -50.782 -21.640  -5.227 -2.40 -0.00    -0.191 NA 
DOCKED: ATOM     11  C   UNL     1     -50.336 -22.212  -4.319 -0.35 +0.00    +0.101 C  
DOCKED: ENDROOT
DOCKED: BRANCH   2  12
DOCKED: ATOM     12  C   UNL     1     -47.886 -26.449  -0.064 -0.15 +0.00    +0.038 C  
DOCKED: BRANCH  12  13
DOCKED: ATOM     13  C   UNL     1     -46.626 -27.014   0.589 -0.06 +0.00    +0.038 C  
DOCKED: BRANCH  13  14
DOCKED: ATOM     14  C   UNL     1     -46.932 -28.302   1.350 -0.06 +0.00    +0.251 C  
DOCKED: BRANCH  14  15
DOCKED: ATOM     15  N   UNL     1     -48.326 -28.322   1.775 -0.14 +0.00    +0.141 N  
DOCKED: ATOM     16  C   UNL     1     -48.944 -29.611   1.460 -0.23 +0.00    +0.285 C  
DOCKED: ATOM     17  C   UNL     1     -48.433 -28.044   3.208 -0.10 +0.00    +0.285 C  
DOCKED: ENDBRANCH  14  15
DOCKED: ENDBRANCH  13  14
DOCKED: ENDBRANCH  12  13
DOCKED: ENDBRANCH   2  12
DOCKED: BRANCH   2  18
DOCKED: ATOM     18  C   UNL     1     -48.369 -24.514   1.423 -0.18 +0.00    +0.006 A  
DOCKED: ATOM     19  C   UNL     1     -49.676 -24.753   1.847 -0.23 +0.00    +0.001 A  
DOCKED: ATOM     20  C   UNL     1     -50.075 -24.362   3.126 -0.18 +0.00    +0.029 A  
DOCKED: ATOM     21  C   UNL     1     -49.168 -23.734   3.978 -0.13 +0.00    +0.140 A  
DOCKED: ATOM     22  C   UNL     1     -47.861 -23.495   3.553 -0.06 +0.00    +0.029 A  
DOCKED: ATOM     23  F   UNL     1     -49.551 -23.361   5.206 -0.02 -0.00    -0.204 F  
DOCKED: ATOM     24  C   UNL     1     -47.461 -23.885   2.274 -0.11 +0.00    +0.001 A  
DOCKED: ENDBRANCH   2  18
DOCKED: TORSDOF 5
DOCKED: TER
DOCKED: ENDMDL
________________________________________________________________________________


    FINAL DOCKED STATE:
    ________________________


Run:   31 / 512
Time taken for this run:   0.001s

DOCKED: MODEL        31
DOCKED: USER    Run = 31
DOCKED: USER
DOCKED: USER    Estimated Free Energy of Binding    =  -3.97 kcal/mol  [=(1)+(2)+(3)-(4)]
DOCKED: USER
DOCKED: USER    (1) Final Intermolecular Energy     =  -5.46 kcal/mol
DOCKED: USER        vdW + Hbond + desolv Energy     =  -5.46 kcal/mol
DOCKED: USER        Electrostatic Energy            =  +0.00 kcal/mol
DOCKED: USER        Moving Ligand-Fixed Receptor    =  -5.46 kcal/mol
DOCKED: USER        Moving Ligand-Moving Receptor   =  +0.00 kcal/mol
DOCKED: USER    (2) Final Total Internal Energy     =  -1.22 kcal/mol
DOCKED: USER    (3) Torsional Free Energy           =  +1.49 kcal/mol
DOCKED: USER    (4) Unbound System's Energy         =  -1.22 kcal/mol
DOCKED: USER
DOCKED: USER
DOCKED: REMARK  5 active torsions:
DOCKED: REMARK  status: ('A' for Active; 'I' for Inactive)
DOCKED: REMARK    1  A    between atoms: C_2  and  C_19 
DOCKED: REMARK    2  A    between atoms: C_2  and  C_11 
DOCKED: REMARK    3  A    between atoms: C_19  and  C_20 
DOCKED: REMARK    4  A    between atoms: C_20  and  C_21 
DOCKED: REMARK    5  A    between atoms: C_21  and  N_22 
DOCKED: USER                              x       y       z     vdW  Elec       q    Type
DOCKED: USER                           _______ _______ _______ _____ _____    ______ ____
DOCKED: ROOT
DOCKED: ATOM      1  O   UNL     1     -49.527 -30.923   8.571 -0.06 -0.00    -0.346 OA 
DOCKED: ATOM      2  C   UNL     1     -50.778 -30.233   8.256 -0.11 +0.00    +0.130 C  
DOCKED: ATOM      3  C   UNL     1     -51.568 -31.254   7.490 -0.21 +0.00    +0.004 A  
DOCKED: ATOM      4  C   UNL     1     -50.877 -32.456   7.464 -0.26 +0.00    +0.006 A  
DOCKED: ATOM      5  C   UNL     1     -49.606 -32.321   8.211 -0.17 +0.00    +0.169 C  
DOCKED: ATOM      6  C   UNL     1     -52.806 -31.131   6.874 -0.25 -0.00    -0.001 A  
DOCKED: ATOM      7  C   UNL     1     -51.392 -33.570   6.823 -0.35 +0.00    +0.008 A  
DOCKED: ATOM      8  C   UNL     1     -53.336 -32.244   6.220 -0.29 +0.00    +0.010 A  
DOCKED: ATOM      9  C   UNL     1     -52.633 -33.457   6.195 -0.31 +0.00    +0.068 A  
DOCKED: ATOM     10  N   UNL     1     -53.649 -35.505   4.975 -2.37 -0.00    -0.191 NA 
DOCKED: ATOM     11  C   UNL     1     -53.193 -34.586   5.522 -0.35 +0.00    +0.101 C  
DOCKED: ENDROOT
DOCKED: BRANCH   2  12
DOCKED: ATOM     12  C   UNL     1     -51.447 -29.825   9.564 -0.04 +0.00    +0.038 C  
DOCKED: BRANCH  12  13
DOCKED: ATOM     13  C   UNL     1     -50.430 -29.270  10.560 -0.01 +0.00    +0.038 C  
DOCKED: BRANCH  13  14
DOCKED: ATOM     14  C   UNL     1     -49.757 -30.396  11.342 -0.01 +0.00    +0.251 C  
DOCKED: BRANCH  14  15
DOCKED: ATOM     15  N   UNL     1     -50.667 -31.526  11.488 -0.02 +0.00    +0.141 N  
DOCKED: ATOM     16  C   UNL     1     -49.954 -32.700  11.997 -0.05 +0.00    +0.285 C  
DOCKED: ATOM     17  C   UNL     1     -51.778 -31.183  12.377 -0.00 +0.00    +0.285 C  
DOCKED: ENDBRANCH  14  15
DOCKED: ENDBRANCH  13  14
DOCKED: ENDBRANCH  12  13
DOCKED: ENDBRANCH   2  12
DOCKED: BRANCH   2  18
DOCKED: ATOM     18  C   UNL     1     -50.423 -29.037   7.437 -0.13 +0.00    +0.006 A  
DOCKED: ATOM     19  C   UNL     1     -50.895 -27.777   7.803 -0.07 +0.00    +0.001 A  
DOCKED: ATOM     20  C   UNL     1     -50.562 -26.660   7.036 -0.06 +0.00    +0.029 A  
DOCKED: ATOM     21  C   UNL     1     -49.759 -26.804   5.905 -0.06 +0.00    +0.140 A  
DOCKED: ATOM     22  C   UNL     1     -49.288 -28.065   5.540 -0.14 +0.00    +0.029 A  
DOCKED: ATOM     23  F   UNL     1     -49.439 -25.731   5.170 -0.01 -0.00    -0.204 F  
DOCKED: ATOM     24  C   UNL     1     -49.620 -29.183   6.307 -0.16 +0.00    +0.001 A  
DOCKED: ENDBRANCH   2  18
DOCKED: TORSDOF 5
DOCKED: TER
DOCKED: ENDMDL
________________________________________________________________________________


    FINAL DOCKED STATE:
    ________________________


Run:   32 / 512
Time taken for this run:   0.001s

DOCKED: MODEL        32
DOCKED: USER    Run = 32
DOCKED: USER
DOCKED: USER    Estimated Free Energy of Binding    =  -3.63 kcal/mol  [=(1)+(2)+(3)-(4)]
DOCKED: USER
DOCKED: USER    (1) Final Intermolecular Energy     =  -5.12 kcal/mol
DOCKED: USER        vdW + Hbond + desolv Energy     =  -5.12 kcal/mol
DOCKED: USER        Electrostatic Energy            =  +0.00 kcal/mol
DOCKED: USER        Moving Ligand-Fixed Receptor    =  -5.12 kcal/mol
DOCKED: USER        Moving Ligand-Moving Receptor   =  +0.00 kcal/mol
DOCKED: USER    (2) Final Total Internal Energy     =  -1.45 kcal/mol
DOCKED: USER    (3) Torsional Free Energy           =  +1.49 kcal/mol
DOCKED: USER    (4) Unbound System's Energy         =  -1.45 kcal/mol
DOCKED: USER
DOCKED: USER
DOCKED: REMARK  5 active torsions:
DOCKED: REMARK  status: ('A' for Active; 'I' for Inactive)
DOCKED: REMARK    1  A    between atoms: C_2  and  C_19 
DOCKED: REMARK    2  A    between atoms: C_2  and  C_11 
DOCKED: REMARK    3  A    between atoms: C_19  and  C_20 
DOCKED: REMARK    4  A    between atoms: C_20  and  C_21 
DOCKED: REMARK    5  A    between atoms: C_21  and  N_22 
DOCKED: USER                              x       y       z     vdW  Elec       q    Type
DOCKED: USER                           _______ _______ _______ _____ _____    ______ ____
DOCKED: ROOT
DOCKED: ATOM      1  O   UNL     1     -42.125 -32.524  -0.438 +0.01 -0.00    -0.346 OA 
DOCKED: ATOM      2  C   UNL     1     -43.392 -31.794  -0.386 -0.04 +0.00    +0.130 C  
DOCKED: ATOM      3  C   UNL     1     -44.217 -32.575   0.595 -0.10 +0.00    +0.004 A  
DOCKED: ATOM      4  C   UNL     1     -43.452 -33.596   1.140 -0.08 +0.00    +0.006 A  
DOCKED: ATOM      5  C   UNL     1     -42.085 -33.556   0.575 -0.02 +0.00    +0.169 C  
DOCKED: ATOM      6  C   UNL     1     -45.536 -32.389   0.984 -0.19 -0.00    -0.001 A  
DOCKED: ATOM      7  C   UNL     1     -43.976 -34.465   2.082 -0.18 +0.00    +0.008 A  
DOCKED: ATOM      8  C   UNL     1     -46.080 -33.259   1.930 -0.32 +0.00    +0.010 A  
DOCKED: ATOM      9  C   UNL     1     -45.303 -34.292   2.477 -0.28 +0.00    +0.068 A  
DOCKED: ATOM     10  N   UNL     1     -46.342 -35.887   4.234 -2.63 -0.00    -0.191 NA 
DOCKED: ATOM     11  C   UNL     1     -45.876 -35.172   3.446 -0.38 +0.00    +0.101 C  
DOCKED: ENDROOT
DOCKED: BRANCH   2  12
DOCKED: ATOM     12  C   UNL     1     -43.109 -30.370   0.077 -0.02 +0.00    +0.038 C  
DOCKED: BRANCH  12  13
DOCKED: ATOM     13  C   UNL     1     -42.819 -30.319   1.576 -0.02 +0.00    +0.038 C  
DOCKED: BRANCH  13  14
DOCKED: ATOM     14  C   UNL     1     -43.935 -29.596   2.327 -0.01 +0.00    +0.251 C  
DOCKED: BRANCH  14  15
DOCKED: ATOM     15  N   UNL     1     -43.990 -30.049   3.712 -0.03 +0.00    +0.141 N  
DOCKED: ATOM     16  C   UNL     1     -45.353 -30.442   4.073 -0.07 +0.00    +0.285 C  
DOCKED: ATOM     17  C   UNL     1     -43.067 -31.166   3.926 -0.01 +0.00    +0.285 C  
DOCKED: ENDBRANCH  14  15
DOCKED: ENDBRANCH  13  14
DOCKED: ENDBRANCH  12  13
DOCKED: ENDBRANCH   2  12
DOCKED: BRANCH   2  18
DOCKED: ATOM     18  C   UNL     1     -43.961 -31.808  -1.766 -0.09 +0.00    +0.006 A  
DOCKED: ATOM     19  C   UNL     1     -43.667 -32.863  -2.629 -0.10 +0.00    +0.001 A  
DOCKED: ATOM     20  C   UNL     1     -44.200 -32.875  -3.919 -0.09 +0.00    +0.029 A  
DOCKED: ATOM     21  C   UNL     1     -45.025 -31.834  -4.343 -0.12 +0.00    +0.140 A  
DOCKED: ATOM     22  C   UNL     1     -45.319 -30.780  -3.478 -0.17 +0.00    +0.029 A  
DOCKED: ATOM     23  F   UNL     1     -45.538 -31.847  -5.580 -0.06 -0.00    -0.204 F  
DOCKED: ATOM     24  C   UNL     1     -44.786 -30.767  -2.188 -0.12 +0.00    +0.001 A  
DOCKED: ENDBRANCH   2  18
DOCKED: TORSDOF 5
DOCKED: TER
DOCKED: ENDMDL
________________________________________________________________________________


    FINAL DOCKED STATE:
    ________________________


Run:   33 / 512
Time taken for this run:   0.001s

DOCKED: MODEL        33
DOCKED: USER    Run = 33
DOCKED: USER
DOCKED: USER    Estimated Free Energy of Binding    =  -4.22 kcal/mol  [=(1)+(2)+(3)-(4)]
DOCKED: USER
DOCKED: USER    (1) Final Intermolecular Energy     =  -5.71 kcal/mol
DOCKED: USER        vdW + Hbond + desolv Energy     =  -5.71 kcal/mol
DOCKED: USER        Electrostatic Energy            =  +0.00 kcal/mol
DOCKED: USER        Moving Ligand-Fixed Receptor    =  -5.71 kcal/mol
DOCKED: USER        Moving Ligand-Moving Receptor   =  +0.00 kcal/mol
DOCKED: USER    (2) Final Total Internal Energy     =  -1.07 kcal/mol
DOCKED: USER    (3) Torsional Free Energy           =  +1.49 kcal/mol
DOCKED: USER    (4) Unbound System's Energy         =  -1.07 kcal/mol
DOCKED: USER
DOCKED: USER
DOCKED: REMARK  5 active torsions:
DOCKED: REMARK  status: ('A' for Active; 'I' for Inactive)
DOCKED: REMARK    1  A    between atoms: C_2  and  C_19 
DOCKED: REMARK    2  A    between atoms: C_2  and  C_11 
DOCKED: REMARK    3  A    between atoms: C_19  and  C_20 
DOCKED: REMARK    4  A    between atoms: C_20  and  C_21 
DOCKED: REMARK    5  A    between atoms: C_21  and  N_22 
DOCKED: USER                              x       y       z     vdW  Elec       q    Type
DOCKED: USER                           _______ _______ _______ _____ _____    ______ ____
DOCKED: ROOT
DOCKED: ATOM      1  O   UNL     1     -49.188 -30.831   8.418 -0.07 -0.00    -0.346 OA 
DOCKED: ATOM      2  C   UNL     1     -50.133 -30.035   7.633 -0.14 +0.00    +0.130 C  
DOCKED: ATOM      3  C   UNL     1     -51.037 -31.059   7.012 -0.23 +0.00    +0.004 A  
DOCKED: ATOM      4  C   UNL     1     -50.710 -32.321   7.486 -0.24 +0.00    +0.006 A  
DOCKED: ATOM      5  C   UNL     1     -49.591 -32.221   8.450 -0.17 +0.00    +0.169 C  
DOCKED: ATOM      6  C   UNL     1     -52.075 -30.886   6.107 -0.25 -0.00    -0.001 A  
DOCKED: ATOM      7  C   UNL     1     -51.400 -33.448   7.073 -0.34 +0.00    +0.008 A  
DOCKED: ATOM      8  C   UNL     1     -52.778 -32.013   5.678 -0.31 +0.00    +0.010 A  
DOCKED: ATOM      9  C   UNL     1     -52.442 -33.287   6.159 -0.31 +0.00    +0.068 A  
DOCKED: ATOM     10  N   UNL     1     -53.770 -35.358   5.345 -2.55 -0.00    -0.191 NA 
DOCKED: ATOM     11  C   UNL     1     -53.174 -34.429   5.710 -0.36 +0.00    +0.101 C  
DOCKED: ENDROOT
DOCKED: BRANCH   2  12
DOCKED: ATOM     12  C   UNL     1     -50.866 -29.089   8.576 -0.07 +0.00    +0.038 C  
DOCKED: BRANCH  12  13
DOCKED: ATOM     13  C   UNL     1     -49.912 -28.070   9.197 -0.02 +0.00    +0.038 C  
DOCKED: BRANCH  13  14
DOCKED: ATOM     14  C   UNL     1     -50.315 -26.644   8.828 -0.01 +0.00    +0.251 C  
DOCKED: BRANCH  14  15
DOCKED: ATOM     15  N   UNL     1     -50.075 -25.743   9.948 +0.00 +0.00    +0.141 N  
DOCKED: ATOM     16  C   UNL     1     -49.241 -26.391  10.962 -0.00 +0.00    +0.285 C  
DOCKED: ATOM     17  C   UNL     1     -49.443 -24.505   9.488 +0.00 +0.00    +0.285 C  
DOCKED: ENDBRANCH  14  15
DOCKED: ENDBRANCH  13  14
DOCKED: ENDBRANCH  12  13
DOCKED: ENDBRANCH   2  12
DOCKED: BRANCH   2  18
DOCKED: ATOM     18  C   UNL     1     -49.333 -29.278   6.626 -0.14 +0.00    +0.006 A  
DOCKED: ATOM     19  C   UNL     1     -47.955 -29.476   6.539 -0.08 +0.00    +0.001 A  
DOCKED: ATOM     20  C   UNL     1     -47.209 -28.767   5.597 -0.10 +0.00    +0.029 A  
DOCKED: ATOM     21  C   UNL     1     -47.840 -27.862   4.744 -0.08 +0.00    +0.140 A  
DOCKED: ATOM     22  C   UNL     1     -49.218 -27.665   4.832 -0.11 +0.00    +0.029 A  
DOCKED: ATOM     23  F   UNL     1     -47.123 -27.183   3.839 -0.00 -0.00    -0.204 F  
DOCKED: ATOM     24  C   UNL     1     -49.965 -28.373   5.774 -0.13 +0.00    +0.001 A  
DOCKED: ENDBRANCH   2  18
DOCKED: TORSDOF 5
DOCKED: TER
DOCKED: ENDMDL
________________________________________________________________________________


    FINAL DOCKED STATE:
    ________________________


Run:   34 / 512
Time taken for this run:   0.001s

DOCKED: MODEL        34
DOCKED: USER    Run = 34
DOCKED: USER
DOCKED: USER    Estimated Free Energy of Binding    =  -3.72 kcal/mol  [=(1)+(2)+(3)-(4)]
DOCKED: USER
DOCKED: USER    (1) Final Intermolecular Energy     =  -5.21 kcal/mol
DOCKED: USER        vdW + Hbond + desolv Energy     =  -5.21 kcal/mol
DOCKED: USER        Electrostatic Energy            =  +0.00 kcal/mol
DOCKED: USER        Moving Ligand-Fixed Receptor    =  -5.21 kcal/mol
DOCKED: USER        Moving Ligand-Moving Receptor   =  +0.00 kcal/mol
DOCKED: USER    (2) Final Total Internal Energy     =  -1.31 kcal/mol
DOCKED: USER    (3) Torsional Free Energy           =  +1.49 kcal/mol
DOCKED: USER    (4) Unbound System's Energy         =  -1.31 kcal/mol
DOCKED: USER
DOCKED: USER
DOCKED: REMARK  5 active torsions:
DOCKED: REMARK  status: ('A' for Active; 'I' for Inactive)
DOCKED: REMARK    1  A    between atoms: C_2  and  C_19 
DOCKED: REMARK    2  A    between atoms: C_2  and  C_11 
DOCKED: REMARK    3  A    between atoms: C_19  and  C_20 
DOCKED: REMARK    4  A    between atoms: C_20  and  C_21 
DOCKED: REMARK    5  A    between atoms: C_21  and  N_22 
DOCKED: USER                              x       y       z     vdW  Elec       q    Type
DOCKED: USER                           _______ _______ _______ _____ _____    ______ ____
DOCKED: ROOT
DOCKED: ATOM      1  O   UNL     1     -45.906 -29.302   1.414 +0.00 -0.00    -0.346 OA 
DOCKED: ATOM      2  C   UNL     1     -45.605 -30.242   0.333 -0.11 +0.00    +0.130 C  
DOCKED: ATOM      3  C   UNL     1     -45.686 -31.587   0.994 -0.17 +0.00    +0.004 A  
DOCKED: ATOM      4  C   UNL     1     -46.103 -31.437   2.309 -0.22 +0.00    +0.006 A  
DOCKED: ATOM      5  C   UNL     1     -46.338 -30.006   2.601 -0.13 +0.00    +0.169 C  
DOCKED: ATOM      6  C   UNL     1     -45.421 -32.845   0.471 -0.12 -0.00    -0.001 A  
DOCKED: ATOM      7  C   UNL     1     -46.266 -32.531   3.143 -0.18 +0.00    +0.008 A  
DOCKED: ATOM      8  C   UNL     1     -45.577 -33.957   1.300 -0.27 +0.00    +0.010 A  
DOCKED: ATOM      9  C   UNL     1     -45.997 -33.800   2.629 -0.31 +0.00    +0.068 A  
DOCKED: ATOM     10  N   UNL     1     -46.281 -35.886   4.140 -2.65 -0.00    -0.191 NA 
DOCKED: ATOM     11  C   UNL     1     -46.153 -34.950   3.462 -0.29 +0.00    +0.101 C  
DOCKED: ENDROOT
DOCKED: BRANCH   2  12
DOCKED: ATOM     12  C   UNL     1     -46.643 -30.059  -0.768 -0.13 +0.00    +0.038 C  
DOCKED: BRANCH  12  13
DOCKED: ATOM     13  C   UNL     1     -46.523 -28.684  -1.423 -0.18 +0.00    +0.038 C  
DOCKED: BRANCH  13  14
DOCKED: ATOM     14  C   UNL     1     -47.735 -27.813  -1.098 -0.14 +0.00    +0.251 C  
DOCKED: BRANCH  14  15
DOCKED: ATOM     15  N   UNL     1     -47.308 -26.470  -0.725 -0.08 +0.00    +0.141 N  
DOCKED: ATOM     16  C   UNL     1     -48.421 -25.717  -0.146 -0.12 +0.00    +0.285 C  
DOCKED: ATOM     17  C   UNL     1     -46.189 -26.527   0.216 -0.02 +0.00    +0.285 C  
DOCKED: ENDBRANCH  14  15
DOCKED: ENDBRANCH  13  14
DOCKED: ENDBRANCH  12  13
DOCKED: ENDBRANCH   2  12
DOCKED: BRANCH   2  18
DOCKED: ATOM     18  C   UNL     1     -44.235 -29.917  -0.160 -0.04 +0.00    +0.006 A  
DOCKED: ATOM     19  C   UNL     1     -43.468 -28.955   0.497 -0.01 +0.00    +0.001 A  
DOCKED: ATOM     20  C   UNL     1     -42.187 -28.651   0.035 -0.00 +0.00    +0.029 A  
DOCKED: ATOM     21  C   UNL     1     -41.674 -29.311  -1.081 -0.00 +0.00    +0.140 A  
DOCKED: ATOM     22  C   UNL     1     -42.441 -30.273  -1.737 -0.01 +0.00    +0.029 A  
DOCKED: ATOM     23  F   UNL     1     -40.443 -29.021  -1.523 +0.00 -0.00    -0.204 F  
DOCKED: ATOM     24  C   UNL     1     -43.723 -30.577  -1.276 -0.04 +0.00    +0.001 A  
DOCKED: ENDBRANCH   2  18
DOCKED: TORSDOF 5
DOCKED: TER
DOCKED: ENDMDL
________________________________________________________________________________


    FINAL DOCKED STATE:
    ________________________


Run:   35 / 512
Time taken for this run:   0.001s

DOCKED: MODEL        35
DOCKED: USER    Run = 35
DOCKED: USER
DOCKED: USER    Estimated Free Energy of Binding    =  -6.34 kcal/mol  [=(1)+(2)+(3)-(4)]
DOCKED: USER
DOCKED: USER    (1) Final Intermolecular Energy     =  -7.83 kcal/mol
DOCKED: USER        vdW + Hbond + desolv Energy     =  -7.83 kcal/mol
DOCKED: USER        Electrostatic Energy            =  +0.00 kcal/mol
DOCKED: USER        Moving Ligand-Fixed Receptor    =  -7.83 kcal/mol
DOCKED: USER        Moving Ligand-Moving Receptor   =  +0.00 kcal/mol
DOCKED: USER    (2) Final Total Internal Energy     =  -1.15 kcal/mol
DOCKED: USER    (3) Torsional Free Energy           =  +1.49 kcal/mol
DOCKED: USER    (4) Unbound System's Energy         =  -1.15 kcal/mol
DOCKED: USER
DOCKED: USER
DOCKED: REMARK  5 active torsions:
DOCKED: REMARK  status: ('A' for Active; 'I' for Inactive)
DOCKED: REMARK    1  A    between atoms: C_2  and  C_19 
DOCKED: REMARK    2  A    between atoms: C_2  and  C_11 
DOCKED: REMARK    3  A    between atoms: C_19  and  C_20 
DOCKED: REMARK    4  A    between atoms: C_20  and  C_21 
DOCKED: REMARK    5  A    between atoms: C_21  and  N_22 
DOCKED: USER                              x       y       z     vdW  Elec       q    Type
DOCKED: USER                           _______ _______ _______ _____ _____    ______ ____
DOCKED: ROOT
DOCKED: ATOM      1  O   UNL     1     -51.025 -34.933   7.581 -0.57 -0.00    -0.346 OA 
DOCKED: ATOM      2  C   UNL     1     -52.142 -34.005   7.757 -0.27 +0.00    +0.130 C  
DOCKED: ATOM      3  C   UNL     1     -52.710 -33.858   6.375 -0.35 +0.00    +0.004 A  
DOCKED: ATOM      4  C   UNL     1     -52.046 -34.712   5.505 -0.40 +0.00    +0.006 A  
DOCKED: ATOM      5  C   UNL     1     -51.018 -35.480   6.242 -0.06 +0.00    +0.169 C  
DOCKED: ATOM      6  C   UNL     1     -53.738 -33.043   5.926 -0.31 -0.00    -0.001 A  
DOCKED: ATOM      7  C   UNL     1     -52.382 -34.777   4.163 -0.38 +0.00    +0.008 A  
DOCKED: ATOM      8  C   UNL     1     -54.086 -33.094   4.575 -0.19 +0.00    +0.010 A  
DOCKED: ATOM      9  C   UNL     1     -53.412 -33.957   3.699 -0.45 +0.00    +0.068 A  
DOCKED: ATOM     10  N   UNL     1     -54.085 -34.031   1.198 -3.23 -0.00    -0.191 NA 
DOCKED: ATOM     11  C   UNL     1     -53.783 -33.997   2.319 -0.29 +0.00    +0.101 C  
DOCKED: ENDROOT
DOCKED: BRANCH   2  12
DOCKED: ATOM     12  C   UNL     1     -53.130 -34.620   8.742 -0.29 +0.00    +0.038 C  
DOCKED: BRANCH  12  13
DOCKED: ATOM     13  C   UNL     1     -53.633 -33.585   9.746 -0.16 +0.00    +0.038 C  
DOCKED: BRANCH  13  14
DOCKED: ATOM     14  C   UNL     1     -55.040 -33.109   9.385 -0.04 +0.00    +0.251 C  
DOCKED: BRANCH  14  15
DOCKED: ATOM     15  N   UNL     1     -55.077 -31.654   9.304 -0.04 +0.00    +0.141 N  
DOCKED: ATOM     16  C   UNL     1     -55.662 -31.223   8.033 -0.06 +0.00    +0.285 C  
DOCKED: ATOM     17  C   UNL     1     -55.833 -31.094  10.426 +0.00 +0.00    +0.285 C  
DOCKED: ENDBRANCH  14  15
DOCKED: ENDBRANCH  13  14
DOCKED: ENDBRANCH  12  13
DOCKED: ENDBRANCH   2  12
DOCKED: BRANCH   2  18
DOCKED: ATOM     18  C   UNL     1     -51.573 -32.733   8.290 -0.20 +0.00    +0.006 A  
DOCKED: ATOM     19  C   UNL     1     -52.185 -31.516   7.992 -0.15 +0.00    +0.001 A  
DOCKED: ATOM     20  C   UNL     1     -51.652 -30.327   8.491 -0.08 +0.00    +0.029 A  
DOCKED: ATOM     21  C   UNL     1     -50.507 -30.356   9.286 -0.04 +0.00    +0.140 A  
DOCKED: ATOM     22  C   UNL     1     -49.895 -31.573   9.585 -0.10 +0.00    +0.029 A  
DOCKED: ATOM     23  F   UNL     1     -49.996 -29.215   9.766 +0.00 -0.00    -0.204 F  
DOCKED: ATOM     24  C   UNL     1     -50.428 -32.763   9.086 -0.18 +0.00    +0.001 A  
DOCKED: ENDBRANCH   2  18
DOCKED: TORSDOF 5
DOCKED: TER
DOCKED: ENDMDL
________________________________________________________________________________


    FINAL DOCKED STATE:
    ________________________


Run:   36 / 512
Time taken for this run:   0.001s

DOCKED: MODEL        36
DOCKED: USER    Run = 36
DOCKED: USER
DOCKED: USER    Estimated Free Energy of Binding    =  -3.80 kcal/mol  [=(1)+(2)+(3)-(4)]
DOCKED: USER
DOCKED: USER    (1) Final Intermolecular Energy     =  -5.29 kcal/mol
DOCKED: USER        vdW + Hbond + desolv Energy     =  -5.29 kcal/mol
DOCKED: USER        Electrostatic Energy            =  +0.00 kcal/mol
DOCKED: USER        Moving Ligand-Fixed Receptor    =  -5.29 kcal/mol
DOCKED: USER        Moving Ligand-Moving Receptor   =  +0.00 kcal/mol
DOCKED: USER    (2) Final Total Internal Energy     =  -1.42 kcal/mol
DOCKED: USER    (3) Torsional Free Energy           =  +1.49 kcal/mol
DOCKED: USER    (4) Unbound System's Energy         =  -1.42 kcal/mol
DOCKED: USER
DOCKED: USER
DOCKED: REMARK  5 active torsions:
DOCKED: REMARK  status: ('A' for Active; 'I' for Inactive)
DOCKED: REMARK    1  A    between atoms: C_2  and  C_19 
DOCKED: REMARK    2  A    between atoms: C_2  and  C_11 
DOCKED: REMARK    3  A    between atoms: C_19  and  C_20 
DOCKED: REMARK    4  A    between atoms: C_20  and  C_21 
DOCKED: REMARK    5  A    between atoms: C_21  and  N_22 
DOCKED: USER                              x       y       z     vdW  Elec       q    Type
DOCKED: USER                           _______ _______ _______ _____ _____    ______ ____
DOCKED: ROOT
DOCKED: ATOM      1  O   UNL     1     -45.285 -20.641  -5.938 -0.07 -0.00    -0.346 OA 
DOCKED: ATOM      2  C   UNL     1     -45.278 -21.145  -4.564 -0.10 +0.00    +0.130 C  
DOCKED: ATOM      3  C   UNL     1     -46.704 -21.546  -4.320 -0.18 +0.00    +0.004 A  
DOCKED: ATOM      4  C   UNL     1     -47.438 -21.390  -5.487 -0.25 +0.00    +0.006 A  
DOCKED: ATOM      5  C   UNL     1     -46.561 -20.894  -6.571 -0.02 +0.00    +0.169 C  
DOCKED: ATOM      6  C   UNL     1     -47.300 -22.023  -3.162 -0.21 -0.00    -0.001 A  
DOCKED: ATOM      7  C   UNL     1     -48.787 -21.698  -5.536 -0.36 +0.00    +0.008 A  
DOCKED: ATOM      8  C   UNL     1     -48.661 -22.333  -3.194 -0.33 +0.00    +0.010 A  
DOCKED: ATOM      9  C   UNL     1     -49.400 -22.172  -4.375 -0.40 +0.00    +0.068 A  
DOCKED: ATOM     10  N   UNL     1     -51.923 -22.763  -4.401 -2.49 -0.00    -0.191 NA 
DOCKED: ATOM     11  C   UNL     1     -50.792 -22.497  -4.389 -0.07 +0.00    +0.101 C  
DOCKED: ENDROOT
DOCKED: BRANCH   2  12
DOCKED: ATOM     12  C   UNL     1     -44.309 -22.319  -4.485 -0.04 +0.00    +0.038 C  
DOCKED: BRANCH  12  13
DOCKED: ATOM     13  C   UNL     1     -45.002 -23.637  -4.830 -0.04 +0.00    +0.038 C  
DOCKED: BRANCH  13  14
DOCKED: ATOM     14  C   UNL     1     -44.918 -23.926  -6.327 -0.01 +0.00    +0.251 C  
DOCKED: BRANCH  14  15
DOCKED: ATOM     15  N   UNL     1     -46.049 -24.743  -6.750 -0.10 +0.00    +0.141 N  
DOCKED: ATOM     16  C   UNL     1     -46.878 -25.112  -5.600 -0.12 +0.00    +0.285 C  
DOCKED: ATOM     17  C   UNL     1     -46.852 -24.035  -7.748 -0.10 +0.00    +0.285 C  
DOCKED: ENDBRANCH  14  15
DOCKED: ENDBRANCH  13  14
DOCKED: ENDBRANCH  12  13
DOCKED: ENDBRANCH   2  12
DOCKED: BRANCH   2  18
DOCKED: ATOM     18  C   UNL     1     -44.832 -20.021  -3.689 -0.11 +0.00    +0.006 A  
DOCKED: ATOM     19  C   UNL     1     -44.852 -20.167  -2.303 -0.09 +0.00    +0.001 A  
DOCKED: ATOM     20  C   UNL     1     -44.436 -19.114  -1.486 -0.06 +0.00    +0.029 A  
DOCKED: ATOM     21  C   UNL     1     -44.000 -17.919  -2.057 -0.02 +0.00    +0.140 A  
DOCKED: ATOM     22  C   UNL     1     -43.981 -17.774  -3.444 -0.07 +0.00    +0.029 A  
DOCKED: ATOM     23  F   UNL     1     -43.599 -16.910  -1.273 +0.01 -0.00    -0.204 F  
DOCKED: ATOM     24  C   UNL     1     -44.398 -18.826  -4.261 -0.07 +0.00    +0.001 A  
DOCKED: ENDBRANCH   2  18
DOCKED: TORSDOF 5
DOCKED: TER
DOCKED: ENDMDL
________________________________________________________________________________


    FINAL DOCKED STATE:
    ________________________


Run:   37 / 512
Time taken for this run:   0.001s

DOCKED: MODEL        37
DOCKED: USER    Run = 37
DOCKED: USER
DOCKED: USER    Estimated Free Energy of Binding    =  -4.25 kcal/mol  [=(1)+(2)+(3)-(4)]
DOCKED: USER
DOCKED: USER    (1) Final Intermolecular Energy     =  -5.74 kcal/mol
DOCKED: USER        vdW + Hbond + desolv Energy     =  -5.74 kcal/mol
DOCKED: USER        Electrostatic Energy            =  +0.00 kcal/mol
DOCKED: USER        Moving Ligand-Fixed Receptor    =  -5.74 kcal/mol
DOCKED: USER        Moving Ligand-Moving Receptor   =  +0.00 kcal/mol
DOCKED: USER    (2) Final Total Internal Energy     =  -0.84 kcal/mol
DOCKED: USER    (3) Torsional Free Energy           =  +1.49 kcal/mol
DOCKED: USER    (4) Unbound System's Energy         =  -0.84 kcal/mol
DOCKED: USER
DOCKED: USER
DOCKED: REMARK  5 active torsions:
DOCKED: REMARK  status: ('A' for Active; 'I' for Inactive)
DOCKED: REMARK    1  A    between atoms: C_2  and  C_19 
DOCKED: REMARK    2  A    between atoms: C_2  and  C_11 
DOCKED: REMARK    3  A    between atoms: C_19  and  C_20 
DOCKED: REMARK    4  A    between atoms: C_20  and  C_21 
DOCKED: REMARK    5  A    between atoms: C_21  and  N_22 
DOCKED: USER                              x       y       z     vdW  Elec       q    Type
DOCKED: USER                           _______ _______ _______ _____ _____    ______ ____
DOCKED: ROOT
DOCKED: ATOM      1  O   UNL     1     -48.721 -31.418   8.623 -0.08 -0.00    -0.346 OA 
DOCKED: ATOM      2  C   UNL     1     -49.713 -30.473   8.109 -0.13 +0.00    +0.130 C  
DOCKED: ATOM      3  C   UNL     1     -50.721 -31.348   7.421 -0.21 +0.00    +0.004 A  
DOCKED: ATOM      4  C   UNL     1     -50.394 -32.682   7.620 -0.25 +0.00    +0.006 A  
DOCKED: ATOM      5  C   UNL     1     -49.173 -32.782   8.450 -0.11 +0.00    +0.169 C  
DOCKED: ATOM      6  C   UNL     1     -51.844 -30.992   6.689 -0.27 -0.00    -0.001 A  
DOCKED: ATOM      7  C   UNL     1     -51.170 -33.700   7.093 -0.36 +0.00    +0.008 A  
DOCKED: ATOM      8  C   UNL     1     -52.635 -32.007   6.147 -0.32 +0.00    +0.010 A  
DOCKED: ATOM      9  C   UNL     1     -52.299 -33.354   6.349 -0.31 +0.00    +0.068 A  
DOCKED: ATOM     10  N   UNL     1     -53.791 -35.214   5.334 -2.55 -0.00    -0.191 NA 
DOCKED: ATOM     11  C   UNL     1     -53.121 -34.380   5.789 -0.36 +0.00    +0.101 C  
DOCKED: ENDROOT
DOCKED: BRANCH   2  12
DOCKED: ATOM     12  C   UNL     1     -50.300 -29.702   9.285 -0.05 +0.00    +0.038 C  
DOCKED: BRANCH  12  13
DOCKED: ATOM     13  C   UNL     1     -51.788 -29.421   9.080 -0.05 +0.00    +0.038 C  
DOCKED: BRANCH  13  14
DOCKED: ATOM     14  C   UNL     1     -52.615 -29.964  10.244 -0.01 +0.00    +0.251 C  
DOCKED: BRANCH  14  15
DOCKED: ATOM     15  N   UNL     1     -51.747 -30.321  11.360 -0.01 +0.00    +0.141 N  
DOCKED: ATOM     16  C   UNL     1     -52.373 -29.965  12.635 -0.00 +0.00    +0.285 C  
DOCKED: ATOM     17  C   UNL     1     -51.431 -31.750  11.331 -0.02 +0.00    +0.285 C  
DOCKED: ENDBRANCH  14  15
DOCKED: ENDBRANCH  13  14
DOCKED: ENDBRANCH  12  13
DOCKED: ENDBRANCH   2  12
DOCKED: BRANCH   2  18
DOCKED: ATOM     18  C   UNL     1     -48.999 -29.559   7.169 -0.13 +0.00    +0.006 A  
DOCKED: ATOM     19  C   UNL     1     -49.707 -28.903   6.163 -0.17 +0.00    +0.001 A  
DOCKED: ATOM     20  C   UNL     1     -49.038 -28.050   5.285 -0.13 +0.00    +0.029 A  
DOCKED: ATOM     21  C   UNL     1     -47.664 -27.853   5.414 -0.07 +0.00    +0.140 A  
DOCKED: ATOM     22  C   UNL     1     -46.957 -28.509   6.421 -0.07 +0.00    +0.029 A  
DOCKED: ATOM     23  F   UNL     1     -47.023 -27.032   4.572 -0.00 -0.00    -0.204 F  
DOCKED: ATOM     24  C   UNL     1     -47.625 -29.364   7.300 -0.10 +0.00    +0.001 A  
DOCKED: ENDBRANCH   2  18
DOCKED: TORSDOF 5
DOCKED: TER
DOCKED: ENDMDL
________________________________________________________________________________


    FINAL DOCKED STATE:
    ________________________


Run:   38 / 512
Time taken for this run:   0.001s

DOCKED: MODEL        38
DOCKED: USER    Run = 38
DOCKED: USER
DOCKED: USER    Estimated Free Energy of Binding    =  -4.03 kcal/mol  [=(1)+(2)+(3)-(4)]
DOCKED: USER
DOCKED: USER    (1) Final Intermolecular Energy     =  -5.52 kcal/mol
DOCKED: USER        vdW + Hbond + desolv Energy     =  -5.52 kcal/mol
DOCKED: USER        Electrostatic Energy            =  +0.00 kcal/mol
DOCKED: USER        Moving Ligand-Fixed Receptor    =  -5.52 kcal/mol
DOCKED: USER        Moving Ligand-Moving Receptor   =  +0.00 kcal/mol
DOCKED: USER    (2) Final Total Internal Energy     =  -1.13 kcal/mol
DOCKED: USER    (3) Torsional Free Energy           =  +1.49 kcal/mol
DOCKED: USER    (4) Unbound System's Energy         =  -1.13 kcal/mol
DOCKED: USER
DOCKED: USER
DOCKED: REMARK  5 active torsions:
DOCKED: REMARK  status: ('A' for Active; 'I' for Inactive)
DOCKED: REMARK    1  A    between atoms: C_2  and  C_19 
DOCKED: REMARK    2  A    between atoms: C_2  and  C_11 
DOCKED: REMARK    3  A    between atoms: C_19  and  C_20 
DOCKED: REMARK    4  A    between atoms: C_20  and  C_21 
DOCKED: REMARK    5  A    between atoms: C_21  and  N_22 
DOCKED: USER                              x       y       z     vdW  Elec       q    Type
DOCKED: USER                           _______ _______ _______ _____ _____    ______ ____
DOCKED: ROOT
DOCKED: ATOM      1  O   UNL     1     -45.683 -24.734  -1.536 +0.00 -0.00    -0.346 OA 
DOCKED: ATOM      2  C   UNL     1     -45.821 -23.338  -1.119 -0.09 +0.00    +0.130 C  
DOCKED: ATOM      3  C   UNL     1     -46.896 -22.800  -2.019 -0.16 +0.00    +0.004 A  
DOCKED: ATOM      4  C   UNL     1     -47.405 -23.824  -2.804 -0.17 +0.00    +0.006 A  
DOCKED: ATOM      5  C   UNL     1     -46.723 -25.096  -2.475 -0.09 +0.00    +0.169 C  
DOCKED: ATOM      6  C   UNL     1     -47.391 -21.508  -2.125 -0.20 -0.00    -0.001 A  
DOCKED: ATOM      7  C   UNL     1     -48.417 -23.595  -3.720 -0.22 +0.00    +0.008 A  
DOCKED: ATOM      8  C   UNL     1     -48.409 -21.260  -3.048 -0.32 +0.00    +0.010 A  
DOCKED: ATOM      9  C   UNL     1     -48.920 -22.299  -3.841 -0.35 +0.00    +0.068 A  
DOCKED: ATOM     10  N   UNL     1     -50.813 -21.806  -5.540 -2.53 -0.00    -0.191 NA 
DOCKED: ATOM     11  C   UNL     1     -49.963 -22.027  -4.778 -0.44 +0.00    +0.101 C  
DOCKED: ENDROOT
DOCKED: BRANCH   2  12
DOCKED: ATOM     12  C   UNL     1     -46.211 -23.310   0.354 -0.14 +0.00    +0.038 C  
DOCKED: BRANCH  12  13
DOCKED: ATOM     13  C   UNL     1     -47.016 -24.549   0.741 -0.14 +0.00    +0.038 C  
DOCKED: BRANCH  13  14
DOCKED: ATOM     14  C   UNL     1     -48.517 -24.279   0.651 -0.07 +0.00    +0.251 C  
DOCKED: BRANCH  14  15
DOCKED: ATOM     15  N   UNL     1     -49.249 -25.187   1.526 -0.14 +0.00    +0.141 N  
DOCKED: ATOM     16  C   UNL     1     -50.601 -24.686   1.775 -0.19 +0.00    +0.285 C  
DOCKED: ATOM     17  C   UNL     1     -49.304 -26.530   0.945 -0.13 +0.00    +0.285 C  
DOCKED: ENDBRANCH  14  15
DOCKED: ENDBRANCH  13  14
DOCKED: ENDBRANCH  12  13
DOCKED: ENDBRANCH   2  12
DOCKED: BRANCH   2  18
DOCKED: ATOM     18  C   UNL     1     -44.498 -22.685  -1.338 -0.05 +0.00    +0.006 A  
DOCKED: ATOM     19  C   UNL     1     -44.088 -22.357  -2.630 -0.03 +0.00    +0.001 A  
DOCKED: ATOM     20  C   UNL     1     -42.850 -21.746  -2.834 -0.01 +0.00    +0.029 A  
DOCKED: ATOM     21  C   UNL     1     -42.025 -21.463  -1.747 -0.00 +0.00    +0.140 A  
DOCKED: ATOM     22  C   UNL     1     -42.435 -21.791  -0.455 -0.01 +0.00    +0.029 A  
DOCKED: ATOM     23  F   UNL     1     -40.837 -20.875  -1.942 +0.00 -0.00    -0.204 F  
DOCKED: ATOM     24  C   UNL     1     -43.673 -22.403  -0.250 -0.04 +0.00    +0.001 A  
DOCKED: ENDBRANCH   2  18
DOCKED: TORSDOF 5
DOCKED: TER
DOCKED: ENDMDL
________________________________________________________________________________


    FINAL DOCKED STATE:
    ________________________


Run:   39 / 512
Time taken for this run:   0.001s

DOCKED: MODEL        39
DOCKED: USER    Run = 39
DOCKED: USER
DOCKED: USER    Estimated Free Energy of Binding    =  -4.01 kcal/mol  [=(1)+(2)+(3)-(4)]
DOCKED: USER
DOCKED: USER    (1) Final Intermolecular Energy     =  -5.50 kcal/mol
DOCKED: USER        vdW + Hbond + desolv Energy     =  -5.50 kcal/mol
DOCKED: USER        Electrostatic Energy            =  +0.00 kcal/mol
DOCKED: USER        Moving Ligand-Fixed Receptor    =  -5.50 kcal/mol
DOCKED: USER        Moving Ligand-Moving Receptor   =  +0.00 kcal/mol
DOCKED: USER    (2) Final Total Internal Energy     =  -1.19 kcal/mol
DOCKED: USER    (3) Torsional Free Energy           =  +1.49 kcal/mol
DOCKED: USER    (4) Unbound System's Energy         =  -1.19 kcal/mol
DOCKED: USER
DOCKED: USER
DOCKED: REMARK  5 active torsions:
DOCKED: REMARK  status: ('A' for Active; 'I' for Inactive)
DOCKED: REMARK    1  A    between atoms: C_2  and  C_19 
DOCKED: REMARK    2  A    between atoms: C_2  and  C_11 
DOCKED: REMARK    3  A    between atoms: C_19  and  C_20 
DOCKED: REMARK    4  A    between atoms: C_20  and  C_21 
DOCKED: REMARK    5  A    between atoms: C_21  and  N_22 
DOCKED: USER                              x       y       z     vdW  Elec       q    Type
DOCKED: USER                           _______ _______ _______ _____ _____    ______ ____
DOCKED: ROOT
DOCKED: ATOM      1  O   UNL     1     -53.370 -28.672   7.383 -0.07 -0.00    -0.346 OA 
DOCKED: ATOM      2  C   UNL     1     -51.994 -29.167   7.436 -0.14 +0.00    +0.130 C  
DOCKED: ATOM      3  C   UNL     1     -52.113 -30.604   7.016 -0.23 +0.00    +0.004 A  
DOCKED: ATOM      4  C   UNL     1     -53.423 -30.876   6.649 -0.23 +0.00    +0.006 A  
DOCKED: ATOM      5  C   UNL     1     -54.247 -29.654   6.786 -0.19 +0.00    +0.169 C  
DOCKED: ATOM      6  C   UNL     1     -51.137 -31.588   6.952 -0.25 -0.00    -0.001 A  
DOCKED: ATOM      7  C   UNL     1     -53.803 -32.134   6.213 -0.25 +0.00    +0.008 A  
DOCKED: ATOM      8  C   UNL     1     -51.505 -32.863   6.519 -0.32 +0.00    +0.010 A  
DOCKED: ATOM      9  C   UNL     1     -52.831 -33.134   6.151 -0.29 +0.00    +0.068 A  
DOCKED: ATOM     10  N   UNL     1     -53.480 -35.510   5.346 -2.61 -0.00    -0.191 NA 
DOCKED: ATOM     11  C   UNL     1     -53.189 -34.444   5.708 -0.35 +0.00    +0.101 C  
DOCKED: ENDROOT
DOCKED: BRANCH   2  12
DOCKED: ATOM     12  C   UNL     1     -51.145 -28.338   6.479 -0.16 +0.00    +0.038 C  
DOCKED: BRANCH  12  13
DOCKED: ATOM     13  C   UNL     1     -51.947 -27.184   5.881 -0.08 +0.00    +0.038 C  
DOCKED: BRANCH  13  14
DOCKED: ATOM     14  C   UNL     1     -51.759 -25.904   6.694 -0.05 +0.00    +0.251 C  
DOCKED: BRANCH  14  15
DOCKED: ATOM     15  N   UNL     1     -52.935 -25.050   6.575 -0.04 +0.00    +0.141 N  
DOCKED: ATOM     16  C   UNL     1     -52.551 -23.696   6.175 -0.01 +0.00    +0.285 C  
DOCKED: ATOM     17  C   UNL     1     -53.886 -25.613   5.615 -0.10 +0.00    +0.285 C  
DOCKED: ENDBRANCH  14  15
DOCKED: ENDBRANCH  13  14
DOCKED: ENDBRANCH  12  13
DOCKED: ENDBRANCH   2  12
DOCKED: BRANCH   2  18
DOCKED: ATOM     18  C   UNL     1     -51.527 -29.010   8.844 -0.05 +0.00    +0.006 A  
DOCKED: ATOM     19  C   UNL     1     -50.351 -29.632   9.262 -0.04 +0.00    +0.001 A  
DOCKED: ATOM     20  C   UNL     1     -49.915 -29.484  10.579 -0.01 +0.00    +0.029 A  
DOCKED: ATOM     21  C   UNL     1     -50.655 -28.715  11.476 -0.00 +0.00    +0.140 A  
DOCKED: ATOM     22  C   UNL     1     -51.831 -28.093  11.058 -0.00 +0.00    +0.029 A  
DOCKED: ATOM     23  F   UNL     1     -50.236 -28.572  12.740 +0.00 -0.00    -0.204 F  
DOCKED: ATOM     24  C   UNL     1     -52.268 -28.240   9.740 -0.02 +0.00    +0.001 A  
DOCKED: ENDBRANCH   2  18
DOCKED: TORSDOF 5
DOCKED: TER
DOCKED: ENDMDL
________________________________________________________________________________


    FINAL DOCKED STATE:
    ________________________


Run:   40 / 512
Time taken for this run:   0.001s

DOCKED: MODEL        40
DOCKED: USER    Run = 40
DOCKED: USER
DOCKED: USER    Estimated Free Energy of Binding    =  -4.11 kcal/mol  [=(1)+(2)+(3)-(4)]
DOCKED: USER
DOCKED: USER    (1) Final Intermolecular Energy     =  -5.60 kcal/mol
DOCKED: USER        vdW + Hbond + desolv Energy     =  -5.60 kcal/mol
DOCKED: USER        Electrostatic Energy            =  +0.00 kcal/mol
DOCKED: USER        Moving Ligand-Fixed Receptor    =  -5.60 kcal/mol
DOCKED: USER        Moving Ligand-Moving Receptor   =  +0.00 kcal/mol
DOCKED: USER    (2) Final Total Internal Energy     =  -1.16 kcal/mol
DOCKED: USER    (3) Torsional Free Energy           =  +1.49 kcal/mol
DOCKED: USER    (4) Unbound System's Energy         =  -1.16 kcal/mol
DOCKED: USER
DOCKED: USER
DOCKED: REMARK  5 active torsions:
DOCKED: REMARK  status: ('A' for Active; 'I' for Inactive)
DOCKED: REMARK    1  A    between atoms: C_2  and  C_19 
DOCKED: REMARK    2  A    between atoms: C_2  and  C_11 
DOCKED: REMARK    3  A    between atoms: C_19  and  C_20 
DOCKED: REMARK    4  A    between atoms: C_20  and  C_21 
DOCKED: REMARK    5  A    between atoms: C_21  and  N_22 
DOCKED: USER                              x       y       z     vdW  Elec       q    Type
DOCKED: USER                           _______ _______ _______ _____ _____    ______ ____
DOCKED: ROOT
DOCKED: ATOM      1  O   UNL     1     -44.006 -34.350  -2.117 -0.02 -0.00    -0.346 OA 
DOCKED: ATOM      2  C   UNL     1     -43.823 -33.153  -1.295 -0.09 +0.00    +0.130 C  
DOCKED: ATOM      3  C   UNL     1     -44.355 -33.557   0.050 -0.13 +0.00    +0.004 A  
DOCKED: ATOM      4  C   UNL     1     -44.708 -34.898   0.029 -0.20 +0.00    +0.006 A  
DOCKED: ATOM      5  C   UNL     1     -44.427 -35.471  -1.306 -0.10 +0.00    +0.169 C  
DOCKED: ATOM      6  C   UNL     1     -44.503 -32.799   1.203 -0.12 -0.00    -0.001 A  
DOCKED: ATOM      7  C   UNL     1     -45.223 -35.525   1.151 -0.31 +0.00    +0.008 A  
DOCKED: ATOM      8  C   UNL     1     -45.025 -33.416   2.341 -0.22 +0.00    +0.010 A  
DOCKED: ATOM      9  C   UNL     1     -45.382 -34.773   2.315 -0.32 +0.00    +0.068 A  
DOCKED: ATOM     10  N   UNL     1     -46.344 -35.888   4.447 -2.63 -0.00    -0.191 NA 
DOCKED: ATOM     11  C   UNL     1     -45.913 -35.388   3.491 -0.38 +0.00    +0.101 C  
DOCKED: ENDROOT
DOCKED: BRANCH   2  12
DOCKED: ATOM     12  C   UNL     1     -42.338 -32.809  -1.267 -0.03 +0.00    +0.038 C  
DOCKED: BRANCH  12  13
DOCKED: ATOM     13  C   UNL     1     -41.964 -32.061   0.011 -0.01 +0.00    +0.038 C  
DOCKED: BRANCH  13  14
DOCKED: ATOM     14  C   UNL     1     -40.906 -32.825   0.805 -0.00 +0.00    +0.251 C  
DOCKED: BRANCH  14  15
DOCKED: ATOM     15  N   UNL     1     -41.509 -33.965   1.486 -0.03 +0.00    +0.141 N  
DOCKED: ATOM     16  C   UNL     1     -40.817 -35.204   1.130 -0.04 +0.00    +0.285 C  
DOCKED: ATOM     17  C   UNL     1     -41.487 -33.770   2.937 -0.02 +0.00    +0.285 C  
DOCKED: ENDBRANCH  14  15
DOCKED: ENDBRANCH  13  14
DOCKED: ENDBRANCH  12  13
DOCKED: ENDBRANCH   2  12
DOCKED: BRANCH   2  18
DOCKED: ATOM     18  C   UNL     1     -44.617 -32.061  -1.931 -0.10 +0.00    +0.006 A  
DOCKED: ATOM     19  C   UNL     1     -44.820 -32.060  -3.310 -0.11 +0.00    +0.001 A  
DOCKED: ATOM     20  C   UNL     1     -45.563 -31.038  -3.903 -0.18 +0.00    +0.029 A  
DOCKED: ATOM     21  C   UNL     1     -46.100 -30.020  -3.117 -0.18 +0.00    +0.140 A  
DOCKED: ATOM     22  C   UNL     1     -45.896 -30.022  -1.737 -0.16 +0.00    +0.029 A  
DOCKED: ATOM     23  F   UNL     1     -46.814 -29.040  -3.686 -0.10 -0.00    -0.204 F  
DOCKED: ATOM     24  C   UNL     1     -45.153 -31.043  -1.143 -0.12 +0.00    +0.001 A  
DOCKED: ENDBRANCH   2  18
DOCKED: TORSDOF 5
DOCKED: TER
DOCKED: ENDMDL
________________________________________________________________________________


    FINAL DOCKED STATE:
    ________________________


Run:   41 / 512
Time taken for this run:   0.001s

DOCKED: MODEL        41
DOCKED: USER    Run = 41
DOCKED: USER
DOCKED: USER    Estimated Free Energy of Binding    =  -5.20 kcal/mol  [=(1)+(2)+(3)-(4)]
DOCKED: USER
DOCKED: USER    (1) Final Intermolecular Energy     =  -6.69 kcal/mol
DOCKED: USER        vdW + Hbond + desolv Energy     =  -6.69 kcal/mol
DOCKED: USER        Electrostatic Energy            =  +0.00 kcal/mol
DOCKED: USER        Moving Ligand-Fixed Receptor    =  -6.69 kcal/mol
DOCKED: USER        Moving Ligand-Moving Receptor   =  +0.00 kcal/mol
DOCKED: USER    (2) Final Total Internal Energy     =  -1.36 kcal/mol
DOCKED: USER    (3) Torsional Free Energy           =  +1.49 kcal/mol
DOCKED: USER    (4) Unbound System's Energy         =  -1.36 kcal/mol
DOCKED: USER
DOCKED: USER
DOCKED: REMARK  5 active torsions:
DOCKED: REMARK  status: ('A' for Active; 'I' for Inactive)
DOCKED: REMARK    1  A    between atoms: C_2  and  C_19 
DOCKED: REMARK    2  A    between atoms: C_2  and  C_11 
DOCKED: REMARK    3  A    between atoms: C_19  and  C_20 
DOCKED: REMARK    4  A    between atoms: C_20  and  C_21 
DOCKED: REMARK    5  A    between atoms: C_21  and  N_22 
DOCKED: USER                              x       y       z     vdW  Elec       q    Type
DOCKED: USER                           _______ _______ _______ _____ _____    ______ ____
DOCKED: ROOT
DOCKED: ATOM      1  O   UNL     1     -50.677 -34.384   8.213 -0.08 -0.00    -0.346 OA 
DOCKED: ATOM      2  C   UNL     1     -51.130 -33.004   8.030 -0.23 +0.00    +0.130 C  
DOCKED: ATOM      3  C   UNL     1     -51.756 -33.009   6.665 -0.33 +0.00    +0.004 A  
DOCKED: ATOM      4  C   UNL     1     -51.760 -34.301   6.158 -0.41 +0.00    +0.006 A  
DOCKED: ATOM      5  C   UNL     1     -51.158 -35.229   7.142 -0.10 +0.00    +0.169 C  
DOCKED: ATOM      6  C   UNL     1     -52.289 -31.957   5.936 -0.34 -0.00    -0.001 A  
DOCKED: ATOM      7  C   UNL     1     -52.290 -34.583   4.911 -0.46 +0.00    +0.008 A  
DOCKED: ATOM      8  C   UNL     1     -52.823 -32.225   4.674 +0.01 +0.00    +0.010 A  
DOCKED: ATOM      9  C   UNL     1     -52.824 -33.532   4.165 -0.40 +0.00    +0.068 A  
DOCKED: ATOM     10  N   UNL     1     -53.827 -33.995   1.821 -2.73 -0.00    -0.191 NA 
DOCKED: ATOM     11  C   UNL     1     -53.377 -33.787   2.872 -0.45 +0.00    +0.101 C  
DOCKED: ENDROOT
DOCKED: BRANCH   2  12
DOCKED: ATOM     12  C   UNL     1     -52.124 -32.672   9.137 -0.14 +0.00    +0.038 C  
DOCKED: BRANCH  12  13
DOCKED: ATOM     13  C   UNL     1     -51.514 -32.899  10.519 -0.13 +0.00    +0.038 C  
DOCKED: BRANCH  13  14
DOCKED: ATOM     14  C   UNL     1     -51.484 -31.603  11.326 -0.02 +0.00    +0.251 C  
DOCKED: BRANCH  14  15
DOCKED: ATOM     15  N   UNL     1     -50.108 -31.173  11.544 -0.02 +0.00    +0.141 N  
DOCKED: ATOM     16  C   UNL     1     -49.986 -30.454  12.813 -0.00 +0.00    +0.285 C  
DOCKED: ATOM     17  C   UNL     1     -49.199 -32.321  11.521 -0.04 +0.00    +0.285 C  
DOCKED: ENDBRANCH  14  15
DOCKED: ENDBRANCH  13  14
DOCKED: ENDBRANCH  12  13
DOCKED: ENDBRANCH   2  12
DOCKED: BRANCH   2  18
DOCKED: ATOM     18  C   UNL     1     -49.921 -32.134   8.112 -0.20 +0.00    +0.006 A  
DOCKED: ATOM     19  C   UNL     1     -48.660 -32.706   8.277 -0.10 +0.00    +0.001 A  
DOCKED: ATOM     20  C   UNL     1     -47.531 -31.890   8.354 -0.15 +0.00    +0.029 A  
DOCKED: ATOM     21  C   UNL     1     -47.663 -30.505   8.266 -0.08 +0.00    +0.140 A  
DOCKED: ATOM     22  C   UNL     1     -48.925 -29.934   8.102 -0.11 +0.00    +0.029 A  
DOCKED: ATOM     23  F   UNL     1     -46.578 -29.723   8.338 -0.01 -0.00    -0.204 F  
DOCKED: ATOM     24  C   UNL     1     -50.055 -30.748   8.025 -0.15 +0.00    +0.001 A  
DOCKED: ENDBRANCH   2  18
DOCKED: TORSDOF 5
DOCKED: TER
DOCKED: ENDMDL
________________________________________________________________________________


    FINAL DOCKED STATE:
    ________________________


Run:   42 / 512
Time taken for this run:   0.001s

DOCKED: MODEL        42
DOCKED: USER    Run = 42
DOCKED: USER
DOCKED: USER    Estimated Free Energy of Binding    =  -4.03 kcal/mol  [=(1)+(2)+(3)-(4)]
DOCKED: USER
DOCKED: USER    (1) Final Intermolecular Energy     =  -5.52 kcal/mol
DOCKED: USER        vdW + Hbond + desolv Energy     =  -5.52 kcal/mol
DOCKED: USER        Electrostatic Energy            =  +0.00 kcal/mol
DOCKED: USER        Moving Ligand-Fixed Receptor    =  -5.52 kcal/mol
DOCKED: USER        Moving Ligand-Moving Receptor   =  +0.00 kcal/mol
DOCKED: USER    (2) Final Total Internal Energy     =  -1.35 kcal/mol
DOCKED: USER    (3) Torsional Free Energy           =  +1.49 kcal/mol
DOCKED: USER    (4) Unbound System's Energy         =  -1.35 kcal/mol
DOCKED: USER
DOCKED: USER
DOCKED: REMARK  5 active torsions:
DOCKED: REMARK  status: ('A' for Active; 'I' for Inactive)
DOCKED: REMARK    1  A    between atoms: C_2  and  C_19 
DOCKED: REMARK    2  A    between atoms: C_2  and  C_11 
DOCKED: REMARK    3  A    between atoms: C_19  and  C_20 
DOCKED: REMARK    4  A    between atoms: C_20  and  C_21 
DOCKED: REMARK    5  A    between atoms: C_21  and  N_22 
DOCKED: USER                              x       y       z     vdW  Elec       q    Type
DOCKED: USER                           _______ _______ _______ _____ _____    ______ ____
DOCKED: ROOT
DOCKED: ATOM      1  O   UNL     1     -51.582 -28.816   7.314 -0.05 -0.00    -0.346 OA 
DOCKED: ATOM      2  C   UNL     1     -50.560 -29.773   7.739 -0.13 +0.00    +0.130 C  
DOCKED: ATOM      3  C   UNL     1     -51.110 -31.102   7.307 -0.22 +0.00    +0.004 A  
DOCKED: ATOM      4  C   UNL     1     -52.288 -30.912   6.599 -0.27 +0.00    +0.006 A  
DOCKED: ATOM      5  C   UNL     1     -52.589 -29.466   6.504 -0.16 +0.00    +0.169 C  
DOCKED: ATOM      6  C   UNL     1     -50.601 -32.376   7.514 -0.23 -0.00    -0.001 A  
DOCKED: ATOM      7  C   UNL     1     -52.997 -31.982   6.080 -0.31 +0.00    +0.008 A  
DOCKED: ATOM      8  C   UNL     1     -51.307 -33.465   7.001 -0.34 +0.00    +0.010 A  
DOCKED: ATOM      9  C   UNL     1     -52.499 -33.269   6.287 -0.30 +0.00    +0.068 A  
DOCKED: ATOM     10  N   UNL     1     -53.782 -35.313   5.344 -2.56 -0.00    -0.191 NA 
DOCKED: ATOM     11  C   UNL     1     -53.207 -34.396   5.768 -0.36 +0.00    +0.101 C  
DOCKED: ENDROOT
DOCKED: BRANCH   2  12
DOCKED: ATOM     12  C   UNL     1     -49.249 -29.419   7.047 -0.15 +0.00    +0.038 C  
DOCKED: BRANCH  12  13
DOCKED: ATOM     13  C   UNL     1     -49.482 -28.493   5.855 -0.16 +0.00    +0.038 C  
DOCKED: BRANCH  13  14
DOCKED: ATOM     14  C   UNL     1     -48.738 -27.171   6.033 -0.05 +0.00    +0.251 C  
DOCKED: BRANCH  14  15
DOCKED: ATOM     15  N   UNL     1     -49.684 -26.064   6.117 -0.04 +0.00    +0.141 N  
DOCKED: ATOM     16  C   UNL     1     -50.581 -26.063   4.961 -0.07 +0.00    +0.285 C  
DOCKED: ATOM     17  C   UNL     1     -50.456 -26.139   7.359 -0.02 +0.00    +0.285 C  
DOCKED: ENDBRANCH  14  15
DOCKED: ENDBRANCH  13  14
DOCKED: ENDBRANCH  12  13
DOCKED: ENDBRANCH   2  12
DOCKED: BRANCH   2  18
DOCKED: ATOM     18  C   UNL     1     -50.436 -29.649   9.221 -0.04 +0.00    +0.006 A  
DOCKED: ATOM     19  C   UNL     1     -51.379 -30.254  10.052 -0.03 +0.00    +0.001 A  
DOCKED: ATOM     20  C   UNL     1     -51.262 -30.137  11.438 -0.01 +0.00    +0.029 A  
DOCKED: ATOM     21  C   UNL     1     -50.204 -29.417  11.990 -0.00 +0.00    +0.140 A  
DOCKED: ATOM     22  C   UNL     1     -49.261 -28.813  11.158 -0.01 +0.00    +0.029 A  
DOCKED: ATOM     23  F   UNL     1     -50.091 -29.306  13.320 +0.00 -0.00    -0.204 F  
DOCKED: ATOM     24  C   UNL     1     -49.377 -28.929   9.772 -0.02 +0.00    +0.001 A  
DOCKED: ENDBRANCH   2  18
DOCKED: TORSDOF 5
DOCKED: TER
DOCKED: ENDMDL
________________________________________________________________________________


    FINAL DOCKED STATE:
    ________________________


Run:   43 / 512
Time taken for this run:   0.001s

DOCKED: MODEL        43
DOCKED: USER    Run = 43
DOCKED: USER
DOCKED: USER    Estimated Free Energy of Binding    =  -4.47 kcal/mol  [=(1)+(2)+(3)-(4)]
DOCKED: USER
DOCKED: USER    (1) Final Intermolecular Energy     =  -5.96 kcal/mol
DOCKED: USER        vdW + Hbond + desolv Energy     =  -5.96 kcal/mol
DOCKED: USER        Electrostatic Energy            =  +0.00 kcal/mol
DOCKED: USER        Moving Ligand-Fixed Receptor    =  -5.96 kcal/mol
DOCKED: USER        Moving Ligand-Moving Receptor   =  +0.00 kcal/mol
DOCKED: USER    (2) Final Total Internal Energy     =  -1.16 kcal/mol
DOCKED: USER    (3) Torsional Free Energy           =  +1.49 kcal/mol
DOCKED: USER    (4) Unbound System's Energy         =  -1.16 kcal/mol
DOCKED: USER
DOCKED: USER
DOCKED: REMARK  5 active torsions:
DOCKED: REMARK  status: ('A' for Active; 'I' for Inactive)
DOCKED: REMARK    1  A    between atoms: C_2  and  C_19 
DOCKED: REMARK    2  A    between atoms: C_2  and  C_11 
DOCKED: REMARK    3  A    between atoms: C_19  and  C_20 
DOCKED: REMARK    4  A    between atoms: C_20  and  C_21 
DOCKED: REMARK    5  A    between atoms: C_21  and  N_22 
DOCKED: USER                              x       y       z     vdW  Elec       q    Type
DOCKED: USER                           _______ _______ _______ _____ _____    ______ ____
DOCKED: ROOT
DOCKED: ATOM      1  O   UNL     1     -51.232 -28.716   6.865 -0.07 -0.00    -0.346 OA 
DOCKED: ATOM      2  C   UNL     1     -52.624 -28.756   7.314 -0.15 +0.00    +0.130 C  
DOCKED: ATOM      3  C   UNL     1     -53.083 -30.136   6.940 -0.22 +0.00    +0.004 A  
DOCKED: ATOM      4  C   UNL     1     -52.017 -30.859   6.424 -0.27 +0.00    +0.006 A  
DOCKED: ATOM      5  C   UNL     1     -50.794 -30.025   6.432 -0.17 +0.00    +0.169 C  
DOCKED: ATOM      6  C   UNL     1     -54.341 -30.709   7.058 -0.22 -0.00    -0.001 A  
DOCKED: ATOM      7  C   UNL     1     -52.170 -32.170   6.006 -0.34 +0.00    +0.008 A  
DOCKED: ATOM      8  C   UNL     1     -54.512 -32.029   6.637 -0.23 +0.00    +0.010 A  
DOCKED: ATOM      9  C   UNL     1     -53.432 -32.755   6.114 -0.26 +0.00    +0.068 A  
DOCKED: ATOM     10  N   UNL     1     -53.784 -35.205   5.347 -2.56 -0.00    -0.191 NA 
DOCKED: ATOM     11  C   UNL     1     -53.626 -34.106   5.690 -0.36 +0.00    +0.101 C  
DOCKED: ENDROOT
DOCKED: BRANCH   2  12
DOCKED: ATOM     12  C   UNL     1     -52.653 -28.508   8.818 -0.05 +0.00    +0.038 C  
DOCKED: BRANCH  12  13
DOCKED: ATOM     13  C   UNL     1     -51.359 -28.971   9.484 -0.03 +0.00    +0.038 C  
DOCKED: BRANCH  13  14
DOCKED: ATOM     14  C   UNL     1     -51.316 -30.493   9.603 -0.02 +0.00    +0.251 C  
DOCKED: BRANCH  14  15
DOCKED: ATOM     15  N   UNL     1     -52.033 -30.929  10.795 -0.02 +0.00    +0.141 N  
DOCKED: ATOM     16  C   UNL     1     -53.440 -31.189  10.484 -0.01 +0.00    +0.285 C  
DOCKED: ATOM     17  C   UNL     1     -51.410 -32.125  11.364 -0.02 +0.00    +0.285 C  
DOCKED: ENDBRANCH  14  15
DOCKED: ENDBRANCH  13  14
DOCKED: ENDBRANCH  12  13
DOCKED: ENDBRANCH   2  12
DOCKED: BRANCH   2  18
DOCKED: ATOM     18  C   UNL     1     -53.351 -27.682   6.577 -0.20 +0.00    +0.006 A  
DOCKED: ATOM     19  C   UNL     1     -54.730 -27.543   6.730 -0.21 +0.00    +0.001 A  
DOCKED: ATOM     20  C   UNL     1     -55.409 -26.538   6.040 -0.15 +0.00    +0.029 A  
DOCKED: ATOM     21  C   UNL     1     -54.709 -25.674   5.199 -0.09 +0.00    +0.140 A  
DOCKED: ATOM     22  C   UNL     1     -53.330 -25.813   5.047 -0.15 +0.00    +0.029 A  
DOCKED: ATOM     23  F   UNL     1     -55.361 -24.708   4.539 -0.03 -0.00    -0.204 F  
DOCKED: ATOM     24  C   UNL     1     -52.650 -26.818   5.737 -0.15 +0.00    +0.001 A  
DOCKED: ENDBRANCH   2  18
DOCKED: TORSDOF 5
DOCKED: TER
DOCKED: ENDMDL
________________________________________________________________________________


    FINAL DOCKED STATE:
    ________________________


Run:   44 / 512
Time taken for this run:   0.001s

DOCKED: MODEL        44
DOCKED: USER    Run = 44
DOCKED: USER
DOCKED: USER    Estimated Free Energy of Binding    =  -5.36 kcal/mol  [=(1)+(2)+(3)-(4)]
DOCKED: USER
DOCKED: USER    (1) Final Intermolecular Energy     =  -6.86 kcal/mol
DOCKED: USER        vdW + Hbond + desolv Energy     =  -6.86 kcal/mol
DOCKED: USER        Electrostatic Energy            =  +0.00 kcal/mol
DOCKED: USER        Moving Ligand-Fixed Receptor    =  -6.86 kcal/mol
DOCKED: USER        Moving Ligand-Moving Receptor   =  +0.00 kcal/mol
DOCKED: USER    (2) Final Total Internal Energy     =  -1.26 kcal/mol
DOCKED: USER    (3) Torsional Free Energy           =  +1.49 kcal/mol
DOCKED: USER    (4) Unbound System's Energy         =  -1.26 kcal/mol
DOCKED: USER
DOCKED: USER
DOCKED: REMARK  5 active torsions:
DOCKED: REMARK  status: ('A' for Active; 'I' for Inactive)
DOCKED: REMARK    1  A    between atoms: C_2  and  C_19 
DOCKED: REMARK    2  A    between atoms: C_2  and  C_11 
DOCKED: REMARK    3  A    between atoms: C_19  and  C_20 
DOCKED: REMARK    4  A    between atoms: C_20  and  C_21 
DOCKED: REMARK    5  A    between atoms: C_21  and  N_22 
DOCKED: USER                              x       y       z     vdW  Elec       q    Type
DOCKED: USER                           _______ _______ _______ _____ _____    ______ ____
DOCKED: ROOT
DOCKED: ATOM      1  O   UNL     1     -51.368 -30.989   7.812 -0.06 -0.00    -0.346 OA 
DOCKED: ATOM      2  C   UNL     1     -51.057 -32.416   7.908 -0.22 +0.00    +0.130 C  
DOCKED: ATOM      3  C   UNL     1     -51.636 -32.995   6.649 -0.33 +0.00    +0.004 A  
DOCKED: ATOM      4  C   UNL     1     -52.135 -31.975   5.852 -0.32 +0.00    +0.006 A  
DOCKED: ATOM      5  C   UNL     1     -51.914 -30.668   6.511 -0.23 +0.00    +0.169 C  
DOCKED: ATOM      6  C   UNL     1     -51.705 -34.318   6.238 -0.42 -0.00    -0.001 A  
DOCKED: ATOM      7  C   UNL     1     -52.721 -32.239   4.626 -0.07 +0.00    +0.008 A  
DOCKED: ATOM      8  C   UNL     1     -52.297 -34.602   5.005 -0.47 +0.00    +0.010 A  
DOCKED: ATOM      9  C   UNL     1     -52.802 -33.567   4.204 -0.41 +0.00    +0.068 A  
DOCKED: ATOM     10  N   UNL     1     -53.889 -34.127   1.920 -2.55 -0.00    -0.191 NA 
DOCKED: ATOM     11  C   UNL     1     -53.402 -33.876   2.944 -0.48 +0.00    +0.101 C  
DOCKED: ENDROOT
DOCKED: BRANCH   2  12
DOCKED: ATOM     12  C   UNL     1     -49.544 -32.576   7.993 -0.19 +0.00    +0.038 C  
DOCKED: BRANCH  12  13
DOCKED: ATOM     13  C   UNL     1     -48.974 -31.839   9.203 -0.16 +0.00    +0.038 C  
DOCKED: BRANCH  13  14
DOCKED: ATOM     14  C   UNL     1     -48.020 -32.734   9.992 -0.04 +0.00    +0.251 C  
DOCKED: BRANCH  14  15
DOCKED: ATOM     15  N   UNL     1     -48.018 -32.356  11.400 -0.06 +0.00    +0.141 N  
DOCKED: ATOM     16  C   UNL     1     -49.224 -31.596  11.733 -0.02 +0.00    +0.285 C  
DOCKED: ATOM     17  C   UNL     1     -47.914 -33.542  12.252 -0.08 +0.00    +0.285 C  
DOCKED: ENDBRANCH  14  15
DOCKED: ENDBRANCH  13  14
DOCKED: ENDBRANCH  12  13
DOCKED: ENDBRANCH   2  12
DOCKED: BRANCH   2  18
DOCKED: ATOM     18  C   UNL     1     -51.723 -32.926   9.142 -0.15 +0.00    +0.006 A  
DOCKED: ATOM     19  C   UNL     1     -51.668 -34.284   9.454 -0.23 +0.00    +0.001 A  
DOCKED: ATOM     20  C   UNL     1     -52.291 -34.759  10.609 -0.17 +0.00    +0.029 A  
DOCKED: ATOM     21  C   UNL     1     -52.968 -33.876  11.449 -0.09 +0.00    +0.140 A  
DOCKED: ATOM     22  C   UNL     1     -53.023 -32.518  11.136 -0.05 +0.00    +0.029 A  
DOCKED: ATOM     23  F   UNL     1     -53.565 -34.332  12.558 -0.01 -0.00    -0.204 F  
DOCKED: ATOM     24  C   UNL     1     -52.400 -32.042   9.982 -0.07 +0.00    +0.001 A  
DOCKED: ENDBRANCH   2  18
DOCKED: TORSDOF 5
DOCKED: TER
DOCKED: ENDMDL
________________________________________________________________________________


    FINAL DOCKED STATE:
    ________________________


Run:   45 / 512
Time taken for this run:   0.001s

DOCKED: MODEL        45
DOCKED: USER    Run = 45
DOCKED: USER
DOCKED: USER    Estimated Free Energy of Binding    =  -4.19 kcal/mol  [=(1)+(2)+(3)-(4)]
DOCKED: USER
DOCKED: USER    (1) Final Intermolecular Energy     =  -5.68 kcal/mol
DOCKED: USER        vdW + Hbond + desolv Energy     =  -5.68 kcal/mol
DOCKED: USER        Electrostatic Energy            =  +0.00 kcal/mol
DOCKED: USER        Moving Ligand-Fixed Receptor    =  -5.68 kcal/mol
DOCKED: USER        Moving Ligand-Moving Receptor   =  +0.00 kcal/mol
DOCKED: USER    (2) Final Total Internal Energy     =  -1.36 kcal/mol
DOCKED: USER    (3) Torsional Free Energy           =  +1.49 kcal/mol
DOCKED: USER    (4) Unbound System's Energy         =  -1.36 kcal/mol
DOCKED: USER
DOCKED: USER
DOCKED: REMARK  5 active torsions:
DOCKED: REMARK  status: ('A' for Active; 'I' for Inactive)
DOCKED: REMARK    1  A    between atoms: C_2  and  C_19 
DOCKED: REMARK    2  A    between atoms: C_2  and  C_11 
DOCKED: REMARK    3  A    between atoms: C_19  and  C_20 
DOCKED: REMARK    4  A    between atoms: C_20  and  C_21 
DOCKED: REMARK    5  A    between atoms: C_21  and  N_22 
DOCKED: USER                              x       y       z     vdW  Elec       q    Type
DOCKED: USER                           _______ _______ _______ _____ _____    ______ ____
DOCKED: ROOT
DOCKED: ATOM      1  O   UNL     1     -49.274 -31.117   9.012 -0.05 -0.00    -0.346 OA 
DOCKED: ATOM      2  C   UNL     1     -49.943 -30.269   8.024 -0.12 +0.00    +0.130 C  
DOCKED: ATOM      3  C   UNL     1     -50.848 -31.217   7.292 -0.22 +0.00    +0.004 A  
DOCKED: ATOM      4  C   UNL     1     -50.786 -32.472   7.881 -0.24 +0.00    +0.006 A  
DOCKED: ATOM      5  C   UNL     1     -49.858 -32.440   9.034 -0.15 +0.00    +0.169 C  
DOCKED: ATOM      6  C   UNL     1     -51.671 -30.984   6.199 -0.26 -0.00    -0.001 A  
DOCKED: ATOM      7  C   UNL     1     -51.534 -33.532   7.398 -0.32 +0.00    +0.008 A  
DOCKED: ATOM      8  C   UNL     1     -52.428 -32.044   5.698 -0.33 +0.00    +0.010 A  
DOCKED: ATOM      9  C   UNL     1     -52.360 -33.312   6.296 -0.31 +0.00    +0.068 A  
DOCKED: ATOM     10  N   UNL     1     -53.783 -35.257   5.344 -2.56 -0.00    -0.191 NA 
DOCKED: ATOM     11  C   UNL     1     -53.144 -34.385   5.771 -0.37 +0.00    +0.101 C  
DOCKED: ENDROOT
DOCKED: BRANCH   2  12
DOCKED: ATOM     12  C   UNL     1     -50.703 -29.174   8.764 -0.06 +0.00    +0.038 C  
DOCKED: BRANCH  12  13
DOCKED: ATOM     13  C   UNL     1     -49.890 -28.625   9.935 -0.02 +0.00    +0.038 C  
DOCKED: BRANCH  13  14
DOCKED: ATOM     14  C   UNL     1     -49.892 -27.098   9.936 -0.00 +0.00    +0.251 C  
DOCKED: BRANCH  14  15
DOCKED: ATOM     15  N   UNL     1     -48.550 -26.589   9.679 -0.00 +0.00    +0.141 N  
DOCKED: ATOM     16  C   UNL     1     -47.541 -27.489  10.240 -0.00 +0.00    +0.285 C  
DOCKED: ATOM     17  C   UNL     1     -48.331 -26.414   8.243 -0.00 +0.00    +0.285 C  
DOCKED: ENDBRANCH  14  15
DOCKED: ENDBRANCH  13  14
DOCKED: ENDBRANCH  12  13
DOCKED: ENDBRANCH   2  12
DOCKED: BRANCH   2  18
DOCKED: ATOM     18  C   UNL     1     -48.879 -29.691   7.153 -0.11 +0.00    +0.006 A  
DOCKED: ATOM     19  C   UNL     1     -47.535 -29.908   7.457 -0.10 +0.00    +0.001 A  
DOCKED: ATOM     20  C   UNL     1     -46.541 -29.366   6.642 -0.09 +0.00    +0.029 A  
DOCKED: ATOM     21  C   UNL     1     -46.891 -28.610   5.524 -0.07 +0.00    +0.140 A  
DOCKED: ATOM     22  C   UNL     1     -48.235 -28.394   5.220 -0.13 +0.00    +0.029 A  
DOCKED: ATOM     23  F   UNL     1     -45.936 -28.092   4.740 -0.01 -0.00    -0.204 F  
DOCKED: ATOM     24  C   UNL     1     -49.230 -28.935   6.036 -0.15 +0.00    +0.001 A  
DOCKED: ENDBRANCH   2  18
DOCKED: TORSDOF 5
DOCKED: TER
DOCKED: ENDMDL
________________________________________________________________________________


    FINAL DOCKED STATE:
    ________________________


Run:   46 / 512
Time taken for this run:   0.001s

DOCKED: MODEL        46
DOCKED: USER    Run = 46
DOCKED: USER
DOCKED: USER    Estimated Free Energy of Binding    =  -4.33 kcal/mol  [=(1)+(2)+(3)-(4)]
DOCKED: USER
DOCKED: USER    (1) Final Intermolecular Energy     =  -5.82 kcal/mol
DOCKED: USER        vdW + Hbond + desolv Energy     =  -5.82 kcal/mol
DOCKED: USER        Electrostatic Energy            =  +0.00 kcal/mol
DOCKED: USER        Moving Ligand-Fixed Receptor    =  -5.82 kcal/mol
DOCKED: USER        Moving Ligand-Moving Receptor   =  +0.00 kcal/mol
DOCKED: USER    (2) Final Total Internal Energy     =  -1.17 kcal/mol
DOCKED: USER    (3) Torsional Free Energy           =  +1.49 kcal/mol
DOCKED: USER    (4) Unbound System's Energy         =  -1.17 kcal/mol
DOCKED: USER
DOCKED: USER
DOCKED: REMARK  5 active torsions:
DOCKED: REMARK  status: ('A' for Active; 'I' for Inactive)
DOCKED: REMARK    1  A    between atoms: C_2  and  C_19 
DOCKED: REMARK    2  A    between atoms: C_2  and  C_11 
DOCKED: REMARK    3  A    between atoms: C_19  and  C_20 
DOCKED: REMARK    4  A    between atoms: C_20  and  C_21 
DOCKED: REMARK    5  A    between atoms: C_21  and  N_22 
DOCKED: USER                              x       y       z     vdW  Elec       q    Type
DOCKED: USER                           _______ _______ _______ _____ _____    ______ ____
DOCKED: ROOT
DOCKED: ATOM      1  O   UNL     1     -55.970 -29.227   7.640 -0.06 -0.00    -0.346 OA 
DOCKED: ATOM      2  C   UNL     1     -54.567 -29.024   7.274 -0.20 +0.00    +0.130 C  
DOCKED: ATOM      3  C   UNL     1     -54.112 -30.383   6.827 -0.22 +0.00    +0.004 A  
DOCKED: ATOM      4  C   UNL     1     -55.187 -31.260   6.832 -0.22 +0.00    +0.006 A  
DOCKED: ATOM      5  C   UNL     1     -56.413 -30.551   7.262 -0.19 +0.00    +0.169 C  
DOCKED: ATOM      6  C   UNL     1     -52.850 -30.806   6.437 -0.26 -0.00    -0.001 A  
DOCKED: ATOM      7  C   UNL     1     -55.039 -32.584   6.453 -0.25 +0.00    +0.008 A  
DOCKED: ATOM      8  C   UNL     1     -52.683 -32.138   6.057 -0.33 +0.00    +0.010 A  
DOCKED: ATOM      9  C   UNL     1     -53.772 -33.023   6.064 -0.25 +0.00    +0.068 A  
DOCKED: ATOM     10  N   UNL     1     -53.429 -35.489   5.348 -2.60 -0.00    -0.191 NA 
DOCKED: ATOM     11  C   UNL     1     -53.583 -34.383   5.670 -0.37 +0.00    +0.101 C  
DOCKED: ENDROOT
DOCKED: BRANCH   2  12
DOCKED: ATOM     12  C   UNL     1     -54.505 -27.982   6.163 -0.12 +0.00    +0.038 C  
DOCKED: BRANCH  12  13
DOCKED: ATOM     13  C   UNL     1     -54.673 -26.568   6.715 -0.17 +0.00    +0.038 C  
DOCKED: BRANCH  13  14
DOCKED: ATOM     14  C   UNL     1     -53.700 -25.598   6.048 -0.10 +0.00    +0.251 C  
DOCKED: BRANCH  14  15
DOCKED: ATOM     15  N   UNL     1     -52.648 -26.332   5.355 -0.15 +0.00    +0.141 N  
DOCKED: ATOM     16  C   UNL     1     -52.354 -25.713   4.061 -0.09 +0.00    +0.285 C  
DOCKED: ATOM     17  C   UNL     1     -51.436 -26.395   6.174 -0.07 +0.00    +0.285 C  
DOCKED: ENDBRANCH  14  15
DOCKED: ENDBRANCH  13  14
DOCKED: ENDBRANCH  12  13
DOCKED: ENDBRANCH   2  12
DOCKED: BRANCH   2  18
DOCKED: ATOM     18  C   UNL     1     -53.861 -28.547   8.499 -0.07 +0.00    +0.006 A  
DOCKED: ATOM     19  C   UNL     1     -52.472 -28.429   8.501 -0.06 +0.00    +0.001 A  
DOCKED: ATOM     20  C   UNL     1     -51.813 -27.983   9.647 -0.02 +0.00    +0.029 A  
DOCKED: ATOM     21  C   UNL     1     -52.543 -27.657  10.789 -0.00 +0.00    +0.140 A  
DOCKED: ATOM     22  C   UNL     1     -53.933 -27.776  10.787 -0.01 +0.00    +0.029 A  
DOCKED: ATOM     23  F   UNL     1     -51.911 -27.228  11.889 +0.00 -0.00    -0.204 F  
DOCKED: ATOM     24  C   UNL     1     -54.593 -28.222   9.640 -0.03 +0.00    +0.001 A  
DOCKED: ENDBRANCH   2  18
DOCKED: TORSDOF 5
DOCKED: TER
DOCKED: ENDMDL
________________________________________________________________________________


    FINAL DOCKED STATE:
    ________________________


Run:   47 / 512
Time taken for this run:   0.001s

DOCKED: MODEL        47
DOCKED: USER    Run = 47
DOCKED: USER
DOCKED: USER    Estimated Free Energy of Binding    =  -3.50 kcal/mol  [=(1)+(2)+(3)-(4)]
DOCKED: USER
DOCKED: USER    (1) Final Intermolecular Energy     =  -4.99 kcal/mol
DOCKED: USER        vdW + Hbond + desolv Energy     =  -4.99 kcal/mol
DOCKED: USER        Electrostatic Energy            =  +0.00 kcal/mol
DOCKED: USER        Moving Ligand-Fixed Receptor    =  -4.99 kcal/mol
DOCKED: USER        Moving Ligand-Moving Receptor   =  +0.00 kcal/mol
DOCKED: USER    (2) Final Total Internal Energy     =  -1.49 kcal/mol
DOCKED: USER    (3) Torsional Free Energy           =  +1.49 kcal/mol
DOCKED: USER    (4) Unbound System's Energy         =  -1.49 kcal/mol
DOCKED: USER
DOCKED: USER
DOCKED: REMARK  5 active torsions:
DOCKED: REMARK  status: ('A' for Active; 'I' for Inactive)
DOCKED: REMARK    1  A    between atoms: C_2  and  C_19 
DOCKED: REMARK    2  A    between atoms: C_2  and  C_11 
DOCKED: REMARK    3  A    between atoms: C_19  and  C_20 
DOCKED: REMARK    4  A    between atoms: C_20  and  C_21 
DOCKED: REMARK    5  A    between atoms: C_21  and  N_22 
DOCKED: USER                              x       y       z     vdW  Elec       q    Type
DOCKED: USER                           _______ _______ _______ _____ _____    ______ ____
DOCKED: ROOT
DOCKED: ATOM      1  O   UNL     1     -45.467 -20.487  -2.203 -0.05 -0.00    -0.346 OA 
DOCKED: ATOM      2  C   UNL     1     -45.342 -20.851  -3.615 -0.10 +0.00    +0.130 C  
DOCKED: ATOM      3  C   UNL     1     -46.715 -21.333  -3.986 -0.18 +0.00    +0.004 A  
DOCKED: ATOM      4  C   UNL     1     -47.577 -21.156  -2.913 -0.24 +0.00    +0.006 A  
DOCKED: ATOM      5  C   UNL     1     -46.849 -20.543  -1.779 -0.20 +0.00    +0.169 C  
DOCKED: ATOM      6  C   UNL     1     -47.167 -21.873  -5.181 -0.22 -0.00    -0.001 A  
DOCKED: ATOM      7  C   UNL     1     -48.911 -21.515  -2.994 -0.30 +0.00    +0.008 A  
DOCKED: ATOM      8  C   UNL     1     -48.509 -22.244  -5.277 -0.35 +0.00    +0.010 A  
DOCKED: ATOM      9  C   UNL     1     -49.377 -22.065  -4.189 -0.40 +0.00    +0.068 A  
DOCKED: ATOM     10  N   UNL     1     -51.864 -22.760  -4.404 -2.48 -0.00    -0.191 NA 
DOCKED: ATOM     11  C   UNL     1     -50.748 -22.449  -4.307 -0.17 +0.00    +0.101 C  
DOCKED: ENDROOT
DOCKED: BRANCH   2  12
DOCKED: ATOM     12  C   UNL     1     -44.916 -19.613  -4.397 -0.12 +0.00    +0.038 C  
DOCKED: BRANCH  12  13
DOCKED: ATOM     13  C   UNL     1     -44.061 -18.681  -3.540 -0.09 +0.00    +0.038 C  
DOCKED: BRANCH  13  14
DOCKED: ATOM     14  C   UNL     1     -42.599 -18.719  -3.979 -0.01 +0.00    +0.251 C  
DOCKED: BRANCH  14  15
DOCKED: ATOM     15  N   UNL     1     -41.850 -19.670  -3.165 -0.00 +0.00    +0.141 N  
DOCKED: ATOM     16  C   UNL     1     -40.444 -19.275  -3.073 +0.00 +0.00    +0.285 C  
DOCKED: ATOM     17  C   UNL     1     -42.436 -19.778  -1.828 +0.00 +0.00    +0.285 C  
DOCKED: ENDBRANCH  14  15
DOCKED: ENDBRANCH  13  14
DOCKED: ENDBRANCH  12  13
DOCKED: ENDBRANCH   2  12
DOCKED: BRANCH   2  18
DOCKED: ATOM     18  C   UNL     1     -44.307 -21.923  -3.700 -0.03 +0.00    +0.006 A  
DOCKED: ATOM     19  C   UNL     1     -43.555 -22.076  -4.864 -0.02 +0.00    +0.001 A  
DOCKED: ATOM     20  C   UNL     1     -42.588 -23.079  -4.941 -0.00 +0.00    +0.029 A  
DOCKED: ATOM     21  C   UNL     1     -42.374 -23.927  -3.855 -0.00 +0.00    +0.140 A  
DOCKED: ATOM     22  C   UNL     1     -43.127 -23.773  -2.691 -0.01 +0.00    +0.029 A  
DOCKED: ATOM     23  F   UNL     1     -41.445 -24.888  -3.929 +0.00 -0.00    -0.204 F  
DOCKED: ATOM     24  C   UNL     1     -44.094 -22.770  -2.613 -0.02 +0.00    +0.001 A  
DOCKED: ENDBRANCH   2  18
DOCKED: TORSDOF 5
DOCKED: TER
DOCKED: ENDMDL
________________________________________________________________________________


    FINAL DOCKED STATE:
    ________________________


Run:   48 / 512
Time taken for this run:   0.001s

DOCKED: MODEL        48
DOCKED: USER    Run = 48
DOCKED: USER
DOCKED: USER    Estimated Free Energy of Binding    =  -6.56 kcal/mol  [=(1)+(2)+(3)-(4)]
DOCKED: USER
DOCKED: USER    (1) Final Intermolecular Energy     =  -8.05 kcal/mol
DOCKED: USER        vdW + Hbond + desolv Energy     =  -8.05 kcal/mol
DOCKED: USER        Electrostatic Energy            =  +0.00 kcal/mol
DOCKED: USER        Moving Ligand-Fixed Receptor    =  -8.05 kcal/mol
DOCKED: USER        Moving Ligand-Moving Receptor   =  +0.00 kcal/mol
DOCKED: USER    (2) Final Total Internal Energy     =  -1.28 kcal/mol
DOCKED: USER    (3) Torsional Free Energy           =  +1.49 kcal/mol
DOCKED: USER    (4) Unbound System's Energy         =  -1.28 kcal/mol
DOCKED: USER
DOCKED: USER
DOCKED: REMARK  5 active torsions:
DOCKED: REMARK  status: ('A' for Active; 'I' for Inactive)
DOCKED: REMARK    1  A    between atoms: C_2  and  C_19 
DOCKED: REMARK    2  A    between atoms: C_2  and  C_11 
DOCKED: REMARK    3  A    between atoms: C_19  and  C_20 
DOCKED: REMARK    4  A    between atoms: C_20  and  C_21 
DOCKED: REMARK    5  A    between atoms: C_21  and  N_22 
DOCKED: USER                              x       y       z     vdW  Elec       q    Type
DOCKED: USER                           _______ _______ _______ _____ _____    ______ ____
DOCKED: ROOT
DOCKED: ATOM      1  O   UNL     1     -50.690 -34.955   7.406 -0.42 -0.00    -0.346 OA 
DOCKED: ATOM      2  C   UNL     1     -51.756 -33.981   7.648 -0.29 +0.00    +0.130 C  
DOCKED: ATOM      3  C   UNL     1     -52.415 -33.830   6.307 -0.37 +0.00    +0.004 A  
DOCKED: ATOM      4  C   UNL     1     -51.849 -34.720   5.406 -0.38 +0.00    +0.006 A  
DOCKED: ATOM      5  C   UNL     1     -50.801 -35.519   6.079 -0.13 +0.00    +0.169 C  
DOCKED: ATOM      6  C   UNL     1     -53.441 -32.980   5.920 -0.33 -0.00    -0.001 A  
DOCKED: ATOM      7  C   UNL     1     -52.283 -34.789   4.093 -0.31 +0.00    +0.008 A  
DOCKED: ATOM      8  C   UNL     1     -53.887 -33.035   4.599 -0.22 +0.00    +0.010 A  
DOCKED: ATOM      9  C   UNL     1     -53.311 -33.935   3.690 -0.46 +0.00    +0.068 A  
DOCKED: ATOM     10  N   UNL     1     -54.165 -34.014   1.245 -3.31 -0.00    -0.191 NA 
DOCKED: ATOM     11  C   UNL     1     -53.781 -33.978   2.341 -0.29 +0.00    +0.101 C  
DOCKED: ENDROOT
DOCKED: BRANCH   2  12
DOCKED: ATOM     12  C   UNL     1     -52.693 -34.544   8.710 -0.30 +0.00    +0.038 C  
DOCKED: BRANCH  12  13
DOCKED: ATOM     13  C   UNL     1     -53.979 -33.727   8.807 -0.20 +0.00    +0.038 C  
DOCKED: BRANCH  13  14
DOCKED: ATOM     14  C   UNL     1     -53.788 -32.506   9.704 -0.03 +0.00    +0.251 C  
DOCKED: BRANCH  14  15
DOCKED: ATOM     15  N   UNL     1     -54.067 -31.282   8.962 -0.04 +0.00    +0.141 N  
DOCKED: ATOM     16  C   UNL     1     -55.375 -31.360   8.310 -0.04 +0.00    +0.285 C  
DOCKED: ATOM     17  C   UNL     1     -54.009 -30.117   9.846 -0.01 +0.00    +0.285 C  
DOCKED: ENDBRANCH  14  15
DOCKED: ENDBRANCH  13  14
DOCKED: ENDBRANCH  12  13
DOCKED: ENDBRANCH   2  12
DOCKED: BRANCH   2  18
DOCKED: ATOM     18  C   UNL     1     -51.101 -32.726   8.119 -0.23 +0.00    +0.006 A  
DOCKED: ATOM     19  C   UNL     1     -50.507 -32.681   9.380 -0.16 +0.00    +0.001 A  
DOCKED: ATOM     20  C   UNL     1     -49.895 -31.506   9.819 -0.09 +0.00    +0.029 A  
DOCKED: ATOM     21  C   UNL     1     -49.877 -30.380   8.997 -0.06 +0.00    +0.140 A  
DOCKED: ATOM     22  C   UNL     1     -50.470 -30.426   7.736 -0.15 +0.00    +0.029 A  
DOCKED: ATOM     23  F   UNL     1     -49.288 -29.253   9.419 -0.00 -0.00    -0.204 F  
DOCKED: ATOM     24  C   UNL     1     -51.083 -31.600   7.296 -0.24 +0.00    +0.001 A  
DOCKED: ENDBRANCH   2  18
DOCKED: TORSDOF 5
DOCKED: TER
DOCKED: ENDMDL
________________________________________________________________________________


    FINAL DOCKED STATE:
    ________________________


Run:   49 / 512
Time taken for this run:   0.001s

DOCKED: MODEL        49
DOCKED: USER    Run = 49
DOCKED: USER
DOCKED: USER    Estimated Free Energy of Binding    =  -3.05 kcal/mol  [=(1)+(2)+(3)-(4)]
DOCKED: USER
DOCKED: USER    (1) Final Intermolecular Energy     =  -4.54 kcal/mol
DOCKED: USER        vdW + Hbond + desolv Energy     =  -4.54 kcal/mol
DOCKED: USER        Electrostatic Energy            =  +0.00 kcal/mol
DOCKED: USER        Moving Ligand-Fixed Receptor    =  -4.54 kcal/mol
DOCKED: USER        Moving Ligand-Moving Receptor   =  +0.00 kcal/mol
DOCKED: USER    (2) Final Total Internal Energy     =  -1.50 kcal/mol
DOCKED: USER    (3) Torsional Free Energy           =  +1.49 kcal/mol
DOCKED: USER    (4) Unbound System's Energy         =  -1.50 kcal/mol
DOCKED: USER
DOCKED: USER
DOCKED: REMARK  5 active torsions:
DOCKED: REMARK  status: ('A' for Active; 'I' for Inactive)
DOCKED: REMARK    1  A    between atoms: C_2  and  C_19 
DOCKED: REMARK    2  A    between atoms: C_2  and  C_11 
DOCKED: REMARK    3  A    between atoms: C_19  and  C_20 
DOCKED: REMARK    4  A    between atoms: C_20  and  C_21 
DOCKED: REMARK    5  A    between atoms: C_21  and  N_22 
DOCKED: USER                              x       y       z     vdW  Elec       q    Type
DOCKED: USER                           _______ _______ _______ _____ _____    ______ ____
DOCKED: ROOT
DOCKED: ATOM      1  O   UNL     1     -44.350 -22.819  -2.145 +0.00 -0.00    -0.346 OA 
DOCKED: ATOM      2  C   UNL     1     -45.028 -21.678  -1.528 -0.08 +0.00    +0.130 C  
DOCKED: ATOM      3  C   UNL     1     -46.354 -21.626  -2.229 -0.16 +0.00    +0.004 A  
DOCKED: ATOM      4  C   UNL     1     -46.470 -22.707  -3.091 -0.11 +0.00    +0.006 A  
DOCKED: ATOM      5  C   UNL     1     -45.252 -23.544  -3.013 -0.02 +0.00    +0.169 C  
DOCKED: ATOM      6  C   UNL     1     -47.382 -20.702  -2.105 -0.25 -0.00    -0.001 A  
DOCKED: ATOM      7  C   UNL     1     -47.606 -22.899  -3.858 -0.21 +0.00    +0.008 A  
DOCKED: ATOM      8  C   UNL     1     -48.533 -20.879  -2.875 -0.16 +0.00    +0.010 A  
DOCKED: ATOM      9  C   UNL     1     -48.644 -21.973  -3.746 -0.33 +0.00    +0.068 A  
DOCKED: ATOM     10  N   UNL     1     -50.796 -22.275  -5.157 -2.35 -0.00    -0.191 NA 
DOCKED: ATOM     11  C   UNL     1     -49.831 -22.139  -4.525 -0.44 +0.00    +0.101 C  
DOCKED: ENDROOT
DOCKED: BRANCH   2  12
DOCKED: ATOM     12  C   UNL     1     -45.157 -21.944  -0.033 -0.13 +0.00    +0.038 C  
DOCKED: BRANCH  12  13
DOCKED: ATOM     13  C   UNL     1     -43.901 -22.611   0.525 -0.07 +0.00    +0.038 C  
DOCKED: BRANCH  13  14
DOCKED: ATOM     14  C   UNL     1     -42.995 -21.590   1.212 -0.03 +0.00    +0.251 C  
DOCKED: BRANCH  14  15
DOCKED: ATOM     15  N   UNL     1     -41.819 -21.324   0.393 -0.01 +0.00    +0.141 N  
DOCKED: ATOM     16  C   UNL     1     -40.764 -20.700   1.193 -0.00 +0.00    +0.285 C  
DOCKED: ATOM     17  C   UNL     1     -41.327 -22.559  -0.221 -0.00 +0.00    +0.285 C  
DOCKED: ENDBRANCH  14  15
DOCKED: ENDBRANCH  13  14
DOCKED: ENDBRANCH  12  13
DOCKED: ENDBRANCH   2  12
DOCKED: BRANCH   2  18
DOCKED: ATOM     18  C   UNL     1     -44.184 -20.475  -1.790 -0.05 +0.00    +0.006 A  
DOCKED: ATOM     19  C   UNL     1     -43.139 -20.544  -2.711 -0.02 +0.00    +0.001 A  
DOCKED: ATOM     20  C   UNL     1     -42.351 -19.419  -2.955 -0.01 +0.00    +0.029 A  
DOCKED: ATOM     21  C   UNL     1     -42.608 -18.228  -2.278 -0.00 +0.00    +0.140 A  
DOCKED: ATOM     22  C   UNL     1     -43.653 -18.159  -1.357 -0.03 +0.00    +0.029 A  
DOCKED: ATOM     23  F   UNL     1     -41.852 -17.147  -2.514 +0.00 -0.00    -0.204 F  
DOCKED: ATOM     24  C   UNL     1     -44.442 -19.284  -1.112 -0.07 +0.00    +0.001 A  
DOCKED: ENDBRANCH   2  18
DOCKED: TORSDOF 5
DOCKED: TER
DOCKED: ENDMDL
________________________________________________________________________________


    FINAL DOCKED STATE:
    ________________________


Run:   50 / 512
Time taken for this run:   0.001s

DOCKED: MODEL        50
DOCKED: USER    Run = 50
DOCKED: USER
DOCKED: USER    Estimated Free Energy of Binding    =  -5.12 kcal/mol  [=(1)+(2)+(3)-(4)]
DOCKED: USER
DOCKED: USER    (1) Final Intermolecular Energy     =  -6.61 kcal/mol
DOCKED: USER        vdW + Hbond + desolv Energy     =  -6.61 kcal/mol
DOCKED: USER        Electrostatic Energy            =  +0.00 kcal/mol
DOCKED: USER        Moving Ligand-Fixed Receptor    =  -6.61 kcal/mol
DOCKED: USER        Moving Ligand-Moving Receptor   =  +0.00 kcal/mol
DOCKED: USER    (2) Final Total Internal Energy     =  -1.06 kcal/mol
DOCKED: USER    (3) Torsional Free Energy           =  +1.49 kcal/mol
DOCKED: USER    (4) Unbound System's Energy         =  -1.06 kcal/mol
DOCKED: USER
DOCKED: USER
DOCKED: REMARK  5 active torsions:
DOCKED: REMARK  status: ('A' for Active; 'I' for Inactive)
DOCKED: REMARK    1  A    between atoms: C_2  and  C_19 
DOCKED: REMARK    2  A    between atoms: C_2  and  C_11 
DOCKED: REMARK    3  A    between atoms: C_19  and  C_20 
DOCKED: REMARK    4  A    between atoms: C_20  and  C_21 
DOCKED: REMARK    5  A    between atoms: C_21  and  N_22 
DOCKED: USER                              x       y       z     vdW  Elec       q    Type
DOCKED: USER                           _______ _______ _______ _____ _____    ______ ____
DOCKED: ROOT
DOCKED: ATOM      1  O   UNL     1     -55.323 -33.639   8.351 -0.04 -0.00    -0.346 OA 
DOCKED: ATOM      2  C   UNL     1     -54.240 -32.685   8.108 -0.12 +0.00    +0.130 C  
DOCKED: ATOM      3  C   UNL     1     -53.958 -32.827   6.640 -0.24 +0.00    +0.004 A  
DOCKED: ATOM      4  C   UNL     1     -54.872 -33.704   6.072 -0.30 +0.00    +0.006 A  
DOCKED: ATOM      5  C   UNL     1     -55.816 -34.185   7.105 -0.08 +0.00    +0.169 C  
DOCKED: ATOM      6  C   UNL     1     -52.978 -32.221   5.867 -0.33 -0.00    -0.001 A  
DOCKED: ATOM      7  C   UNL     1     -54.836 -34.006   4.721 -0.34 +0.00    +0.008 A  
DOCKED: ATOM      8  C   UNL     1     -52.927 -32.520   4.505 -0.22 +0.00    +0.010 A  
DOCKED: ATOM      9  C   UNL     1     -53.851 -33.407   3.935 -0.30 +0.00    +0.068 A  
DOCKED: ATOM     10  N   UNL     1     -53.730 -33.936   1.401 -2.94 -0.00    -0.191 NA 
DOCKED: ATOM     11  C   UNL     1     -53.784 -33.699   2.538 -0.27 +0.00    +0.101 C  
DOCKED: ENDROOT
DOCKED: BRANCH   2  12
DOCKED: ATOM     12  C   UNL     1     -54.731 -31.292   8.485 -0.11 +0.00    +0.038 C  
DOCKED: BRANCH  12  13
DOCKED: ATOM     13  C   UNL     1     -53.834 -30.206   7.893 -0.16 +0.00    +0.038 C  
DOCKED: BRANCH  13  14
DOCKED: ATOM     14  C   UNL     1     -52.721 -29.823   8.866 -0.03 +0.00    +0.251 C  
DOCKED: BRANCH  14  15
DOCKED: ATOM     15  N   UNL     1     -51.691 -29.052   8.180 -0.06 +0.00    +0.141 N  
DOCKED: ATOM     16  C   UNL     1     -50.391 -29.716   8.288 -0.06 +0.00    +0.285 C  
DOCKED: ATOM     17  C   UNL     1     -52.045 -28.855   6.773 -0.13 +0.00    +0.285 C  
DOCKED: ENDBRANCH  14  15
DOCKED: ENDBRANCH  13  14
DOCKED: ENDBRANCH  12  13
DOCKED: ENDBRANCH   2  12
DOCKED: BRANCH   2  18
DOCKED: ATOM     18  C   UNL     1     -53.091 -33.101   8.964 -0.14 +0.00    +0.006 A  
DOCKED: ATOM     19  C   UNL     1     -51.784 -32.870   8.537 -0.18 +0.00    +0.001 A  
DOCKED: ATOM     20  C   UNL     1     -50.711 -33.260   9.338 -0.14 +0.00    +0.029 A  
DOCKED: ATOM     21  C   UNL     1     -50.945 -33.880  10.565 -0.09 +0.00    +0.140 A  
DOCKED: ATOM     22  C   UNL     1     -52.253 -34.111  10.991 -0.17 +0.00    +0.029 A  
DOCKED: ATOM     23  F   UNL     1     -49.915 -34.253  11.334 -0.03 -0.00    -0.204 F  
DOCKED: ATOM     24  C   UNL     1     -53.327 -33.721  10.190 -0.15 +0.00    +0.001 A  
DOCKED: ENDBRANCH   2  18
DOCKED: TORSDOF 5
DOCKED: TER
DOCKED: ENDMDL
________________________________________________________________________________


    FINAL DOCKED STATE:
    ________________________


Run:   51 / 512
Time taken for this run:   0.001s

DOCKED: MODEL        51
DOCKED: USER    Run = 51
DOCKED: USER
DOCKED: USER    Estimated Free Energy of Binding    =  -4.76 kcal/mol  [=(1)+(2)+(3)-(4)]
DOCKED: USER
DOCKED: USER    (1) Final Intermolecular Energy     =  -6.26 kcal/mol
DOCKED: USER        vdW + Hbond + desolv Energy     =  -6.26 kcal/mol
DOCKED: USER        Electrostatic Energy            =  +0.00 kcal/mol
DOCKED: USER        Moving Ligand-Fixed Receptor    =  -6.26 kcal/mol
DOCKED: USER        Moving Ligand-Moving Receptor   =  +0.00 kcal/mol
DOCKED: USER    (2) Final Total Internal Energy     =  -1.15 kcal/mol
DOCKED: USER    (3) Torsional Free Energy           =  +1.49 kcal/mol
DOCKED: USER    (4) Unbound System's Energy         =  -1.15 kcal/mol
DOCKED: USER
DOCKED: USER
DOCKED: REMARK  5 active torsions:
DOCKED: REMARK  status: ('A' for Active; 'I' for Inactive)
DOCKED: REMARK    1  A    between atoms: C_2  and  C_19 
DOCKED: REMARK    2  A    between atoms: C_2  and  C_11 
DOCKED: REMARK    3  A    between atoms: C_19  and  C_20 
DOCKED: REMARK    4  A    between atoms: C_20  and  C_21 
DOCKED: REMARK    5  A    between atoms: C_21  and  N_22 
DOCKED: USER                              x       y       z     vdW  Elec       q    Type
DOCKED: USER                           _______ _______ _______ _____ _____    ______ ____
DOCKED: ROOT
DOCKED: ATOM      1  O   UNL     1     -54.134 -31.440   8.073 -0.02 -0.00    -0.346 OA 
DOCKED: ATOM      2  C   UNL     1     -52.824 -32.075   7.925 -0.13 +0.00    +0.130 C  
DOCKED: ATOM      3  C   UNL     1     -52.896 -32.739   6.580 -0.29 +0.00    +0.004 A  
DOCKED: ATOM      4  C   UNL     1     -54.099 -32.419   5.966 -0.23 +0.00    +0.006 A  
DOCKED: ATOM      5  C   UNL     1     -54.888 -31.525   6.842 -0.18 +0.00    +0.169 C  
DOCKED: ATOM      6  C   UNL     1     -51.968 -33.551   5.946 -0.39 -0.00    -0.001 A  
DOCKED: ATOM      7  C   UNL     1     -54.415 -32.900   4.707 +0.02 +0.00    +0.008 A  
DOCKED: ATOM      8  C   UNL     1     -52.274 -34.047   4.678 -0.36 +0.00    +0.010 A  
DOCKED: ATOM      9  C   UNL     1     -53.491 -33.723   4.061 -0.42 +0.00    +0.068 A  
DOCKED: ATOM     10  N   UNL     1     -54.026 -34.657   1.705 -2.33 -0.00    -0.191 NA 
DOCKED: ATOM     11  C   UNL     1     -53.787 -34.238   2.762 -0.34 +0.00    +0.101 C  
DOCKED: ENDROOT
DOCKED: BRANCH   2  12
DOCKED: ATOM     12  C   UNL     1     -51.752 -30.994   7.996 -0.16 +0.00    +0.038 C  
DOCKED: BRANCH  12  13
DOCKED: ATOM     13  C   UNL     1     -52.172 -29.742   7.229 -0.20 +0.00    +0.038 C  
DOCKED: BRANCH  13  14
DOCKED: ATOM     14  C   UNL     1     -52.556 -28.614   8.185 -0.06 +0.00    +0.251 C  
DOCKED: BRANCH  14  15
DOCKED: ATOM     15  N   UNL     1     -53.577 -27.764   7.583 -0.09 +0.00    +0.141 N  
DOCKED: ATOM     16  C   UNL     1     -53.191 -27.378   6.225 -0.13 +0.00    +0.285 C  
DOCKED: ATOM     17  C   UNL     1     -54.872 -28.445   7.568 -0.11 +0.00    +0.285 C  
DOCKED: ENDBRANCH  14  15
DOCKED: ENDBRANCH  13  14
DOCKED: ENDBRANCH  12  13
DOCKED: ENDBRANCH   2  12
DOCKED: BRANCH   2  18
DOCKED: ATOM     18  C   UNL     1     -52.682 -33.049   9.047 -0.14 +0.00    +0.006 A  
DOCKED: ATOM     19  C   UNL     1     -53.575 -33.014  10.117 -0.10 +0.00    +0.001 A  
DOCKED: ATOM     20  C   UNL     1     -53.440 -33.925  11.166 -0.13 +0.00    +0.029 A  
DOCKED: ATOM     21  C   UNL     1     -52.415 -34.869  11.142 -0.04 +0.00    +0.140 A  
DOCKED: ATOM     22  C   UNL     1     -51.522 -34.903  10.071 -0.16 +0.00    +0.029 A  
DOCKED: ATOM     23  F   UNL     1     -52.287 -35.744  12.148 -0.05 -0.00    -0.204 F  
DOCKED: ATOM     24  C   UNL     1     -51.655 -33.992   9.022 -0.24 +0.00    +0.001 A  
DOCKED: ENDBRANCH   2  18
DOCKED: TORSDOF 5
DOCKED: TER
DOCKED: ENDMDL
________________________________________________________________________________


    FINAL DOCKED STATE:
    ________________________


Run:   52 / 512
Time taken for this run:   0.001s

DOCKED: MODEL        52
DOCKED: USER    Run = 52
DOCKED: USER
DOCKED: USER    Estimated Free Energy of Binding    =  -3.75 kcal/mol  [=(1)+(2)+(3)-(4)]
DOCKED: USER
DOCKED: USER    (1) Final Intermolecular Energy     =  -5.24 kcal/mol
DOCKED: USER        vdW + Hbond + desolv Energy     =  -5.24 kcal/mol
DOCKED: USER        Electrostatic Energy            =  +0.00 kcal/mol
DOCKED: USER        Moving Ligand-Fixed Receptor    =  -5.24 kcal/mol
DOCKED: USER        Moving Ligand-Moving Receptor   =  +0.00 kcal/mol
DOCKED: USER    (2) Final Total Internal Energy     =  -1.57 kcal/mol
DOCKED: USER    (3) Torsional Free Energy           =  +1.49 kcal/mol
DOCKED: USER    (4) Unbound System's Energy         =  -1.57 kcal/mol
DOCKED: USER
DOCKED: USER
DOCKED: REMARK  5 active torsions:
DOCKED: REMARK  status: ('A' for Active; 'I' for Inactive)
DOCKED: REMARK    1  A    between atoms: C_2  and  C_19 
DOCKED: REMARK    2  A    between atoms: C_2  and  C_11 
DOCKED: REMARK    3  A    between atoms: C_19  and  C_20 
DOCKED: REMARK    4  A    between atoms: C_20  and  C_21 
DOCKED: REMARK    5  A    between atoms: C_21  and  N_22 
DOCKED: USER                              x       y       z     vdW  Elec       q    Type
DOCKED: USER                           _______ _______ _______ _____ _____    ______ ____
DOCKED: ROOT
DOCKED: ATOM      1  O   UNL     1     -50.239 -29.285   7.190 -0.07 -0.00    -0.346 OA 
DOCKED: ATOM      2  C   UNL     1     -49.836 -30.348   8.111 -0.12 +0.00    +0.130 C  
DOCKED: ATOM      3  C   UNL     1     -50.642 -31.534   7.666 -0.21 +0.00    +0.004 A  
DOCKED: ATOM      4  C   UNL     1     -51.358 -31.209   6.522 -0.24 +0.00    +0.006 A  
DOCKED: ATOM      5  C   UNL     1     -51.071 -29.811   6.130 -0.11 +0.00    +0.169 C  
DOCKED: ATOM      6  C   UNL     1     -50.725 -32.803   8.221 -0.24 -0.00    -0.001 A  
DOCKED: ATOM      7  C   UNL     1     -52.181 -32.133   5.900 -0.33 +0.00    +0.008 A  
DOCKED: ATOM      8  C   UNL     1     -51.554 -33.744   7.608 -0.32 +0.00    +0.010 A  
DOCKED: ATOM      9  C   UNL     1     -52.277 -33.410   6.453 -0.31 +0.00    +0.068 A  
DOCKED: ATOM     10  N   UNL     1     -53.803 -35.183   5.337 -2.54 -0.00    -0.191 NA 
DOCKED: ATOM     11  C   UNL     1     -53.119 -34.388   5.838 -0.35 +0.00    +0.101 C  
DOCKED: ENDROOT
DOCKED: BRANCH   2  12
DOCKED: ATOM     12  C   UNL     1     -48.334 -30.565   7.972 -0.13 +0.00    +0.038 C  
DOCKED: BRANCH  12  13
DOCKED: ATOM     13  C   UNL     1     -47.685 -29.452   7.150 -0.12 +0.00    +0.038 C  
DOCKED: BRANCH  13  14
DOCKED: ATOM     14  C   UNL     1     -47.096 -28.373   8.056 -0.02 +0.00    +0.251 C  
DOCKED: BRANCH  14  15
DOCKED: ATOM     15  N   UNL     1     -48.147 -27.482   8.534 -0.01 +0.00    +0.141 N  
DOCKED: ATOM     16  C   UNL     1     -47.663 -26.663   9.646 -0.00 +0.00    +0.285 C  
DOCKED: ATOM     17  C   UNL     1     -48.632 -26.628   7.448 -0.01 +0.00    +0.285 C  
DOCKED: ENDBRANCH  14  15
DOCKED: ENDBRANCH  13  14
DOCKED: ENDBRANCH  12  13
DOCKED: ENDBRANCH   2  12
DOCKED: BRANCH   2  18
DOCKED: ATOM     18  C   UNL     1     -50.189 -29.890   9.487 -0.04 +0.00    +0.006 A  
DOCKED: ATOM     19  C   UNL     1     -49.685 -30.567  10.597 -0.03 +0.00    +0.001 A  
DOCKED: ATOM     20  C   UNL     1     -50.016 -30.137  11.883 -0.01 +0.00    +0.029 A  
DOCKED: ATOM     21  C   UNL     1     -50.848 -29.033  12.057 -0.00 +0.00    +0.140 A  
DOCKED: ATOM     22  C   UNL     1     -51.351 -28.356  10.946 -0.00 +0.00    +0.029 A  
DOCKED: ATOM     23  F   UNL     1     -51.163 -28.620  13.292 +0.00 -0.00    -0.204 F  
DOCKED: ATOM     24  C   UNL     1     -51.021 -28.785   9.660 -0.02 +0.00    +0.001 A  
DOCKED: ENDBRANCH   2  18
DOCKED: TORSDOF 5
DOCKED: TER
DOCKED: ENDMDL
________________________________________________________________________________


    FINAL DOCKED STATE:
    ________________________


Run:   53 / 512
Time taken for this run:   0.001s

DOCKED: MODEL        53
DOCKED: USER    Run = 53
DOCKED: USER
DOCKED: USER    Estimated Free Energy of Binding    =  -5.44 kcal/mol  [=(1)+(2)+(3)-(4)]
DOCKED: USER
DOCKED: USER    (1) Final Intermolecular Energy     =  -6.94 kcal/mol
DOCKED: USER        vdW + Hbond + desolv Energy     =  -6.94 kcal/mol
DOCKED: USER        Electrostatic Energy            =  +0.00 kcal/mol
DOCKED: USER        Moving Ligand-Fixed Receptor    =  -6.94 kcal/mol
DOCKED: USER        Moving Ligand-Moving Receptor   =  +0.00 kcal/mol
DOCKED: USER    (2) Final Total Internal Energy     =  -1.39 kcal/mol
DOCKED: USER    (3) Torsional Free Energy           =  +1.49 kcal/mol
DOCKED: USER    (4) Unbound System's Energy         =  -1.39 kcal/mol
DOCKED: USER
DOCKED: USER
DOCKED: REMARK  5 active torsions:
DOCKED: REMARK  status: ('A' for Active; 'I' for Inactive)
DOCKED: REMARK    1  A    between atoms: C_2  and  C_19 
DOCKED: REMARK    2  A    between atoms: C_2  and  C_11 
DOCKED: REMARK    3  A    between atoms: C_19  and  C_20 
DOCKED: REMARK    4  A    between atoms: C_20  and  C_21 
DOCKED: REMARK    5  A    between atoms: C_21  and  N_22 
DOCKED: USER                              x       y       z     vdW  Elec       q    Type
DOCKED: USER                           _______ _______ _______ _____ _____    ______ ____
DOCKED: ROOT
DOCKED: ATOM      1  O   UNL     1     -51.662 -32.677   7.977 -0.06 -0.00    -0.346 OA 
DOCKED: ATOM      2  C   UNL     1     -52.990 -33.284   8.068 -0.16 +0.00    +0.130 C  
DOCKED: ATOM      3  C   UNL     1     -53.388 -33.494   6.636 -0.28 +0.00    +0.004 A  
DOCKED: ATOM      4  C   UNL     1     -52.337 -33.141   5.802 -0.38 +0.00    +0.006 A  
DOCKED: ATOM      5  C   UNL     1     -51.182 -32.692   6.612 -0.22 +0.00    +0.169 C  
DOCKED: ATOM      6  C   UNL     1     -54.582 -33.970   6.113 -0.29 -0.00    -0.001 A  
DOCKED: ATOM      7  C   UNL     1     -52.442 -33.246   4.426 -0.23 +0.00    +0.008 A  
DOCKED: ATOM      8  C   UNL     1     -54.705 -34.078   4.727 -0.36 +0.00    +0.010 A  
DOCKED: ATOM      9  C   UNL     1     -53.640 -33.718   3.888 -0.41 +0.00    +0.068 A  
DOCKED: ATOM     10  N   UNL     1     -53.899 -33.935   1.319 -3.11 -0.00    -0.191 NA 
DOCKED: ATOM     11  C   UNL     1     -53.783 -33.837   2.471 -0.28 +0.00    +0.101 C  
DOCKED: ENDROOT
DOCKED: BRANCH   2  12
DOCKED: ATOM     12  C   UNL     1     -52.872 -34.588   8.848 -0.29 +0.00    +0.038 C  
DOCKED: BRANCH  12  13
DOCKED: ATOM     13  C   UNL     1     -51.698 -34.549   9.825 -0.25 +0.00    +0.038 C  
DOCKED: BRANCH  13  14
DOCKED: ATOM     14  C   UNL     1     -52.177 -34.271  11.249 -0.13 +0.00    +0.251 C  
DOCKED: BRANCH  14  15
DOCKED: ATOM     15  N   UNL     1     -51.540 -33.068  11.772 -0.06 +0.00    +0.141 N  
DOCKED: ATOM     16  C   UNL     1     -50.663 -33.396  12.897 -0.04 +0.00    +0.285 C  
DOCKED: ATOM     17  C   UNL     1     -50.785 -32.385  10.721 -0.05 +0.00    +0.285 C  
DOCKED: ENDBRANCH  14  15
DOCKED: ENDBRANCH  13  14
DOCKED: ENDBRANCH  12  13
DOCKED: ENDBRANCH   2  12
DOCKED: BRANCH   2  18
DOCKED: ATOM     18  C   UNL     1     -53.868 -32.309   8.779 -0.09 +0.00    +0.006 A  
DOCKED: ATOM     19  C   UNL     1     -53.712 -30.942   8.559 -0.09 +0.00    +0.001 A  
DOCKED: ATOM     20  C   UNL     1     -54.533 -30.031   9.225 -0.05 +0.00    +0.029 A  
DOCKED: ATOM     21  C   UNL     1     -55.509 -30.489  10.109 -0.01 +0.00    +0.140 A  
DOCKED: ATOM     22  C   UNL     1     -55.665 -31.857  10.328 -0.04 +0.00    +0.029 A  
DOCKED: ATOM     23  F   UNL     1     -56.299 -29.615  10.746 +0.01 -0.00    -0.204 F  
DOCKED: ATOM     24  C   UNL     1     -54.843 -32.769   9.663 -0.08 +0.00    +0.001 A  
DOCKED: ENDBRANCH   2  18
DOCKED: TORSDOF 5
DOCKED: TER
DOCKED: ENDMDL
________________________________________________________________________________


    FINAL DOCKED STATE:
    ________________________


Run:   54 / 512
Time taken for this run:   0.001s

DOCKED: MODEL        54
DOCKED: USER    Run = 54
DOCKED: USER
DOCKED: USER    Estimated Free Energy of Binding    =  -4.18 kcal/mol  [=(1)+(2)+(3)-(4)]
DOCKED: USER
DOCKED: USER    (1) Final Intermolecular Energy     =  -5.67 kcal/mol
DOCKED: USER        vdW + Hbond + desolv Energy     =  -5.67 kcal/mol
DOCKED: USER        Electrostatic Energy            =  +0.00 kcal/mol
DOCKED: USER        Moving Ligand-Fixed Receptor    =  -5.67 kcal/mol
DOCKED: USER        Moving Ligand-Moving Receptor   =  +0.00 kcal/mol
DOCKED: USER    (2) Final Total Internal Energy     =  -1.43 kcal/mol
DOCKED: USER    (3) Torsional Free Energy           =  +1.49 kcal/mol
DOCKED: USER    (4) Unbound System's Energy         =  -1.43 kcal/mol
DOCKED: USER
DOCKED: USER
DOCKED: REMARK  5 active torsions:
DOCKED: REMARK  status: ('A' for Active; 'I' for Inactive)
DOCKED: REMARK    1  A    between atoms: C_2  and  C_19 
DOCKED: REMARK    2  A    between atoms: C_2  and  C_11 
DOCKED: REMARK    3  A    between atoms: C_19  and  C_20 
DOCKED: REMARK    4  A    between atoms: C_20  and  C_21 
DOCKED: REMARK    5  A    between atoms: C_21  and  N_22 
DOCKED: USER                              x       y       z     vdW  Elec       q    Type
DOCKED: USER                           _______ _______ _______ _____ _____    ______ ____
DOCKED: ROOT
DOCKED: ATOM      1  O   UNL     1     -49.351 -31.301   8.817 -0.07 -0.00    -0.346 OA 
DOCKED: ATOM      2  C   UNL     1     -50.187 -30.434   7.986 -0.13 +0.00    +0.130 C  
DOCKED: ATOM      3  C   UNL     1     -51.048 -31.394   7.217 -0.23 +0.00    +0.004 A  
DOCKED: ATOM      4  C   UNL     1     -50.805 -32.690   7.651 -0.27 +0.00    +0.006 A  
DOCKED: ATOM      5  C   UNL     1     -49.790 -32.677   8.729 -0.15 +0.00    +0.169 C  
DOCKED: ATOM      6  C   UNL     1     -51.980 -31.140   6.222 -0.29 -0.00    -0.001 A  
DOCKED: ATOM      7  C   UNL     1     -51.477 -33.770   7.105 -0.36 +0.00    +0.008 A  
DOCKED: ATOM      8  C   UNL     1     -52.664 -32.219   5.659 -0.34 +0.00    +0.010 A  
DOCKED: ATOM      9  C   UNL     1     -52.413 -33.528   6.099 -0.33 +0.00    +0.068 A  
DOCKED: ATOM     10  N   UNL     1     -53.702 -35.508   5.037 -2.40 -0.00    -0.191 NA 
DOCKED: ATOM     11  C   UNL     1     -53.124 -34.620   5.513 -0.35 +0.00    +0.101 C  
DOCKED: ENDROOT
DOCKED: BRANCH   2  12
DOCKED: ATOM     12  C   UNL     1     -50.990 -29.518   8.901 -0.06 +0.00    +0.038 C  
DOCKED: BRANCH  12  13
DOCKED: ATOM     13  C   UNL     1     -50.128 -28.969  10.036 -0.02 +0.00    +0.038 C  
DOCKED: BRANCH  13  14
DOCKED: ATOM     14  C   UNL     1     -49.468 -27.651   9.638 -0.00 +0.00    +0.251 C  
DOCKED: BRANCH  14  15
DOCKED: ATOM     15  N   UNL     1     -48.017 -27.763   9.726 -0.01 +0.00    +0.141 N  
DOCKED: ATOM     16  C   UNL     1     -47.443 -26.566  10.342 -0.00 +0.00    +0.285 C  
DOCKED: ATOM     17  C   UNL     1     -47.637 -28.956  10.484 -0.00 +0.00    +0.285 C  
DOCKED: ENDBRANCH  14  15
DOCKED: ENDBRANCH  13  14
DOCKED: ENDBRANCH  12  13
DOCKED: ENDBRANCH   2  12
DOCKED: BRANCH   2  18
DOCKED: ATOM     18  C   UNL     1     -49.267 -29.650   7.111 -0.13 +0.00    +0.006 A  
DOCKED: ATOM     19  C   UNL     1     -47.893 -29.886   7.155 -0.08 +0.00    +0.001 A  
DOCKED: ATOM     20  C   UNL     1     -47.034 -29.151   6.337 -0.10 +0.00    +0.029 A  
DOCKED: ATOM     21  C   UNL     1     -47.549 -28.183   5.476 -0.08 +0.00    +0.140 A  
DOCKED: ATOM     22  C   UNL     1     -48.923 -27.947   5.433 -0.13 +0.00    +0.029 A  
DOCKED: ATOM     23  F   UNL     1     -46.724 -27.479   4.690 -0.00 -0.00    -0.204 F  
DOCKED: ATOM     24  C   UNL     1     -49.783 -28.681   6.251 -0.16 +0.00    +0.001 A  
DOCKED: ENDBRANCH   2  18
DOCKED: TORSDOF 5
DOCKED: TER
DOCKED: ENDMDL
________________________________________________________________________________


    FINAL DOCKED STATE:
    ________________________


Run:   55 / 512
Time taken for this run:   0.001s

DOCKED: MODEL        55
DOCKED: USER    Run = 55
DOCKED: USER
DOCKED: USER    Estimated Free Energy of Binding    =  -3.81 kcal/mol  [=(1)+(2)+(3)-(4)]
DOCKED: USER
DOCKED: USER    (1) Final Intermolecular Energy     =  -5.31 kcal/mol
DOCKED: USER        vdW + Hbond + desolv Energy     =  -5.31 kcal/mol
DOCKED: USER        Electrostatic Energy            =  +0.00 kcal/mol
DOCKED: USER        Moving Ligand-Fixed Receptor    =  -5.31 kcal/mol
DOCKED: USER        Moving Ligand-Moving Receptor   =  +0.00 kcal/mol
DOCKED: USER    (2) Final Total Internal Energy     =  -1.21 kcal/mol
DOCKED: USER    (3) Torsional Free Energy           =  +1.49 kcal/mol
DOCKED: USER    (4) Unbound System's Energy         =  -1.21 kcal/mol
DOCKED: USER
DOCKED: USER
DOCKED: REMARK  5 active torsions:
DOCKED: REMARK  status: ('A' for Active; 'I' for Inactive)
DOCKED: REMARK    1  A    between atoms: C_2  and  C_19 
DOCKED: REMARK    2  A    between atoms: C_2  and  C_11 
DOCKED: REMARK    3  A    between atoms: C_19  and  C_20 
DOCKED: REMARK    4  A    between atoms: C_20  and  C_21 
DOCKED: REMARK    5  A    between atoms: C_21  and  N_22 
DOCKED: USER                              x       y       z     vdW  Elec       q    Type
DOCKED: USER                           _______ _______ _______ _____ _____    ______ ____
DOCKED: ROOT
DOCKED: ATOM      1  O   UNL     1     -45.189 -21.002  -1.485 -0.03 -0.00    -0.346 OA 
DOCKED: ATOM      2  C   UNL     1     -45.442 -22.438  -1.359 -0.09 +0.00    +0.130 C  
DOCKED: ATOM      3  C   UNL     1     -46.758 -22.634  -2.054 -0.15 +0.00    +0.004 A  
DOCKED: ATOM      4  C   UNL     1     -47.168 -21.437  -2.624 -0.23 +0.00    +0.006 A  
DOCKED: ATOM      5  C   UNL     1     -46.161 -20.384  -2.361 -0.15 +0.00    +0.169 C  
DOCKED: ATOM      6  C   UNL     1     -47.525 -23.782  -2.182 -0.18 -0.00    -0.001 A  
DOCKED: ATOM      7  C   UNL     1     -48.353 -21.345  -3.334 -0.32 +0.00    +0.008 A  
DOCKED: ATOM      8  C   UNL     1     -48.725 -23.705  -2.890 -0.27 +0.00    +0.010 A  
DOCKED: ATOM      9  C   UNL     1     -49.137 -22.493  -3.464 -0.35 +0.00    +0.068 A  
DOCKED: ATOM     10  N   UNL     1     -51.368 -22.385  -4.777 -2.48 -0.00    -0.191 NA 
DOCKED: ATOM     11  C   UNL     1     -50.367 -22.433  -4.187 -0.38 +0.00    +0.101 C  
DOCKED: ENDROOT
DOCKED: BRANCH   2  12
DOCKED: ATOM     12  C   UNL     1     -44.298 -23.190  -2.029 -0.03 +0.00    +0.038 C  
DOCKED: BRANCH  12  13
DOCKED: ATOM     13  C   UNL     1     -43.716 -24.257  -1.104 -0.01 +0.00    +0.038 C  
DOCKED: BRANCH  13  14
DOCKED: ATOM     14  C   UNL     1     -43.986 -25.660  -1.646 -0.00 +0.00    +0.251 C  
DOCKED: BRANCH  14  15
DOCKED: ATOM     15  N   UNL     1     -45.243 -26.175  -1.115 -0.01 +0.00    +0.141 N  
DOCKED: ATOM     16  C   UNL     1     -45.993 -26.877  -2.157 -0.04 +0.00    +0.285 C  
DOCKED: ATOM     17  C   UNL     1     -44.997 -27.065   0.021 -0.00 +0.00    +0.285 C  
DOCKED: ENDBRANCH  14  15
DOCKED: ENDBRANCH  13  14
DOCKED: ENDBRANCH  12  13
DOCKED: ENDBRANCH   2  12
DOCKED: BRANCH   2  18
DOCKED: ATOM     18  C   UNL     1     -45.504 -22.742   0.101 -0.12 +0.00    +0.006 A  
DOCKED: ATOM     19  C   UNL     1     -44.595 -22.149   0.976 -0.09 +0.00    +0.001 A  
DOCKED: ATOM     20  C   UNL     1     -44.654 -22.436   2.340 -0.05 +0.00    +0.029 A  
DOCKED: ATOM     21  C   UNL     1     -45.622 -23.313   2.827 -0.03 +0.00    +0.140 A  
DOCKED: ATOM     22  C   UNL     1     -46.531 -23.906   1.952 -0.11 +0.00    +0.029 A  
DOCKED: ATOM     23  F   UNL     1     -45.680 -23.586   4.137 -0.03 -0.00    -0.204 F  
DOCKED: ATOM     24  C   UNL     1     -46.472 -23.620   0.586 -0.13 +0.00    +0.001 A  
DOCKED: ENDBRANCH   2  18
DOCKED: TORSDOF 5
DOCKED: TER
DOCKED: ENDMDL
________________________________________________________________________________


    FINAL DOCKED STATE:
    ________________________


Run:   56 / 512
Time taken for this run:   0.001s

DOCKED: MODEL        56
DOCKED: USER    Run = 56
DOCKED: USER
DOCKED: USER    Estimated Free Energy of Binding    =  -4.39 kcal/mol  [=(1)+(2)+(3)-(4)]
DOCKED: USER
DOCKED: USER    (1) Final Intermolecular Energy     =  -5.89 kcal/mol
DOCKED: USER        vdW + Hbond + desolv Energy     =  -5.89 kcal/mol
DOCKED: USER        Electrostatic Energy            =  +0.00 kcal/mol
DOCKED: USER        Moving Ligand-Fixed Receptor    =  -5.89 kcal/mol
DOCKED: USER        Moving Ligand-Moving Receptor   =  +0.00 kcal/mol
DOCKED: USER    (2) Final Total Internal Energy     =  -1.30 kcal/mol
DOCKED: USER    (3) Torsional Free Energy           =  +1.49 kcal/mol
DOCKED: USER    (4) Unbound System's Energy         =  -1.30 kcal/mol
DOCKED: USER
DOCKED: USER
DOCKED: REMARK  5 active torsions:
DOCKED: REMARK  status: ('A' for Active; 'I' for Inactive)
DOCKED: REMARK    1  A    between atoms: C_2  and  C_19 
DOCKED: REMARK    2  A    between atoms: C_2  and  C_11 
DOCKED: REMARK    3  A    between atoms: C_19  and  C_20 
DOCKED: REMARK    4  A    between atoms: C_20  and  C_21 
DOCKED: REMARK    5  A    between atoms: C_21  and  N_22 
DOCKED: USER                              x       y       z     vdW  Elec       q    Type
DOCKED: USER                           _______ _______ _______ _____ _____    ______ ____
DOCKED: ROOT
DOCKED: ATOM      1  O   UNL     1     -52.262 -33.832   8.945 -0.07 -0.00    -0.346 OA 
DOCKED: ATOM      2  C   UNL     1     -52.086 -32.493   8.380 -0.14 +0.00    +0.130 C  
DOCKED: ATOM      3  C   UNL     1     -52.394 -32.675   6.922 -0.28 +0.00    +0.004 A  
DOCKED: ATOM      4  C   UNL     1     -52.816 -33.976   6.692 -0.31 +0.00    +0.006 A  
DOCKED: ATOM      5  C   UNL     1     -52.829 -34.732   7.965 -0.06 +0.00    +0.169 C  
DOCKED: ATOM      6  C   UNL     1     -52.318 -31.758   5.884 -0.32 -0.00    -0.001 A  
DOCKED: ATOM      7  C   UNL     1     -53.170 -34.406   5.425 -0.42 +0.00    +0.008 A  
DOCKED: ATOM      8  C   UNL     1     -52.667 -32.177   4.599 -0.05 +0.00    +0.010 A  
DOCKED: ATOM      9  C   UNL     1     -53.091 -33.494   4.371 -0.41 +0.00    +0.068 A  
DOCKED: ATOM     10  N   UNL     1     -53.738 -34.238   1.975 -2.37 -0.00    -0.191 NA 
DOCKED: ATOM     11  C   UNL     1     -53.447 -33.905   3.049 -0.49 +0.00    +0.101 C  
DOCKED: ENDROOT
DOCKED: BRANCH   2  12
DOCKED: ATOM     12  C   UNL     1     -53.054 -31.545   9.078 -0.08 +0.00    +0.038 C  
DOCKED: BRANCH  12  13
DOCKED: ATOM     13  C   UNL     1     -53.712 -32.209  10.285 -0.06 +0.00    +0.038 C  
DOCKED: BRANCH  13  14
DOCKED: ATOM     14  C   UNL     1     -52.684 -32.520  11.370 -0.03 +0.00    +0.251 C  
DOCKED: BRANCH  14  15
DOCKED: ATOM     15  N   UNL     1     -52.109 -31.286  11.892 -0.01 +0.00    +0.141 N  
DOCKED: ATOM     16  C   UNL     1     -53.154 -30.425  12.448 -0.00 +0.00    +0.285 C  
DOCKED: ATOM     17  C   UNL     1     -51.098 -31.578  12.910 -0.00 +0.00    +0.285 C  
DOCKED: ENDBRANCH  14  15
DOCKED: ENDBRANCH  13  14
DOCKED: ENDBRANCH  12  13
DOCKED: ENDBRANCH   2  12
DOCKED: BRANCH   2  18
DOCKED: ATOM     18  C   UNL     1     -50.669 -32.097   8.630 -0.17 +0.00    +0.006 A  
DOCKED: ATOM     19  C   UNL     1     -50.387 -30.930   9.340 -0.08 +0.00    +0.001 A  
DOCKED: ATOM     20  C   UNL     1     -49.062 -30.560   9.573 -0.06 +0.00    +0.029 A  
DOCKED: ATOM     21  C   UNL     1     -48.022 -31.357   9.097 -0.09 +0.00    +0.140 A  
DOCKED: ATOM     22  C   UNL     1     -48.305 -32.524   8.388 -0.17 +0.00    +0.029 A  
DOCKED: ATOM     23  F   UNL     1     -46.750 -31.003   9.323 -0.01 -0.00    -0.204 F  
DOCKED: ATOM     24  C   UNL     1     -49.630 -32.895   8.154 -0.19 +0.00    +0.001 A  
DOCKED: ENDBRANCH   2  18
DOCKED: TORSDOF 5
DOCKED: TER
DOCKED: ENDMDL
________________________________________________________________________________


    FINAL DOCKED STATE:
    ________________________


Run:   57 / 512
Time taken for this run:   0.001s

DOCKED: MODEL        57
DOCKED: USER    Run = 57
DOCKED: USER
DOCKED: USER    Estimated Free Energy of Binding    =  -4.10 kcal/mol  [=(1)+(2)+(3)-(4)]
DOCKED: USER
DOCKED: USER    (1) Final Intermolecular Energy     =  -5.59 kcal/mol
DOCKED: USER        vdW + Hbond + desolv Energy     =  -5.59 kcal/mol
DOCKED: USER        Electrostatic Energy            =  +0.00 kcal/mol
DOCKED: USER        Moving Ligand-Fixed Receptor    =  -5.59 kcal/mol
DOCKED: USER        Moving Ligand-Moving Receptor   =  +0.00 kcal/mol
DOCKED: USER    (2) Final Total Internal Energy     =  -1.35 kcal/mol
DOCKED: USER    (3) Torsional Free Energy           =  +1.49 kcal/mol
DOCKED: USER    (4) Unbound System's Energy         =  -1.35 kcal/mol
DOCKED: USER
DOCKED: USER
DOCKED: REMARK  5 active torsions:
DOCKED: REMARK  status: ('A' for Active; 'I' for Inactive)
DOCKED: REMARK    1  A    between atoms: C_2  and  C_19 
DOCKED: REMARK    2  A    between atoms: C_2  and  C_11 
DOCKED: REMARK    3  A    between atoms: C_19  and  C_20 
DOCKED: REMARK    4  A    between atoms: C_20  and  C_21 
DOCKED: REMARK    5  A    between atoms: C_21  and  N_22 
DOCKED: USER                              x       y       z     vdW  Elec       q    Type
DOCKED: USER                           _______ _______ _______ _____ _____    ______ ____
DOCKED: ROOT
DOCKED: ATOM      1  O   UNL     1     -51.120 -29.127   7.173 -0.06 -0.00    -0.346 OA 
DOCKED: ATOM      2  C   UNL     1     -52.242 -29.445   8.058 -0.10 +0.00    +0.130 C  
DOCKED: ATOM      3  C   UNL     1     -52.720 -30.781   7.567 -0.17 +0.00    +0.004 A  
DOCKED: ATOM      4  C   UNL     1     -51.877 -31.238   6.563 -0.29 +0.00    +0.006 A  
DOCKED: ATOM      5  C   UNL     1     -50.792 -30.258   6.333 -0.11 +0.00    +0.169 C  
DOCKED: ATOM      6  C   UNL     1     -53.806 -31.536   7.983 -0.13 -0.00    -0.001 A  
DOCKED: ATOM      7  C   UNL     1     -52.092 -32.456   5.941 -0.34 +0.00    +0.008 A  
DOCKED: ATOM      8  C   UNL     1     -54.038 -32.765   7.363 -0.18 +0.00    +0.010 A  
DOCKED: ATOM      9  C   UNL     1     -53.185 -33.223   6.347 -0.26 +0.00    +0.068 A  
DOCKED: ATOM     10  N   UNL     1     -53.642 -35.510   5.220 -2.50 -0.00    -0.191 NA 
DOCKED: ATOM     11  C   UNL     1     -53.437 -34.484   5.725 -0.33 +0.00    +0.101 C  
DOCKED: ENDROOT
DOCKED: BRANCH   2  12
DOCKED: ATOM     12  C   UNL     1     -51.729 -29.489   9.492 -0.04 +0.00    +0.038 C  
DOCKED: BRANCH  12  13
DOCKED: ATOM     13  C   UNL     1     -51.070 -30.830   9.807 -0.06 +0.00    +0.038 C  
DOCKED: BRANCH  13  14
DOCKED: ATOM     14  C   UNL     1     -49.552 -30.744   9.665 -0.04 +0.00    +0.251 C  
DOCKED: BRANCH  14  15
DOCKED: ATOM     15  N   UNL     1     -49.111 -31.474   8.482 -0.13 +0.00    +0.141 N  
DOCKED: ATOM     16  C   UNL     1     -47.651 -31.569   8.448 -0.09 +0.00    +0.285 C  
DOCKED: ATOM     17  C   UNL     1     -49.708 -32.811   8.449 -0.10 +0.00    +0.285 C  
DOCKED: ENDBRANCH  14  15
DOCKED: ENDBRANCH  13  14
DOCKED: ENDBRANCH  12  13
DOCKED: ENDBRANCH   2  12
DOCKED: BRANCH   2  18
DOCKED: ATOM     18  C   UNL     1     -53.256 -28.364   7.882 -0.11 +0.00    +0.006 A  
DOCKED: ATOM     19  C   UNL     1     -53.266 -27.270   8.746 -0.04 +0.00    +0.001 A  
DOCKED: ATOM     20  C   UNL     1     -54.215 -26.261   8.581 -0.03 +0.00    +0.029 A  
DOCKED: ATOM     21  C   UNL     1     -55.151 -26.346   7.552 -0.06 +0.00    +0.140 A  
DOCKED: ATOM     22  C   UNL     1     -55.141 -27.440   6.687 -0.20 +0.00    +0.029 A  
DOCKED: ATOM     23  F   UNL     1     -56.061 -25.376   7.392 +0.01 -0.00    -0.204 F  
DOCKED: ATOM     24  C   UNL     1     -54.192 -28.451   6.852 -0.23 +0.00    +0.001 A  
DOCKED: ENDBRANCH   2  18
DOCKED: TORSDOF 5
DOCKED: TER
DOCKED: ENDMDL
________________________________________________________________________________


    FINAL DOCKED STATE:
    ________________________


Run:   58 / 512
Time taken for this run:   0.001s

DOCKED: MODEL        58
DOCKED: USER    Run = 58
DOCKED: USER
DOCKED: USER    Estimated Free Energy of Binding    =  -3.81 kcal/mol  [=(1)+(2)+(3)-(4)]
DOCKED: USER
DOCKED: USER    (1) Final Intermolecular Energy     =  -5.30 kcal/mol
DOCKED: USER        vdW + Hbond + desolv Energy     =  -5.30 kcal/mol
DOCKED: USER        Electrostatic Energy            =  +0.00 kcal/mol
DOCKED: USER        Moving Ligand-Fixed Receptor    =  -5.30 kcal/mol
DOCKED: USER        Moving Ligand-Moving Receptor   =  +0.00 kcal/mol
DOCKED: USER    (2) Final Total Internal Energy     =  -1.54 kcal/mol
DOCKED: USER    (3) Torsional Free Energy           =  +1.49 kcal/mol
DOCKED: USER    (4) Unbound System's Energy         =  -1.54 kcal/mol
DOCKED: USER
DOCKED: USER
DOCKED: REMARK  5 active torsions:
DOCKED: REMARK  status: ('A' for Active; 'I' for Inactive)
DOCKED: REMARK    1  A    between atoms: C_2  and  C_19 
DOCKED: REMARK    2  A    between atoms: C_2  and  C_11 
DOCKED: REMARK    3  A    between atoms: C_19  and  C_20 
DOCKED: REMARK    4  A    between atoms: C_20  and  C_21 
DOCKED: REMARK    5  A    between atoms: C_21  and  N_22 
DOCKED: USER                              x       y       z     vdW  Elec       q    Type
DOCKED: USER                           _______ _______ _______ _____ _____    ______ ____
DOCKED: ROOT
DOCKED: ATOM      1  O   UNL     1     -43.042 -31.460  -0.724 +0.01 -0.00    -0.346 OA 
DOCKED: ATOM      2  C   UNL     1     -44.230 -30.774  -0.214 -0.06 +0.00    +0.130 C  
DOCKED: ATOM      3  C   UNL     1     -44.853 -31.776   0.713 -0.11 +0.00    +0.004 A  
DOCKED: ATOM      4  C   UNL     1     -44.037 -32.894   0.811 -0.09 +0.00    +0.006 A  
DOCKED: ATOM      5  C   UNL     1     -42.828 -32.707  -0.022 -0.03 +0.00    +0.169 C  
DOCKED: ATOM      6  C   UNL     1     -46.043 -31.700   1.423 -0.23 -0.00    -0.001 A  
DOCKED: ATOM      7  C   UNL     1     -44.380 -33.970   1.612 -0.16 +0.00    +0.008 A  
DOCKED: ATOM      8  C   UNL     1     -46.405 -32.779   2.232 -0.31 +0.00    +0.010 A  
DOCKED: ATOM      9  C   UNL     1     -45.577 -33.908   2.326 -0.28 +0.00    +0.068 A  
DOCKED: ATOM     10  N   UNL     1     -46.277 -35.890   3.840 -2.54 -0.00    -0.191 NA 
DOCKED: ATOM     11  C   UNL     1     -45.963 -35.001   3.160 -0.42 +0.00    +0.101 C  
DOCKED: ENDROOT
DOCKED: BRANCH   2  12
DOCKED: ATOM     12  C   UNL     1     -43.783 -29.503   0.500 -0.02 +0.00    +0.038 C  
DOCKED: BRANCH  12  13
DOCKED: ATOM     13  C   UNL     1     -42.328 -29.167   0.181 -0.00 +0.00    +0.038 C  
DOCKED: BRANCH  13  14
DOCKED: ATOM     14  C   UNL     1     -42.216 -28.397  -1.133 -0.00 +0.00    +0.251 C  
DOCKED: BRANCH  14  15
DOCKED: ATOM     15  N   UNL     1     -41.395 -29.135  -2.085 -0.00 +0.00    +0.141 N  
DOCKED: ATOM     16  C   UNL     1     -40.570 -30.127  -1.395 +0.00 +0.00    +0.285 C  
DOCKED: ATOM     17  C   UNL     1     -42.234 -29.785  -3.094 +0.00 +0.00    +0.285 C  
DOCKED: ENDBRANCH  14  15
DOCKED: ENDBRANCH  13  14
DOCKED: ENDBRANCH  12  13
DOCKED: ENDBRANCH   2  12
DOCKED: BRANCH   2  18
DOCKED: ATOM     18  C   UNL     1     -45.090 -30.457  -1.391 -0.12 +0.00    +0.006 A  
DOCKED: ATOM     19  C   UNL     1     -45.151 -31.341  -2.468 -0.12 +0.00    +0.001 A  
DOCKED: ATOM     20  C   UNL     1     -45.955 -31.043  -3.568 -0.12 +0.00    +0.029 A  
DOCKED: ATOM     21  C   UNL     1     -46.697 -29.863  -3.591 -0.21 +0.00    +0.140 A  
DOCKED: ATOM     22  C   UNL     1     -46.635 -28.979  -2.514 -0.21 +0.00    +0.029 A  
DOCKED: ATOM     23  F   UNL     1     -47.471 -29.578  -4.646 -0.14 -0.00    -0.204 F  
DOCKED: ATOM     24  C   UNL     1     -45.831 -29.276  -1.412 -0.14 +0.00    +0.001 A  
DOCKED: ENDBRANCH   2  18
DOCKED: TORSDOF 5
DOCKED: TER
DOCKED: ENDMDL
________________________________________________________________________________


    FINAL DOCKED STATE:
    ________________________


Run:   59 / 512
Time taken for this run:   0.001s

DOCKED: MODEL        59
DOCKED: USER    Run = 59
DOCKED: USER
DOCKED: USER    Estimated Free Energy of Binding    =  -3.51 kcal/mol  [=(1)+(2)+(3)-(4)]
DOCKED: USER
DOCKED: USER    (1) Final Intermolecular Energy     =  -5.01 kcal/mol
DOCKED: USER        vdW + Hbond + desolv Energy     =  -5.01 kcal/mol
DOCKED: USER        Electrostatic Energy            =  +0.00 kcal/mol
DOCKED: USER        Moving Ligand-Fixed Receptor    =  -5.01 kcal/mol
DOCKED: USER        Moving Ligand-Moving Receptor   =  +0.00 kcal/mol
DOCKED: USER    (2) Final Total Internal Energy     =  -1.49 kcal/mol
DOCKED: USER    (3) Torsional Free Energy           =  +1.49 kcal/mol
DOCKED: USER    (4) Unbound System's Energy         =  -1.49 kcal/mol
DOCKED: USER
DOCKED: USER
DOCKED: REMARK  5 active torsions:
DOCKED: REMARK  status: ('A' for Active; 'I' for Inactive)
DOCKED: REMARK    1  A    between atoms: C_2  and  C_19 
DOCKED: REMARK    2  A    between atoms: C_2  and  C_11 
DOCKED: REMARK    3  A    between atoms: C_19  and  C_20 
DOCKED: REMARK    4  A    between atoms: C_20  and  C_21 
DOCKED: REMARK    5  A    between atoms: C_21  and  N_22 
DOCKED: USER                              x       y       z     vdW  Elec       q    Type
DOCKED: USER                           _______ _______ _______ _____ _____    ______ ____
DOCKED: ROOT
DOCKED: ATOM      1  O   UNL     1     -42.212 -33.493  -1.042 +0.00 -0.00    -0.346 OA 
DOCKED: ATOM      2  C   UNL     1     -43.190 -32.444  -0.749 -0.05 +0.00    +0.130 C  
DOCKED: ATOM      3  C   UNL     1     -44.035 -33.035   0.342 -0.10 +0.00    +0.004 A  
DOCKED: ATOM      4  C   UNL     1     -43.518 -34.267   0.718 -0.10 +0.00    +0.006 A  
DOCKED: ATOM      5  C   UNL     1     -42.306 -34.567  -0.078 -0.04 +0.00    +0.169 C  
DOCKED: ATOM      6  C   UNL     1     -45.164 -32.519   0.961 -0.16 -0.00    -0.001 A  
DOCKED: ATOM      7  C   UNL     1     -44.110 -35.023   1.715 -0.21 +0.00    +0.008 A  
DOCKED: ATOM      8  C   UNL     1     -45.774 -33.271   1.966 -0.29 +0.00    +0.010 A  
DOCKED: ATOM      9  C   UNL     1     -45.250 -34.517   2.341 -0.29 +0.00    +0.068 A  
DOCKED: ATOM     10  N   UNL     1     -46.405 -35.885   4.213 -2.56 -0.00    -0.191 NA 
DOCKED: ATOM     11  C   UNL     1     -45.887 -35.272   3.373 -0.39 +0.00    +0.101 C  
DOCKED: ENDROOT
DOCKED: BRANCH   2  12
DOCKED: ATOM     12  C   UNL     1     -42.439 -31.194  -0.307 -0.01 +0.00    +0.038 C  
DOCKED: BRANCH  12  13
DOCKED: ATOM     13  C   UNL     1     -41.123 -31.549   0.382 -0.00 +0.00    +0.038 C  
DOCKED: BRANCH  13  14
DOCKED: ATOM     14  C   UNL     1     -41.132 -31.106   1.844 -0.00 +0.00    +0.251 C  
DOCKED: BRANCH  14  15
DOCKED: ATOM     15  N   UNL     1     -42.158 -31.828   2.587 -0.01 +0.00    +0.141 N  
DOCKED: ATOM     16  C   UNL     1     -41.555 -32.867   3.423 -0.00 +0.00    +0.285 C  
DOCKED: ATOM     17  C   UNL     1     -42.943 -30.907   3.410 -0.01 +0.00    +0.285 C  
DOCKED: ENDBRANCH  14  15
DOCKED: ENDBRANCH  13  14
DOCKED: ENDBRANCH  12  13
DOCKED: ENDBRANCH   2  12
DOCKED: BRANCH   2  18
DOCKED: ATOM     18  C   UNL     1     -43.954 -32.197  -2.007 -0.10 +0.00    +0.006 A  
DOCKED: ATOM     19  C   UNL     1     -44.895 -31.169  -2.060 -0.13 +0.00    +0.001 A  
DOCKED: ATOM     20  C   UNL     1     -45.609 -30.939  -3.236 -0.16 +0.00    +0.029 A  
DOCKED: ATOM     21  C   UNL     1     -45.381 -31.736  -4.357 -0.12 +0.00    +0.140 A  
DOCKED: ATOM     22  C   UNL     1     -44.440 -32.764  -4.304 -0.09 +0.00    +0.029 A  
DOCKED: ATOM     23  F   UNL     1     -46.065 -31.514  -5.487 -0.08 -0.00    -0.204 F  
DOCKED: ATOM     24  C   UNL     1     -43.726 -32.995  -3.127 -0.10 +0.00    +0.001 A  
DOCKED: ENDBRANCH   2  18
DOCKED: TORSDOF 5
DOCKED: TER
DOCKED: ENDMDL
________________________________________________________________________________


    FINAL DOCKED STATE:
    ________________________


Run:   60 / 512
Time taken for this run:   0.001s

DOCKED: MODEL        60
DOCKED: USER    Run = 60
DOCKED: USER
DOCKED: USER    Estimated Free Energy of Binding    =  -3.76 kcal/mol  [=(1)+(2)+(3)-(4)]
DOCKED: USER
DOCKED: USER    (1) Final Intermolecular Energy     =  -5.25 kcal/mol
DOCKED: USER        vdW + Hbond + desolv Energy     =  -5.25 kcal/mol
DOCKED: USER        Electrostatic Energy            =  +0.00 kcal/mol
DOCKED: USER        Moving Ligand-Fixed Receptor    =  -5.25 kcal/mol
DOCKED: USER        Moving Ligand-Moving Receptor   =  +0.00 kcal/mol
DOCKED: USER    (2) Final Total Internal Energy     =  -1.38 kcal/mol
DOCKED: USER    (3) Torsional Free Energy           =  +1.49 kcal/mol
DOCKED: USER    (4) Unbound System's Energy         =  -1.38 kcal/mol
DOCKED: USER
DOCKED: USER
DOCKED: REMARK  5 active torsions:
DOCKED: REMARK  status: ('A' for Active; 'I' for Inactive)
DOCKED: REMARK    1  A    between atoms: C_2  and  C_19 
DOCKED: REMARK    2  A    between atoms: C_2  and  C_11 
DOCKED: REMARK    3  A    between atoms: C_19  and  C_20 
DOCKED: REMARK    4  A    between atoms: C_20  and  C_21 
DOCKED: REMARK    5  A    between atoms: C_21  and  N_22 
DOCKED: USER                              x       y       z     vdW  Elec       q    Type
DOCKED: USER                           _______ _______ _______ _____ _____    ______ ____
DOCKED: ROOT
DOCKED: ATOM      1  O   UNL     1     -45.184 -30.654  -0.270 -0.00 -0.00    -0.346 OA 
DOCKED: ATOM      2  C   UNL     1     -44.057 -31.583  -0.360 -0.07 +0.00    +0.130 C  
DOCKED: ATOM      3  C   UNL     1     -44.368 -32.629   0.671 -0.10 +0.00    +0.004 A  
DOCKED: ATOM      4  C   UNL     1     -45.616 -32.382   1.224 -0.21 +0.00    +0.006 A  
DOCKED: ATOM      5  C   UNL     1     -46.215 -31.181   0.599 -0.14 +0.00    +0.169 C  
DOCKED: ATOM      6  C   UNL     1     -43.612 -33.718   1.078 -0.09 -0.00    -0.001 A  
DOCKED: ATOM      7  C   UNL     1     -46.147 -33.207   2.201 -0.32 +0.00    +0.008 A  
DOCKED: ATOM      8  C   UNL     1     -44.132 -34.557   2.065 -0.19 +0.00    +0.010 A  
DOCKED: ATOM      9  C   UNL     1     -45.393 -34.303   2.623 -0.30 +0.00    +0.068 A  
DOCKED: ATOM     10  N   UNL     1     -46.331 -35.883   4.450 -2.64 -0.00    -0.191 NA 
DOCKED: ATOM     11  C   UNL     1     -45.910 -35.174   3.631 -0.37 +0.00    +0.101 C  
DOCKED: ENDROOT
DOCKED: BRANCH   2  12
DOCKED: ATOM     12  C   UNL     1     -44.005 -32.143  -1.777 -0.11 +0.00    +0.038 C  
DOCKED: BRANCH  12  13
DOCKED: ATOM     13  C   UNL     1     -43.994 -31.025  -2.818 -0.09 +0.00    +0.038 C  
DOCKED: BRANCH  13  14
DOCKED: ATOM     14  C   UNL     1     -45.343 -30.920  -3.526 -0.15 +0.00    +0.251 C  
DOCKED: BRANCH  14  15
DOCKED: ATOM     15  N   UNL     1     -46.140 -29.846  -2.943 -0.20 +0.00    +0.141 N  
DOCKED: ATOM     16  C   UNL     1     -45.289 -28.713  -2.577 -0.05 +0.00    +0.285 C  
DOCKED: ATOM     17  C   UNL     1     -47.185 -29.416  -3.873 -0.20 +0.00    +0.285 C  
DOCKED: ENDBRANCH  14  15
DOCKED: ENDBRANCH  13  14
DOCKED: ENDBRANCH  12  13
DOCKED: ENDBRANCH   2  12
DOCKED: BRANCH   2  18
DOCKED: ATOM     18  C   UNL     1     -42.824 -30.803  -0.045 -0.01 +0.00    +0.006 A  
DOCKED: ATOM     19  C   UNL     1     -41.588 -31.226  -0.532 -0.00 +0.00    +0.001 A  
DOCKED: ATOM     20  C   UNL     1     -40.436 -30.497  -0.236 -0.00 +0.00    +0.029 A  
DOCKED: ATOM     21  C   UNL     1     -40.521 -29.346   0.547 -0.00 +0.00    +0.140 A  
DOCKED: ATOM     22  C   UNL     1     -41.758 -28.924   1.034 -0.00 +0.00    +0.029 A  
DOCKED: ATOM     23  F   UNL     1     -39.416 -28.645   0.830 +0.00 -0.00    -0.204 F  
DOCKED: ATOM     24  C   UNL     1     -42.911 -29.653   0.739 -0.01 +0.00    +0.001 A  
DOCKED: ENDBRANCH   2  18
DOCKED: TORSDOF 5
DOCKED: TER
DOCKED: ENDMDL
________________________________________________________________________________


    FINAL DOCKED STATE:
    ________________________


Run:   61 / 512
Time taken for this run:   0.001s

DOCKED: MODEL        61
DOCKED: USER    Run = 61
DOCKED: USER
DOCKED: USER    Estimated Free Energy of Binding    =  -4.41 kcal/mol  [=(1)+(2)+(3)-(4)]
DOCKED: USER
DOCKED: USER    (1) Final Intermolecular Energy     =  -5.90 kcal/mol
DOCKED: USER        vdW + Hbond + desolv Energy     =  -5.90 kcal/mol
DOCKED: USER        Electrostatic Energy            =  +0.00 kcal/mol
DOCKED: USER        Moving Ligand-Fixed Receptor    =  -5.90 kcal/mol
DOCKED: USER        Moving Ligand-Moving Receptor   =  +0.00 kcal/mol
DOCKED: USER    (2) Final Total Internal Energy     =  -1.25 kcal/mol
DOCKED: USER    (3) Torsional Free Energy           =  +1.49 kcal/mol
DOCKED: USER    (4) Unbound System's Energy         =  -1.25 kcal/mol
DOCKED: USER
DOCKED: USER
DOCKED: REMARK  5 active torsions:
DOCKED: REMARK  status: ('A' for Active; 'I' for Inactive)
DOCKED: REMARK    1  A    between atoms: C_2  and  C_19 
DOCKED: REMARK    2  A    between atoms: C_2  and  C_11 
DOCKED: REMARK    3  A    between atoms: C_19  and  C_20 
DOCKED: REMARK    4  A    between atoms: C_20  and  C_21 
DOCKED: REMARK    5  A    between atoms: C_21  and  N_22 
DOCKED: USER                              x       y       z     vdW  Elec       q    Type
DOCKED: USER                           _______ _______ _______ _____ _____    ______ ____
DOCKED: ROOT
DOCKED: ATOM      1  O   UNL     1     -50.925 -29.207   7.533 -0.04 -0.00    -0.346 OA 
DOCKED: ATOM      2  C   UNL     1     -52.377 -29.192   7.711 -0.12 +0.00    +0.130 C  
DOCKED: ATOM      3  C   UNL     1     -52.816 -30.535   7.203 -0.21 +0.00    +0.004 A  
DOCKED: ATOM      4  C   UNL     1     -51.703 -31.293   6.868 -0.27 +0.00    +0.006 A  
DOCKED: ATOM      5  C   UNL     1     -50.469 -30.522   7.138 -0.16 +0.00    +0.169 C  
DOCKED: ATOM      6  C   UNL     1     -54.097 -31.048   7.059 -0.21 -0.00    -0.001 A  
DOCKED: ATOM      7  C   UNL     1     -51.830 -32.581   6.376 -0.33 +0.00    +0.008 A  
DOCKED: ATOM      8  C   UNL     1     -54.242 -32.344   6.561 -0.24 +0.00    +0.010 A  
DOCKED: ATOM      9  C   UNL     1     -53.114 -33.107   6.222 -0.27 +0.00    +0.068 A  
DOCKED: ATOM     10  N   UNL     1     -53.419 -35.511   5.305 -2.59 -0.00    -0.191 NA 
DOCKED: ATOM     11  C   UNL     1     -53.282 -34.432   5.715 -0.36 +0.00    +0.101 C  
DOCKED: ENDROOT
DOCKED: BRANCH   2  12
DOCKED: ATOM     12  C   UNL     1     -52.681 -28.989   9.191 -0.04 +0.00    +0.038 C  
DOCKED: BRANCH  12  13
DOCKED: ATOM     13  C   UNL     1     -52.195 -30.173  10.026 -0.03 +0.00    +0.038 C  
DOCKED: BRANCH  13  14
DOCKED: ATOM     14  C   UNL     1     -53.048 -30.346  11.281 -0.00 +0.00    +0.251 C  
DOCKED: BRANCH  14  15
DOCKED: ATOM     15  N   UNL     1     -53.562 -31.708  11.361 -0.01 +0.00    +0.141 N  
DOCKED: ATOM     16  C   UNL     1     -55.016 -31.702  11.525 +0.00 +0.00    +0.285 C  
DOCKED: ATOM     17  C   UNL     1     -53.189 -32.471  10.168 -0.02 +0.00    +0.285 C  
DOCKED: ENDBRANCH  14  15
DOCKED: ENDBRANCH  13  14
DOCKED: ENDBRANCH  12  13
DOCKED: ENDBRANCH   2  12
DOCKED: BRANCH   2  18
DOCKED: ATOM     18  C   UNL     1     -52.905 -28.060   6.894 -0.18 +0.00    +0.006 A  
DOCKED: ATOM     19  C   UNL     1     -52.028 -27.262   6.160 -0.14 +0.00    +0.001 A  
DOCKED: ATOM     20  C   UNL     1     -52.523 -26.204   5.396 -0.15 +0.00    +0.029 A  
DOCKED: ATOM     21  C   UNL     1     -53.892 -25.946   5.367 -0.11 +0.00    +0.140 A  
DOCKED: ATOM     22  C   UNL     1     -54.769 -26.744   6.102 -0.18 +0.00    +0.029 A  
DOCKED: ATOM     23  F   UNL     1     -54.367 -24.931   4.633 -0.03 -0.00    -0.204 F  
DOCKED: ATOM     24  C   UNL     1     -54.275 -27.803   6.866 -0.21 +0.00    +0.001 A  
DOCKED: ENDBRANCH   2  18
DOCKED: TORSDOF 5
DOCKED: TER
DOCKED: ENDMDL
________________________________________________________________________________


    FINAL DOCKED STATE:
    ________________________


Run:   62 / 512
Time taken for this run:   0.001s

DOCKED: MODEL        62
DOCKED: USER    Run = 62
DOCKED: USER
DOCKED: USER    Estimated Free Energy of Binding    =  -3.60 kcal/mol  [=(1)+(2)+(3)-(4)]
DOCKED: USER
DOCKED: USER    (1) Final Intermolecular Energy     =  -5.09 kcal/mol
DOCKED: USER        vdW + Hbond + desolv Energy     =  -5.09 kcal/mol
DOCKED: USER        Electrostatic Energy            =  +0.00 kcal/mol
DOCKED: USER        Moving Ligand-Fixed Receptor    =  -5.09 kcal/mol
DOCKED: USER        Moving Ligand-Moving Receptor   =  +0.00 kcal/mol
DOCKED: USER    (2) Final Total Internal Energy     =  -1.40 kcal/mol
DOCKED: USER    (3) Torsional Free Energy           =  +1.49 kcal/mol
DOCKED: USER    (4) Unbound System's Energy         =  -1.40 kcal/mol
DOCKED: USER
DOCKED: USER
DOCKED: REMARK  5 active torsions:
DOCKED: REMARK  status: ('A' for Active; 'I' for Inactive)
DOCKED: REMARK    1  A    between atoms: C_2  and  C_19 
DOCKED: REMARK    2  A    between atoms: C_2  and  C_11 
DOCKED: REMARK    3  A    between atoms: C_19  and  C_20 
DOCKED: REMARK    4  A    between atoms: C_20  and  C_21 
DOCKED: REMARK    5  A    between atoms: C_21  and  N_22 
DOCKED: USER                              x       y       z     vdW  Elec       q    Type
DOCKED: USER                           _______ _______ _______ _____ _____    ______ ____
DOCKED: ROOT
DOCKED: ATOM      1  O   UNL     1     -45.799 -28.029   2.217 +0.00 -0.00    -0.346 OA 
DOCKED: ATOM      2  C   UNL     1     -46.784 -28.832   1.491 -0.10 +0.00    +0.130 C  
DOCKED: ATOM      3  C   UNL     1     -46.577 -30.221   2.021 -0.19 +0.00    +0.004 A  
DOCKED: ATOM      4  C   UNL     1     -45.634 -30.197   3.038 -0.12 +0.00    +0.006 A  
DOCKED: ATOM      5  C   UNL     1     -45.168 -28.809   3.259 -0.03 +0.00    +0.169 C  
DOCKED: ATOM      6  C   UNL     1     -47.183 -31.409   1.640 -0.32 -0.00    -0.001 A  
DOCKED: ATOM      7  C   UNL     1     -45.263 -31.352   3.704 -0.15 +0.00    +0.008 A  
DOCKED: ATOM      8  C   UNL     1     -46.816 -32.584   2.299 -0.28 +0.00    +0.010 A  
DOCKED: ATOM      9  C   UNL     1     -45.861 -32.555   3.326 -0.19 +0.00    +0.068 A  
DOCKED: ATOM     10  N   UNL     1     -45.206 -34.753   4.532 -1.94 -0.00    -0.191 NA 
DOCKED: ATOM     11  C   UNL     1     -45.499 -33.767   3.991 -0.25 +0.00    +0.101 C  
DOCKED: ENDROOT
DOCKED: BRANCH   2  12
DOCKED: ATOM     12  C   UNL     1     -48.173 -28.282   1.795 -0.19 +0.00    +0.038 C  
DOCKED: BRANCH  12  13
DOCKED: ATOM     13  C   UNL     1     -48.102 -26.852   2.328 -0.10 +0.00    +0.038 C  
DOCKED: BRANCH  13  14
DOCKED: ATOM     14  C   UNL     1     -48.035 -25.842   1.184 -0.08 +0.00    +0.251 C  
DOCKED: BRANCH  14  15
DOCKED: ATOM     15  N   UNL     1     -48.968 -26.212   0.126 -0.16 +0.00    +0.141 N  
DOCKED: ATOM     16  C   UNL     1     -50.326 -25.780   0.461 -0.18 +0.00    +0.285 C  
DOCKED: ATOM     17  C   UNL     1     -48.553 -25.633  -1.153 -0.16 +0.00    +0.285 C  
DOCKED: ENDBRANCH  14  15
DOCKED: ENDBRANCH  13  14
DOCKED: ENDBRANCH  12  13
DOCKED: ENDBRANCH   2  12
DOCKED: BRANCH   2  18
DOCKED: ATOM     18  C   UNL     1     -46.462 -28.709   0.039 -0.12 +0.00    +0.006 A  
DOCKED: ATOM     19  C   UNL     1     -45.212 -28.238  -0.360 -0.03 +0.00    +0.001 A  
DOCKED: ATOM     20  C   UNL     1     -44.913 -28.123  -1.718 -0.03 +0.00    +0.029 A  
DOCKED: ATOM     21  C   UNL     1     -45.863 -28.480  -2.675 -0.09 +0.00    +0.140 A  
DOCKED: ATOM     22  C   UNL     1     -47.113 -28.951  -2.275 -0.20 +0.00    +0.029 A  
DOCKED: ATOM     23  F   UNL     1     -45.574 -28.371  -3.978 -0.01 -0.00    -0.204 F  
DOCKED: ATOM     24  C   UNL     1     -47.414 -29.065  -0.916 -0.17 +0.00    +0.001 A  
DOCKED: ENDBRANCH   2  18
DOCKED: TORSDOF 5
DOCKED: TER
DOCKED: ENDMDL
________________________________________________________________________________


    FINAL DOCKED STATE:
    ________________________


Run:   63 / 512
Time taken for this run:   0.001s

DOCKED: MODEL        63
DOCKED: USER    Run = 63
DOCKED: USER
DOCKED: USER    Estimated Free Energy of Binding    =  -3.72 kcal/mol  [=(1)+(2)+(3)-(4)]
DOCKED: USER
DOCKED: USER    (1) Final Intermolecular Energy     =  -5.21 kcal/mol
DOCKED: USER        vdW + Hbond + desolv Energy     =  -5.21 kcal/mol
DOCKED: USER        Electrostatic Energy            =  +0.00 kcal/mol
DOCKED: USER        Moving Ligand-Fixed Receptor    =  -5.21 kcal/mol
DOCKED: USER        Moving Ligand-Moving Receptor   =  +0.00 kcal/mol
DOCKED: USER    (2) Final Total Internal Energy     =  -1.56 kcal/mol
DOCKED: USER    (3) Torsional Free Energy           =  +1.49 kcal/mol
DOCKED: USER    (4) Unbound System's Energy         =  -1.56 kcal/mol
DOCKED: USER
DOCKED: USER
DOCKED: REMARK  5 active torsions:
DOCKED: REMARK  status: ('A' for Active; 'I' for Inactive)
DOCKED: REMARK    1  A    between atoms: C_2  and  C_19 
DOCKED: REMARK    2  A    between atoms: C_2  and  C_11 
DOCKED: REMARK    3  A    between atoms: C_19  and  C_20 
DOCKED: REMARK    4  A    between atoms: C_20  and  C_21 
DOCKED: REMARK    5  A    between atoms: C_21  and  N_22 
DOCKED: USER                              x       y       z     vdW  Elec       q    Type
DOCKED: USER                           _______ _______ _______ _____ _____    ______ ____
DOCKED: ROOT
DOCKED: ATOM      1  O   UNL     1     -49.182 -31.563   8.770 -0.08 -0.00    -0.346 OA 
DOCKED: ATOM      2  C   UNL     1     -50.410 -30.782   8.616 -0.11 +0.00    +0.130 C  
DOCKED: ATOM      3  C   UNL     1     -51.301 -31.671   7.798 -0.20 +0.00    +0.004 A  
DOCKED: ATOM      4  C   UNL     1     -50.680 -32.896   7.596 -0.28 +0.00    +0.006 A  
DOCKED: ATOM      5  C   UNL     1     -49.361 -32.907   8.267 -0.09 +0.00    +0.169 C  
DOCKED: ATOM      6  C   UNL     1     -52.564 -31.421   7.283 -0.21 -0.00    -0.001 A  
DOCKED: ATOM      7  C   UNL     1     -51.294 -33.905   6.874 -0.38 +0.00    +0.008 A  
DOCKED: ATOM      8  C   UNL     1     -53.195 -32.427   6.548 -0.27 +0.00    +0.010 A  
DOCKED: ATOM      9  C   UNL     1     -52.563 -33.662   6.345 -0.31 +0.00    +0.068 A  
DOCKED: ATOM     10  N   UNL     1     -53.763 -35.510   4.982 -2.37 -0.00    -0.191 NA 
DOCKED: ATOM     11  C   UNL     1     -53.224 -34.681   5.593 -0.30 +0.00    +0.101 C  
DOCKED: ENDROOT
DOCKED: BRANCH   2  12
DOCKED: ATOM     12  C   UNL     1     -50.974 -30.490  10.001 -0.04 +0.00    +0.038 C  
DOCKED: BRANCH  12  13
DOCKED: ATOM     13  C   UNL     1     -49.880 -30.526  11.067 -0.03 +0.00    +0.038 C  
DOCKED: BRANCH  13  14
DOCKED: ATOM     14  C   UNL     1     -49.299 -29.134  11.305 -0.00 +0.00    +0.251 C  
DOCKED: BRANCH  14  15
DOCKED: ATOM     15  N   UNL     1     -48.247 -28.850  10.337 -0.01 +0.00    +0.141 N  
DOCKED: ATOM     16  C   UNL     1     -47.912 -27.425  10.340 -0.00 +0.00    +0.285 C  
DOCKED: ATOM     17  C   UNL     1     -47.055 -29.652  10.621 -0.00 +0.00    +0.285 C  
DOCKED: ENDBRANCH  14  15
DOCKED: ENDBRANCH  13  14
DOCKED: ENDBRANCH  12  13
DOCKED: ENDBRANCH   2  12
DOCKED: BRANCH   2  18
DOCKED: ATOM     18  C   UNL     1     -50.039 -29.521   7.909 -0.11 +0.00    +0.006 A  
DOCKED: ATOM     19  C   UNL     1     -50.914 -28.436   7.916 -0.08 +0.00    +0.001 A  
DOCKED: ATOM     20  C   UNL     1     -50.567 -27.257   7.254 -0.07 +0.00    +0.029 A  
DOCKED: ATOM     21  C   UNL     1     -49.345 -27.166   6.588 -0.05 +0.00    +0.140 A  
DOCKED: ATOM     22  C   UNL     1     -48.471 -28.252   6.582 -0.10 +0.00    +0.029 A  
DOCKED: ATOM     23  F   UNL     1     -49.011 -26.034   5.954 -0.00 -0.00    -0.204 F  
DOCKED: ATOM     24  C   UNL     1     -48.818 -29.431   7.243 -0.13 +0.00    +0.001 A  
DOCKED: ENDBRANCH   2  18
DOCKED: TORSDOF 5
DOCKED: TER
DOCKED: ENDMDL
________________________________________________________________________________


    FINAL DOCKED STATE:
    ________________________


Run:   64 / 512
Time taken for this run:   0.001s

DOCKED: MODEL        64
DOCKED: USER    Run = 64
DOCKED: USER
DOCKED: USER    Estimated Free Energy of Binding    =  -5.15 kcal/mol  [=(1)+(2)+(3)-(4)]
DOCKED: USER
DOCKED: USER    (1) Final Intermolecular Energy     =  -6.64 kcal/mol
DOCKED: USER        vdW + Hbond + desolv Energy     =  -6.64 kcal/mol
DOCKED: USER        Electrostatic Energy            =  +0.00 kcal/mol
DOCKED: USER        Moving Ligand-Fixed Receptor    =  -6.64 kcal/mol
DOCKED: USER        Moving Ligand-Moving Receptor   =  +0.00 kcal/mol
DOCKED: USER    (2) Final Total Internal Energy     =  -1.25 kcal/mol
DOCKED: USER    (3) Torsional Free Energy           =  +1.49 kcal/mol
DOCKED: USER    (4) Unbound System's Energy         =  -1.25 kcal/mol
DOCKED: USER
DOCKED: USER
DOCKED: REMARK  5 active torsions:
DOCKED: REMARK  status: ('A' for Active; 'I' for Inactive)
DOCKED: REMARK    1  A    between atoms: C_2  and  C_19 
DOCKED: REMARK    2  A    between atoms: C_2  and  C_11 
DOCKED: REMARK    3  A    between atoms: C_19  and  C_20 
DOCKED: REMARK    4  A    between atoms: C_20  and  C_21 
DOCKED: REMARK    5  A    between atoms: C_21  and  N_22 
DOCKED: USER                              x       y       z     vdW  Elec       q    Type
DOCKED: USER                           _______ _______ _______ _____ _____    ______ ____
DOCKED: ROOT
DOCKED: ATOM      1  O   UNL     1     -52.712 -31.246   8.531 -0.01 -0.00    -0.346 OA 
DOCKED: ATOM      2  C   UNL     1     -51.799 -32.387   8.449 -0.14 +0.00    +0.130 C  
DOCKED: ATOM      3  C   UNL     1     -52.103 -32.994   7.109 -0.29 +0.00    +0.004 A  
DOCKED: ATOM      4  C   UNL     1     -53.028 -32.207   6.438 -0.29 +0.00    +0.006 A  
DOCKED: ATOM      5  C   UNL     1     -53.386 -31.035   7.268 -0.17 +0.00    +0.169 C  
DOCKED: ATOM      6  C   UNL     1     -51.592 -34.145   6.527 -0.41 -0.00    -0.001 A  
DOCKED: ATOM      7  C   UNL     1     -53.475 -32.542   5.172 -0.19 +0.00    +0.008 A  
DOCKED: ATOM      8  C   UNL     1     -52.037 -34.499   5.252 -0.40 +0.00    +0.010 A  
DOCKED: ATOM      9  C   UNL     1     -52.974 -33.701   4.578 -0.42 +0.00    +0.068 A  
DOCKED: ATOM     10  N   UNL     1     -53.775 -34.384   2.211 -2.12 -0.00    -0.191 NA 
DOCKED: ATOM     11  C   UNL     1     -53.416 -34.078   3.273 -0.52 +0.00    +0.101 C  
DOCKED: ENDROOT
DOCKED: BRANCH   2  12
DOCKED: ATOM     12  C   UNL     1     -50.370 -31.870   8.555 -0.19 +0.00    +0.038 C  
DOCKED: BRANCH  12  13
DOCKED: ATOM     13  C   UNL     1     -50.312 -30.353   8.382 -0.12 +0.00    +0.038 C  
DOCKED: BRANCH  13  14
DOCKED: ATOM     14  C   UNL     1     -49.364 -29.965   7.249 -0.08 +0.00    +0.251 C  
DOCKED: BRANCH  14  15
DOCKED: ATOM     15  N   UNL     1     -50.110 -29.384   6.140 -0.17 +0.00    +0.141 N  
DOCKED: ATOM     16  C   UNL     1     -51.229 -28.580   6.635 -0.11 +0.00    +0.285 C  
DOCKED: ATOM     17  C   UNL     1     -49.233 -28.568   5.299 -0.10 +0.00    +0.285 C  
DOCKED: ENDBRANCH  14  15
DOCKED: ENDBRANCH  13  14
DOCKED: ENDBRANCH  12  13
DOCKED: ENDBRANCH   2  12
DOCKED: BRANCH   2  18
DOCKED: ATOM     18  C   UNL     1     -52.130 -33.294   9.587 -0.16 +0.00    +0.006 A  
DOCKED: ATOM     19  C   UNL     1     -53.461 -33.505   9.945 -0.14 +0.00    +0.001 A  
DOCKED: ATOM     20  C   UNL     1     -53.769 -34.353  11.009 -0.14 +0.00    +0.029 A  
DOCKED: ATOM     21  C   UNL     1     -52.747 -34.988  11.714 -0.04 +0.00    +0.140 A  
DOCKED: ATOM     22  C   UNL     1     -51.416 -34.776  11.355 -0.24 +0.00    +0.029 A  
DOCKED: ATOM     23  F   UNL     1     -53.043 -35.803  12.734 -0.04 -0.00    -0.204 F  
DOCKED: ATOM     24  C   UNL     1     -51.107 -33.928  10.290 -0.15 +0.00    +0.001 A  
DOCKED: ENDBRANCH   2  18
DOCKED: TORSDOF 5
DOCKED: TER
DOCKED: ENDMDL
________________________________________________________________________________


    FINAL DOCKED STATE:
    ________________________


Run:   65 / 512
Time taken for this run:   0.001s

DOCKED: MODEL        65
DOCKED: USER    Run = 65
DOCKED: USER
DOCKED: USER    Estimated Free Energy of Binding    =  -4.22 kcal/mol  [=(1)+(2)+(3)-(4)]
DOCKED: USER
DOCKED: USER    (1) Final Intermolecular Energy     =  -5.71 kcal/mol
DOCKED: USER        vdW + Hbond + desolv Energy     =  -5.71 kcal/mol
DOCKED: USER        Electrostatic Energy            =  +0.00 kcal/mol
DOCKED: USER        Moving Ligand-Fixed Receptor    =  -5.71 kcal/mol
DOCKED: USER        Moving Ligand-Moving Receptor   =  +0.00 kcal/mol
DOCKED: USER    (2) Final Total Internal Energy     =  -1.50 kcal/mol
DOCKED: USER    (3) Torsional Free Energy           =  +1.49 kcal/mol
DOCKED: USER    (4) Unbound System's Energy         =  -1.50 kcal/mol
DOCKED: USER
DOCKED: USER
DOCKED: REMARK  5 active torsions:
DOCKED: REMARK  status: ('A' for Active; 'I' for Inactive)
DOCKED: REMARK    1  A    between atoms: C_2  and  C_19 
DOCKED: REMARK    2  A    between atoms: C_2  and  C_11 
DOCKED: REMARK    3  A    between atoms: C_19  and  C_20 
DOCKED: REMARK    4  A    between atoms: C_20  and  C_21 
DOCKED: REMARK    5  A    between atoms: C_21  and  N_22 
DOCKED: USER                              x       y       z     vdW  Elec       q    Type
DOCKED: USER                           _______ _______ _______ _____ _____    ______ ____
DOCKED: ROOT
DOCKED: ATOM      1  O   UNL     1     -49.303 -30.929   8.765 -0.06 -0.00    -0.346 OA 
DOCKED: ATOM      2  C   UNL     1     -50.130 -30.113   7.875 -0.13 +0.00    +0.130 C  
DOCKED: ATOM      3  C   UNL     1     -51.014 -31.113   7.187 -0.23 +0.00    +0.004 A  
DOCKED: ATOM      4  C   UNL     1     -50.790 -32.376   7.717 -0.25 +0.00    +0.006 A  
DOCKED: ATOM      5  C   UNL     1     -49.768 -32.299   8.784 -0.16 +0.00    +0.169 C  
DOCKED: ATOM      6  C   UNL     1     -51.949 -30.919   6.182 -0.26 -0.00    -0.001 A  
DOCKED: ATOM      7  C   UNL     1     -51.485 -33.483   7.259 -0.33 +0.00    +0.008 A  
DOCKED: ATOM      8  C   UNL     1     -52.655 -32.025   5.707 -0.33 +0.00    +0.010 A  
DOCKED: ATOM      9  C   UNL     1     -52.424 -33.301   6.243 -0.31 +0.00    +0.068 A  
DOCKED: ATOM     10  N   UNL     1     -53.755 -35.333   5.343 -2.55 -0.00    -0.191 NA 
DOCKED: ATOM     11  C   UNL     1     -53.158 -34.421   5.746 -0.35 +0.00    +0.101 C  
DOCKED: ENDROOT
DOCKED: BRANCH   2  12
DOCKED: ATOM     12  C   UNL     1     -50.911 -29.115   8.723 -0.06 +0.00    +0.038 C  
DOCKED: BRANCH  12  13
DOCKED: ATOM     13  C   UNL     1     -50.172 -28.787  10.019 -0.02 +0.00    +0.038 C  
DOCKED: BRANCH  13  14
DOCKED: ATOM     14  C   UNL     1     -49.058 -27.771   9.773 -0.00 +0.00    +0.251 C  
DOCKED: BRANCH  14  15
DOCKED: ATOM     15  N   UNL     1     -47.754 -28.415   9.871 -0.01 +0.00    +0.141 N  
DOCKED: ATOM     16  C   UNL     1     -46.682 -27.457   9.594 -0.00 +0.00    +0.285 C  
DOCKED: ATOM     17  C   UNL     1     -47.571 -29.012  11.195 -0.00 +0.00    +0.285 C  
DOCKED: ENDBRANCH  14  15
DOCKED: ENDBRANCH  13  14
DOCKED: ENDBRANCH  12  13
DOCKED: ENDBRANCH   2  12
DOCKED: BRANCH   2  18
DOCKED: ATOM     18  C   UNL     1     -49.203 -29.414   6.938 -0.14 +0.00    +0.006 A  
DOCKED: ATOM     19  C   UNL     1     -49.702 -28.472   6.039 -0.16 +0.00    +0.001 A  
DOCKED: ATOM     20  C   UNL     1     -48.834 -27.819   5.162 -0.12 +0.00    +0.029 A  
DOCKED: ATOM     21  C   UNL     1     -47.470 -28.108   5.187 -0.08 +0.00    +0.140 A  
DOCKED: ATOM     22  C   UNL     1     -46.973 -29.050   6.087 -0.10 +0.00    +0.029 A  
DOCKED: ATOM     23  F   UNL     1     -46.637 -27.480   4.347 -0.00 -0.00    -0.204 F  
DOCKED: ATOM     24  C   UNL     1     -47.840 -29.704   6.964 -0.07 +0.00    +0.001 A  
DOCKED: ENDBRANCH   2  18
DOCKED: TORSDOF 5
DOCKED: TER
DOCKED: ENDMDL
________________________________________________________________________________


    FINAL DOCKED STATE:
    ________________________


Run:   66 / 512
Time taken for this run:   0.001s

DOCKED: MODEL        66
DOCKED: USER    Run = 66
DOCKED: USER
DOCKED: USER    Estimated Free Energy of Binding    =  -5.26 kcal/mol  [=(1)+(2)+(3)-(4)]
DOCKED: USER
DOCKED: USER    (1) Final Intermolecular Energy     =  -6.75 kcal/mol
DOCKED: USER        vdW + Hbond + desolv Energy     =  -6.75 kcal/mol
DOCKED: USER        Electrostatic Energy            =  +0.00 kcal/mol
DOCKED: USER        Moving Ligand-Fixed Receptor    =  -6.75 kcal/mol
DOCKED: USER        Moving Ligand-Moving Receptor   =  +0.00 kcal/mol
DOCKED: USER    (2) Final Total Internal Energy     =  -1.51 kcal/mol
DOCKED: USER    (3) Torsional Free Energy           =  +1.49 kcal/mol
DOCKED: USER    (4) Unbound System's Energy         =  -1.51 kcal/mol
DOCKED: USER
DOCKED: USER
DOCKED: REMARK  5 active torsions:
DOCKED: REMARK  status: ('A' for Active; 'I' for Inactive)
DOCKED: REMARK    1  A    between atoms: C_2  and  C_19 
DOCKED: REMARK    2  A    between atoms: C_2  and  C_11 
DOCKED: REMARK    3  A    between atoms: C_19  and  C_20 
DOCKED: REMARK    4  A    between atoms: C_20  and  C_21 
DOCKED: REMARK    5  A    between atoms: C_21  and  N_22 
DOCKED: USER                              x       y       z     vdW  Elec       q    Type
DOCKED: USER                           _______ _______ _______ _____ _____    ______ ____
DOCKED: ROOT
DOCKED: ATOM      1  O   UNL     1     -52.099 -31.205   8.095 -0.03 -0.00    -0.346 OA 
DOCKED: ATOM      2  C   UNL     1     -51.385 -32.482   8.046 -0.20 +0.00    +0.130 C  
DOCKED: ATOM      3  C   UNL     1     -51.827 -33.091   6.747 -0.33 +0.00    +0.004 A  
DOCKED: ATOM      4  C   UNL     1     -52.635 -32.195   6.062 -0.33 +0.00    +0.006 A  
DOCKED: ATOM      5  C   UNL     1     -52.772 -30.944   6.841 -0.21 +0.00    +0.169 C  
DOCKED: ATOM      6  C   UNL     1     -51.529 -34.335   6.209 -0.43 -0.00    -0.001 A  
DOCKED: ATOM      7  C   UNL     1     -53.174 -32.510   4.826 -0.18 +0.00    +0.008 A  
DOCKED: ATOM      8  C   UNL     1     -52.068 -34.669   4.966 -0.36 +0.00    +0.010 A  
DOCKED: ATOM      9  C   UNL     1     -52.886 -33.760   4.277 -0.43 +0.00    +0.068 A  
DOCKED: ATOM     10  N   UNL     1     -53.865 -34.409   1.968 -2.33 -0.00    -0.191 NA 
DOCKED: ATOM     11  C   UNL     1     -53.427 -34.118   3.004 -0.48 +0.00    +0.101 C  
DOCKED: ENDROOT
DOCKED: BRANCH   2  12
DOCKED: ATOM     12  C   UNL     1     -49.888 -32.200   8.090 -0.23 +0.00    +0.038 C  
DOCKED: BRANCH  12  13
DOCKED: ATOM     13  C   UNL     1     -49.588 -30.736   7.770 -0.14 +0.00    +0.038 C  
DOCKED: BRANCH  13  14
DOCKED: ATOM     14  C   UNL     1     -49.359 -29.931   9.047 -0.04 +0.00    +0.251 C  
DOCKED: BRANCH  14  15
DOCKED: ATOM     15  N   UNL     1     -50.141 -30.487  10.145 -0.02 +0.00    +0.141 N  
DOCKED: ATOM     16  C   UNL     1     -49.283 -30.781  11.293 -0.01 +0.00    +0.285 C  
DOCKED: ATOM     17  C   UNL     1     -51.212 -29.568  10.534 -0.00 +0.00    +0.285 C  
DOCKED: ENDBRANCH  14  15
DOCKED: ENDBRANCH  13  14
DOCKED: ENDBRANCH  12  13
DOCKED: ENDBRANCH   2  12
DOCKED: BRANCH   2  18
DOCKED: ATOM     18  C   UNL     1     -51.819 -33.271   9.236 -0.17 +0.00    +0.006 A  
DOCKED: ATOM     19  C   UNL     1     -50.886 -33.646  10.201 -0.13 +0.00    +0.001 A  
DOCKED: ATOM     20  C   UNL     1     -51.293 -34.384  11.313 -0.21 +0.00    +0.029 A  
DOCKED: ATOM     21  C   UNL     1     -52.631 -34.745  11.459 -0.11 +0.00    +0.140 A  
DOCKED: ATOM     22  C   UNL     1     -53.565 -34.369  10.493 -0.15 +0.00    +0.029 A  
DOCKED: ATOM     23  F   UNL     1     -53.022 -35.452  12.527 -0.04 -0.00    -0.204 F  
DOCKED: ATOM     24  C   UNL     1     -53.158 -33.631   9.380 -0.17 +0.00    +0.001 A  
DOCKED: ENDBRANCH   2  18
DOCKED: TORSDOF 5
DOCKED: TER
DOCKED: ENDMDL
________________________________________________________________________________


    FINAL DOCKED STATE:
    ________________________


Run:   67 / 512
Time taken for this run:   0.001s

DOCKED: MODEL        67
DOCKED: USER    Run = 67
DOCKED: USER
DOCKED: USER    Estimated Free Energy of Binding    =  -3.93 kcal/mol  [=(1)+(2)+(3)-(4)]
DOCKED: USER
DOCKED: USER    (1) Final Intermolecular Energy     =  -5.42 kcal/mol
DOCKED: USER        vdW + Hbond + desolv Energy     =  -5.42 kcal/mol
DOCKED: USER        Electrostatic Energy            =  +0.00 kcal/mol
DOCKED: USER        Moving Ligand-Fixed Receptor    =  -5.42 kcal/mol
DOCKED: USER        Moving Ligand-Moving Receptor   =  +0.00 kcal/mol
DOCKED: USER    (2) Final Total Internal Energy     =  -1.28 kcal/mol
DOCKED: USER    (3) Torsional Free Energy           =  +1.49 kcal/mol
DOCKED: USER    (4) Unbound System's Energy         =  -1.28 kcal/mol
DOCKED: USER
DOCKED: USER
DOCKED: REMARK  5 active torsions:
DOCKED: REMARK  status: ('A' for Active; 'I' for Inactive)
DOCKED: REMARK    1  A    between atoms: C_2  and  C_19 
DOCKED: REMARK    2  A    between atoms: C_2  and  C_11 
DOCKED: REMARK    3  A    between atoms: C_19  and  C_20 
DOCKED: REMARK    4  A    between atoms: C_20  and  C_21 
DOCKED: REMARK    5  A    between atoms: C_21  and  N_22 
DOCKED: USER                              x       y       z     vdW  Elec       q    Type
DOCKED: USER                           _______ _______ _______ _____ _____    ______ ____
DOCKED: ROOT
DOCKED: ATOM      1  O   UNL     1     -44.867 -24.499  -2.279 +0.01 -0.00    -0.346 OA 
DOCKED: ATOM      2  C   UNL     1     -45.986 -24.819  -1.391 -0.05 +0.00    +0.130 C  
DOCKED: ATOM      3  C   UNL     1     -47.175 -24.211  -2.078 -0.15 +0.00    +0.004 A  
DOCKED: ATOM      4  C   UNL     1     -46.788 -23.687  -3.304 -0.12 +0.00    +0.006 A  
DOCKED: ATOM      5  C   UNL     1     -45.342 -23.919  -3.516 -0.02 +0.00    +0.169 C  
DOCKED: ATOM      6  C   UNL     1     -48.495 -24.138  -1.657 -0.25 -0.00    -0.001 A  
DOCKED: ATOM      7  C   UNL     1     -47.700 -23.072  -4.144 -0.21 +0.00    +0.008 A  
DOCKED: ATOM      8  C   UNL     1     -49.425 -23.517  -2.492 -0.34 +0.00    +0.010 A  
DOCKED: ATOM      9  C   UNL     1     -49.030 -22.987  -3.729 -0.29 +0.00    +0.068 A  
DOCKED: ATOM     10  N   UNL     1     -50.785 -21.846  -5.256 -2.49 -0.00    -0.191 NA 
DOCKED: ATOM     11  C   UNL     1     -49.997 -22.357  -4.571 -0.41 +0.00    +0.101 C  
DOCKED: ENDROOT
DOCKED: BRANCH   2  12
DOCKED: ATOM     12  C   UNL     1     -46.084 -26.334  -1.265 -0.05 +0.00    +0.038 C  
DOCKED: BRANCH  12  13
DOCKED: ATOM     13  C   UNL     1     -45.761 -27.025  -2.588 -0.06 +0.00    +0.038 C  
DOCKED: BRANCH  13  14
DOCKED: ATOM     14  C   UNL     1     -47.008 -27.670  -3.190 -0.17 +0.00    +0.251 C  
DOCKED: BRANCH  14  15
DOCKED: ATOM     15  N   UNL     1     -46.834 -27.872  -4.623 -0.16 +0.00    +0.141 N  
DOCKED: ATOM     16  C   UNL     1     -46.682 -26.588  -5.310 -0.08 +0.00    +0.285 C  
DOCKED: ATOM     17  C   UNL     1     -45.676 -28.728  -4.886 -0.07 +0.00    +0.285 C  
DOCKED: ENDBRANCH  14  15
DOCKED: ENDBRANCH  13  14
DOCKED: ENDBRANCH  12  13
DOCKED: ENDBRANCH   2  12
DOCKED: BRANCH   2  18
DOCKED: ATOM     18  C   UNL     1     -45.691 -24.186  -0.072 -0.08 +0.00    +0.006 A  
DOCKED: ATOM     19  C   UNL     1     -46.054 -24.835   1.108 -0.08 +0.00    +0.001 A  
DOCKED: ATOM     20  C   UNL     1     -45.777 -24.242   2.341 -0.08 +0.00    +0.029 A  
DOCKED: ATOM     21  C   UNL     1     -45.139 -23.004   2.392 -0.05 +0.00    +0.140 A  
DOCKED: ATOM     22  C   UNL     1     -44.777 -22.356   1.211 -0.09 +0.00    +0.029 A  
DOCKED: ATOM     23  F   UNL     1     -44.872 -22.437   3.576 -0.03 -0.00    -0.204 F  
DOCKED: ATOM     24  C   UNL     1     -45.053 -22.948  -0.022 -0.10 +0.00    +0.001 A  
DOCKED: ENDBRANCH   2  18
DOCKED: TORSDOF 5
DOCKED: TER
DOCKED: ENDMDL
________________________________________________________________________________


    FINAL DOCKED STATE:
    ________________________


Run:   68 / 512
Time taken for this run:   0.001s

DOCKED: MODEL        68
DOCKED: USER    Run = 68
DOCKED: USER
DOCKED: USER    Estimated Free Energy of Binding    =  -3.37 kcal/mol  [=(1)+(2)+(3)-(4)]
DOCKED: USER
DOCKED: USER    (1) Final Intermolecular Energy     =  -4.87 kcal/mol
DOCKED: USER        vdW + Hbond + desolv Energy     =  -4.87 kcal/mol
DOCKED: USER        Electrostatic Energy            =  +0.00 kcal/mol
DOCKED: USER        Moving Ligand-Fixed Receptor    =  -4.87 kcal/mol
DOCKED: USER        Moving Ligand-Moving Receptor   =  +0.00 kcal/mol
DOCKED: USER    (2) Final Total Internal Energy     =  -1.45 kcal/mol
DOCKED: USER    (3) Torsional Free Energy           =  +1.49 kcal/mol
DOCKED: USER    (4) Unbound System's Energy         =  -1.45 kcal/mol
DOCKED: USER
DOCKED: USER
DOCKED: REMARK  5 active torsions:
DOCKED: REMARK  status: ('A' for Active; 'I' for Inactive)
DOCKED: REMARK    1  A    between atoms: C_2  and  C_19 
DOCKED: REMARK    2  A    between atoms: C_2  and  C_11 
DOCKED: REMARK    3  A    between atoms: C_19  and  C_20 
DOCKED: REMARK    4  A    between atoms: C_20  and  C_21 
DOCKED: REMARK    5  A    between atoms: C_21  and  N_22 
DOCKED: USER                              x       y       z     vdW  Elec       q    Type
DOCKED: USER                           _______ _______ _______ _____ _____    ______ ____
DOCKED: ROOT
DOCKED: ATOM      1  O   UNL     1     -48.335 -20.898  -3.543 -0.74 -0.00    -0.346 OA 
DOCKED: ATOM      2  C   UNL     1     -47.100 -21.216  -2.823 -0.20 +0.00    +0.130 C  
DOCKED: ATOM      3  C   UNL     1     -47.402 -22.525  -2.153 -0.19 +0.00    +0.004 A  
DOCKED: ATOM      4  C   UNL     1     -48.657 -22.971  -2.543 -0.29 +0.00    +0.006 A  
DOCKED: ATOM      5  C   UNL     1     -49.259 -22.009  -3.494 -0.37 +0.00    +0.169 C  
DOCKED: ATOM      6  C   UNL     1     -46.624 -23.267  -1.277 -0.14 -0.00    -0.001 A  
DOCKED: ATOM      7  C   UNL     1     -49.177 -24.164  -2.070 -0.29 +0.00    +0.008 A  
DOCKED: ATOM      8  C   UNL     1     -47.136 -24.470  -0.788 -0.13 +0.00    +0.010 A  
DOCKED: ATOM      9  C   UNL     1     -48.406 -24.917  -1.184 -0.21 +0.00    +0.068 A  
DOCKED: ATOM     10  N   UNL     1     -49.323 -27.157  -0.262 -0.05 -0.00    -0.191 NA 
DOCKED: ATOM     11  C   UNL     1     -48.912 -26.152  -0.675 -0.21 +0.00    +0.101 C  
DOCKED: ENDROOT
DOCKED: BRANCH   2  12
DOCKED: ATOM     12  C   UNL     1     -45.964 -21.316  -3.835 -0.15 +0.00    +0.038 C  
DOCKED: BRANCH  12  13
DOCKED: ATOM     13  C   UNL     1     -46.377 -22.134  -5.057 -0.16 +0.00    +0.038 C  
DOCKED: BRANCH  13  14
DOCKED: ATOM     14  C   UNL     1     -45.663 -23.484  -5.081 -0.02 +0.00    +0.251 C  
DOCKED: BRANCH  14  15
DOCKED: ATOM     15  N   UNL     1     -46.570 -24.530  -5.537 -0.13 +0.00    +0.141 N  
DOCKED: ATOM     16  C   UNL     1     -46.910 -25.434  -4.438 -0.10 +0.00    +0.285 C  
DOCKED: ATOM     17  C   UNL     1     -47.785 -23.945  -6.108 -0.12 +0.00    +0.285 C  
DOCKED: ENDBRANCH  14  15
DOCKED: ENDBRANCH  13  14
DOCKED: ENDBRANCH  12  13
DOCKED: ENDBRANCH   2  12
DOCKED: BRANCH   2  18
DOCKED: ATOM     18  C   UNL     1     -46.862 -20.107  -1.854 -0.26 +0.00    +0.006 A  
DOCKED: ATOM     19  C   UNL     1     -47.811 -19.096  -1.704 -0.30 +0.00    +0.001 A  
DOCKED: ATOM     20  C   UNL     1     -47.587 -18.060  -0.797 -0.31 +0.00    +0.029 A  
DOCKED: ATOM     21  C   UNL     1     -46.415 -18.036  -0.042 -0.15 +0.00    +0.140 A  
DOCKED: ATOM     22  C   UNL     1     -45.467 -19.047  -0.192 -0.14 +0.00    +0.029 A  
DOCKED: ATOM     23  F   UNL     1     -46.201 -17.041   0.830 -0.03 -0.00    -0.204 F  
DOCKED: ATOM     24  C   UNL     1     -45.690 -20.084  -1.099 -0.17 +0.00    +0.001 A  
DOCKED: ENDBRANCH   2  18
DOCKED: TORSDOF 5
DOCKED: TER
DOCKED: ENDMDL
________________________________________________________________________________


    FINAL DOCKED STATE:
    ________________________


Run:   69 / 512
Time taken for this run:   0.001s

DOCKED: MODEL        69
DOCKED: USER    Run = 69
DOCKED: USER
DOCKED: USER    Estimated Free Energy of Binding    =  -4.32 kcal/mol  [=(1)+(2)+(3)-(4)]
DOCKED: USER
DOCKED: USER    (1) Final Intermolecular Energy     =  -5.81 kcal/mol
DOCKED: USER        vdW + Hbond + desolv Energy     =  -5.81 kcal/mol
DOCKED: USER        Electrostatic Energy            =  +0.00 kcal/mol
DOCKED: USER        Moving Ligand-Fixed Receptor    =  -5.81 kcal/mol
DOCKED: USER        Moving Ligand-Moving Receptor   =  +0.00 kcal/mol
DOCKED: USER    (2) Final Total Internal Energy     =  -1.25 kcal/mol
DOCKED: USER    (3) Torsional Free Energy           =  +1.49 kcal/mol
DOCKED: USER    (4) Unbound System's Energy         =  -1.25 kcal/mol
DOCKED: USER
DOCKED: USER
DOCKED: REMARK  5 active torsions:
DOCKED: REMARK  status: ('A' for Active; 'I' for Inactive)
DOCKED: REMARK    1  A    between atoms: C_2  and  C_19 
DOCKED: REMARK    2  A    between atoms: C_2  and  C_11 
DOCKED: REMARK    3  A    between atoms: C_19  and  C_20 
DOCKED: REMARK    4  A    between atoms: C_20  and  C_21 
DOCKED: REMARK    5  A    between atoms: C_21  and  N_22 
DOCKED: USER                              x       y       z     vdW  Elec       q    Type
DOCKED: USER                           _______ _______ _______ _____ _____    ______ ____
DOCKED: ROOT
DOCKED: ATOM      1  O   UNL     1     -51.841 -28.425   6.856 -0.07 -0.00    -0.346 OA 
DOCKED: ATOM      2  C   UNL     1     -53.197 -28.602   7.378 -0.16 +0.00    +0.130 C  
DOCKED: ATOM      3  C   UNL     1     -53.529 -30.026   7.038 -0.22 +0.00    +0.004 A  
DOCKED: ATOM      4  C   UNL     1     -52.422 -30.642   6.471 -0.26 +0.00    +0.006 A  
DOCKED: ATOM      5  C   UNL     1     -51.293 -29.687   6.410 -0.17 +0.00    +0.169 C  
DOCKED: ATOM      6  C   UNL     1     -54.713 -30.724   7.225 -0.21 -0.00    -0.001 A  
DOCKED: ATOM      7  C   UNL     1     -52.460 -31.966   6.071 -0.33 +0.00    +0.008 A  
DOCKED: ATOM      8  C   UNL     1     -54.769 -32.059   6.822 -0.22 +0.00    +0.010 A  
DOCKED: ATOM      9  C   UNL     1     -53.648 -32.677   6.249 -0.24 +0.00    +0.068 A  
DOCKED: ATOM     10  N   UNL     1     -53.784 -35.159   5.518 -2.50 -0.00    -0.191 NA 
DOCKED: ATOM     11  C   UNL     1     -53.723 -34.046   5.845 -0.34 +0.00    +0.101 C  
DOCKED: ENDROOT
DOCKED: BRANCH   2  12
DOCKED: ATOM     12  C   UNL     1     -53.175 -28.340   8.879 -0.05 +0.00    +0.038 C  
DOCKED: BRANCH  12  13
DOCKED: ATOM     13  C   UNL     1     -52.542 -29.505   9.638 -0.03 +0.00    +0.038 C  
DOCKED: BRANCH  13  14
DOCKED: ATOM     14  C   UNL     1     -51.037 -29.304   9.798 -0.01 +0.00    +0.251 C  
DOCKED: BRANCH  14  15
DOCKED: ATOM     15  N   UNL     1     -50.751 -27.947  10.252 -0.01 +0.00    +0.141 N  
DOCKED: ATOM     16  C   UNL     1     -50.041 -27.970  11.531 -0.00 +0.00    +0.285 C  
DOCKED: ATOM     17  C   UNL     1     -49.969 -27.222   9.249 -0.00 +0.00    +0.285 C  
DOCKED: ENDBRANCH  14  15
DOCKED: ENDBRANCH  13  14
DOCKED: ENDBRANCH  12  13
DOCKED: ENDBRANCH   2  12
DOCKED: BRANCH   2  18
DOCKED: ATOM     18  C   UNL     1     -54.068 -27.617   6.672 -0.21 +0.00    +0.006 A  
DOCKED: ATOM     19  C   UNL     1     -55.449 -27.650   6.858 -0.21 +0.00    +0.001 A  
DOCKED: ATOM     20  C   UNL     1     -56.263 -26.728   6.197 -0.18 +0.00    +0.029 A  
DOCKED: ATOM     21  C   UNL     1     -55.694 -25.776   5.353 -0.08 +0.00    +0.140 A  
DOCKED: ATOM     22  C   UNL     1     -54.312 -25.744   5.167 -0.14 +0.00    +0.029 A  
DOCKED: ATOM     23  F   UNL     1     -56.475 -24.891   4.720 -0.03 -0.00    -0.204 F  
DOCKED: ATOM     24  C   UNL     1     -53.498 -26.665   5.827 -0.16 +0.00    +0.001 A  
DOCKED: ENDBRANCH   2  18
DOCKED: TORSDOF 5
DOCKED: TER
DOCKED: ENDMDL
________________________________________________________________________________


    FINAL DOCKED STATE:
    ________________________


Run:   70 / 512
Time taken for this run:   0.001s

DOCKED: MODEL        70
DOCKED: USER    Run = 70
DOCKED: USER
DOCKED: USER    Estimated Free Energy of Binding    =  -4.09 kcal/mol  [=(1)+(2)+(3)-(4)]
DOCKED: USER
DOCKED: USER    (1) Final Intermolecular Energy     =  -5.58 kcal/mol
DOCKED: USER        vdW + Hbond + desolv Energy     =  -5.58 kcal/mol
DOCKED: USER        Electrostatic Energy            =  +0.00 kcal/mol
DOCKED: USER        Moving Ligand-Fixed Receptor    =  -5.58 kcal/mol
DOCKED: USER        Moving Ligand-Moving Receptor   =  +0.00 kcal/mol
DOCKED: USER    (2) Final Total Internal Energy     =  -1.44 kcal/mol
DOCKED: USER    (3) Torsional Free Energy           =  +1.49 kcal/mol
DOCKED: USER    (4) Unbound System's Energy         =  -1.44 kcal/mol
DOCKED: USER
DOCKED: USER
DOCKED: REMARK  5 active torsions:
DOCKED: REMARK  status: ('A' for Active; 'I' for Inactive)
DOCKED: REMARK    1  A    between atoms: C_2  and  C_19 
DOCKED: REMARK    2  A    between atoms: C_2  and  C_11 
DOCKED: REMARK    3  A    between atoms: C_19  and  C_20 
DOCKED: REMARK    4  A    between atoms: C_20  and  C_21 
DOCKED: REMARK    5  A    between atoms: C_21  and  N_22 
DOCKED: USER                              x       y       z     vdW  Elec       q    Type
DOCKED: USER                           _______ _______ _______ _____ _____    ______ ____
DOCKED: ROOT
DOCKED: ATOM      1  O   UNL     1     -51.359 -29.445   8.103 -0.02 -0.00    -0.346 OA 
DOCKED: ATOM      2  C   UNL     1     -52.822 -29.443   8.076 -0.10 +0.00    +0.130 C  
DOCKED: ATOM      3  C   UNL     1     -53.170 -30.732   7.389 -0.19 +0.00    +0.004 A  
DOCKED: ATOM      4  C   UNL     1     -52.014 -31.458   7.145 -0.24 +0.00    +0.006 A  
DOCKED: ATOM      5  C   UNL     1     -50.838 -30.718   7.656 -0.15 +0.00    +0.169 C  
DOCKED: ATOM      6  C   UNL     1     -54.413 -31.227   7.021 -0.21 -0.00    -0.001 A  
DOCKED: ATOM      7  C   UNL     1     -52.057 -32.695   6.524 -0.32 +0.00    +0.008 A  
DOCKED: ATOM      8  C   UNL     1     -54.473 -32.471   6.390 -0.24 +0.00    +0.010 A  
DOCKED: ATOM      9  C   UNL     1     -53.300 -33.201   6.143 -0.27 +0.00    +0.068 A  
DOCKED: ATOM     10  N   UNL     1     -53.447 -35.509   4.974 -2.38 -0.00    -0.191 NA 
DOCKED: ATOM     11  C   UNL     1     -53.381 -34.474   5.498 -0.38 +0.00    +0.101 C  
DOCKED: ENDROOT
DOCKED: BRANCH   2  12
DOCKED: ATOM     12  C   UNL     1     -53.332 -29.378   9.511 -0.04 +0.00    +0.038 C  
DOCKED: BRANCH  12  13
DOCKED: ATOM     13  C   UNL     1     -52.918 -30.616  10.305 -0.03 +0.00    +0.038 C  
DOCKED: BRANCH  13  14
DOCKED: ATOM     14  C   UNL     1     -54.138 -31.434  10.722 -0.01 +0.00    +0.251 C  
DOCKED: BRANCH  14  15
DOCKED: ATOM     15  N   UNL     1     -53.801 -32.851  10.786 -0.04 +0.00    +0.141 N  
DOCKED: ATOM     16  C   UNL     1     -54.358 -33.566   9.636 -0.06 +0.00    +0.285 C  
DOCKED: ATOM     17  C   UNL     1     -52.350 -33.034  10.843 -0.05 +0.00    +0.285 C  
DOCKED: ENDBRANCH  14  15
DOCKED: ENDBRANCH  13  14
DOCKED: ENDBRANCH  12  13
DOCKED: ENDBRANCH   2  12
DOCKED: BRANCH   2  18
DOCKED: ATOM     18  C   UNL     1     -53.243 -28.239   7.300 -0.16 +0.00    +0.006 A  
DOCKED: ATOM     19  C   UNL     1     -52.434 -27.754   6.273 -0.14 +0.00    +0.001 A  
DOCKED: ATOM     20  C   UNL     1     -52.828 -26.628   5.549 -0.12 +0.00    +0.029 A  
DOCKED: ATOM     21  C   UNL     1     -54.030 -25.990   5.853 -0.13 +0.00    +0.140 A  
DOCKED: ATOM     22  C   UNL     1     -54.838 -26.476   6.880 -0.13 +0.00    +0.029 A  
DOCKED: ATOM     23  F   UNL     1     -54.409 -24.910   5.156 -0.02 -0.00    -0.204 F  
DOCKED: ATOM     24  C   UNL     1     -54.445 -27.602   7.605 -0.13 +0.00    +0.001 A  
DOCKED: ENDBRANCH   2  18
DOCKED: TORSDOF 5
DOCKED: TER
DOCKED: ENDMDL
________________________________________________________________________________


    FINAL DOCKED STATE:
    ________________________


Run:   71 / 512
Time taken for this run:   0.001s

DOCKED: MODEL        71
DOCKED: USER    Run = 71
DOCKED: USER
DOCKED: USER    Estimated Free Energy of Binding    =  -3.86 kcal/mol  [=(1)+(2)+(3)-(4)]
DOCKED: USER
DOCKED: USER    (1) Final Intermolecular Energy     =  -5.35 kcal/mol
DOCKED: USER        vdW + Hbond + desolv Energy     =  -5.35 kcal/mol
DOCKED: USER        Electrostatic Energy            =  +0.00 kcal/mol
DOCKED: USER        Moving Ligand-Fixed Receptor    =  -5.35 kcal/mol
DOCKED: USER        Moving Ligand-Moving Receptor   =  +0.00 kcal/mol
DOCKED: USER    (2) Final Total Internal Energy     =  -1.36 kcal/mol
DOCKED: USER    (3) Torsional Free Energy           =  +1.49 kcal/mol
DOCKED: USER    (4) Unbound System's Energy         =  -1.36 kcal/mol
DOCKED: USER
DOCKED: USER
DOCKED: REMARK  5 active torsions:
DOCKED: REMARK  status: ('A' for Active; 'I' for Inactive)
DOCKED: REMARK    1  A    between atoms: C_2  and  C_19 
DOCKED: REMARK    2  A    between atoms: C_2  and  C_11 
DOCKED: REMARK    3  A    between atoms: C_19  and  C_20 
DOCKED: REMARK    4  A    between atoms: C_20  and  C_21 
DOCKED: REMARK    5  A    between atoms: C_21  and  N_22 
DOCKED: USER                              x       y       z     vdW  Elec       q    Type
DOCKED: USER                           _______ _______ _______ _____ _____    ______ ____
DOCKED: ROOT
DOCKED: ATOM      1  O   UNL     1     -45.984 -25.116  -1.432 +0.00 -0.00    -0.346 OA 
DOCKED: ATOM      2  C   UNL     1     -46.066 -23.733  -0.962 -0.09 +0.00    +0.130 C  
DOCKED: ATOM      3  C   UNL     1     -47.074 -23.101  -1.878 -0.16 +0.00    +0.004 A  
DOCKED: ATOM      4  C   UNL     1     -47.603 -24.064  -2.725 -0.19 +0.00    +0.006 A  
DOCKED: ATOM      5  C   UNL     1     -47.001 -25.383  -2.425 -0.11 +0.00    +0.169 C  
DOCKED: ATOM      6  C   UNL     1     -47.497 -21.782  -1.948 -0.04 -0.00    -0.001 A  
DOCKED: ATOM      7  C   UNL     1     -48.564 -23.744  -3.669 -0.16 +0.00    +0.008 A  
DOCKED: ATOM      8  C   UNL     1     -48.462 -21.442  -2.898 -0.32 +0.00    +0.010 A  
DOCKED: ATOM      9  C   UNL     1     -48.993 -22.419  -3.754 -0.35 +0.00    +0.068 A  
DOCKED: ATOM     10  N   UNL     1     -50.787 -21.756  -5.502 -2.54 -0.00    -0.191 NA 
DOCKED: ATOM     11  C   UNL     1     -49.982 -22.053  -4.718 -0.43 +0.00    +0.101 C  
DOCKED: ENDROOT
DOCKED: BRANCH   2  12
DOCKED: ATOM     12  C   UNL     1     -46.514 -23.744   0.495 -0.15 +0.00    +0.038 C  
DOCKED: BRANCH  12  13
DOCKED: ATOM     13  C   UNL     1     -46.943 -25.142   0.935 -0.10 +0.00    +0.038 C  
DOCKED: BRANCH  13  14
DOCKED: ATOM     14  C   UNL     1     -48.344 -25.121   1.543 -0.11 +0.00    +0.251 C  
DOCKED: BRANCH  14  15
DOCKED: ATOM     15  N   UNL     1     -49.224 -24.262   0.760 -0.18 +0.00    +0.141 N  
DOCKED: ATOM     16  C   UNL     1     -49.729 -24.974  -0.415 -0.17 +0.00    +0.285 C  
DOCKED: ATOM     17  C   UNL     1     -50.337 -23.780   1.579 -0.08 +0.00    +0.285 C  
DOCKED: ENDBRANCH  14  15
DOCKED: ENDBRANCH  13  14
DOCKED: ENDBRANCH  12  13
DOCKED: ENDBRANCH   2  12
DOCKED: BRANCH   2  18
DOCKED: ATOM     18  C   UNL     1     -44.703 -23.143  -1.102 -0.05 +0.00    +0.006 A  
DOCKED: ATOM     19  C   UNL     1     -44.080 -22.558   0.001 -0.06 +0.00    +0.001 A  
DOCKED: ATOM     20  C   UNL     1     -42.805 -22.006  -0.132 -0.02 +0.00    +0.029 A  
DOCKED: ATOM     21  C   UNL     1     -42.155 -22.040  -1.364 -0.00 +0.00    +0.140 A  
DOCKED: ATOM     22  C   UNL     1     -42.778 -22.625  -2.466 -0.01 +0.00    +0.029 A  
DOCKED: ATOM     23  F   UNL     1     -40.931 -21.512  -1.490 +0.00 -0.00    -0.204 F  
DOCKED: ATOM     24  C   UNL     1     -44.054 -23.177  -2.335 -0.02 +0.00    +0.001 A  
DOCKED: ENDBRANCH   2  18
DOCKED: TORSDOF 5
DOCKED: TER
DOCKED: ENDMDL
________________________________________________________________________________


    FINAL DOCKED STATE:
    ________________________


Run:   72 / 512
Time taken for this run:   0.001s

DOCKED: MODEL        72
DOCKED: USER    Run = 72
DOCKED: USER
DOCKED: USER    Estimated Free Energy of Binding    =  -3.90 kcal/mol  [=(1)+(2)+(3)-(4)]
DOCKED: USER
DOCKED: USER    (1) Final Intermolecular Energy     =  -5.39 kcal/mol
DOCKED: USER        vdW + Hbond + desolv Energy     =  -5.39 kcal/mol
DOCKED: USER        Electrostatic Energy            =  +0.00 kcal/mol
DOCKED: USER        Moving Ligand-Fixed Receptor    =  -5.39 kcal/mol
DOCKED: USER        Moving Ligand-Moving Receptor   =  +0.00 kcal/mol
DOCKED: USER    (2) Final Total Internal Energy     =  -1.39 kcal/mol
DOCKED: USER    (3) Torsional Free Energy           =  +1.49 kcal/mol
DOCKED: USER    (4) Unbound System's Energy         =  -1.39 kcal/mol
DOCKED: USER
DOCKED: USER
DOCKED: REMARK  5 active torsions:
DOCKED: REMARK  status: ('A' for Active; 'I' for Inactive)
DOCKED: REMARK    1  A    between atoms: C_2  and  C_19 
DOCKED: REMARK    2  A    between atoms: C_2  and  C_11 
DOCKED: REMARK    3  A    between atoms: C_19  and  C_20 
DOCKED: REMARK    4  A    between atoms: C_20  and  C_21 
DOCKED: REMARK    5  A    between atoms: C_21  and  N_22 
DOCKED: USER                              x       y       z     vdW  Elec       q    Type
DOCKED: USER                           _______ _______ _______ _____ _____    ______ ____
DOCKED: ROOT
DOCKED: ATOM      1  O   UNL     1     -44.650 -31.519  -1.232 -0.01 -0.00    -0.346 OA 
DOCKED: ATOM      2  C   UNL     1     -44.806 -30.695  -0.032 -0.08 +0.00    +0.130 C  
DOCKED: ATOM      3  C   UNL     1     -45.166 -31.684   1.039 -0.13 +0.00    +0.004 A  
DOCKED: ATOM      4  C   UNL     1     -45.112 -32.971   0.523 -0.16 +0.00    +0.006 A  
DOCKED: ATOM      5  C   UNL     1     -44.706 -32.926  -0.899 -0.04 +0.00    +0.169 C  
DOCKED: ATOM      6  C   UNL     1     -45.503 -31.462   2.366 -0.17 -0.00    -0.001 A  
DOCKED: ATOM      7  C   UNL     1     -45.395 -34.075   1.310 -0.26 +0.00    +0.008 A  
DOCKED: ATOM      8  C   UNL     1     -45.796 -32.565   3.171 -0.24 +0.00    +0.010 A  
DOCKED: ATOM      9  C   UNL     1     -45.741 -33.864   2.645 -0.30 +0.00    +0.068 A  
DOCKED: ATOM     10  N   UNL     1     -46.286 -35.889   4.168 -2.66 -0.00    -0.191 NA 
DOCKED: ATOM     11  C   UNL     1     -46.042 -34.981   3.484 -0.34 +0.00    +0.101 C  
DOCKED: ENDROOT
DOCKED: BRANCH   2  12
DOCKED: ATOM     12  C   UNL     1     -43.487 -29.981   0.238 -0.02 +0.00    +0.038 C  
DOCKED: BRANCH  12  13
DOCKED: ATOM     13  C   UNL     1     -42.312 -30.722  -0.398 -0.01 +0.00    +0.038 C  
DOCKED: BRANCH  13  14
DOCKED: ATOM     14  C   UNL     1     -41.830 -30.007  -1.659 +0.00 +0.00    +0.251 C  
DOCKED: BRANCH  14  15
DOCKED: ATOM     15  N   UNL     1     -42.962 -29.444  -2.387 -0.01 +0.00    +0.141 N  
DOCKED: ATOM     16  C   UNL     1     -42.672 -28.074  -2.812 +0.00 +0.00    +0.285 C  
DOCKED: ATOM     17  C   UNL     1     -43.295 -30.275  -3.545 -0.01 +0.00    +0.285 C  
DOCKED: ENDBRANCH  14  15
DOCKED: ENDBRANCH  13  14
DOCKED: ENDBRANCH  12  13
DOCKED: ENDBRANCH   2  12
DOCKED: BRANCH   2  18
DOCKED: ATOM     18  C   UNL     1     -45.899 -29.718  -0.313 -0.13 +0.00    +0.006 A  
DOCKED: ATOM     19  C   UNL     1     -46.520 -29.047   0.739 -0.12 +0.00    +0.001 A  
DOCKED: ATOM     20  C   UNL     1     -47.542 -28.134   0.475 -0.15 +0.00    +0.029 A  
DOCKED: ATOM     21  C   UNL     1     -47.940 -27.894  -0.839 -0.09 +0.00    +0.140 A  
DOCKED: ATOM     22  C   UNL     1     -47.318 -28.566  -1.891 -0.19 +0.00    +0.029 A  
DOCKED: ATOM     23  F   UNL     1     -48.920 -27.016  -1.092 -0.07 -0.00    -0.204 F  
DOCKED: ATOM     24  C   UNL     1     -46.296 -29.480  -1.628 -0.19 +0.00    +0.001 A  
DOCKED: ENDBRANCH   2  18
DOCKED: TORSDOF 5
DOCKED: TER
DOCKED: ENDMDL
________________________________________________________________________________


    FINAL DOCKED STATE:
    ________________________


Run:   73 / 512
Time taken for this run:   0.001s

DOCKED: MODEL        73
DOCKED: USER    Run = 73
DOCKED: USER
DOCKED: USER    Estimated Free Energy of Binding    =  -5.96 kcal/mol  [=(1)+(2)+(3)-(4)]
DOCKED: USER
DOCKED: USER    (1) Final Intermolecular Energy     =  -7.45 kcal/mol
DOCKED: USER        vdW + Hbond + desolv Energy     =  -7.45 kcal/mol
DOCKED: USER        Electrostatic Energy            =  +0.00 kcal/mol
DOCKED: USER        Moving Ligand-Fixed Receptor    =  -7.45 kcal/mol
DOCKED: USER        Moving Ligand-Moving Receptor   =  +0.00 kcal/mol
DOCKED: USER    (2) Final Total Internal Energy     =  -0.92 kcal/mol
DOCKED: USER    (3) Torsional Free Energy           =  +1.49 kcal/mol
DOCKED: USER    (4) Unbound System's Energy         =  -0.92 kcal/mol
DOCKED: USER
DOCKED: USER
DOCKED: REMARK  5 active torsions:
DOCKED: REMARK  status: ('A' for Active; 'I' for Inactive)
DOCKED: REMARK    1  A    between atoms: C_2  and  C_19 
DOCKED: REMARK    2  A    between atoms: C_2  and  C_11 
DOCKED: REMARK    3  A    between atoms: C_19  and  C_20 
DOCKED: REMARK    4  A    between atoms: C_20  and  C_21 
DOCKED: REMARK    5  A    between atoms: C_21  and  N_22 
DOCKED: USER                              x       y       z     vdW  Elec       q    Type
DOCKED: USER                           _______ _______ _______ _____ _____    ______ ____
DOCKED: ROOT
DOCKED: ATOM      1  O   UNL     1     -51.392 -31.414   7.886 -0.06 -0.00    -0.346 OA 
DOCKED: ATOM      2  C   UNL     1     -51.281 -32.873   7.865 -0.23 +0.00    +0.130 C  
DOCKED: ATOM      3  C   UNL     1     -51.834 -33.256   6.522 -0.35 +0.00    +0.004 A  
DOCKED: ATOM      4  C   UNL     1     -52.131 -32.111   5.796 -0.33 +0.00    +0.006 A  
DOCKED: ATOM      5  C   UNL     1     -51.789 -30.910   6.590 -0.24 +0.00    +0.169 C  
DOCKED: ATOM      6  C   UNL     1     -52.046 -34.516   5.983 -0.33 -0.00    -0.001 A  
DOCKED: ATOM      7  C   UNL     1     -52.651 -32.185   4.515 +0.00 +0.00    +0.008 A  
DOCKED: ATOM      8  C   UNL     1     -52.573 -34.608   4.694 -0.49 +0.00    +0.010 A  
DOCKED: ATOM      9  C   UNL     1     -52.874 -33.448   3.964 -0.40 +0.00    +0.068 A  
DOCKED: ATOM     10  N   UNL     1     -53.848 -33.653   1.571 -3.16 -0.00    -0.191 NA 
DOCKED: ATOM     11  C   UNL     1     -53.412 -33.561   2.645 -0.42 +0.00    +0.101 C  
DOCKED: ENDROOT
DOCKED: BRANCH   2  12
DOCKED: ATOM     12  C   UNL     1     -49.814 -33.248   8.032 -0.15 +0.00    +0.038 C  
DOCKED: BRANCH  12  13
DOCKED: ATOM     13  C   UNL     1     -48.952 -32.017   8.304 -0.18 +0.00    +0.038 C  
DOCKED: BRANCH  13  14
DOCKED: ATOM     14  C   UNL     1     -48.241 -32.131   9.651 -0.09 +0.00    +0.251 C  
DOCKED: BRANCH  14  15
DOCKED: ATOM     15  N   UNL     1     -46.889 -31.593   9.559 -0.06 +0.00    +0.141 N  
DOCKED: ATOM     16  C   UNL     1     -46.015 -32.515   8.833 -0.08 +0.00    +0.285 C  
DOCKED: ATOM     17  C   UNL     1     -46.899 -30.283   8.906 -0.04 +0.00    +0.285 C  
DOCKED: ENDBRANCH  14  15
DOCKED: ENDBRANCH  13  14
DOCKED: ENDBRANCH  12  13
DOCKED: ENDBRANCH   2  12
DOCKED: BRANCH   2  18
DOCKED: ATOM     18  C   UNL     1     -52.101 -33.389   9.000 -0.18 +0.00    +0.006 A  
DOCKED: ATOM     19  C   UNL     1     -53.174 -34.244   8.752 -0.23 +0.00    +0.001 A  
DOCKED: ATOM     20  C   UNL     1     -53.940 -34.726   9.814 -0.08 +0.00    +0.029 A  
DOCKED: ATOM     21  C   UNL     1     -53.633 -34.353  11.121 -0.10 +0.00    +0.140 A  
DOCKED: ATOM     22  C   UNL     1     -52.559 -33.498  11.369 -0.11 +0.00    +0.029 A  
DOCKED: ATOM     23  F   UNL     1     -54.367 -34.817  12.141 -0.02 -0.00    -0.204 F  
DOCKED: ATOM     24  C   UNL     1     -51.793 -33.015  10.307 -0.12 +0.00    +0.001 A  
DOCKED: ENDBRANCH   2  18
DOCKED: TORSDOF 5
DOCKED: TER
DOCKED: ENDMDL
________________________________________________________________________________


    FINAL DOCKED STATE:
    ________________________


Run:   74 / 512
Time taken for this run:   0.001s

DOCKED: MODEL        74
DOCKED: USER    Run = 74
DOCKED: USER
DOCKED: USER    Estimated Free Energy of Binding    =  -5.73 kcal/mol  [=(1)+(2)+(3)-(4)]
DOCKED: USER
DOCKED: USER    (1) Final Intermolecular Energy     =  -7.22 kcal/mol
DOCKED: USER        vdW + Hbond + desolv Energy     =  -7.22 kcal/mol
DOCKED: USER        Electrostatic Energy            =  +0.00 kcal/mol
DOCKED: USER        Moving Ligand-Fixed Receptor    =  -7.22 kcal/mol
DOCKED: USER        Moving Ligand-Moving Receptor   =  +0.00 kcal/mol
DOCKED: USER    (2) Final Total Internal Energy     =  -1.01 kcal/mol
DOCKED: USER    (3) Torsional Free Energy           =  +1.49 kcal/mol
DOCKED: USER    (4) Unbound System's Energy         =  -1.01 kcal/mol
DOCKED: USER
DOCKED: USER
DOCKED: REMARK  5 active torsions:
DOCKED: REMARK  status: ('A' for Active; 'I' for Inactive)
DOCKED: REMARK    1  A    between atoms: C_2  and  C_19 
DOCKED: REMARK    2  A    between atoms: C_2  and  C_11 
DOCKED: REMARK    3  A    between atoms: C_19  and  C_20 
DOCKED: REMARK    4  A    between atoms: C_20  and  C_21 
DOCKED: REMARK    5  A    between atoms: C_21  and  N_22 
DOCKED: USER                              x       y       z     vdW  Elec       q    Type
DOCKED: USER                           _______ _______ _______ _____ _____    ______ ____
DOCKED: ROOT
DOCKED: ATOM      1  O   UNL     1     -51.870 -31.191   7.870 -0.04 -0.00    -0.346 OA 
DOCKED: ATOM      2  C   UNL     1     -51.437 -32.588   7.893 -0.21 +0.00    +0.130 C  
DOCKED: ATOM      3  C   UNL     1     -51.904 -33.131   6.573 -0.34 +0.00    +0.004 A  
DOCKED: ATOM      4  C   UNL     1     -52.456 -32.107   5.816 -0.34 +0.00    +0.006 A  
DOCKED: ATOM      5  C   UNL     1     -52.383 -30.833   6.566 -0.23 +0.00    +0.169 C  
DOCKED: ATOM      6  C   UNL     1     -51.834 -34.424   6.077 -0.41 -0.00    -0.001 A  
DOCKED: ATOM      7  C   UNL     1     -52.960 -32.339   4.548 +0.07 +0.00    +0.008 A  
DOCKED: ATOM      8  C   UNL     1     -52.341 -34.676   4.801 -0.45 +0.00    +0.010 A  
DOCKED: ATOM      9  C   UNL     1     -52.901 -33.638   4.040 -0.43 +0.00    +0.068 A  
DOCKED: ATOM     10  N   UNL     1     -53.829 -34.138   1.673 -2.78 -0.00    -0.191 NA 
DOCKED: ATOM     11  C   UNL     1     -53.413 -33.914   2.735 -0.44 +0.00    +0.101 C  
DOCKED: ENDROOT
DOCKED: BRANCH   2  12
DOCKED: ATOM     12  C   UNL     1     -49.921 -32.621   8.045 -0.25 +0.00    +0.038 C  
DOCKED: BRANCH  12  13
DOCKED: ATOM     13  C   UNL     1     -49.456 -31.715   9.183 -0.15 +0.00    +0.038 C  
DOCKED: BRANCH  13  14
DOCKED: ATOM     14  C   UNL     1     -48.704 -32.512  10.248 -0.07 +0.00    +0.251 C  
DOCKED: BRANCH  14  15
DOCKED: ATOM     15  N   UNL     1     -47.412 -32.951   9.734 -0.10 +0.00    +0.141 N  
DOCKED: ATOM     16  C   UNL     1     -46.738 -31.860   9.029 -0.08 +0.00    +0.285 C  
DOCKED: ATOM     17  C   UNL     1     -46.568 -33.452  10.820 -0.07 +0.00    +0.285 C  
DOCKED: ENDBRANCH  14  15
DOCKED: ENDBRANCH  13  14
DOCKED: ENDBRANCH  12  13
DOCKED: ENDBRANCH   2  12
DOCKED: BRANCH   2  18
DOCKED: ATOM     18  C   UNL     1     -52.109 -33.235   9.058 -0.17 +0.00    +0.006 A  
DOCKED: ATOM     19  C   UNL     1     -51.419 -34.169   9.830 -0.17 +0.00    +0.001 A  
DOCKED: ATOM     20  C   UNL     1     -52.049 -34.773  10.919 -0.21 +0.00    +0.029 A  
DOCKED: ATOM     21  C   UNL     1     -53.366 -34.443  11.234 -0.09 +0.00    +0.140 A  
DOCKED: ATOM     22  C   UNL     1     -54.056 -33.509  10.461 -0.11 +0.00    +0.029 A  
DOCKED: ATOM     23  F   UNL     1     -53.970 -35.021  12.280 -0.03 -0.00    -0.204 F  
DOCKED: ATOM     24  C   UNL     1     -53.427 -32.904   9.371 -0.11 +0.00    +0.001 A  
DOCKED: ENDBRANCH   2  18
DOCKED: TORSDOF 5
DOCKED: TER
DOCKED: ENDMDL
________________________________________________________________________________


    FINAL DOCKED STATE:
    ________________________


Run:   75 / 512
Time taken for this run:   0.001s

DOCKED: MODEL        75
DOCKED: USER    Run = 75
DOCKED: USER
DOCKED: USER    Estimated Free Energy of Binding    =  -3.94 kcal/mol  [=(1)+(2)+(3)-(4)]
DOCKED: USER
DOCKED: USER    (1) Final Intermolecular Energy     =  -5.43 kcal/mol
DOCKED: USER        vdW + Hbond + desolv Energy     =  -5.43 kcal/mol
DOCKED: USER        Electrostatic Energy            =  +0.00 kcal/mol
DOCKED: USER        Moving Ligand-Fixed Receptor    =  -5.43 kcal/mol
DOCKED: USER        Moving Ligand-Moving Receptor   =  +0.00 kcal/mol
DOCKED: USER    (2) Final Total Internal Energy     =  -1.32 kcal/mol
DOCKED: USER    (3) Torsional Free Energy           =  +1.49 kcal/mol
DOCKED: USER    (4) Unbound System's Energy         =  -1.32 kcal/mol
DOCKED: USER
DOCKED: USER
DOCKED: REMARK  5 active torsions:
DOCKED: REMARK  status: ('A' for Active; 'I' for Inactive)
DOCKED: REMARK    1  A    between atoms: C_2  and  C_19 
DOCKED: REMARK    2  A    between atoms: C_2  and  C_11 
DOCKED: REMARK    3  A    between atoms: C_19  and  C_20 
DOCKED: REMARK    4  A    between atoms: C_20  and  C_21 
DOCKED: REMARK    5  A    between atoms: C_21  and  N_22 
DOCKED: USER                              x       y       z     vdW  Elec       q    Type
DOCKED: USER                           _______ _______ _______ _____ _____    ______ ____
DOCKED: ROOT
DOCKED: ATOM      1  O   UNL     1     -44.303 -20.731  -3.873 -0.01 -0.00    -0.346 OA 
DOCKED: ATOM      2  C   UNL     1     -44.904 -21.427  -2.734 -0.05 +0.00    +0.130 C  
DOCKED: ATOM      3  C   UNL     1     -46.331 -21.635  -3.153 -0.14 +0.00    +0.004 A  
DOCKED: ATOM      4  C   UNL     1     -46.503 -21.197  -4.459 -0.17 +0.00    +0.006 A  
DOCKED: ATOM      5  C   UNL     1     -45.219 -20.688  -4.991 -0.09 +0.00    +0.169 C  
DOCKED: ATOM      6  C   UNL     1     -47.389 -22.179  -2.440 -0.21 -0.00    -0.001 A  
DOCKED: ATOM      7  C   UNL     1     -47.731 -21.283  -5.092 -0.27 +0.00    +0.008 A  
DOCKED: ATOM      8  C   UNL     1     -48.635 -22.269  -3.063 -0.33 +0.00    +0.010 A  
DOCKED: ATOM      9  C   UNL     1     -48.805 -21.823  -4.382 -0.36 +0.00    +0.068 A  
DOCKED: ATOM     10  N   UNL     1     -51.130 -22.008  -5.510 -2.58 -0.00    -0.191 NA 
DOCKED: ATOM     11  C   UNL     1     -50.087 -21.925  -5.004 -0.32 +0.00    +0.101 C  
DOCKED: ENDROOT
DOCKED: BRANCH   2  12
DOCKED: ATOM     12  C   UNL     1     -44.153 -22.735  -2.516 -0.03 +0.00    +0.038 C  
DOCKED: BRANCH  12  13
DOCKED: ATOM     13  C   UNL     1     -44.735 -23.523  -1.344 -0.05 +0.00    +0.038 C  
DOCKED: BRANCH  13  14
DOCKED: ATOM     14  C   UNL     1     -43.820 -23.447  -0.123 -0.02 +0.00    +0.251 C  
DOCKED: BRANCH  14  15
DOCKED: ATOM     15  N   UNL     1     -44.606 -23.508   1.104 -0.06 +0.00    +0.141 N  
DOCKED: ATOM     16  C   UNL     1     -44.284 -22.380   1.979 -0.06 +0.00    +0.285 C  
DOCKED: ATOM     17  C   UNL     1     -46.037 -23.522   0.799 -0.09 +0.00    +0.285 C  
DOCKED: ENDBRANCH  14  15
DOCKED: ENDBRANCH  13  14
DOCKED: ENDBRANCH  12  13
DOCKED: ENDBRANCH   2  12
DOCKED: BRANCH   2  18
DOCKED: ATOM     18  C   UNL     1     -44.771 -20.526  -1.552 -0.09 +0.00    +0.006 A  
DOCKED: ATOM     19  C   UNL     1     -45.892 -19.864  -1.051 -0.19 +0.00    +0.001 A  
DOCKED: ATOM     20  C   UNL     1     -45.765 -19.022   0.055 -0.14 +0.00    +0.029 A  
DOCKED: ATOM     21  C   UNL     1     -44.521 -18.842   0.656 -0.07 +0.00    +0.140 A  
DOCKED: ATOM     22  C   UNL     1     -43.401 -19.504   0.154 -0.05 +0.00    +0.029 A  
DOCKED: ATOM     23  F   UNL     1     -44.400 -18.035   1.718 -0.02 -0.00    -0.204 F  
DOCKED: ATOM     24  C   UNL     1     -43.526 -20.347  -0.952 -0.04 +0.00    +0.001 A  
DOCKED: ENDBRANCH   2  18
DOCKED: TORSDOF 5
DOCKED: TER
DOCKED: ENDMDL
________________________________________________________________________________


    FINAL DOCKED STATE:
    ________________________


Run:   76 / 512
Time taken for this run:   0.001s

DOCKED: MODEL        76
DOCKED: USER    Run = 76
DOCKED: USER
DOCKED: USER    Estimated Free Energy of Binding    =  -4.38 kcal/mol  [=(1)+(2)+(3)-(4)]
DOCKED: USER
DOCKED: USER    (1) Final Intermolecular Energy     =  -5.87 kcal/mol
DOCKED: USER        vdW + Hbond + desolv Energy     =  -5.87 kcal/mol
DOCKED: USER        Electrostatic Energy            =  +0.00 kcal/mol
DOCKED: USER        Moving Ligand-Fixed Receptor    =  -5.87 kcal/mol
DOCKED: USER        Moving Ligand-Moving Receptor   =  +0.00 kcal/mol
DOCKED: USER    (2) Final Total Internal Energy     =  -1.03 kcal/mol
DOCKED: USER    (3) Torsional Free Energy           =  +1.49 kcal/mol
DOCKED: USER    (4) Unbound System's Energy         =  -1.03 kcal/mol
DOCKED: USER
DOCKED: USER
DOCKED: REMARK  5 active torsions:
DOCKED: REMARK  status: ('A' for Active; 'I' for Inactive)
DOCKED: REMARK    1  A    between atoms: C_2  and  C_19 
DOCKED: REMARK    2  A    between atoms: C_2  and  C_11 
DOCKED: REMARK    3  A    between atoms: C_19  and  C_20 
DOCKED: REMARK    4  A    between atoms: C_20  and  C_21 
DOCKED: REMARK    5  A    between atoms: C_21  and  N_22 
DOCKED: USER                              x       y       z     vdW  Elec       q    Type
DOCKED: USER                           _______ _______ _______ _____ _____    ______ ____
DOCKED: ROOT
DOCKED: ATOM      1  O   UNL     1     -51.025 -29.163   7.382 -0.05 -0.00    -0.346 OA 
DOCKED: ATOM      2  C   UNL     1     -52.455 -29.209   7.692 -0.13 +0.00    +0.130 C  
DOCKED: ATOM      3  C   UNL     1     -52.888 -30.556   7.190 -0.21 +0.00    +0.004 A  
DOCKED: ATOM      4  C   UNL     1     -51.784 -31.262   6.734 -0.27 +0.00    +0.006 A  
DOCKED: ATOM      5  C   UNL     1     -50.560 -30.450   6.912 -0.16 +0.00    +0.169 C  
DOCKED: ATOM      6  C   UNL     1     -54.157 -31.116   7.151 -0.21 -0.00    -0.001 A  
DOCKED: ATOM      7  C   UNL     1     -51.908 -32.543   6.223 -0.34 +0.00    +0.008 A  
DOCKED: ATOM      8  C   UNL     1     -54.299 -32.405   6.633 -0.23 +0.00    +0.010 A  
DOCKED: ATOM      9  C   UNL     1     -53.181 -33.114   6.172 -0.27 +0.00    +0.068 A  
DOCKED: ATOM     10  N   UNL     1     -53.479 -35.507   5.223 -2.53 -0.00    -0.191 NA 
DOCKED: ATOM     11  C   UNL     1     -53.345 -34.433   5.648 -0.37 +0.00    +0.101 C  
DOCKED: ENDROOT
DOCKED: BRANCH   2  12
DOCKED: ATOM     12  C   UNL     1     -52.627 -29.053   9.198 -0.04 +0.00    +0.038 C  
DOCKED: BRANCH  12  13
DOCKED: ATOM     13  C   UNL     1     -54.014 -29.507   9.650 -0.04 +0.00    +0.038 C  
DOCKED: BRANCH  13  14
DOCKED: ATOM     14  C   UNL     1     -54.037 -29.791  11.151 -0.00 +0.00    +0.251 C  
DOCKED: BRANCH  14  15
DOCKED: ATOM     15  N   UNL     1     -53.817 -31.211  11.401 -0.01 +0.00    +0.141 N  
DOCKED: ATOM     16  C   UNL     1     -54.544 -32.026  10.427 -0.01 +0.00    +0.285 C  
DOCKED: ATOM     17  C   UNL     1     -52.388 -31.526  11.361 -0.01 +0.00    +0.285 C  
DOCKED: ENDBRANCH  14  15
DOCKED: ENDBRANCH  13  14
DOCKED: ENDBRANCH  12  13
DOCKED: ENDBRANCH   2  12
DOCKED: BRANCH   2  18
DOCKED: ATOM     18  C   UNL     1     -53.097 -28.080   6.957 -0.18 +0.00    +0.006 A  
DOCKED: ATOM     19  C   UNL     1     -52.309 -27.159   6.268 -0.15 +0.00    +0.001 A  
DOCKED: ATOM     20  C   UNL     1     -52.911 -26.104   5.582 -0.16 +0.00    +0.029 A  
DOCKED: ATOM     21  C   UNL     1     -54.299 -25.972   5.584 -0.11 +0.00    +0.140 A  
DOCKED: ATOM     22  C   UNL     1     -55.087 -26.894   6.273 -0.17 +0.00    +0.029 A  
DOCKED: ATOM     23  F   UNL     1     -54.877 -24.960   4.924 -0.03 -0.00    -0.204 F  
DOCKED: ATOM     24  C   UNL     1     -54.485 -27.950   6.961 -0.21 +0.00    +0.001 A  
DOCKED: ENDBRANCH   2  18
DOCKED: TORSDOF 5
DOCKED: TER
DOCKED: ENDMDL
________________________________________________________________________________


    FINAL DOCKED STATE:
    ________________________


Run:   77 / 512
Time taken for this run:   0.001s

DOCKED: MODEL        77
DOCKED: USER    Run = 77
DOCKED: USER
DOCKED: USER    Estimated Free Energy of Binding    =  -4.54 kcal/mol  [=(1)+(2)+(3)-(4)]
DOCKED: USER
DOCKED: USER    (1) Final Intermolecular Energy     =  -6.03 kcal/mol
DOCKED: USER        vdW + Hbond + desolv Energy     =  -6.03 kcal/mol
DOCKED: USER        Electrostatic Energy            =  +0.00 kcal/mol
DOCKED: USER        Moving Ligand-Fixed Receptor    =  -6.03 kcal/mol
DOCKED: USER        Moving Ligand-Moving Receptor   =  +0.00 kcal/mol
DOCKED: USER    (2) Final Total Internal Energy     =  -1.25 kcal/mol
DOCKED: USER    (3) Torsional Free Energy           =  +1.49 kcal/mol
DOCKED: USER    (4) Unbound System's Energy         =  -1.25 kcal/mol
DOCKED: USER
DOCKED: USER
DOCKED: REMARK  5 active torsions:
DOCKED: REMARK  status: ('A' for Active; 'I' for Inactive)
DOCKED: REMARK    1  A    between atoms: C_2  and  C_19 
DOCKED: REMARK    2  A    between atoms: C_2  and  C_11 
DOCKED: REMARK    3  A    between atoms: C_19  and  C_20 
DOCKED: REMARK    4  A    between atoms: C_20  and  C_21 
DOCKED: REMARK    5  A    between atoms: C_21  and  N_22 
DOCKED: USER                              x       y       z     vdW  Elec       q    Type
DOCKED: USER                           _______ _______ _______ _____ _____    ______ ____
DOCKED: ROOT
DOCKED: ATOM      1  O   UNL     1     -51.546 -28.812   6.915 -0.07 -0.00    -0.346 OA 
DOCKED: ATOM      2  C   UNL     1     -52.867 -29.034   7.503 -0.15 +0.00    +0.130 C  
DOCKED: ATOM      3  C   UNL     1     -53.204 -30.443   7.111 -0.21 +0.00    +0.004 A  
DOCKED: ATOM      4  C   UNL     1     -52.124 -31.015   6.452 -0.28 +0.00    +0.006 A  
DOCKED: ATOM      5  C   UNL     1     -51.011 -30.043   6.375 -0.17 +0.00    +0.169 C  
DOCKED: ATOM      6  C   UNL     1     -54.368 -31.166   7.329 -0.19 -0.00    -0.001 A  
DOCKED: ATOM      7  C   UNL     1     -52.172 -32.318   5.988 -0.34 +0.00    +0.008 A  
DOCKED: ATOM      8  C   UNL     1     -54.432 -32.480   6.863 -0.22 +0.00    +0.010 A  
DOCKED: ATOM      9  C   UNL     1     -53.340 -33.053   6.196 -0.26 +0.00    +0.068 A  
DOCKED: ATOM     10  N   UNL     1     -53.491 -35.497   5.349 -2.60 -0.00    -0.191 NA 
DOCKED: ATOM     11  C   UNL     1     -53.423 -34.401   5.728 -0.36 +0.00    +0.101 C  
DOCKED: ENDROOT
DOCKED: BRANCH   2  12
DOCKED: ATOM     12  C   UNL     1     -52.762 -28.847   9.012 -0.05 +0.00    +0.038 C  
DOCKED: BRANCH  12  13
DOCKED: ATOM     13  C   UNL     1     -51.481 -28.106   9.393 -0.03 +0.00    +0.038 C  
DOCKED: BRANCH  13  14
DOCKED: ATOM     14  C   UNL     1     -50.573 -28.985  10.251 -0.01 +0.00    +0.251 C  
DOCKED: BRANCH  14  15
DOCKED: ATOM     15  N   UNL     1     -49.179 -28.806   9.861 -0.01 +0.00    +0.141 N  
DOCKED: ATOM     16  C   UNL     1     -48.519 -30.102   9.696 -0.02 +0.00    +0.285 C  
DOCKED: ATOM     17  C   UNL     1     -49.086 -28.028   8.625 -0.01 +0.00    +0.285 C  
DOCKED: ENDBRANCH  14  15
DOCKED: ENDBRANCH  13  14
DOCKED: ENDBRANCH  12  13
DOCKED: ENDBRANCH   2  12
DOCKED: BRANCH   2  18
DOCKED: ATOM     18  C   UNL     1     -53.788 -28.026   6.899 -0.20 +0.00    +0.006 A  
DOCKED: ATOM     19  C   UNL     1     -55.158 -28.100   7.145 -0.20 +0.00    +0.001 A  
DOCKED: ATOM     20  C   UNL     1     -56.018 -27.157   6.579 -0.19 +0.00    +0.029 A  
DOCKED: ATOM     21  C   UNL     1     -55.507 -26.144   5.770 -0.10 +0.00    +0.140 A  
DOCKED: ATOM     22  C   UNL     1     -54.136 -26.071   5.525 -0.14 +0.00    +0.029 A  
DOCKED: ATOM     23  F   UNL     1     -56.332 -25.238   5.229 -0.03 -0.00    -0.204 F  
DOCKED: ATOM     24  C   UNL     1     -53.275 -27.014   6.090 -0.18 +0.00    +0.001 A  
DOCKED: ENDBRANCH   2  18
DOCKED: TORSDOF 5
DOCKED: TER
DOCKED: ENDMDL
________________________________________________________________________________


    FINAL DOCKED STATE:
    ________________________


Run:   78 / 512
Time taken for this run:   0.001s

DOCKED: MODEL        78
DOCKED: USER    Run = 78
DOCKED: USER
DOCKED: USER    Estimated Free Energy of Binding    =  -5.10 kcal/mol  [=(1)+(2)+(3)-(4)]
DOCKED: USER
DOCKED: USER    (1) Final Intermolecular Energy     =  -6.59 kcal/mol
DOCKED: USER        vdW + Hbond + desolv Energy     =  -6.59 kcal/mol
DOCKED: USER        Electrostatic Energy            =  +0.00 kcal/mol
DOCKED: USER        Moving Ligand-Fixed Receptor    =  -6.59 kcal/mol
DOCKED: USER        Moving Ligand-Moving Receptor   =  +0.00 kcal/mol
DOCKED: USER    (2) Final Total Internal Energy     =  -1.06 kcal/mol
DOCKED: USER    (3) Torsional Free Energy           =  +1.49 kcal/mol
DOCKED: USER    (4) Unbound System's Energy         =  -1.06 kcal/mol
DOCKED: USER
DOCKED: USER
DOCKED: REMARK  5 active torsions:
DOCKED: REMARK  status: ('A' for Active; 'I' for Inactive)
DOCKED: REMARK    1  A    between atoms: C_2  and  C_19 
DOCKED: REMARK    2  A    between atoms: C_2  and  C_11 
DOCKED: REMARK    3  A    between atoms: C_19  and  C_20 
DOCKED: REMARK    4  A    between atoms: C_20  and  C_21 
DOCKED: REMARK    5  A    between atoms: C_21  and  N_22 
DOCKED: USER                              x       y       z     vdW  Elec       q    Type
DOCKED: USER                           _______ _______ _______ _____ _____    ______ ____
DOCKED: ROOT
DOCKED: ATOM      1  O   UNL     1     -54.911 -32.600   8.527 -0.00 -0.00    -0.346 OA 
DOCKED: ATOM      2  C   UNL     1     -53.572 -32.112   8.191 -0.10 +0.00    +0.130 C  
DOCKED: ATOM      3  C   UNL     1     -53.415 -32.464   6.740 -0.24 +0.00    +0.004 A  
DOCKED: ATOM      4  C   UNL     1     -54.599 -33.005   6.260 -0.27 +0.00    +0.006 A  
DOCKED: ATOM      5  C   UNL     1     -55.612 -33.036   7.339 -0.15 +0.00    +0.169 C  
DOCKED: ATOM      6  C   UNL     1     -52.316 -32.308   5.909 -0.35 -0.00    -0.001 A  
DOCKED: ATOM      7  C   UNL     1     -54.725 -33.410   4.942 -0.33 +0.00    +0.008 A  
DOCKED: ATOM      8  C   UNL     1     -52.425 -32.715   4.578 -0.18 +0.00    +0.010 A  
DOCKED: ATOM      9  C   UNL     1     -53.623 -33.263   4.097 -0.34 +0.00    +0.068 A  
DOCKED: ATOM     10  N   UNL     1     -53.793 -34.005   1.620 -2.94 -0.00    -0.191 NA 
DOCKED: ATOM     11  C   UNL     1     -53.717 -33.673   2.731 -0.29 +0.00    +0.101 C  
DOCKED: ENDROOT
DOCKED: BRANCH   2  12
DOCKED: ATOM     12  C   UNL     1     -53.528 -30.610   8.445 -0.10 +0.00    +0.038 C  
DOCKED: BRANCH  12  13
DOCKED: ATOM     13  C   UNL     1     -54.164 -29.832   7.295 -0.22 +0.00    +0.038 C  
DOCKED: BRANCH  13  14
DOCKED: ATOM     14  C   UNL     1     -55.533 -29.284   7.694 -0.11 +0.00    +0.251 C  
DOCKED: BRANCH  14  15
DOCKED: ATOM     15  N   UNL     1     -55.528 -27.826   7.652 -0.10 +0.00    +0.141 N  
DOCKED: ATOM     16  C   UNL     1     -56.731 -27.287   8.288 -0.02 +0.00    +0.285 C  
DOCKED: ATOM     17  C   UNL     1     -54.329 -27.296   8.304 -0.03 +0.00    +0.285 C  
DOCKED: ENDBRANCH  14  15
DOCKED: ENDBRANCH  13  14
DOCKED: ENDBRANCH  12  13
DOCKED: ENDBRANCH   2  12
DOCKED: BRANCH   2  18
DOCKED: ATOM     18  C   UNL     1     -52.610 -32.836   9.073 -0.13 +0.00    +0.006 A  
DOCKED: ATOM     19  C   UNL     1     -51.343 -32.303   9.307 -0.12 +0.00    +0.001 A  
DOCKED: ATOM     20  C   UNL     1     -50.444 -32.981  10.131 -0.12 +0.00    +0.029 A  
DOCKED: ATOM     21  C   UNL     1     -50.813 -34.190  10.720 -0.02 +0.00    +0.140 A  
DOCKED: ATOM     22  C   UNL     1     -52.081 -34.722  10.485 -0.21 +0.00    +0.029 A  
DOCKED: ATOM     23  F   UNL     1     -49.951 -34.839  11.512 +0.00 -0.00    -0.204 F  
DOCKED: ATOM     24  C   UNL     1     -52.980 -34.045   9.660 -0.20 +0.00    +0.001 A  
DOCKED: ENDBRANCH   2  18
DOCKED: TORSDOF 5
DOCKED: TER
DOCKED: ENDMDL
________________________________________________________________________________


    FINAL DOCKED STATE:
    ________________________


Run:   79 / 512
Time taken for this run:   0.001s

DOCKED: MODEL        79
DOCKED: USER    Run = 79
DOCKED: USER
DOCKED: USER    Estimated Free Energy of Binding    =  -3.45 kcal/mol  [=(1)+(2)+(3)-(4)]
DOCKED: USER
DOCKED: USER    (1) Final Intermolecular Energy     =  -4.94 kcal/mol
DOCKED: USER        vdW + Hbond + desolv Energy     =  -4.94 kcal/mol
DOCKED: USER        Electrostatic Energy            =  +0.00 kcal/mol
DOCKED: USER        Moving Ligand-Fixed Receptor    =  -4.94 kcal/mol
DOCKED: USER        Moving Ligand-Moving Receptor   =  +0.00 kcal/mol
DOCKED: USER    (2) Final Total Internal Energy     =  -1.35 kcal/mol
DOCKED: USER    (3) Torsional Free Energy           =  +1.49 kcal/mol
DOCKED: USER    (4) Unbound System's Energy         =  -1.35 kcal/mol
DOCKED: USER
DOCKED: USER
DOCKED: REMARK  5 active torsions:
DOCKED: REMARK  status: ('A' for Active; 'I' for Inactive)
DOCKED: REMARK    1  A    between atoms: C_2  and  C_19 
DOCKED: REMARK    2  A    between atoms: C_2  and  C_11 
DOCKED: REMARK    3  A    between atoms: C_19  and  C_20 
DOCKED: REMARK    4  A    between atoms: C_20  and  C_21 
DOCKED: REMARK    5  A    between atoms: C_21  and  N_22 
DOCKED: USER                              x       y       z     vdW  Elec       q    Type
DOCKED: USER                           _______ _______ _______ _____ _____    ______ ____
DOCKED: ROOT
DOCKED: ATOM      1  O   UNL     1     -44.945 -28.430   0.691 +0.01 -0.00    -0.346 OA 
DOCKED: ATOM      2  C   UNL     1     -46.233 -29.075   0.435 -0.10 +0.00    +0.130 C  
DOCKED: ATOM      3  C   UNL     1     -46.185 -30.320   1.273 -0.16 +0.00    +0.004 A  
DOCKED: ATOM      4  C   UNL     1     -45.019 -30.330   2.026 -0.07 +0.00    +0.006 A  
DOCKED: ATOM      5  C   UNL     1     -44.234 -29.106   1.754 -0.01 +0.00    +0.169 C  
DOCKED: ATOM      6  C   UNL     1     -47.104 -31.354   1.369 -0.31 -0.00    -0.001 A  
DOCKED: ATOM      7  C   UNL     1     -44.731 -31.370   2.893 -0.10 +0.00    +0.008 A  
DOCKED: ATOM      8  C   UNL     1     -46.826 -32.413   2.236 -0.29 +0.00    +0.010 A  
DOCKED: ATOM      9  C   UNL     1     -45.646 -32.420   2.995 -0.20 +0.00    +0.068 A  
DOCKED: ATOM     10  N   UNL     1     -45.162 -34.397   4.598 -1.88 -0.00    -0.191 NA 
DOCKED: ATOM     11  C   UNL     1     -45.379 -33.511   3.878 -0.25 +0.00    +0.101 C  
DOCKED: ENDROOT
DOCKED: BRANCH   2  12
DOCKED: ATOM     12  C   UNL     1     -47.343 -28.119   0.856 -0.14 +0.00    +0.038 C  
DOCKED: BRANCH  12  13
DOCKED: ATOM     13  C   UNL     1     -46.853 -27.123   1.905 -0.06 +0.00    +0.038 C  
DOCKED: BRANCH  13  14
DOCKED: ATOM     14  C   UNL     1     -47.710 -27.189   3.168 -0.05 +0.00    +0.251 C  
DOCKED: BRANCH  14  15
DOCKED: ATOM     15  N   UNL     1     -46.972 -27.832   4.248 -0.05 +0.00    +0.141 N  
DOCKED: ATOM     16  C   UNL     1     -46.953 -26.981   5.439 -0.02 +0.00    +0.285 C  
DOCKED: ATOM     17  C   UNL     1     -47.556 -29.136   4.566 -0.06 +0.00    +0.285 C  
DOCKED: ENDBRANCH  14  15
DOCKED: ENDBRANCH  13  14
DOCKED: ENDBRANCH  12  13
DOCKED: ENDBRANCH   2  12
DOCKED: BRANCH   2  18
DOCKED: ATOM     18  C   UNL     1     -46.295 -29.361  -1.028 -0.17 +0.00    +0.006 A  
DOCKED: ATOM     19  C   UNL     1     -45.627 -30.467  -1.551 -0.13 +0.00    +0.001 A  
DOCKED: ATOM     20  C   UNL     1     -45.685 -30.733  -2.919 -0.15 +0.00    +0.029 A  
DOCKED: ATOM     21  C   UNL     1     -46.412 -29.894  -3.762 -0.21 +0.00    +0.140 A  
DOCKED: ATOM     22  C   UNL     1     -47.080 -28.787  -3.239 -0.25 +0.00    +0.029 A  
DOCKED: ATOM     23  F   UNL     1     -46.469 -30.150  -5.076 -0.08 -0.00    -0.204 F  
DOCKED: ATOM     24  C   UNL     1     -47.022 -28.520  -1.870 -0.21 +0.00    +0.001 A  
DOCKED: ENDBRANCH   2  18
DOCKED: TORSDOF 5
DOCKED: TER
DOCKED: ENDMDL
________________________________________________________________________________


    FINAL DOCKED STATE:
    ________________________


Run:   80 / 512
Time taken for this run:   0.001s

DOCKED: MODEL        80
DOCKED: USER    Run = 80
DOCKED: USER
DOCKED: USER    Estimated Free Energy of Binding    =  -4.29 kcal/mol  [=(1)+(2)+(3)-(4)]
DOCKED: USER
DOCKED: USER    (1) Final Intermolecular Energy     =  -5.79 kcal/mol
DOCKED: USER        vdW + Hbond + desolv Energy     =  -5.79 kcal/mol
DOCKED: USER        Electrostatic Energy            =  +0.00 kcal/mol
DOCKED: USER        Moving Ligand-Fixed Receptor    =  -5.79 kcal/mol
DOCKED: USER        Moving Ligand-Moving Receptor   =  +0.00 kcal/mol
DOCKED: USER    (2) Final Total Internal Energy     =  -1.27 kcal/mol
DOCKED: USER    (3) Torsional Free Energy           =  +1.49 kcal/mol
DOCKED: USER    (4) Unbound System's Energy         =  -1.27 kcal/mol
DOCKED: USER
DOCKED: USER
DOCKED: REMARK  5 active torsions:
DOCKED: REMARK  status: ('A' for Active; 'I' for Inactive)
DOCKED: REMARK    1  A    between atoms: C_2  and  C_19 
DOCKED: REMARK    2  A    between atoms: C_2  and  C_11 
DOCKED: REMARK    3  A    between atoms: C_19  and  C_20 
DOCKED: REMARK    4  A    between atoms: C_20  and  C_21 
DOCKED: REMARK    5  A    between atoms: C_21  and  N_22 
DOCKED: USER                              x       y       z     vdW  Elec       q    Type
DOCKED: USER                           _______ _______ _______ _____ _____    ______ ____
DOCKED: ROOT
DOCKED: ATOM      1  O   UNL     1     -49.488 -30.272   8.188 -0.06 -0.00    -0.346 OA 
DOCKED: ATOM      2  C   UNL     1     -50.656 -29.654   7.559 -0.14 +0.00    +0.130 C  
DOCKED: ATOM      3  C   UNL     1     -51.407 -30.816   6.975 -0.24 +0.00    +0.004 A  
DOCKED: ATOM      4  C   UNL     1     -50.783 -32.002   7.333 -0.23 +0.00    +0.006 A  
DOCKED: ATOM      5  C   UNL     1     -49.601 -31.714   8.176 -0.14 +0.00    +0.169 C  
DOCKED: ATOM      6  C   UNL     1     -52.556 -30.822   6.199 -0.23 -0.00    -0.001 A  
DOCKED: ATOM      7  C   UNL     1     -51.280 -33.229   6.926 -0.33 +0.00    +0.008 A  
DOCKED: ATOM      8  C   UNL     1     -53.068 -32.051   5.777 -0.29 +0.00    +0.010 A  
DOCKED: ATOM      9  C   UNL     1     -52.432 -33.248   6.139 -0.31 +0.00    +0.068 A  
DOCKED: ATOM     10  N   UNL     1     -53.410 -35.512   5.344 -2.62 -0.00    -0.191 NA 
DOCKED: ATOM     11  C   UNL     1     -52.971 -34.496   5.700 -0.33 +0.00    +0.101 C  
DOCKED: ENDROOT
DOCKED: BRANCH   2  12
DOCKED: ATOM     12  C   UNL     1     -51.448 -28.915   8.632 -0.06 +0.00    +0.038 C  
DOCKED: BRANCH  12  13
DOCKED: ATOM     13  C   UNL     1     -51.706 -29.806   9.846 -0.03 +0.00    +0.038 C  
DOCKED: BRANCH  13  14
DOCKED: ATOM     14  C   UNL     1     -52.998 -30.604   9.676 -0.02 +0.00    +0.251 C  
DOCKED: BRANCH  14  15
DOCKED: ATOM     15  N   UNL     1     -54.072 -29.736   9.208 -0.03 +0.00    +0.141 N  
DOCKED: ATOM     16  C   UNL     1     -55.024 -30.489   8.390 -0.04 +0.00    +0.285 C  
DOCKED: ATOM     17  C   UNL     1     -54.760 -29.110  10.339 -0.00 +0.00    +0.285 C  
DOCKED: ENDBRANCH  14  15
DOCKED: ENDBRANCH  13  14
DOCKED: ENDBRANCH  12  13
DOCKED: ENDBRANCH   2  12
DOCKED: BRANCH   2  18
DOCKED: ATOM     18  C   UNL     1     -50.145 -28.710   6.522 -0.16 +0.00    +0.006 A  
DOCKED: ATOM     19  C   UNL     1     -49.097 -29.094   5.687 -0.09 +0.00    +0.001 A  
DOCKED: ATOM     20  C   UNL     1     -48.620 -28.211   4.718 -0.14 +0.00    +0.029 A  
DOCKED: ATOM     21  C   UNL     1     -49.192 -26.947   4.585 -0.08 +0.00    +0.140 A  
DOCKED: ATOM     22  C   UNL     1     -50.241 -26.564   5.420 -0.09 +0.00    +0.029 A  
DOCKED: ATOM     23  F   UNL     1     -48.735 -26.100   3.653 -0.01 -0.00    -0.204 F  
DOCKED: ATOM     24  C   UNL     1     -50.718 -27.446   6.391 -0.12 +0.00    +0.001 A  
DOCKED: ENDBRANCH   2  18
DOCKED: TORSDOF 5
DOCKED: TER
DOCKED: ENDMDL
________________________________________________________________________________


    FINAL DOCKED STATE:
    ________________________


Run:   81 / 512
Time taken for this run:   0.001s

DOCKED: MODEL        81
DOCKED: USER    Run = 81
DOCKED: USER
DOCKED: USER    Estimated Free Energy of Binding    =  -4.43 kcal/mol  [=(1)+(2)+(3)-(4)]
DOCKED: USER
DOCKED: USER    (1) Final Intermolecular Energy     =  -5.92 kcal/mol
DOCKED: USER        vdW + Hbond + desolv Energy     =  -5.92 kcal/mol
DOCKED: USER        Electrostatic Energy            =  +0.00 kcal/mol
DOCKED: USER        Moving Ligand-Fixed Receptor    =  -5.92 kcal/mol
DOCKED: USER        Moving Ligand-Moving Receptor   =  +0.00 kcal/mol
DOCKED: USER    (2) Final Total Internal Energy     =  -1.43 kcal/mol
DOCKED: USER    (3) Torsional Free Energy           =  +1.49 kcal/mol
DOCKED: USER    (4) Unbound System's Energy         =  -1.43 kcal/mol
DOCKED: USER
DOCKED: USER
DOCKED: REMARK  5 active torsions:
DOCKED: REMARK  status: ('A' for Active; 'I' for Inactive)
DOCKED: REMARK    1  A    between atoms: C_2  and  C_19 
DOCKED: REMARK    2  A    between atoms: C_2  and  C_11 
DOCKED: REMARK    3  A    between atoms: C_19  and  C_20 
DOCKED: REMARK    4  A    between atoms: C_20  and  C_21 
DOCKED: REMARK    5  A    between atoms: C_21  and  N_22 
DOCKED: USER                              x       y       z     vdW  Elec       q    Type
DOCKED: USER                           _______ _______ _______ _____ _____    ______ ____
DOCKED: ROOT
DOCKED: ATOM      1  O   UNL     1     -50.418 -29.530   7.797 -0.04 -0.00    -0.346 OA 
DOCKED: ATOM      2  C   UNL     1     -51.867 -29.324   7.789 -0.11 +0.00    +0.130 C  
DOCKED: ATOM      3  C   UNL     1     -52.411 -30.610   7.237 -0.21 +0.00    +0.004 A  
DOCKED: ATOM      4  C   UNL     1     -51.374 -31.513   7.050 -0.25 +0.00    +0.006 A  
DOCKED: ATOM      5  C   UNL     1     -50.093 -30.902   7.471 -0.11 +0.00    +0.169 C  
DOCKED: ATOM      6  C   UNL     1     -53.720 -30.956   6.936 -0.23 -0.00    -0.001 A  
DOCKED: ATOM      7  C   UNL     1     -51.607 -32.785   6.555 -0.32 +0.00    +0.008 A  
DOCKED: ATOM      8  C   UNL     1     -53.970 -32.233   6.431 -0.25 +0.00    +0.010 A  
DOCKED: ATOM      9  C   UNL     1     -52.919 -33.143   6.242 -0.28 +0.00    +0.068 A  
DOCKED: ATOM     10  N   UNL     1     -53.419 -35.507   5.308 -2.59 -0.00    -0.191 NA 
DOCKED: ATOM     11  C   UNL     1     -53.195 -34.447   5.726 -0.35 +0.00    +0.101 C  
DOCKED: ENDROOT
DOCKED: BRANCH   2  12
DOCKED: ATOM     12  C   UNL     1     -52.323 -29.051   9.217 -0.04 +0.00    +0.038 C  
DOCKED: BRANCH  12  13
DOCKED: ATOM     13  C   UNL     1     -52.798 -30.329   9.904 -0.04 +0.00    +0.038 C  
DOCKED: BRANCH  13  14
DOCKED: ATOM     14  C   UNL     1     -51.659 -30.996  10.672 -0.01 +0.00    +0.251 C  
DOCKED: BRANCH  14  15
DOCKED: ATOM     15  N   UNL     1     -51.351 -32.299  10.094 -0.06 +0.00    +0.141 N  
DOCKED: ATOM     16  C   UNL     1     -50.041 -32.768  10.546 -0.07 +0.00    +0.285 C  
DOCKED: ATOM     17  C   UNL     1     -52.387 -33.274  10.440 -0.07 +0.00    +0.285 C  
DOCKED: ENDBRANCH  14  15
DOCKED: ENDBRANCH  13  14
DOCKED: ENDBRANCH  12  13
DOCKED: ENDBRANCH   2  12
DOCKED: BRANCH   2  18
DOCKED: ATOM     18  C   UNL     1     -52.136 -28.152   6.905 -0.16 +0.00    +0.006 A  
DOCKED: ATOM     19  C   UNL     1     -51.078 -27.501   6.270 -0.12 +0.00    +0.001 A  
DOCKED: ATOM     20  C   UNL     1     -51.331 -26.406   5.444 -0.11 +0.00    +0.029 A  
DOCKED: ATOM     21  C   UNL     1     -52.639 -25.963   5.253 -0.13 +0.00    +0.140 A  
DOCKED: ATOM     22  C   UNL     1     -53.696 -26.614   5.888 -0.15 +0.00    +0.029 A  
DOCKED: ATOM     23  F   UNL     1     -52.881 -24.912   4.458 -0.03 -0.00    -0.204 F  
DOCKED: ATOM     24  C   UNL     1     -53.444 -27.710   6.715 -0.19 +0.00    +0.001 A  
DOCKED: ENDBRANCH   2  18
DOCKED: TORSDOF 5
DOCKED: TER
DOCKED: ENDMDL
________________________________________________________________________________


    FINAL DOCKED STATE:
    ________________________


Run:   82 / 512
Time taken for this run:   0.001s

DOCKED: MODEL        82
DOCKED: USER    Run = 82
DOCKED: USER
DOCKED: USER    Estimated Free Energy of Binding    =  -4.30 kcal/mol  [=(1)+(2)+(3)-(4)]
DOCKED: USER
DOCKED: USER    (1) Final Intermolecular Energy     =  -5.79 kcal/mol
DOCKED: USER        vdW + Hbond + desolv Energy     =  -5.79 kcal/mol
DOCKED: USER        Electrostatic Energy            =  +0.00 kcal/mol
DOCKED: USER        Moving Ligand-Fixed Receptor    =  -5.79 kcal/mol
DOCKED: USER        Moving Ligand-Moving Receptor   =  +0.00 kcal/mol
DOCKED: USER    (2) Final Total Internal Energy     =  -1.03 kcal/mol
DOCKED: USER    (3) Torsional Free Energy           =  +1.49 kcal/mol
DOCKED: USER    (4) Unbound System's Energy         =  -1.03 kcal/mol
DOCKED: USER
DOCKED: USER
DOCKED: REMARK  5 active torsions:
DOCKED: REMARK  status: ('A' for Active; 'I' for Inactive)
DOCKED: REMARK    1  A    between atoms: C_2  and  C_19 
DOCKED: REMARK    2  A    between atoms: C_2  and  C_11 
DOCKED: REMARK    3  A    between atoms: C_19  and  C_20 
DOCKED: REMARK    4  A    between atoms: C_20  and  C_21 
DOCKED: REMARK    5  A    between atoms: C_21  and  N_22 
DOCKED: USER                              x       y       z     vdW  Elec       q    Type
DOCKED: USER                           _______ _______ _______ _____ _____    ______ ____
DOCKED: ROOT
DOCKED: ATOM      1  O   UNL     1     -44.760 -24.257  -2.801 +0.01 -0.00    -0.346 OA 
DOCKED: ATOM      2  C   UNL     1     -45.804 -24.419  -1.788 -0.05 +0.00    +0.130 C  
DOCKED: ATOM      3  C   UNL     1     -47.025 -23.830  -2.433 -0.14 +0.00    +0.004 A  
DOCKED: ATOM      4  C   UNL     1     -46.733 -23.463  -3.739 -0.12 +0.00    +0.006 A  
DOCKED: ATOM      5  C   UNL     1     -45.324 -23.792  -4.049 -0.02 +0.00    +0.169 C  
DOCKED: ATOM      6  C   UNL     1     -48.296 -23.643  -1.908 -0.24 -0.00    -0.001 A  
DOCKED: ATOM      7  C   UNL     1     -47.693 -22.897  -4.560 -0.23 +0.00    +0.008 A  
DOCKED: ATOM      8  C   UNL     1     -49.274 -23.069  -2.723 -0.35 +0.00    +0.010 A  
DOCKED: ATOM      9  C   UNL     1     -48.974 -22.699  -4.042 -0.32 +0.00    +0.068 A  
DOCKED: ATOM     10  N   UNL     1     -50.813 -21.641  -5.528 -2.54 -0.00    -0.191 NA 
DOCKED: ATOM     11  C   UNL     1     -49.988 -22.115  -4.862 -0.40 +0.00    +0.101 C  
DOCKED: ENDROOT
DOCKED: BRANCH   2  12
DOCKED: ATOM     12  C   UNL     1     -45.953 -25.905  -1.483 -0.05 +0.00    +0.038 C  
DOCKED: BRANCH  12  13
DOCKED: ATOM     13  C   UNL     1     -46.921 -26.579  -2.453 -0.15 +0.00    +0.038 C  
DOCKED: BRANCH  13  14
DOCKED: ATOM     14  C   UNL     1     -46.257 -27.758  -3.162 -0.10 +0.00    +0.251 C  
DOCKED: BRANCH  14  15
DOCKED: ATOM     15  N   UNL     1     -46.998 -28.987  -2.905 -0.24 +0.00    +0.141 N  
DOCKED: ATOM     16  C   UNL     1     -46.719 -29.984  -3.939 -0.20 +0.00    +0.285 C  
DOCKED: ATOM     17  C   UNL     1     -46.667 -29.522  -1.583 -0.14 +0.00    +0.285 C  
DOCKED: ENDBRANCH  14  15
DOCKED: ENDBRANCH  13  14
DOCKED: ENDBRANCH  12  13
DOCKED: ENDBRANCH   2  12
DOCKED: BRANCH   2  18
DOCKED: ATOM     18  C   UNL     1     -45.361 -23.663  -0.580 -0.08 +0.00    +0.006 A  
DOCKED: ATOM     19  C   UNL     1     -45.180 -24.330   0.631 -0.06 +0.00    +0.001 A  
DOCKED: ATOM     20  C   UNL     1     -44.766 -23.621   1.760 -0.07 +0.00    +0.029 A  
DOCKED: ATOM     21  C   UNL     1     -44.534 -22.249   1.676 -0.05 +0.00    +0.140 A  
DOCKED: ATOM     22  C   UNL     1     -44.715 -21.583   0.464 -0.10 +0.00    +0.029 A  
DOCKED: ATOM     23  F   UNL     1     -44.135 -21.570   2.759 -0.03 -0.00    -0.204 F  
DOCKED: ATOM     24  C   UNL     1     -45.130 -22.291  -0.666 -0.11 +0.00    +0.001 A  
DOCKED: ENDBRANCH   2  18
DOCKED: TORSDOF 5
DOCKED: TER
DOCKED: ENDMDL
________________________________________________________________________________


    FINAL DOCKED STATE:
    ________________________


Run:   83 / 512
Time taken for this run:   0.001s

DOCKED: MODEL        83
DOCKED: USER    Run = 83
DOCKED: USER
DOCKED: USER    Estimated Free Energy of Binding    =  -5.62 kcal/mol  [=(1)+(2)+(3)-(4)]
DOCKED: USER
DOCKED: USER    (1) Final Intermolecular Energy     =  -7.11 kcal/mol
DOCKED: USER        vdW + Hbond + desolv Energy     =  -7.11 kcal/mol
DOCKED: USER        Electrostatic Energy            =  +0.00 kcal/mol
DOCKED: USER        Moving Ligand-Fixed Receptor    =  -7.11 kcal/mol
DOCKED: USER        Moving Ligand-Moving Receptor   =  +0.00 kcal/mol
DOCKED: USER    (2) Final Total Internal Energy     =  -1.25 kcal/mol
DOCKED: USER    (3) Torsional Free Energy           =  +1.49 kcal/mol
DOCKED: USER    (4) Unbound System's Energy         =  -1.25 kcal/mol
DOCKED: USER
DOCKED: USER
DOCKED: REMARK  5 active torsions:
DOCKED: REMARK  status: ('A' for Active; 'I' for Inactive)
DOCKED: REMARK    1  A    between atoms: C_2  and  C_19 
DOCKED: REMARK    2  A    between atoms: C_2  and  C_11 
DOCKED: REMARK    3  A    between atoms: C_19  and  C_20 
DOCKED: REMARK    4  A    between atoms: C_20  and  C_21 
DOCKED: REMARK    5  A    between atoms: C_21  and  N_22 
DOCKED: USER                              x       y       z     vdW  Elec       q    Type
DOCKED: USER                           _______ _______ _______ _____ _____    ______ ____
DOCKED: ROOT
DOCKED: ATOM      1  O   UNL     1     -51.665 -31.436   7.418 -0.08 -0.00    -0.346 OA 
DOCKED: ATOM      2  C   UNL     1     -52.202 -32.770   7.694 -0.19 +0.00    +0.130 C  
DOCKED: ATOM      3  C   UNL     1     -52.701 -33.239   6.358 -0.33 +0.00    +0.004 A  
DOCKED: ATOM      4  C   UNL     1     -52.378 -32.305   5.384 -0.34 +0.00    +0.006 A  
DOCKED: ATOM      5  C   UNL     1     -51.643 -31.175   5.996 -0.15 +0.00    +0.169 C  
DOCKED: ATOM      6  C   UNL     1     -53.377 -34.405   6.029 -0.31 -0.00    -0.001 A  
DOCKED: ATOM      7  C   UNL     1     -52.721 -32.500   4.057 -0.14 +0.00    +0.008 A  
DOCKED: ATOM      8  C   UNL     1     -53.733 -34.614   4.696 -0.45 +0.00    +0.010 A  
DOCKED: ATOM      9  C   UNL     1     -53.406 -33.666   3.715 -0.44 +0.00    +0.068 A  
DOCKED: ATOM     10  N   UNL     1     -54.077 -34.088   1.248 -3.19 -0.00    -0.191 NA 
DOCKED: ATOM     11  C   UNL     1     -53.777 -33.898   2.354 -0.28 +0.00    +0.101 C  
DOCKED: ENDROOT
DOCKED: BRANCH   2  12
DOCKED: ATOM     12  C   UNL     1     -51.079 -33.638   8.246 -0.29 +0.00    +0.038 C  
DOCKED: BRANCH  12  13
DOCKED: ATOM     13  C   UNL     1     -49.879 -32.793   8.672 -0.20 +0.00    +0.038 C  
DOCKED: BRANCH  13  14
DOCKED: ATOM     14  C   UNL     1     -50.233 -31.894   9.855 -0.06 +0.00    +0.251 C  
DOCKED: BRANCH  14  15
DOCKED: ATOM     15  N   UNL     1     -49.701 -32.452  11.093 -0.07 +0.00    +0.141 N  
DOCKED: ATOM     16  C   UNL     1     -50.635 -33.424  11.664 -0.08 +0.00    +0.285 C  
DOCKED: ATOM     17  C   UNL     1     -48.398 -33.077  10.859 +0.00 +0.00    +0.285 C  
DOCKED: ENDBRANCH  14  15
DOCKED: ENDBRANCH  13  14
DOCKED: ENDBRANCH  12  13
DOCKED: ENDBRANCH   2  12
DOCKED: BRANCH   2  18
DOCKED: ATOM     18  C   UNL     1     -53.295 -32.601   8.696 -0.11 +0.00    +0.006 A  
DOCKED: ATOM     19  C   UNL     1     -54.085 -31.453   8.679 -0.08 +0.00    +0.001 A  
DOCKED: ATOM     20  C   UNL     1     -55.106 -31.296   9.617 -0.04 +0.00    +0.029 A  
DOCKED: ATOM     21  C   UNL     1     -55.336 -32.287  10.570 -0.02 +0.00    +0.140 A  
DOCKED: ATOM     22  C   UNL     1     -54.545 -33.436  10.586 -0.09 +0.00    +0.029 A  
DOCKED: ATOM     23  F   UNL     1     -56.317 -32.138  11.469 +0.01 -0.00    -0.204 F  
DOCKED: ATOM     24  C   UNL     1     -53.523 -33.593   9.649 -0.15 +0.00    +0.001 A  
DOCKED: ENDBRANCH   2  18
DOCKED: TORSDOF 5
DOCKED: TER
DOCKED: ENDMDL
________________________________________________________________________________


    FINAL DOCKED STATE:
    ________________________


Run:   84 / 512
Time taken for this run:   0.001s

DOCKED: MODEL        84
DOCKED: USER    Run = 84
DOCKED: USER
DOCKED: USER    Estimated Free Energy of Binding    =  -3.34 kcal/mol  [=(1)+(2)+(3)-(4)]
DOCKED: USER
DOCKED: USER    (1) Final Intermolecular Energy     =  -4.83 kcal/mol
DOCKED: USER        vdW + Hbond + desolv Energy     =  -4.83 kcal/mol
DOCKED: USER        Electrostatic Energy            =  +0.00 kcal/mol
DOCKED: USER        Moving Ligand-Fixed Receptor    =  -4.83 kcal/mol
DOCKED: USER        Moving Ligand-Moving Receptor   =  +0.00 kcal/mol
DOCKED: USER    (2) Final Total Internal Energy     =  -1.41 kcal/mol
DOCKED: USER    (3) Torsional Free Energy           =  +1.49 kcal/mol
DOCKED: USER    (4) Unbound System's Energy         =  -1.41 kcal/mol
DOCKED: USER
DOCKED: USER
DOCKED: REMARK  5 active torsions:
DOCKED: REMARK  status: ('A' for Active; 'I' for Inactive)
DOCKED: REMARK    1  A    between atoms: C_2  and  C_19 
DOCKED: REMARK    2  A    between atoms: C_2  and  C_11 
DOCKED: REMARK    3  A    between atoms: C_19  and  C_20 
DOCKED: REMARK    4  A    between atoms: C_20  and  C_21 
DOCKED: REMARK    5  A    between atoms: C_21  and  N_22 
DOCKED: USER                              x       y       z     vdW  Elec       q    Type
DOCKED: USER                           _______ _______ _______ _____ _____    ______ ____
DOCKED: ROOT
DOCKED: ATOM      1  O   UNL     1     -45.827 -23.457  -1.399 -0.02 -0.00    -0.346 OA 
DOCKED: ATOM      2  C   UNL     1     -45.735 -22.451  -2.458 -0.07 +0.00    +0.130 C  
DOCKED: ATOM      3  C   UNL     1     -47.123 -22.403  -3.029 -0.18 +0.00    +0.004 A  
DOCKED: ATOM      4  C   UNL     1     -47.961 -23.226  -2.291 -0.22 +0.00    +0.006 A  
DOCKED: ATOM      5  C   UNL     1     -47.201 -23.858  -1.189 -0.13 +0.00    +0.169 C  
DOCKED: ATOM      6  C   UNL     1     -47.607 -21.679  -4.108 -0.27 -0.00    -0.001 A  
DOCKED: ATOM      7  C   UNL     1     -49.302 -23.358  -2.606 -0.34 +0.00    +0.008 A  
DOCKED: ATOM      8  C   UNL     1     -48.957 -21.804  -4.442 -0.41 +0.00    +0.010 A  
DOCKED: ATOM      9  C   UNL     1     -49.800 -22.640  -3.694 -0.37 +0.00    +0.068 A  
DOCKED: ATOM     10  N   UNL     1     -52.302 -22.846  -4.336 -2.30 -0.00    -0.191 NA 
DOCKED: ATOM     11  C   UNL     1     -51.180 -22.754  -4.048 -0.08 +0.00    +0.101 C  
DOCKED: ENDROOT
DOCKED: BRANCH   2  12
DOCKED: ATOM     12  C   UNL     1     -45.305 -21.130  -1.831 -0.12 +0.00    +0.038 C  
DOCKED: BRANCH  12  13
DOCKED: ATOM     13  C   UNL     1     -45.100 -21.268  -0.324 -0.14 +0.00    +0.038 C  
DOCKED: BRANCH  13  14
DOCKED: ATOM     14  C   UNL     1     -43.639 -21.570   0.006 -0.04 +0.00    +0.251 C  
DOCKED: BRANCH  14  15
DOCKED: ATOM     15  N   UNL     1     -43.532 -22.834   0.724 -0.03 +0.00    +0.141 N  
DOCKED: ATOM     16  C   UNL     1     -42.896 -23.852  -0.113 -0.00 +0.00    +0.285 C  
DOCKED: ATOM     17  C   UNL     1     -42.780 -22.658   1.968 -0.02 +0.00    +0.285 C  
DOCKED: ENDBRANCH  14  15
DOCKED: ENDBRANCH  13  14
DOCKED: ENDBRANCH  12  13
DOCKED: ENDBRANCH   2  12
DOCKED: BRANCH   2  18
DOCKED: ATOM     18  C   UNL     1     -44.720 -22.939  -3.437 -0.03 +0.00    +0.006 A  
DOCKED: ATOM     19  C   UNL     1     -44.756 -24.261  -3.877 -0.02 +0.00    +0.001 A  
DOCKED: ATOM     20  C   UNL     1     -43.806 -24.716  -4.793 -0.01 +0.00    +0.029 A  
DOCKED: ATOM     21  C   UNL     1     -42.822 -23.848  -5.266 +0.00 +0.00    +0.140 A  
DOCKED: ATOM     22  C   UNL     1     -42.787 -22.526  -4.825 -0.01 +0.00    +0.029 A  
DOCKED: ATOM     23  F   UNL     1     -41.912 -24.285  -6.145 +0.00 -0.00    -0.204 F  
DOCKED: ATOM     24  C   UNL     1     -43.737 -22.070  -3.909 -0.02 +0.00    +0.001 A  
DOCKED: ENDBRANCH   2  18
DOCKED: TORSDOF 5
DOCKED: TER
DOCKED: ENDMDL
________________________________________________________________________________


    FINAL DOCKED STATE:
    ________________________


Run:   85 / 512
Time taken for this run:   0.001s

DOCKED: MODEL        85
DOCKED: USER    Run = 85
DOCKED: USER
DOCKED: USER    Estimated Free Energy of Binding    =  -4.23 kcal/mol  [=(1)+(2)+(3)-(4)]
DOCKED: USER
DOCKED: USER    (1) Final Intermolecular Energy     =  -5.72 kcal/mol
DOCKED: USER        vdW + Hbond + desolv Energy     =  -5.72 kcal/mol
DOCKED: USER        Electrostatic Energy            =  +0.00 kcal/mol
DOCKED: USER        Moving Ligand-Fixed Receptor    =  -5.72 kcal/mol
DOCKED: USER        Moving Ligand-Moving Receptor   =  +0.00 kcal/mol
DOCKED: USER    (2) Final Total Internal Energy     =  -1.38 kcal/mol
DOCKED: USER    (3) Torsional Free Energy           =  +1.49 kcal/mol
DOCKED: USER    (4) Unbound System's Energy         =  -1.38 kcal/mol
DOCKED: USER
DOCKED: USER
DOCKED: REMARK  5 active torsions:
DOCKED: REMARK  status: ('A' for Active; 'I' for Inactive)
DOCKED: REMARK    1  A    between atoms: C_2  and  C_19 
DOCKED: REMARK    2  A    between atoms: C_2  and  C_11 
DOCKED: REMARK    3  A    between atoms: C_19  and  C_20 
DOCKED: REMARK    4  A    between atoms: C_20  and  C_21 
DOCKED: REMARK    5  A    between atoms: C_21  and  N_22 
DOCKED: USER                              x       y       z     vdW  Elec       q    Type
DOCKED: USER                           _______ _______ _______ _____ _____    ______ ____
DOCKED: ROOT
DOCKED: ATOM      1  O   UNL     1     -54.833 -28.889   7.596 -0.07 -0.00    -0.346 OA 
DOCKED: ATOM      2  C   UNL     1     -53.420 -28.931   7.219 -0.19 +0.00    +0.130 C  
DOCKED: ATOM      3  C   UNL     1     -53.205 -30.351   6.783 -0.23 +0.00    +0.004 A  
DOCKED: ATOM      4  C   UNL     1     -54.414 -31.033   6.802 -0.21 +0.00    +0.006 A  
DOCKED: ATOM      5  C   UNL     1     -55.498 -30.122   7.234 -0.18 +0.00    +0.169 C  
DOCKED: ATOM      6  C   UNL     1     -52.037 -30.986   6.388 -0.28 -0.00    -0.001 A  
DOCKED: ATOM      7  C   UNL     1     -54.495 -32.365   6.435 -0.24 +0.00    +0.008 A  
DOCKED: ATOM      8  C   UNL     1     -52.102 -32.331   6.020 -0.34 +0.00    +0.010 A  
DOCKED: ATOM      9  C   UNL     1     -53.325 -33.016   6.043 -0.27 +0.00    +0.068 A  
DOCKED: ATOM     10  N   UNL     1     -53.412 -35.511   5.347 -2.62 -0.00    -0.191 NA 
DOCKED: ATOM     11  C   UNL     1     -53.373 -34.392   5.660 -0.38 +0.00    +0.101 C  
DOCKED: ENDROOT
DOCKED: BRANCH   2  12
DOCKED: ATOM     12  C   UNL     1     -53.189 -27.924   6.098 -0.15 +0.00    +0.038 C  
DOCKED: BRANCH  12  13
DOCKED: ATOM     13  C   UNL     1     -53.348 -26.489   6.597 -0.15 +0.00    +0.038 C  
DOCKED: BRANCH  13  14
DOCKED: ATOM     14  C   UNL     1     -54.573 -25.823   5.973 -0.11 +0.00    +0.251 C  
DOCKED: BRANCH  14  15
DOCKED: ATOM     15  N   UNL     1     -55.742 -26.014   6.822 -0.09 +0.00    +0.141 N  
DOCKED: ATOM     16  C   UNL     1     -55.376 -25.912   8.236 -0.01 +0.00    +0.285 C  
DOCKED: ATOM     17  C   UNL     1     -56.782 -25.037   6.495 -0.05 +0.00    +0.285 C  
DOCKED: ENDBRANCH  14  15
DOCKED: ENDBRANCH  13  14
DOCKED: ENDBRANCH  12  13
DOCKED: ENDBRANCH   2  12
DOCKED: BRANCH   2  18
DOCKED: ATOM     18  C   UNL     1     -52.633 -28.571   8.435 -0.06 +0.00    +0.006 A  
DOCKED: ATOM     19  C   UNL     1     -53.286 -28.347   9.647 -0.02 +0.00    +0.001 A  
DOCKED: ATOM     20  C   UNL     1     -52.550 -28.011  10.783 -0.00 +0.00    +0.029 A  
DOCKED: ATOM     21  C   UNL     1     -51.162 -27.900  10.707 -0.00 +0.00    +0.140 A  
DOCKED: ATOM     22  C   UNL     1     -50.509 -28.124   9.495 -0.02 +0.00    +0.029 A  
DOCKED: ATOM     23  F   UNL     1     -50.455 -27.579  11.798 +0.00 -0.00    -0.204 F  
DOCKED: ATOM     24  C   UNL     1     -51.245 -28.460   8.358 -0.06 +0.00    +0.001 A  
DOCKED: ENDBRANCH   2  18
DOCKED: TORSDOF 5
DOCKED: TER
DOCKED: ENDMDL
________________________________________________________________________________


    FINAL DOCKED STATE:
    ________________________


Run:   86 / 512
Time taken for this run:   0.001s

DOCKED: MODEL        86
DOCKED: USER    Run = 86
DOCKED: USER
DOCKED: USER    Estimated Free Energy of Binding    =  -4.35 kcal/mol  [=(1)+(2)+(3)-(4)]
DOCKED: USER
DOCKED: USER    (1) Final Intermolecular Energy     =  -5.85 kcal/mol
DOCKED: USER        vdW + Hbond + desolv Energy     =  -5.85 kcal/mol
DOCKED: USER        Electrostatic Energy            =  +0.00 kcal/mol
DOCKED: USER        Moving Ligand-Fixed Receptor    =  -5.85 kcal/mol
DOCKED: USER        Moving Ligand-Moving Receptor   =  +0.00 kcal/mol
DOCKED: USER    (2) Final Total Internal Energy     =  -1.19 kcal/mol
DOCKED: USER    (3) Torsional Free Energy           =  +1.49 kcal/mol
DOCKED: USER    (4) Unbound System's Energy         =  -1.19 kcal/mol
DOCKED: USER
DOCKED: USER
DOCKED: REMARK  5 active torsions:
DOCKED: REMARK  status: ('A' for Active; 'I' for Inactive)
DOCKED: REMARK    1  A    between atoms: C_2  and  C_19 
DOCKED: REMARK    2  A    between atoms: C_2  and  C_11 
DOCKED: REMARK    3  A    between atoms: C_19  and  C_20 
DOCKED: REMARK    4  A    between atoms: C_20  and  C_21 
DOCKED: REMARK    5  A    between atoms: C_21  and  N_22 
DOCKED: USER                              x       y       z     vdW  Elec       q    Type
DOCKED: USER                           _______ _______ _______ _____ _____    ______ ____
DOCKED: ROOT
DOCKED: ATOM      1  O   UNL     1     -48.825 -31.186   8.500 -0.08 -0.00    -0.346 OA 
DOCKED: ATOM      2  C   UNL     1     -49.827 -30.288   7.925 -0.13 +0.00    +0.130 C  
DOCKED: ATOM      3  C   UNL     1     -50.809 -31.216   7.271 -0.22 +0.00    +0.004 A  
DOCKED: ATOM      4  C   UNL     1     -50.460 -32.532   7.542 -0.23 +0.00    +0.006 A  
DOCKED: ATOM      5  C   UNL     1     -49.249 -32.565   8.393 -0.17 +0.00    +0.169 C  
DOCKED: ATOM      6  C   UNL     1     -51.928 -30.921   6.506 -0.28 -0.00    -0.001 A  
DOCKED: ATOM      7  C   UNL     1     -51.209 -33.591   7.058 -0.35 +0.00    +0.008 A  
DOCKED: ATOM      8  C   UNL     1     -52.691 -31.978   6.007 -0.32 +0.00    +0.010 A  
DOCKED: ATOM      9  C   UNL     1     -52.333 -33.306   6.283 -0.31 +0.00    +0.068 A  
DOCKED: ATOM     10  N   UNL     1     -53.775 -35.244   5.346 -2.56 -0.00    -0.191 NA 
DOCKED: ATOM     11  C   UNL     1     -53.128 -34.375   5.766 -0.37 +0.00    +0.101 C  
DOCKED: ENDROOT
DOCKED: BRANCH   2  12
DOCKED: ATOM     12  C   UNL     1     -50.446 -29.469   9.052 -0.05 +0.00    +0.038 C  
DOCKED: BRANCH  12  13
DOCKED: ATOM     13  C   UNL     1     -51.577 -28.580   8.539 -0.06 +0.00    +0.038 C  
DOCKED: BRANCH  13  14
DOCKED: ATOM     14  C   UNL     1     -51.304 -27.109   8.849 -0.01 +0.00    +0.251 C  
DOCKED: BRANCH  14  15
DOCKED: ATOM     15  N   UNL     1     -50.680 -26.457   7.705 -0.02 +0.00    +0.141 N  
DOCKED: ATOM     16  C   UNL     1     -51.653 -25.631   6.988 -0.03 +0.00    +0.285 C  
DOCKED: ATOM     17  C   UNL     1     -49.541 -25.642   8.133 -0.00 +0.00    +0.285 C  
DOCKED: ENDBRANCH  14  15
DOCKED: ENDBRANCH  13  14
DOCKED: ENDBRANCH  12  13
DOCKED: ENDBRANCH   2  12
DOCKED: BRANCH   2  18
DOCKED: ATOM     18  C   UNL     1     -49.118 -29.410   6.949 -0.14 +0.00    +0.006 A  
DOCKED: ATOM     19  C   UNL     1     -49.822 -28.826   5.897 -0.15 +0.00    +0.001 A  
DOCKED: ATOM     20  C   UNL     1     -49.157 -28.006   4.984 -0.12 +0.00    +0.029 A  
DOCKED: ATOM     21  C   UNL     1     -47.790 -27.770   5.126 -0.07 +0.00    +0.140 A  
DOCKED: ATOM     22  C   UNL     1     -47.087 -28.354   6.178 -0.08 +0.00    +0.029 A  
DOCKED: ATOM     23  F   UNL     1     -47.153 -26.981   4.251 -0.00 -0.00    -0.204 F  
DOCKED: ATOM     24  C   UNL     1     -47.751 -29.176   7.091 -0.10 +0.00    +0.001 A  
DOCKED: ENDBRANCH   2  18
DOCKED: TORSDOF 5
DOCKED: TER
DOCKED: ENDMDL
________________________________________________________________________________


    FINAL DOCKED STATE:
    ________________________


Run:   87 / 512
Time taken for this run:   0.001s

DOCKED: MODEL        87
DOCKED: USER    Run = 87
DOCKED: USER
DOCKED: USER    Estimated Free Energy of Binding    =  -4.29 kcal/mol  [=(1)+(2)+(3)-(4)]
DOCKED: USER
DOCKED: USER    (1) Final Intermolecular Energy     =  -5.78 kcal/mol
DOCKED: USER        vdW + Hbond + desolv Energy     =  -5.78 kcal/mol
DOCKED: USER        Electrostatic Energy            =  +0.00 kcal/mol
DOCKED: USER        Moving Ligand-Fixed Receptor    =  -5.78 kcal/mol
DOCKED: USER        Moving Ligand-Moving Receptor   =  +0.00 kcal/mol
DOCKED: USER    (2) Final Total Internal Energy     =  -1.25 kcal/mol
DOCKED: USER    (3) Torsional Free Energy           =  +1.49 kcal/mol
DOCKED: USER    (4) Unbound System's Energy         =  -1.25 kcal/mol
DOCKED: USER
DOCKED: USER
DOCKED: REMARK  5 active torsions:
DOCKED: REMARK  status: ('A' for Active; 'I' for Inactive)
DOCKED: REMARK    1  A    between atoms: C_2  and  C_19 
DOCKED: REMARK    2  A    between atoms: C_2  and  C_11 
DOCKED: REMARK    3  A    between atoms: C_19  and  C_20 
DOCKED: REMARK    4  A    between atoms: C_20  and  C_21 
DOCKED: REMARK    5  A    between atoms: C_21  and  N_22 
DOCKED: USER                              x       y       z     vdW  Elec       q    Type
DOCKED: USER                           _______ _______ _______ _____ _____    ______ ____
DOCKED: ROOT
DOCKED: ATOM      1  O   UNL     1     -54.145 -35.362   7.595 -1.83 -0.00    -0.346 OA 
DOCKED: ATOM      2  C   UNL     1     -53.283 -34.205   7.354 -0.20 +0.00    +0.130 C  
DOCKED: ATOM      3  C   UNL     1     -53.915 -33.110   8.163 -0.15 +0.00    +0.004 A  
DOCKED: ATOM      4  C   UNL     1     -54.981 -33.622   8.890 -0.15 +0.00    +0.006 A  
DOCKED: ATOM      5  C   UNL     1     -55.117 -35.072   8.627 -0.14 +0.00    +0.169 C  
DOCKED: ATOM      6  C   UNL     1     -53.569 -31.770   8.257 -0.11 -0.00    -0.001 A  
DOCKED: ATOM      7  C   UNL     1     -55.735 -32.818   9.727 -0.08 +0.00    +0.008 A  
DOCKED: ATOM      8  C   UNL     1     -54.322 -30.945   9.094 -0.06 +0.00    +0.010 A  
DOCKED: ATOM      9  C   UNL     1     -55.400 -31.467   9.826 -0.03 +0.00    +0.068 A  
DOCKED: ATOM     10  N   UNL     1     -56.775 -29.910  11.374 -0.00 -0.00    -0.191 NA 
DOCKED: ATOM     11  C   UNL     1     -56.158 -30.608  10.679 -0.03 +0.00    +0.101 C  
DOCKED: ENDROOT
DOCKED: BRANCH   2  12
DOCKED: ATOM     12  C   UNL     1     -51.873 -34.548   7.820 -0.32 +0.00    +0.038 C  
DOCKED: BRANCH  12  13
DOCKED: ATOM     13  C   UNL     1     -51.602 -34.004   9.222 -0.25 +0.00    +0.038 C  
DOCKED: BRANCH  13  14
DOCKED: ATOM     14  C   UNL     1     -51.536 -35.135  10.247 -0.07 +0.00    +0.251 C  
DOCKED: BRANCH  14  15
DOCKED: ATOM     15  N   UNL     1     -52.159 -34.721  11.499 -0.17 +0.00    +0.141 N  
DOCKED: ATOM     16  C   UNL     1     -51.238 -34.913  12.621 -0.14 +0.00    +0.285 C  
DOCKED: ATOM     17  C   UNL     1     -52.585 -33.323  11.425 -0.05 +0.00    +0.285 C  
DOCKED: ENDBRANCH  14  15
DOCKED: ENDBRANCH  13  14
DOCKED: ENDBRANCH  12  13
DOCKED: ENDBRANCH   2  12
DOCKED: BRANCH   2  18
DOCKED: ATOM     18  C   UNL     1     -53.314 -33.935   5.887 -0.37 +0.00    +0.006 A  
DOCKED: ATOM     19  C   UNL     1     -52.727 -32.777   5.378 -0.39 +0.00    +0.001 A  
DOCKED: ATOM     20  C   UNL     1     -52.757 -32.526   4.006 -0.13 +0.00    +0.029 A  
DOCKED: ATOM     21  C   UNL     1     -53.372 -33.434   3.145 -0.35 +0.00    +0.140 A  
DOCKED: ATOM     22  C   UNL     1     -53.958 -34.592   3.654 -0.37 +0.00    +0.029 A  
DOCKED: ATOM     23  F   UNL     1     -53.399 -33.194   1.827 -0.06 -0.00    -0.204 F  
DOCKED: ATOM     24  C   UNL     1     -53.929 -34.844   5.026 -0.33 +0.00    +0.001 A  
DOCKED: ENDBRANCH   2  18
DOCKED: TORSDOF 5
DOCKED: TER
DOCKED: ENDMDL
________________________________________________________________________________


    FINAL DOCKED STATE:
    ________________________


Run:   88 / 512
Time taken for this run:   0.001s

DOCKED: MODEL        88
DOCKED: USER    Run = 88
DOCKED: USER
DOCKED: USER    Estimated Free Energy of Binding    =  -5.29 kcal/mol  [=(1)+(2)+(3)-(4)]
DOCKED: USER
DOCKED: USER    (1) Final Intermolecular Energy     =  -6.78 kcal/mol
DOCKED: USER        vdW + Hbond + desolv Energy     =  -6.78 kcal/mol
DOCKED: USER        Electrostatic Energy            =  +0.00 kcal/mol
DOCKED: USER        Moving Ligand-Fixed Receptor    =  -6.78 kcal/mol
DOCKED: USER        Moving Ligand-Moving Receptor   =  +0.00 kcal/mol
DOCKED: USER    (2) Final Total Internal Energy     =  -1.05 kcal/mol
DOCKED: USER    (3) Torsional Free Energy           =  +1.49 kcal/mol
DOCKED: USER    (4) Unbound System's Energy         =  -1.05 kcal/mol
DOCKED: USER
DOCKED: USER
DOCKED: REMARK  5 active torsions:
DOCKED: REMARK  status: ('A' for Active; 'I' for Inactive)
DOCKED: REMARK    1  A    between atoms: C_2  and  C_19 
DOCKED: REMARK    2  A    between atoms: C_2  and  C_11 
DOCKED: REMARK    3  A    between atoms: C_19  and  C_20 
DOCKED: REMARK    4  A    between atoms: C_20  and  C_21 
DOCKED: REMARK    5  A    between atoms: C_21  and  N_22 
DOCKED: USER                              x       y       z     vdW  Elec       q    Type
DOCKED: USER                           _______ _______ _______ _____ _____    ______ ____
DOCKED: ROOT
DOCKED: ATOM      1  O   UNL     1     -55.500 -32.458   8.147 -0.01 -0.00    -0.346 OA 
DOCKED: ATOM      2  C   UNL     1     -54.066 -32.211   7.991 -0.11 +0.00    +0.130 C  
DOCKED: ATOM      3  C   UNL     1     -53.789 -32.589   6.564 -0.25 +0.00    +0.004 A  
DOCKED: ATOM      4  C   UNL     1     -54.978 -32.917   5.929 -0.28 +0.00    +0.006 A  
DOCKED: ATOM      5  C   UNL     1     -56.109 -32.770   6.873 -0.18 +0.00    +0.169 C  
DOCKED: ATOM      6  C   UNL     1     -52.583 -32.628   5.880 -0.36 -0.00    -0.001 A  
DOCKED: ATOM      7  C   UNL     1     -55.003 -33.298   4.599 -0.20 +0.00    +0.008 A  
DOCKED: ATOM      8  C   UNL     1     -52.591 -33.014   4.539 -0.34 +0.00    +0.010 A  
DOCKED: ATOM      9  C   UNL     1     -53.795 -33.347   3.901 -0.32 +0.00    +0.068 A  
DOCKED: ATOM     10  N   UNL     1     -53.776 -34.054   1.409 -2.94 -0.00    -0.191 NA 
DOCKED: ATOM     11  C   UNL     1     -53.785 -33.738   2.527 -0.27 +0.00    +0.101 C  
DOCKED: ENDROOT
DOCKED: BRANCH   2  12
DOCKED: ATOM     12  C   UNL     1     -53.796 -30.739   8.278 -0.12 +0.00    +0.038 C  
DOCKED: BRANCH  12  13
DOCKED: ATOM     13  C   UNL     1     -54.683 -29.834   7.425 -0.21 +0.00    +0.038 C  
DOCKED: BRANCH  13  14
DOCKED: ATOM     14  C   UNL     1     -54.872 -28.469   8.086 -0.07 +0.00    +0.251 C  
DOCKED: BRANCH  14  15
DOCKED: ATOM     15  N   UNL     1     -55.944 -28.528   9.072 -0.03 +0.00    +0.141 N  
DOCKED: ATOM     16  C   UNL     1     -56.749 -29.737   8.889 -0.02 +0.00    +0.285 C  
DOCKED: ATOM     17  C   UNL     1     -55.399 -28.483  10.430 +0.00 +0.00    +0.285 C  
DOCKED: ENDBRANCH  14  15
DOCKED: ENDBRANCH  13  14
DOCKED: ENDBRANCH  12  13
DOCKED: ENDBRANCH   2  12
DOCKED: BRANCH   2  18
DOCKED: ATOM     18  C   UNL     1     -53.362 -33.089   8.972 -0.13 +0.00    +0.006 A  
DOCKED: ATOM     19  C   UNL     1     -52.459 -34.052   8.523 -0.25 +0.00    +0.001 A  
DOCKED: ATOM     20  C   UNL     1     -51.802 -34.872   9.441 -0.22 +0.00    +0.029 A  
DOCKED: ATOM     21  C   UNL     1     -52.048 -34.727  10.806 -0.16 +0.00    +0.140 A  
DOCKED: ATOM     22  C   UNL     1     -52.951 -33.764  11.254 -0.12 +0.00    +0.029 A  
DOCKED: ATOM     23  F   UNL     1     -51.416 -35.513  11.687 -0.10 -0.00    -0.204 F  
DOCKED: ATOM     24  C   UNL     1     -53.610 -32.943  10.336 -0.09 +0.00    +0.001 A  
DOCKED: ENDBRANCH   2  18
DOCKED: TORSDOF 5
DOCKED: TER
DOCKED: ENDMDL
________________________________________________________________________________


    FINAL DOCKED STATE:
    ________________________


Run:   89 / 512
Time taken for this run:   0.001s

DOCKED: MODEL        89
DOCKED: USER    Run = 89
DOCKED: USER
DOCKED: USER    Estimated Free Energy of Binding    =  -4.43 kcal/mol  [=(1)+(2)+(3)-(4)]
DOCKED: USER
DOCKED: USER    (1) Final Intermolecular Energy     =  -5.92 kcal/mol
DOCKED: USER        vdW + Hbond + desolv Energy     =  -5.92 kcal/mol
DOCKED: USER        Electrostatic Energy            =  +0.00 kcal/mol
DOCKED: USER        Moving Ligand-Fixed Receptor    =  -5.92 kcal/mol
DOCKED: USER        Moving Ligand-Moving Receptor   =  +0.00 kcal/mol
DOCKED: USER    (2) Final Total Internal Energy     =  -1.38 kcal/mol
DOCKED: USER    (3) Torsional Free Energy           =  +1.49 kcal/mol
DOCKED: USER    (4) Unbound System's Energy         =  -1.38 kcal/mol
DOCKED: USER
DOCKED: USER
DOCKED: REMARK  5 active torsions:
DOCKED: REMARK  status: ('A' for Active; 'I' for Inactive)
DOCKED: REMARK    1  A    between atoms: C_2  and  C_19 
DOCKED: REMARK    2  A    between atoms: C_2  and  C_11 
DOCKED: REMARK    3  A    between atoms: C_19  and  C_20 
DOCKED: REMARK    4  A    between atoms: C_20  and  C_21 
DOCKED: REMARK    5  A    between atoms: C_21  and  N_22 
DOCKED: USER                              x       y       z     vdW  Elec       q    Type
DOCKED: USER                           _______ _______ _______ _____ _____    ______ ____
DOCKED: ROOT
DOCKED: ATOM      1  O   UNL     1     -51.243 -29.102   7.326 -0.05 -0.00    -0.346 OA 
DOCKED: ATOM      2  C   UNL     1     -52.656 -29.234   7.686 -0.13 +0.00    +0.130 C  
DOCKED: ATOM      3  C   UNL     1     -53.036 -30.588   7.162 -0.21 +0.00    +0.004 A  
DOCKED: ATOM      4  C   UNL     1     -51.914 -31.222   6.648 -0.28 +0.00    +0.006 A  
DOCKED: ATOM      5  C   UNL     1     -50.728 -30.349   6.804 -0.18 +0.00    +0.169 C  
DOCKED: ATOM      6  C   UNL     1     -54.274 -31.215   7.152 -0.21 -0.00    -0.001 A  
DOCKED: ATOM      7  C   UNL     1     -51.989 -32.493   6.105 -0.34 +0.00    +0.008 A  
DOCKED: ATOM      8  C   UNL     1     -54.367 -32.495   6.605 -0.23 +0.00    +0.010 A  
DOCKED: ATOM      9  C   UNL     1     -53.230 -33.131   6.084 -0.28 +0.00    +0.068 A  
DOCKED: ATOM     10  N   UNL     1     -53.437 -35.510   5.079 -2.45 -0.00    -0.191 NA 
DOCKED: ATOM     11  C   UNL     1     -53.344 -34.443   5.529 -0.38 +0.00    +0.101 C  
DOCKED: ENDROOT
DOCKED: BRANCH   2  12
DOCKED: ATOM     12  C   UNL     1     -52.780 -29.127   9.201 -0.04 +0.00    +0.038 C  
DOCKED: BRANCH  12  13
DOCKED: ATOM     13  C   UNL     1     -51.549 -28.464   9.816 -0.02 +0.00    +0.038 C  
DOCKED: BRANCH  13  14
DOCKED: ATOM     14  C   UNL     1     -50.741 -29.463  10.641 -0.00 +0.00    +0.251 C  
DOCKED: BRANCH  14  15
DOCKED: ATOM     15  N   UNL     1     -50.229 -30.529   9.787 -0.03 +0.00    +0.141 N  
DOCKED: ATOM     16  C   UNL     1     -48.770 -30.458   9.692 -0.03 +0.00    +0.285 C  
DOCKED: ATOM     17  C   UNL     1     -50.642 -31.839  10.294 -0.04 +0.00    +0.285 C  
DOCKED: ENDBRANCH  14  15
DOCKED: ENDBRANCH  13  14
DOCKED: ENDBRANCH  12  13
DOCKED: ENDBRANCH   2  12
DOCKED: BRANCH   2  18
DOCKED: ATOM     18  C   UNL     1     -53.384 -28.122   7.006 -0.19 +0.00    +0.006 A  
DOCKED: ATOM     19  C   UNL     1     -52.700 -27.264   6.146 -0.17 +0.00    +0.001 A  
DOCKED: ATOM     20  C   UNL     1     -53.382 -26.225   5.512 -0.14 +0.00    +0.029 A  
DOCKED: ATOM     21  C   UNL     1     -54.746 -26.046   5.737 -0.12 +0.00    +0.140 A  
DOCKED: ATOM     22  C   UNL     1     -55.430 -26.905   6.597 -0.18 +0.00    +0.029 A  
DOCKED: ATOM     23  F   UNL     1     -55.400 -25.050   5.127 -0.02 -0.00    -0.204 F  
DOCKED: ATOM     24  C   UNL     1     -54.748 -27.944   7.233 -0.19 +0.00    +0.001 A  
DOCKED: ENDBRANCH   2  18
DOCKED: TORSDOF 5
DOCKED: TER
DOCKED: ENDMDL
________________________________________________________________________________


    FINAL DOCKED STATE:
    ________________________


Run:   90 / 512
Time taken for this run:   0.001s

DOCKED: MODEL        90
DOCKED: USER    Run = 90
DOCKED: USER
DOCKED: USER    Estimated Free Energy of Binding    =  -5.30 kcal/mol  [=(1)+(2)+(3)-(4)]
DOCKED: USER
DOCKED: USER    (1) Final Intermolecular Energy     =  -6.79 kcal/mol
DOCKED: USER        vdW + Hbond + desolv Energy     =  -6.79 kcal/mol
DOCKED: USER        Electrostatic Energy            =  +0.00 kcal/mol
DOCKED: USER        Moving Ligand-Fixed Receptor    =  -6.79 kcal/mol
DOCKED: USER        Moving Ligand-Moving Receptor   =  +0.00 kcal/mol
DOCKED: USER    (2) Final Total Internal Energy     =  -1.05 kcal/mol
DOCKED: USER    (3) Torsional Free Energy           =  +1.49 kcal/mol
DOCKED: USER    (4) Unbound System's Energy         =  -1.05 kcal/mol
DOCKED: USER
DOCKED: USER
DOCKED: REMARK  5 active torsions:
DOCKED: REMARK  status: ('A' for Active; 'I' for Inactive)
DOCKED: REMARK    1  A    between atoms: C_2  and  C_19 
DOCKED: REMARK    2  A    between atoms: C_2  and  C_11 
DOCKED: REMARK    3  A    between atoms: C_19  and  C_20 
DOCKED: REMARK    4  A    between atoms: C_20  and  C_21 
DOCKED: REMARK    5  A    between atoms: C_21  and  N_22 
DOCKED: USER                              x       y       z     vdW  Elec       q    Type
DOCKED: USER                           _______ _______ _______ _____ _____    ______ ____
DOCKED: ROOT
DOCKED: ATOM      1  O   UNL     1     -52.931 -34.002   9.033 -0.08 -0.00    -0.346 OA 
DOCKED: ATOM      2  C   UNL     1     -52.467 -32.707   8.534 -0.13 +0.00    +0.130 C  
DOCKED: ATOM      3  C   UNL     1     -52.662 -32.803   7.048 -0.25 +0.00    +0.004 A  
DOCKED: ATOM      4  C   UNL     1     -53.284 -34.003   6.735 -0.29 +0.00    +0.006 A  
DOCKED: ATOM      5  C   UNL     1     -53.553 -34.768   7.974 -0.14 +0.00    +0.169 C  
DOCKED: ATOM      6  C   UNL     1     -52.325 -31.896   6.054 -0.33 -0.00    -0.001 A  
DOCKED: ATOM      7  C   UNL     1     -53.586 -34.339   5.427 -0.40 +0.00    +0.008 A  
DOCKED: ATOM      8  C   UNL     1     -52.618 -32.222   4.729 -0.14 +0.00    +0.010 A  
DOCKED: ATOM      9  C   UNL     1     -53.246 -33.437   4.417 -0.40 +0.00    +0.068 A  
DOCKED: ATOM     10  N   UNL     1     -53.782 -34.009   1.947 -2.58 -0.00    -0.191 NA 
DOCKED: ATOM     11  C   UNL     1     -53.541 -33.753   3.055 -0.44 +0.00    +0.101 C  
DOCKED: ENDROOT
DOCKED: BRANCH   2  12
DOCKED: ATOM     12  C   UNL     1     -53.314 -31.612   9.173 -0.08 +0.00    +0.038 C  
DOCKED: BRANCH  12  13
DOCKED: ATOM     13  C   UNL     1     -52.925 -30.231   8.650 -0.08 +0.00    +0.038 C  
DOCKED: BRANCH  13  14
DOCKED: ATOM     14  C   UNL     1     -54.142 -29.486   8.107 -0.08 +0.00    +0.251 C  
DOCKED: BRANCH  14  15
DOCKED: ATOM     15  N   UNL     1     -53.821 -28.847   6.837 -0.20 +0.00    +0.141 N  
DOCKED: ATOM     16  C   UNL     1     -54.873 -27.905   6.452 -0.14 +0.00    +0.285 C  
DOCKED: ATOM     17  C   UNL     1     -52.530 -28.161   6.916 -0.12 +0.00    +0.285 C  
DOCKED: ENDBRANCH  14  15
DOCKED: ENDBRANCH  13  14
DOCKED: ENDBRANCH  12  13
DOCKED: ENDBRANCH   2  12
DOCKED: BRANCH   2  18
DOCKED: ATOM     18  C   UNL     1     -51.033 -32.577   8.926 -0.17 +0.00    +0.006 A  
DOCKED: ATOM     19  C   UNL     1     -50.648 -32.809  10.245 -0.13 +0.00    +0.001 A  
DOCKED: ATOM     20  C   UNL     1     -49.306 -32.687  10.610 -0.10 +0.00    +0.029 A  
DOCKED: ATOM     21  C   UNL     1     -48.354 -32.333   9.656 -0.10 +0.00    +0.140 A  
DOCKED: ATOM     22  C   UNL     1     -48.740 -32.101   8.336 -0.17 +0.00    +0.029 A  
DOCKED: ATOM     23  F   UNL     1     -47.066 -32.217  10.006 -0.02 -0.00    -0.204 F  
DOCKED: ATOM     24  C   UNL     1     -50.082 -32.223   7.970 -0.22 +0.00    +0.001 A  
DOCKED: ENDBRANCH   2  18
DOCKED: TORSDOF 5
DOCKED: TER
DOCKED: ENDMDL
________________________________________________________________________________


    FINAL DOCKED STATE:
    ________________________


Run:   91 / 512
Time taken for this run:   0.001s

DOCKED: MODEL        91
DOCKED: USER    Run = 91
DOCKED: USER
DOCKED: USER    Estimated Free Energy of Binding    =  -4.63 kcal/mol  [=(1)+(2)+(3)-(4)]
DOCKED: USER
DOCKED: USER    (1) Final Intermolecular Energy     =  -6.12 kcal/mol
DOCKED: USER        vdW + Hbond + desolv Energy     =  -6.12 kcal/mol
DOCKED: USER        Electrostatic Energy            =  +0.00 kcal/mol
DOCKED: USER        Moving Ligand-Fixed Receptor    =  -6.12 kcal/mol
DOCKED: USER        Moving Ligand-Moving Receptor   =  +0.00 kcal/mol
DOCKED: USER    (2) Final Total Internal Energy     =  -1.03 kcal/mol
DOCKED: USER    (3) Torsional Free Energy           =  +1.49 kcal/mol
DOCKED: USER    (4) Unbound System's Energy         =  -1.03 kcal/mol
DOCKED: USER
DOCKED: USER
DOCKED: REMARK  5 active torsions:
DOCKED: REMARK  status: ('A' for Active; 'I' for Inactive)
DOCKED: REMARK    1  A    between atoms: C_2  and  C_19 
DOCKED: REMARK    2  A    between atoms: C_2  and  C_11 
DOCKED: REMARK    3  A    between atoms: C_19  and  C_20 
DOCKED: REMARK    4  A    between atoms: C_20  and  C_21 
DOCKED: REMARK    5  A    between atoms: C_21  and  N_22 
DOCKED: USER                              x       y       z     vdW  Elec       q    Type
DOCKED: USER                           _______ _______ _______ _____ _____    ______ ____
DOCKED: ROOT
DOCKED: ATOM      1  O   UNL     1     -48.935 -25.561   0.378 -0.07 -0.00    -0.346 OA 
DOCKED: ATOM      2  C   UNL     1     -47.711 -25.268  -0.370 -0.13 +0.00    +0.130 C  
DOCKED: ATOM      3  C   UNL     1     -48.192 -24.473  -1.549 -0.22 +0.00    +0.004 A  
DOCKED: ATOM      4  C   UNL     1     -49.554 -24.237  -1.429 -0.31 +0.00    +0.006 A  
DOCKED: ATOM      5  C   UNL     1     -50.060 -24.838  -0.174 -0.25 +0.00    +0.169 C  
DOCKED: ATOM      6  C   UNL     1     -47.479 -23.988  -2.636 -0.18 -0.00    -0.001 A  
DOCKED: ATOM      7  C   UNL     1     -50.248 -23.516  -2.386 -0.35 +0.00    +0.008 A  
DOCKED: ATOM      8  C   UNL     1     -48.165 -23.263  -3.612 -0.25 +0.00    +0.010 A  
DOCKED: ATOM      9  C   UNL     1     -49.543 -23.028  -3.487 -0.27 +0.00    +0.068 A  
DOCKED: ATOM     10  N   UNL     1     -50.785 -21.674  -5.314 -2.46 -0.00    -0.191 NA 
DOCKED: ATOM     11  C   UNL     1     -50.228 -22.282  -4.494 -0.37 +0.00    +0.101 C  
DOCKED: ENDROOT
DOCKED: BRANCH   2  12
DOCKED: ATOM     12  C   UNL     1     -46.770 -24.480   0.533 -0.13 +0.00    +0.038 C  
DOCKED: BRANCH  12  13
DOCKED: ATOM     13  C   UNL     1     -47.297 -24.415   1.965 -0.15 +0.00    +0.038 C  
DOCKED: BRANCH  13  14
DOCKED: ATOM     14  C   UNL     1     -46.231 -23.878   2.919 -0.08 +0.00    +0.251 C  
DOCKED: BRANCH  14  15
DOCKED: ATOM     15  N   UNL     1     -45.002 -23.583   2.192 -0.07 +0.00    +0.141 N  
DOCKED: ATOM     16  C   UNL     1     -44.345 -22.399   2.748 -0.05 +0.00    +0.285 C  
DOCKED: ATOM     17  C   UNL     1     -44.094 -24.731   2.227 -0.01 +0.00    +0.285 C  
DOCKED: ENDBRANCH  14  15
DOCKED: ENDBRANCH  13  14
DOCKED: ENDBRANCH  12  13
DOCKED: ENDBRANCH   2  12
DOCKED: BRANCH   2  18
DOCKED: ATOM     18  C   UNL     1     -47.113 -26.579  -0.758 -0.10 +0.00    +0.006 A  
DOCKED: ATOM     19  C   UNL     1     -46.221 -27.219   0.102 -0.04 +0.00    +0.001 A  
DOCKED: ATOM     20  C   UNL     1     -45.662 -28.445  -0.262 -0.06 +0.00    +0.029 A  
DOCKED: ATOM     21  C   UNL     1     -45.996 -29.029  -1.483 -0.12 +0.00    +0.140 A  
DOCKED: ATOM     22  C   UNL     1     -46.888 -28.388  -2.342 -0.20 +0.00    +0.029 A  
DOCKED: ATOM     23  F   UNL     1     -45.460 -30.206  -1.831 -0.05 -0.00    -0.204 F  
DOCKED: ATOM     24  C   UNL     1     -47.447 -27.161  -1.980 -0.20 +0.00    +0.001 A  
DOCKED: ENDBRANCH   2  18
DOCKED: TORSDOF 5
DOCKED: TER
DOCKED: ENDMDL
________________________________________________________________________________


    FINAL DOCKED STATE:
    ________________________


Run:   92 / 512
Time taken for this run:   0.001s

DOCKED: MODEL        92
DOCKED: USER    Run = 92
DOCKED: USER
DOCKED: USER    Estimated Free Energy of Binding    =  -4.76 kcal/mol  [=(1)+(2)+(3)-(4)]
DOCKED: USER
DOCKED: USER    (1) Final Intermolecular Energy     =  -6.25 kcal/mol
DOCKED: USER        vdW + Hbond + desolv Energy     =  -6.25 kcal/mol
DOCKED: USER        Electrostatic Energy            =  +0.00 kcal/mol
DOCKED: USER        Moving Ligand-Fixed Receptor    =  -6.25 kcal/mol
DOCKED: USER        Moving Ligand-Moving Receptor   =  +0.00 kcal/mol
DOCKED: USER    (2) Final Total Internal Energy     =  -0.95 kcal/mol
DOCKED: USER    (3) Torsional Free Energy           =  +1.49 kcal/mol
DOCKED: USER    (4) Unbound System's Energy         =  -0.95 kcal/mol
DOCKED: USER
DOCKED: USER
DOCKED: REMARK  5 active torsions:
DOCKED: REMARK  status: ('A' for Active; 'I' for Inactive)
DOCKED: REMARK    1  A    between atoms: C_2  and  C_19 
DOCKED: REMARK    2  A    between atoms: C_2  and  C_11 
DOCKED: REMARK    3  A    between atoms: C_19  and  C_20 
DOCKED: REMARK    4  A    between atoms: C_20  and  C_21 
DOCKED: REMARK    5  A    between atoms: C_21  and  N_22 
DOCKED: USER                              x       y       z     vdW  Elec       q    Type
DOCKED: USER                           _______ _______ _______ _____ _____    ______ ____
DOCKED: ROOT
DOCKED: ATOM      1  O   UNL     1     -49.781 -25.395   0.864 -0.10 -0.00    -0.346 OA 
DOCKED: ATOM      2  C   UNL     1     -48.463 -25.159   0.273 -0.17 +0.00    +0.130 C  
DOCKED: ATOM      3  C   UNL     1     -48.767 -24.426  -1.002 -0.26 +0.00    +0.004 A  
DOCKED: ATOM      4  C   UNL     1     -50.128 -24.167  -1.079 -0.25 +0.00    +0.006 A  
DOCKED: ATOM      5  C   UNL     1     -50.808 -24.692   0.127 -0.04 +0.00    +0.169 C  
DOCKED: ATOM      6  C   UNL     1     -47.906 -24.011  -2.007 -0.21 -0.00    -0.001 A  
DOCKED: ATOM      7  C   UNL     1     -50.674 -23.493  -2.158 -0.38 +0.00    +0.008 A  
DOCKED: ATOM      8  C   UNL     1     -48.441 -23.334  -3.104 -0.27 +0.00    +0.010 A  
DOCKED: ATOM      9  C   UNL     1     -49.818 -23.076  -3.179 -0.30 +0.00    +0.068 A  
DOCKED: ATOM     10  N   UNL     1     -50.779 -21.812  -5.226 -2.46 -0.00    -0.191 NA 
DOCKED: ATOM     11  C   UNL     1     -50.348 -22.380  -4.308 -0.39 +0.00    +0.101 C  
DOCKED: ENDROOT
DOCKED: BRANCH   2  12
DOCKED: ATOM     12  C   UNL     1     -47.637 -24.332   1.250 -0.17 +0.00    +0.038 C  
DOCKED: BRANCH  12  13
DOCKED: ATOM     13  C   UNL     1     -48.470 -23.895   2.454 -0.18 +0.00    +0.038 C  
DOCKED: BRANCH  13  14
DOCKED: ATOM     14  C   UNL     1     -48.413 -24.937   3.569 -0.08 +0.00    +0.251 C  
DOCKED: BRANCH  14  15
DOCKED: ATOM     15  N   UNL     1     -48.769 -24.332   4.847 -0.06 +0.00    +0.141 N  
DOCKED: ATOM     16  C   UNL     1     -49.374 -25.325   5.737 -0.02 +0.00    +0.285 C  
DOCKED: ATOM     17  C   UNL     1     -47.592 -23.734   5.479 -0.05 +0.00    +0.285 C  
DOCKED: ENDBRANCH  14  15
DOCKED: ENDBRANCH  13  14
DOCKED: ENDBRANCH  12  13
DOCKED: ENDBRANCH   2  12
DOCKED: BRANCH   2  18
DOCKED: ATOM     18  C   UNL     1     -47.843 -26.497   0.041 -0.13 +0.00    +0.006 A  
DOCKED: ATOM     19  C   UNL     1     -47.668 -27.378   1.107 -0.11 +0.00    +0.001 A  
DOCKED: ATOM     20  C   UNL     1     -47.088 -28.628   0.888 -0.13 +0.00    +0.029 A  
DOCKED: ATOM     21  C   UNL     1     -46.685 -28.995  -0.395 -0.14 +0.00    +0.140 A  
DOCKED: ATOM     22  C   UNL     1     -46.861 -28.113  -1.461 -0.16 +0.00    +0.029 A  
DOCKED: ATOM     23  F   UNL     1     -46.130 -30.196  -0.604 -0.06 -0.00    -0.204 F  
DOCKED: ATOM     24  C   UNL     1     -47.441 -26.862  -1.243 -0.15 +0.00    +0.001 A  
DOCKED: ENDBRANCH   2  18
DOCKED: TORSDOF 5
DOCKED: TER
DOCKED: ENDMDL
________________________________________________________________________________


    FINAL DOCKED STATE:
    ________________________


Run:   93 / 512
Time taken for this run:   0.001s

DOCKED: MODEL        93
DOCKED: USER    Run = 93
DOCKED: USER
DOCKED: USER    Estimated Free Energy of Binding    =  -5.06 kcal/mol  [=(1)+(2)+(3)-(4)]
DOCKED: USER
DOCKED: USER    (1) Final Intermolecular Energy     =  -6.55 kcal/mol
DOCKED: USER        vdW + Hbond + desolv Energy     =  -6.55 kcal/mol
DOCKED: USER        Electrostatic Energy            =  +0.00 kcal/mol
DOCKED: USER        Moving Ligand-Fixed Receptor    =  -6.55 kcal/mol
DOCKED: USER        Moving Ligand-Moving Receptor   =  +0.00 kcal/mol
DOCKED: USER    (2) Final Total Internal Energy     =  -1.27 kcal/mol
DOCKED: USER    (3) Torsional Free Energy           =  +1.49 kcal/mol
DOCKED: USER    (4) Unbound System's Energy         =  -1.27 kcal/mol
DOCKED: USER
DOCKED: USER
DOCKED: REMARK  5 active torsions:
DOCKED: REMARK  status: ('A' for Active; 'I' for Inactive)
DOCKED: REMARK    1  A    between atoms: C_2  and  C_19 
DOCKED: REMARK    2  A    between atoms: C_2  and  C_11 
DOCKED: REMARK    3  A    between atoms: C_19  and  C_20 
DOCKED: REMARK    4  A    between atoms: C_20  and  C_21 
DOCKED: REMARK    5  A    between atoms: C_21  and  N_22 
DOCKED: USER                              x       y       z     vdW  Elec       q    Type
DOCKED: USER                           _______ _______ _______ _____ _____    ______ ____
DOCKED: ROOT
DOCKED: ATOM      1  O   UNL     1     -51.538 -31.064   7.303 -0.09 -0.00    -0.346 OA 
DOCKED: ATOM      2  C   UNL     1     -52.079 -32.352   7.740 -0.18 +0.00    +0.130 C  
DOCKED: ATOM      3  C   UNL     1     -52.609 -32.967   6.478 -0.32 +0.00    +0.004 A  
DOCKED: ATOM      4  C   UNL     1     -52.300 -32.154   5.397 -0.33 +0.00    +0.006 A  
DOCKED: ATOM      5  C   UNL     1     -51.544 -30.968   5.859 -0.04 +0.00    +0.169 C  
DOCKED: ATOM      6  C   UNL     1     -53.300 -34.156   6.299 -0.31 -0.00    -0.001 A  
DOCKED: ATOM      7  C   UNL     1     -52.672 -32.496   4.108 -0.17 +0.00    +0.008 A  
DOCKED: ATOM      8  C   UNL     1     -53.686 -34.514   5.006 -0.44 +0.00    +0.010 A  
DOCKED: ATOM      9  C   UNL     1     -53.373 -33.688   3.916 -0.44 +0.00    +0.068 A  
DOCKED: ATOM     10  N   UNL     1     -54.099 -34.383   1.528 -2.85 -0.00    -0.191 NA 
DOCKED: ATOM     11  C   UNL     1     -53.774 -34.071   2.599 -0.30 +0.00    +0.101 C  
DOCKED: ENDROOT
DOCKED: BRANCH   2  12
DOCKED: ATOM     12  C   UNL     1     -50.950 -33.162   8.366 -0.27 +0.00    +0.038 C  
DOCKED: BRANCH  12  13
DOCKED: ATOM     13  C   UNL     1     -49.599 -32.473   8.179 -0.22 +0.00    +0.038 C  
DOCKED: BRANCH  13  14
DOCKED: ATOM     14  C   UNL     1     -49.468 -31.261   9.099 -0.09 +0.00    +0.251 C  
DOCKED: BRANCH  14  15
DOCKED: ATOM     15  N   UNL     1     -48.833 -30.155   8.393 -0.08 +0.00    +0.141 N  
DOCKED: ATOM     16  C   UNL     1     -49.529 -28.898   8.669 -0.03 +0.00    +0.285 C  
DOCKED: ATOM     17  C   UNL     1     -47.422 -30.046   8.768 -0.04 +0.00    +0.285 C  
DOCKED: ENDBRANCH  14  15
DOCKED: ENDBRANCH  13  14
DOCKED: ENDBRANCH  12  13
DOCKED: ENDBRANCH   2  12
DOCKED: BRANCH   2  18
DOCKED: ATOM     18  C   UNL     1     -53.148 -32.059   8.739 -0.09 +0.00    +0.006 A  
DOCKED: ATOM     19  C   UNL     1     -53.038 -32.545  10.041 -0.08 +0.00    +0.001 A  
DOCKED: ATOM     20  C   UNL     1     -54.040 -32.271  10.973 -0.04 +0.00    +0.029 A  
DOCKED: ATOM     21  C   UNL     1     -55.148 -31.510  10.603 -0.01 +0.00    +0.140 A  
DOCKED: ATOM     22  C   UNL     1     -55.257 -31.024   9.300 -0.05 +0.00    +0.029 A  
DOCKED: ATOM     23  F   UNL     1     -56.108 -31.246  11.498 +0.01 -0.00    -0.204 F  
DOCKED: ATOM     24  C   UNL     1     -54.256 -31.299   8.367 -0.10 +0.00    +0.001 A  
DOCKED: ENDBRANCH   2  18
DOCKED: TORSDOF 5
DOCKED: TER
DOCKED: ENDMDL
________________________________________________________________________________


    FINAL DOCKED STATE:
    ________________________


Run:   94 / 512
Time taken for this run:   0.001s

DOCKED: MODEL        94
DOCKED: USER    Run = 94
DOCKED: USER
DOCKED: USER    Estimated Free Energy of Binding    =  -3.84 kcal/mol  [=(1)+(2)+(3)-(4)]
DOCKED: USER
DOCKED: USER    (1) Final Intermolecular Energy     =  -5.33 kcal/mol
DOCKED: USER        vdW + Hbond + desolv Energy     =  -5.33 kcal/mol
DOCKED: USER        Electrostatic Energy            =  +0.00 kcal/mol
DOCKED: USER        Moving Ligand-Fixed Receptor    =  -5.33 kcal/mol
DOCKED: USER        Moving Ligand-Moving Receptor   =  +0.00 kcal/mol
DOCKED: USER    (2) Final Total Internal Energy     =  -1.49 kcal/mol
DOCKED: USER    (3) Torsional Free Energy           =  +1.49 kcal/mol
DOCKED: USER    (4) Unbound System's Energy         =  -1.49 kcal/mol
DOCKED: USER
DOCKED: USER
DOCKED: REMARK  5 active torsions:
DOCKED: REMARK  status: ('A' for Active; 'I' for Inactive)
DOCKED: REMARK    1  A    between atoms: C_2  and  C_19 
DOCKED: REMARK    2  A    between atoms: C_2  and  C_11 
DOCKED: REMARK    3  A    between atoms: C_19  and  C_20 
DOCKED: REMARK    4  A    between atoms: C_20  and  C_21 
DOCKED: REMARK    5  A    between atoms: C_21  and  N_22 
DOCKED: USER                              x       y       z     vdW  Elec       q    Type
DOCKED: USER                           _______ _______ _______ _____ _____    ______ ____
DOCKED: ROOT
DOCKED: ATOM      1  O   UNL     1     -51.038 -29.791   8.840 -0.01 -0.00    -0.346 OA 
DOCKED: ATOM      2  C   UNL     1     -52.262 -29.397   8.140 -0.09 +0.00    +0.130 C  
DOCKED: ATOM      3  C   UNL     1     -52.676 -30.643   7.413 -0.19 +0.00    +0.004 A  
DOCKED: ATOM      4  C   UNL     1     -51.828 -31.687   7.753 -0.19 +0.00    +0.006 A  
DOCKED: ATOM      5  C   UNL     1     -50.817 -31.216   8.725 -0.10 +0.00    +0.169 C  
DOCKED: ATOM      6  C   UNL     1     -53.727 -30.839   6.528 -0.20 -0.00    -0.001 A  
DOCKED: ATOM      7  C   UNL     1     -51.997 -32.954   7.223 -0.28 +0.00    +0.008 A  
DOCKED: ATOM      8  C   UNL     1     -53.908 -32.111   5.981 -0.18 +0.00    +0.010 A  
DOCKED: ATOM      9  C   UNL     1     -53.047 -33.163   6.327 -0.27 +0.00    +0.068 A  
DOCKED: ATOM     10  N   UNL     1     -53.413 -35.512   5.298 -2.59 -0.00    -0.191 NA 
DOCKED: ATOM     11  C   UNL     1     -53.248 -34.458   5.759 -0.33 +0.00    +0.101 C  
DOCKED: ENDROOT
DOCKED: BRANCH   2  12
DOCKED: ATOM     12  C   UNL     1     -53.285 -28.946   9.175 -0.04 +0.00    +0.038 C  
DOCKED: BRANCH  12  13
DOCKED: ATOM     13  C   UNL     1     -53.616 -30.068  10.157 -0.03 +0.00    +0.038 C  
DOCKED: BRANCH  13  14
DOCKED: ATOM     14  C   UNL     1     -55.062 -30.533   9.993 -0.01 +0.00    +0.251 C  
DOCKED: BRANCH  14  15
DOCKED: ATOM     15  N   UNL     1     -55.147 -31.982  10.130 -0.03 +0.00    +0.141 N  
DOCKED: ATOM     16  C   UNL     1     -55.705 -32.584   8.918 -0.02 +0.00    +0.285 C  
DOCKED: ATOM     17  C   UNL     1     -53.829 -32.551  10.418 -0.02 +0.00    +0.285 C  
DOCKED: ENDBRANCH  14  15
DOCKED: ENDBRANCH  13  14
DOCKED: ENDBRANCH  12  13
DOCKED: ENDBRANCH   2  12
DOCKED: BRANCH   2  18
DOCKED: ATOM     18  C   UNL     1     -51.898 -28.280   7.220 -0.14 +0.00    +0.006 A  
DOCKED: ATOM     19  C   UNL     1     -50.572 -28.107   6.824 -0.13 +0.00    +0.001 A  
DOCKED: ATOM     20  C   UNL     1     -50.234 -27.061   5.964 -0.10 +0.00    +0.029 A  
DOCKED: ATOM     21  C   UNL     1     -51.220 -26.192   5.501 -0.09 +0.00    +0.140 A  
DOCKED: ATOM     22  C   UNL     1     -52.546 -26.365   5.898 -0.14 +0.00    +0.029 A  
DOCKED: ATOM     23  F   UNL     1     -50.895 -25.190   4.674 -0.02 -0.00    -0.204 F  
DOCKED: ATOM     24  C   UNL     1     -52.886 -27.410   6.758 -0.16 +0.00    +0.001 A  
DOCKED: ENDBRANCH   2  18
DOCKED: TORSDOF 5
DOCKED: TER
DOCKED: ENDMDL
________________________________________________________________________________


    FINAL DOCKED STATE:
    ________________________


Run:   95 / 512
Time taken for this run:   0.001s

DOCKED: MODEL        95
DOCKED: USER    Run = 95
DOCKED: USER
DOCKED: USER    Estimated Free Energy of Binding    =  -3.54 kcal/mol  [=(1)+(2)+(3)-(4)]
DOCKED: USER
DOCKED: USER    (1) Final Intermolecular Energy     =  -5.03 kcal/mol
DOCKED: USER        vdW + Hbond + desolv Energy     =  -5.03 kcal/mol
DOCKED: USER        Electrostatic Energy            =  +0.00 kcal/mol
DOCKED: USER        Moving Ligand-Fixed Receptor    =  -5.03 kcal/mol
DOCKED: USER        Moving Ligand-Moving Receptor   =  +0.00 kcal/mol
DOCKED: USER    (2) Final Total Internal Energy     =  -1.22 kcal/mol
DOCKED: USER    (3) Torsional Free Energy           =  +1.49 kcal/mol
DOCKED: USER    (4) Unbound System's Energy         =  -1.22 kcal/mol
DOCKED: USER
DOCKED: USER
DOCKED: REMARK  5 active torsions:
DOCKED: REMARK  status: ('A' for Active; 'I' for Inactive)
DOCKED: REMARK    1  A    between atoms: C_2  and  C_19 
DOCKED: REMARK    2  A    between atoms: C_2  and  C_11 
DOCKED: REMARK    3  A    between atoms: C_19  and  C_20 
DOCKED: REMARK    4  A    between atoms: C_20  and  C_21 
DOCKED: REMARK    5  A    between atoms: C_21  and  N_22 
DOCKED: USER                              x       y       z     vdW  Elec       q    Type
DOCKED: USER                           _______ _______ _______ _____ _____    ______ ____
DOCKED: ROOT
DOCKED: ATOM      1  O   UNL     1     -44.736 -21.545  -4.737 +0.00 -0.00    -0.346 OA 
DOCKED: ATOM      2  C   UNL     1     -45.205 -21.056  -3.440 -0.08 +0.00    +0.130 C  
DOCKED: ATOM      3  C   UNL     1     -46.681 -21.328  -3.464 -0.18 +0.00    +0.004 A  
DOCKED: ATOM      4  C   UNL     1     -47.010 -22.013  -4.625 -0.19 +0.00    +0.006 A  
DOCKED: ATOM      5  C   UNL     1     -45.792 -22.250  -5.432 -0.07 +0.00    +0.169 C  
DOCKED: ATOM      6  C   UNL     1     -47.653 -21.005  -2.529 -0.28 -0.00    -0.001 A  
DOCKED: ATOM      7  C   UNL     1     -48.314 -22.393  -4.893 -0.33 +0.00    +0.008 A  
DOCKED: ATOM      8  C   UNL     1     -48.973 -21.378  -2.786 -0.09 +0.00    +0.010 A  
DOCKED: ATOM      9  C   UNL     1     -49.302 -22.069  -3.961 -0.40 +0.00    +0.068 A  
DOCKED: ATOM     10  N   UNL     1     -51.762 -22.750  -4.405 -2.43 -0.00    -0.191 NA 
DOCKED: ATOM     11  C   UNL     1     -50.659 -22.444  -4.206 -0.24 +0.00    +0.101 C  
DOCKED: ENDROOT
DOCKED: BRANCH   2  12
DOCKED: ATOM     12  C   UNL     1     -44.478 -21.824  -2.342 -0.05 +0.00    +0.038 C  
DOCKED: BRANCH  12  13
DOCKED: ATOM     13  C   UNL     1     -45.430 -22.748  -1.585 -0.09 +0.00    +0.038 C  
DOCKED: BRANCH  13  14
DOCKED: ATOM     14  C   UNL     1     -44.901 -24.181  -1.561 -0.01 +0.00    +0.251 C  
DOCKED: BRANCH  14  15
DOCKED: ATOM     15  N   UNL     1     -45.483 -24.954  -2.652 -0.02 +0.00    +0.141 N  
DOCKED: ATOM     16  C   UNL     1     -45.084 -26.359  -2.559 -0.01 +0.00    +0.285 C  
DOCKED: ATOM     17  C   UNL     1     -46.942 -24.840  -2.645 -0.08 +0.00    +0.285 C  
DOCKED: ENDBRANCH  14  15
DOCKED: ENDBRANCH  13  14
DOCKED: ENDBRANCH  12  13
DOCKED: ENDBRANCH   2  12
DOCKED: BRANCH   2  18
DOCKED: ATOM     18  C   UNL     1     -44.883 -19.600  -3.381 -0.11 +0.00    +0.006 A  
DOCKED: ATOM     19  C   UNL     1     -45.205 -18.860  -2.244 -0.12 +0.00    +0.001 A  
DOCKED: ATOM     20  C   UNL     1     -44.904 -17.499  -2.190 -0.09 +0.00    +0.029 A  
DOCKED: ATOM     21  C   UNL     1     -44.281 -16.879  -3.273 -0.05 +0.00    +0.140 A  
DOCKED: ATOM     22  C   UNL     1     -43.959 -17.620  -4.410 -0.06 +0.00    +0.029 A  
DOCKED: ATOM     23  F   UNL     1     -43.990 -15.573  -3.220 +0.00 -0.00    -0.204 F  
DOCKED: ATOM     24  C   UNL     1     -44.260 -18.982  -4.465 -0.06 +0.00    +0.001 A  
DOCKED: ENDBRANCH   2  18
DOCKED: TORSDOF 5
DOCKED: TER
DOCKED: ENDMDL
________________________________________________________________________________


    FINAL DOCKED STATE:
    ________________________


Run:   96 / 512
Time taken for this run:   0.001s

DOCKED: MODEL        96
DOCKED: USER    Run = 96
DOCKED: USER
DOCKED: USER    Estimated Free Energy of Binding    =  -4.03 kcal/mol  [=(1)+(2)+(3)-(4)]
DOCKED: USER
DOCKED: USER    (1) Final Intermolecular Energy     =  -5.52 kcal/mol
DOCKED: USER        vdW + Hbond + desolv Energy     =  -5.52 kcal/mol
DOCKED: USER        Electrostatic Energy            =  +0.00 kcal/mol
DOCKED: USER        Moving Ligand-Fixed Receptor    =  -5.52 kcal/mol
DOCKED: USER        Moving Ligand-Moving Receptor   =  +0.00 kcal/mol
DOCKED: USER    (2) Final Total Internal Energy     =  -1.31 kcal/mol
DOCKED: USER    (3) Torsional Free Energy           =  +1.49 kcal/mol
DOCKED: USER    (4) Unbound System's Energy         =  -1.31 kcal/mol
DOCKED: USER
DOCKED: USER
DOCKED: REMARK  5 active torsions:
DOCKED: REMARK  status: ('A' for Active; 'I' for Inactive)
DOCKED: REMARK    1  A    between atoms: C_2  and  C_19 
DOCKED: REMARK    2  A    between atoms: C_2  and  C_11 
DOCKED: REMARK    3  A    between atoms: C_19  and  C_20 
DOCKED: REMARK    4  A    between atoms: C_20  and  C_21 
DOCKED: REMARK    5  A    between atoms: C_21  and  N_22 
DOCKED: USER                              x       y       z     vdW  Elec       q    Type
DOCKED: USER                           _______ _______ _______ _____ _____    ______ ____
DOCKED: ROOT
DOCKED: ATOM      1  O   UNL     1     -46.024 -28.575   1.603 +0.00 -0.00    -0.346 OA 
DOCKED: ATOM      2  C   UNL     1     -46.965 -29.442   0.893 -0.17 +0.00    +0.130 C  
DOCKED: ATOM      3  C   UNL     1     -46.783 -30.782   1.546 -0.25 +0.00    +0.004 A  
DOCKED: ATOM      4  C   UNL     1     -45.897 -30.667   2.608 -0.16 +0.00    +0.006 A  
DOCKED: ATOM      5  C   UNL     1     -45.449 -29.262   2.739 -0.05 +0.00    +0.169 C  
DOCKED: ATOM      6  C   UNL     1     -47.363 -32.002   1.233 -0.24 -0.00    -0.001 A  
DOCKED: ATOM      7  C   UNL     1     -45.559 -31.761   3.386 -0.19 +0.00    +0.008 A  
DOCKED: ATOM      8  C   UNL     1     -47.028 -33.116   2.005 -0.25 +0.00    +0.010 A  
DOCKED: ATOM      9  C   UNL     1     -46.131 -32.995   3.077 -0.21 +0.00    +0.068 A  
DOCKED: ATOM     10  N   UNL     1     -45.536 -35.081   4.494 -2.06 -0.00    -0.191 NA 
DOCKED: ATOM     11  C   UNL     1     -45.802 -34.146   3.858 -0.20 +0.00    +0.101 C  
DOCKED: ENDROOT
DOCKED: BRANCH   2  12
DOCKED: ATOM     12  C   UNL     1     -48.370 -28.880   1.075 -0.27 +0.00    +0.038 C  
DOCKED: BRANCH  12  13
DOCKED: ATOM     13  C   UNL     1     -48.826 -28.978   2.530 -0.17 +0.00    +0.038 C  
DOCKED: BRANCH  13  14
DOCKED: ATOM     14  C   UNL     1     -48.485 -27.703   3.299 -0.09 +0.00    +0.251 C  
DOCKED: BRANCH  14  15
DOCKED: ATOM     15  N   UNL     1     -47.819 -28.030   4.554 -0.09 +0.00    +0.141 N  
DOCKED: ATOM     16  C   UNL     1     -47.262 -26.826   5.172 -0.02 +0.00    +0.285 C  
DOCKED: ATOM     17  C   UNL     1     -48.748 -28.689   5.474 -0.10 +0.00    +0.285 C  
DOCKED: ENDBRANCH  14  15
DOCKED: ENDBRANCH  13  14
DOCKED: ENDBRANCH  12  13
DOCKED: ENDBRANCH   2  12
DOCKED: BRANCH   2  18
DOCKED: ATOM     18  C   UNL     1     -46.565 -29.436  -0.544 -0.18 +0.00    +0.006 A  
DOCKED: ATOM     19  C   UNL     1     -47.145 -28.525  -1.425 -0.20 +0.00    +0.001 A  
DOCKED: ATOM     20  C   UNL     1     -46.770 -28.521  -2.769 -0.21 +0.00    +0.029 A  
DOCKED: ATOM     21  C   UNL     1     -45.816 -29.427  -3.230 -0.14 +0.00    +0.140 A  
DOCKED: ATOM     22  C   UNL     1     -45.236 -30.339  -2.348 -0.14 +0.00    +0.029 A  
DOCKED: ATOM     23  F   UNL     1     -45.455 -29.422  -4.520 -0.01 -0.00    -0.204 F  
DOCKED: ATOM     24  C   UNL     1     -45.611 -30.344  -1.003 -0.14 +0.00    +0.001 A  
DOCKED: ENDBRANCH   2  18
DOCKED: TORSDOF 5
DOCKED: TER
DOCKED: ENDMDL
________________________________________________________________________________


    FINAL DOCKED STATE:
    ________________________


Run:   97 / 512
Time taken for this run:   0.001s

DOCKED: MODEL        97
DOCKED: USER    Run = 97
DOCKED: USER
DOCKED: USER    Estimated Free Energy of Binding    =  -4.16 kcal/mol  [=(1)+(2)+(3)-(4)]
DOCKED: USER
DOCKED: USER    (1) Final Intermolecular Energy     =  -5.65 kcal/mol
DOCKED: USER        vdW + Hbond + desolv Energy     =  -5.65 kcal/mol
DOCKED: USER        Electrostatic Energy            =  +0.00 kcal/mol
DOCKED: USER        Moving Ligand-Fixed Receptor    =  -5.65 kcal/mol
DOCKED: USER        Moving Ligand-Moving Receptor   =  +0.00 kcal/mol
DOCKED: USER    (2) Final Total Internal Energy     =  -1.14 kcal/mol
DOCKED: USER    (3) Torsional Free Energy           =  +1.49 kcal/mol
DOCKED: USER    (4) Unbound System's Energy         =  -1.14 kcal/mol
DOCKED: USER
DOCKED: USER
DOCKED: REMARK  5 active torsions:
DOCKED: REMARK  status: ('A' for Active; 'I' for Inactive)
DOCKED: REMARK    1  A    between atoms: C_2  and  C_19 
DOCKED: REMARK    2  A    between atoms: C_2  and  C_11 
DOCKED: REMARK    3  A    between atoms: C_19  and  C_20 
DOCKED: REMARK    4  A    between atoms: C_20  and  C_21 
DOCKED: REMARK    5  A    between atoms: C_21  and  N_22 
DOCKED: USER                              x       y       z     vdW  Elec       q    Type
DOCKED: USER                           _______ _______ _______ _____ _____    ______ ____
DOCKED: ROOT
DOCKED: ATOM      1  O   UNL     1     -49.025 -30.961   8.571 -0.07 -0.00    -0.346 OA 
DOCKED: ATOM      2  C   UNL     1     -50.140 -30.117   8.138 -0.11 +0.00    +0.130 C  
DOCKED: ATOM      3  C   UNL     1     -51.073 -31.077   7.458 -0.21 +0.00    +0.004 A  
DOCKED: ATOM      4  C   UNL     1     -50.589 -32.370   7.588 -0.24 +0.00    +0.006 A  
DOCKED: ATOM      5  C   UNL     1     -49.327 -32.360   8.361 -0.18 +0.00    +0.169 C  
DOCKED: ATOM      6  C   UNL     1     -52.262 -30.825   6.789 -0.26 -0.00    -0.001 A  
DOCKED: ATOM      7  C   UNL     1     -51.269 -33.451   7.053 -0.34 +0.00    +0.008 A  
DOCKED: ATOM      8  C   UNL     1     -52.957 -31.904   6.240 -0.29 +0.00    +0.010 A  
DOCKED: ATOM      9  C   UNL     1     -52.463 -33.210   6.372 -0.30 +0.00    +0.068 A  
DOCKED: ATOM     10  N   UNL     1     -53.781 -35.191   5.346 -2.56 -0.00    -0.191 NA 
DOCKED: ATOM     11  C   UNL     1     -53.190 -34.303   5.805 -0.36 +0.00    +0.101 C  
DOCKED: ENDROOT
DOCKED: BRANCH   2  12
DOCKED: ATOM     12  C   UNL     1     -50.755 -29.462   9.369 -0.04 +0.00    +0.038 C  
DOCKED: BRANCH  12  13
DOCKED: ATOM     13  C   UNL     1     -51.727 -28.349   8.980 -0.04 +0.00    +0.038 C  
DOCKED: BRANCH  13  14
DOCKED: ATOM     14  C   UNL     1     -53.110 -28.593   9.581 -0.01 +0.00    +0.251 C  
DOCKED: BRANCH  14  15
DOCKED: ATOM     15  N   UNL     1     -54.142 -28.011   8.732 -0.03 +0.00    +0.141 N  
DOCKED: ATOM     16  C   UNL     1     -54.589 -26.726   9.272 -0.00 +0.00    +0.285 C  
DOCKED: ATOM     17  C   UNL     1     -53.650 -27.843   7.364 -0.11 +0.00    +0.285 C  
DOCKED: ENDBRANCH  14  15
DOCKED: ENDBRANCH  13  14
DOCKED: ENDBRANCH  12  13
DOCKED: ENDBRANCH   2  12
DOCKED: BRANCH   2  18
DOCKED: ATOM     18  C   UNL     1     -49.578 -29.095   7.207 -0.13 +0.00    +0.006 A  
DOCKED: ATOM     19  C   UNL     1     -49.863 -29.162   5.844 -0.11 +0.00    +0.001 A  
DOCKED: ATOM     20  C   UNL     1     -49.337 -28.205   4.975 -0.09 +0.00    +0.029 A  
DOCKED: ATOM     21  C   UNL     1     -48.527 -27.184   5.470 -0.06 +0.00    +0.140 A  
DOCKED: ATOM     22  C   UNL     1     -48.242 -27.118   6.833 -0.04 +0.00    +0.029 A  
DOCKED: ATOM     23  F   UNL     1     -48.024 -26.265   4.636 -0.00 -0.00    -0.204 F  
DOCKED: ATOM     24  C   UNL     1     -48.768 -28.074   7.704 -0.05 +0.00    +0.001 A  
DOCKED: ENDBRANCH   2  18
DOCKED: TORSDOF 5
DOCKED: TER
DOCKED: ENDMDL
________________________________________________________________________________


    FINAL DOCKED STATE:
    ________________________


Run:   98 / 512
Time taken for this run:   0.001s

DOCKED: MODEL        98
DOCKED: USER    Run = 98
DOCKED: USER
DOCKED: USER    Estimated Free Energy of Binding    =  -4.00 kcal/mol  [=(1)+(2)+(3)-(4)]
DOCKED: USER
DOCKED: USER    (1) Final Intermolecular Energy     =  -5.49 kcal/mol
DOCKED: USER        vdW + Hbond + desolv Energy     =  -5.49 kcal/mol
DOCKED: USER        Electrostatic Energy            =  +0.00 kcal/mol
DOCKED: USER        Moving Ligand-Fixed Receptor    =  -5.49 kcal/mol
DOCKED: USER        Moving Ligand-Moving Receptor   =  +0.00 kcal/mol
DOCKED: USER    (2) Final Total Internal Energy     =  -0.97 kcal/mol
DOCKED: USER    (3) Torsional Free Energy           =  +1.49 kcal/mol
DOCKED: USER    (4) Unbound System's Energy         =  -0.97 kcal/mol
DOCKED: USER
DOCKED: USER
DOCKED: REMARK  5 active torsions:
DOCKED: REMARK  status: ('A' for Active; 'I' for Inactive)
DOCKED: REMARK    1  A    between atoms: C_2  and  C_19 
DOCKED: REMARK    2  A    between atoms: C_2  and  C_11 
DOCKED: REMARK    3  A    between atoms: C_19  and  C_20 
DOCKED: REMARK    4  A    between atoms: C_20  and  C_21 
DOCKED: REMARK    5  A    between atoms: C_21  and  N_22 
DOCKED: USER                              x       y       z     vdW  Elec       q    Type
DOCKED: USER                           _______ _______ _______ _____ _____    ______ ____
DOCKED: ROOT
DOCKED: ATOM      1  O   UNL     1     -54.254 -29.246   8.642 -0.01 -0.00    -0.346 OA 
DOCKED: ATOM      2  C   UNL     1     -53.114 -29.115   7.734 -0.13 +0.00    +0.130 C  
DOCKED: ATOM      3  C   UNL     1     -53.002 -30.470   7.099 -0.22 +0.00    +0.004 A  
DOCKED: ATOM      4  C   UNL     1     -54.052 -31.272   7.522 -0.17 +0.00    +0.006 A  
DOCKED: ATOM      5  C   UNL     1     -54.926 -30.511   8.442 -0.07 +0.00    +0.169 C  
DOCKED: ATOM      6  C   UNL     1     -52.052 -30.951   6.209 -0.27 -0.00    -0.001 A  
DOCKED: ATOM      7  C   UNL     1     -54.187 -32.576   7.076 -0.20 +0.00    +0.008 A  
DOCKED: ATOM      8  C   UNL     1     -52.173 -32.266   5.754 -0.34 +0.00    +0.010 A  
DOCKED: ATOM      9  C   UNL     1     -53.235 -33.074   6.186 -0.27 +0.00    +0.068 A  
DOCKED: ATOM     10  N   UNL     1     -53.432 -35.507   5.318 -2.60 -0.00    -0.191 NA 
DOCKED: ATOM     11  C   UNL     1     -53.343 -34.416   5.708 -0.36 +0.00    +0.101 C  
DOCKED: ENDROOT
DOCKED: BRANCH   2  12
DOCKED: ATOM     12  C   UNL     1     -53.421 -28.012   6.729 -0.21 +0.00    +0.038 C  
DOCKED: BRANCH  12  13
DOCKED: ATOM     13  C   UNL     1     -52.341 -26.932   6.738 -0.14 +0.00    +0.038 C  
DOCKED: BRANCH  13  14
DOCKED: ATOM     14  C   UNL     1     -52.117 -26.366   5.337 -0.08 +0.00    +0.251 C  
DOCKED: BRANCH  14  15
DOCKED: ATOM     15  N   UNL     1     -50.697 -26.127   5.107 -0.09 +0.00    +0.141 N  
DOCKED: ATOM     16  C   UNL     1     -49.915 -27.323   5.424 -0.06 +0.00    +0.285 C  
DOCKED: ATOM     17  C   UNL     1     -50.461 -25.718   3.722 -0.08 +0.00    +0.285 C  
DOCKED: ENDBRANCH  14  15
DOCKED: ENDBRANCH  13  14
DOCKED: ENDBRANCH  12  13
DOCKED: ENDBRANCH   2  12
DOCKED: BRANCH   2  18
DOCKED: ATOM     18  C   UNL     1     -51.929 -28.765   8.571 -0.06 +0.00    +0.006 A  
DOCKED: ATOM     19  C   UNL     1     -52.091 -27.991   9.720 -0.02 +0.00    +0.001 A  
DOCKED: ATOM     20  C   UNL     1     -50.982 -27.665  10.501 -0.00 +0.00    +0.029 A  
DOCKED: ATOM     21  C   UNL     1     -49.714 -28.112  10.134 -0.00 +0.00    +0.140 A  
DOCKED: ATOM     22  C   UNL     1     -49.552 -28.886   8.985 -0.04 +0.00    +0.029 A  
DOCKED: ATOM     23  F   UNL     1     -48.650 -27.800  10.885 +0.00 -0.00    -0.204 F  
DOCKED: ATOM     24  C   UNL     1     -50.661 -29.213   8.202 -0.08 +0.00    +0.001 A  
DOCKED: ENDBRANCH   2  18
DOCKED: TORSDOF 5
DOCKED: TER
DOCKED: ENDMDL
________________________________________________________________________________


    FINAL DOCKED STATE:
    ________________________


Run:   99 / 512
Time taken for this run:   0.001s

DOCKED: MODEL        99
DOCKED: USER    Run = 99
DOCKED: USER
DOCKED: USER    Estimated Free Energy of Binding    =  -3.75 kcal/mol  [=(1)+(2)+(3)-(4)]
DOCKED: USER
DOCKED: USER    (1) Final Intermolecular Energy     =  -5.24 kcal/mol
DOCKED: USER        vdW + Hbond + desolv Energy     =  -5.24 kcal/mol
DOCKED: USER        Electrostatic Energy            =  +0.00 kcal/mol
DOCKED: USER        Moving Ligand-Fixed Receptor    =  -5.24 kcal/mol
DOCKED: USER        Moving Ligand-Moving Receptor   =  +0.00 kcal/mol
DOCKED: USER    (2) Final Total Internal Energy     =  -1.46 kcal/mol
DOCKED: USER    (3) Torsional Free Energy           =  +1.49 kcal/mol
DOCKED: USER    (4) Unbound System's Energy         =  -1.46 kcal/mol
DOCKED: USER
DOCKED: USER
DOCKED: REMARK  5 active torsions:
DOCKED: REMARK  status: ('A' for Active; 'I' for Inactive)
DOCKED: REMARK    1  A    between atoms: C_2  and  C_19 
DOCKED: REMARK    2  A    between atoms: C_2  and  C_11 
DOCKED: REMARK    3  A    between atoms: C_19  and  C_20 
DOCKED: REMARK    4  A    between atoms: C_20  and  C_21 
DOCKED: REMARK    5  A    between atoms: C_21  and  N_22 
DOCKED: USER                              x       y       z     vdW  Elec       q    Type
DOCKED: USER                           _______ _______ _______ _____ _____    ______ ____
DOCKED: ROOT
DOCKED: ATOM      1  O   UNL     1     -51.965 -29.190   7.779 -0.03 -0.00    -0.346 OA 
DOCKED: ATOM      2  C   UNL     1     -50.800 -30.069   7.888 -0.13 +0.00    +0.130 C  
DOCKED: ATOM      3  C   UNL     1     -51.276 -31.369   7.306 -0.23 +0.00    +0.004 A  
DOCKED: ATOM      4  C   UNL     1     -52.561 -31.214   6.806 -0.26 +0.00    +0.006 A  
DOCKED: ATOM      5  C   UNL     1     -53.015 -29.820   7.009 -0.19 +0.00    +0.169 C  
DOCKED: ATOM      6  C   UNL     1     -50.619 -32.587   7.214 -0.20 -0.00    -0.001 A  
DOCKED: ATOM      7  C   UNL     1     -53.233 -32.266   6.206 -0.29 +0.00    +0.008 A  
DOCKED: ATOM      8  C   UNL     1     -51.284 -33.658   6.616 -0.35 +0.00    +0.010 A  
DOCKED: ATOM      9  C   UNL     1     -52.584 -33.498   6.114 -0.32 +0.00    +0.068 A  
DOCKED: ATOM     10  N   UNL     1     -53.788 -35.506   5.004 -2.37 -0.00    -0.191 NA 
DOCKED: ATOM     11  C   UNL     1     -53.248 -34.606   5.503 -0.35 +0.00    +0.101 C  
DOCKED: ENDROOT
DOCKED: BRANCH   2  12
DOCKED: ATOM     12  C   UNL     1     -49.652 -29.450   7.100 -0.16 +0.00    +0.038 C  
DOCKED: BRANCH  12  13
DOCKED: ATOM     13  C   UNL     1     -50.086 -28.162   6.403 -0.15 +0.00    +0.038 C  
DOCKED: BRANCH  13  14
DOCKED: ATOM     14  C   UNL     1     -49.401 -26.945   7.022 -0.03 +0.00    +0.251 C  
DOCKED: BRANCH  14  15
DOCKED: ATOM     15  N   UNL     1     -49.871 -26.737   8.386 -0.01 +0.00    +0.141 N  
DOCKED: ATOM     16  C   UNL     1     -49.012 -25.781   9.088 -0.00 +0.00    +0.285 C  
DOCKED: ATOM     17  C   UNL     1     -51.258 -26.269   8.388 -0.01 +0.00    +0.285 C  
DOCKED: ENDBRANCH  14  15
DOCKED: ENDBRANCH  13  14
DOCKED: ENDBRANCH  12  13
DOCKED: ENDBRANCH   2  12
DOCKED: BRANCH   2  18
DOCKED: ATOM     18  C   UNL     1     -50.464 -30.171   9.339 -0.05 +0.00    +0.006 A  
DOCKED: ATOM     19  C   UNL     1     -49.190 -29.822   9.785 -0.04 +0.00    +0.001 A  
DOCKED: ATOM     20  C   UNL     1     -48.877 -29.918  11.141 -0.01 +0.00    +0.029 A  
DOCKED: ATOM     21  C   UNL     1     -49.838 -30.361  12.049 -0.01 +0.00    +0.140 A  
DOCKED: ATOM     22  C   UNL     1     -51.112 -30.709  11.602 -0.01 +0.00    +0.029 A  
DOCKED: ATOM     23  F   UNL     1     -49.538 -30.451  13.351 +0.00 -0.00    -0.204 F  
DOCKED: ATOM     24  C   UNL     1     -51.426 -30.615  10.245 -0.03 +0.00    +0.001 A  
DOCKED: ENDBRANCH   2  18
DOCKED: TORSDOF 5
DOCKED: TER
DOCKED: ENDMDL
________________________________________________________________________________


    FINAL DOCKED STATE:
    ________________________


Run:   100 / 512
Time taken for this run:   0.001s

DOCKED: MODEL        100
DOCKED: USER    Run = 100
DOCKED: USER
DOCKED: USER    Estimated Free Energy of Binding    =  -4.29 kcal/mol  [=(1)+(2)+(3)-(4)]
DOCKED: USER
DOCKED: USER    (1) Final Intermolecular Energy     =  -5.78 kcal/mol
DOCKED: USER        vdW + Hbond + desolv Energy     =  -5.78 kcal/mol
DOCKED: USER        Electrostatic Energy            =  +0.00 kcal/mol
DOCKED: USER        Moving Ligand-Fixed Receptor    =  -5.78 kcal/mol
DOCKED: USER        Moving Ligand-Moving Receptor   =  +0.00 kcal/mol
DOCKED: USER    (2) Final Total Internal Energy     =  -1.39 kcal/mol
DOCKED: USER    (3) Torsional Free Energy           =  +1.49 kcal/mol
DOCKED: USER    (4) Unbound System's Energy         =  -1.39 kcal/mol
DOCKED: USER
DOCKED: USER
DOCKED: REMARK  5 active torsions:
DOCKED: REMARK  status: ('A' for Active; 'I' for Inactive)
DOCKED: REMARK    1  A    between atoms: C_2  and  C_19 
DOCKED: REMARK    2  A    between atoms: C_2  and  C_11 
DOCKED: REMARK    3  A    between atoms: C_19  and  C_20 
DOCKED: REMARK    4  A    between atoms: C_20  and  C_21 
DOCKED: REMARK    5  A    between atoms: C_21  and  N_22 
DOCKED: USER                              x       y       z     vdW  Elec       q    Type
DOCKED: USER                           _______ _______ _______ _____ _____    ______ ____
DOCKED: ROOT
DOCKED: ATOM      1  O   UNL     1     -51.260 -33.995   9.178 -0.09 -0.00    -0.346 OA 
DOCKED: ATOM      2  C   UNL     1     -51.230 -32.610   8.706 -0.16 +0.00    +0.130 C  
DOCKED: ATOM      3  C   UNL     1     -51.702 -32.705   7.283 -0.28 +0.00    +0.004 A  
DOCKED: ATOM      4  C   UNL     1     -52.074 -34.012   7.001 -0.35 +0.00    +0.006 A  
DOCKED: ATOM      5  C   UNL     1     -51.889 -34.857   8.202 -0.21 +0.00    +0.169 C  
DOCKED: ATOM      6  C   UNL     1     -51.804 -31.713   6.320 -0.30 -0.00    -0.001 A  
DOCKED: ATOM      7  C   UNL     1     -52.554 -34.371   5.753 -0.41 +0.00    +0.008 A  
DOCKED: ATOM      8  C   UNL     1     -52.282 -32.060   5.055 -0.19 +0.00    +0.010 A  
DOCKED: ATOM      9  C   UNL     1     -52.656 -33.383   4.774 -0.38 +0.00    +0.068 A  
DOCKED: ATOM     10  N   UNL     1     -53.544 -33.992   2.418 -1.98 -0.00    -0.191 NA 
DOCKED: ATOM     11  C   UNL     1     -53.145 -33.719   3.474 -0.52 +0.00    +0.101 C  
DOCKED: ENDROOT
DOCKED: BRANCH   2  12
DOCKED: ATOM     12  C   UNL     1     -52.159 -31.780   9.584 -0.08 +0.00    +0.038 C  
DOCKED: BRANCH  12  13
DOCKED: ATOM     13  C   UNL     1     -52.521 -32.524  10.868 -0.07 +0.00    +0.038 C  
DOCKED: BRANCH  13  14
DOCKED: ATOM     14  C   UNL     1     -52.003 -31.781  12.098 -0.01 +0.00    +0.251 C  
DOCKED: BRANCH  14  15
DOCKED: ATOM     15  N   UNL     1     -50.733 -32.349  12.536 -0.03 +0.00    +0.141 N  
DOCKED: ATOM     16  C   UNL     1     -50.611 -32.276  13.993 -0.00 +0.00    +0.285 C  
DOCKED: ATOM     17  C   UNL     1     -50.606 -33.735  12.084 -0.09 +0.00    +0.285 C  
DOCKED: ENDBRANCH  14  15
DOCKED: ENDBRANCH  13  14
DOCKED: ENDBRANCH  12  13
DOCKED: ENDBRANCH   2  12
DOCKED: BRANCH   2  18
DOCKED: ATOM     18  C   UNL     1     -49.818 -32.140   8.820 -0.18 +0.00    +0.006 A  
DOCKED: ATOM     19  C   UNL     1     -49.530 -30.961   9.506 -0.08 +0.00    +0.001 A  
DOCKED: ATOM     20  C   UNL     1     -48.209 -30.523   9.612 -0.06 +0.00    +0.029 A  
DOCKED: ATOM     21  C   UNL     1     -47.180 -31.263   9.033 -0.08 +0.00    +0.140 A  
DOCKED: ATOM     22  C   UNL     1     -47.469 -32.443   8.347 -0.18 +0.00    +0.029 A  
DOCKED: ATOM     23  F   UNL     1     -45.913 -30.843   9.136 -0.00 -0.00    -0.204 F  
DOCKED: ATOM     24  C   UNL     1     -48.790 -32.882   8.240 -0.05 +0.00    +0.001 A  
DOCKED: ENDBRANCH   2  18
DOCKED: TORSDOF 5
DOCKED: TER
DOCKED: ENDMDL
________________________________________________________________________________


    FINAL DOCKED STATE:
    ________________________


Run:   101 / 512
Time taken for this run:   0.001s

DOCKED: MODEL        101
DOCKED: USER    Run = 101
DOCKED: USER
DOCKED: USER    Estimated Free Energy of Binding    =  -4.28 kcal/mol  [=(1)+(2)+(3)-(4)]
DOCKED: USER
DOCKED: USER    (1) Final Intermolecular Energy     =  -5.77 kcal/mol
DOCKED: USER        vdW + Hbond + desolv Energy     =  -5.77 kcal/mol
DOCKED: USER        Electrostatic Energy            =  +0.00 kcal/mol
DOCKED: USER        Moving Ligand-Fixed Receptor    =  -5.77 kcal/mol
DOCKED: USER        Moving Ligand-Moving Receptor   =  +0.00 kcal/mol
DOCKED: USER    (2) Final Total Internal Energy     =  -1.50 kcal/mol
DOCKED: USER    (3) Torsional Free Energy           =  +1.49 kcal/mol
DOCKED: USER    (4) Unbound System's Energy         =  -1.50 kcal/mol
DOCKED: USER
DOCKED: USER
DOCKED: REMARK  5 active torsions:
DOCKED: REMARK  status: ('A' for Active; 'I' for Inactive)
DOCKED: REMARK    1  A    between atoms: C_2  and  C_19 
DOCKED: REMARK    2  A    between atoms: C_2  and  C_11 
DOCKED: REMARK    3  A    between atoms: C_19  and  C_20 
DOCKED: REMARK    4  A    between atoms: C_20  and  C_21 
DOCKED: REMARK    5  A    between atoms: C_21  and  N_22 
DOCKED: USER                              x       y       z     vdW  Elec       q    Type
DOCKED: USER                           _______ _______ _______ _____ _____    ______ ____
DOCKED: ROOT
DOCKED: ATOM      1  O   UNL     1     -50.709 -29.009   7.267 -0.05 -0.00    -0.346 OA 
DOCKED: ATOM      2  C   UNL     1     -52.152 -28.856   7.459 -0.13 +0.00    +0.130 C  
DOCKED: ATOM      3  C   UNL     1     -52.716 -30.175   7.014 -0.22 +0.00    +0.004 A  
DOCKED: ATOM      4  C   UNL     1     -51.680 -31.044   6.702 -0.27 +0.00    +0.006 A  
DOCKED: ATOM      5  C   UNL     1     -50.378 -30.376   6.926 -0.14 +0.00    +0.169 C  
DOCKED: ATOM      6  C   UNL     1     -54.039 -30.577   6.907 -0.23 -0.00    -0.001 A  
DOCKED: ATOM      7  C   UNL     1     -51.929 -32.335   6.269 -0.33 +0.00    +0.008 A  
DOCKED: ATOM      8  C   UNL     1     -54.306 -31.874   6.468 -0.23 +0.00    +0.010 A  
DOCKED: ATOM      9  C   UNL     1     -53.256 -32.749   6.151 -0.26 +0.00    +0.068 A  
DOCKED: ATOM     10  N   UNL     1     -53.788 -35.153   5.343 -2.56 -0.00    -0.191 NA 
DOCKED: ATOM     11  C   UNL     1     -53.549 -34.074   5.705 -0.36 +0.00    +0.101 C  
DOCKED: ENDROOT
DOCKED: BRANCH   2  12
DOCKED: ATOM     12  C   UNL     1     -52.415 -28.564   8.931 -0.05 +0.00    +0.038 C  
DOCKED: BRANCH  12  13
DOCKED: ATOM     13  C   UNL     1     -51.989 -27.145   9.302 -0.02 +0.00    +0.038 C  
DOCKED: BRANCH  13  14
DOCKED: ATOM     14  C   UNL     1     -50.477 -27.057   9.495 -0.00 +0.00    +0.251 C  
DOCKED: BRANCH  14  15
DOCKED: ATOM     15  N   UNL     1     -49.842 -26.535   8.290 -0.01 +0.00    +0.141 N  
DOCKED: ATOM     16  C   UNL     1     -49.931 -25.074   8.251 -0.00 +0.00    +0.285 C  
DOCKED: ATOM     17  C   UNL     1     -48.443 -26.960   8.219 -0.01 +0.00    +0.285 C  
DOCKED: ENDBRANCH  14  15
DOCKED: ENDBRANCH  13  14
DOCKED: ENDBRANCH  12  13
DOCKED: ENDBRANCH   2  12
DOCKED: BRANCH   2  18
DOCKED: ATOM     18  C   UNL     1     -52.588 -27.717   6.598 -0.17 +0.00    +0.006 A  
DOCKED: ATOM     19  C   UNL     1     -53.938 -27.380   6.520 -0.20 +0.00    +0.001 A  
DOCKED: ATOM     20  C   UNL     1     -54.345 -26.315   5.715 -0.15 +0.00    +0.029 A  
DOCKED: ATOM     21  C   UNL     1     -53.401 -25.590   4.989 -0.12 +0.00    +0.140 A  
DOCKED: ATOM     22  C   UNL     1     -52.050 -25.928   5.068 -0.13 +0.00    +0.029 A  
DOCKED: ATOM     23  F   UNL     1     -53.791 -24.567   4.218 -0.02 -0.00    -0.204 F  
DOCKED: ATOM     24  C   UNL     1     -51.642 -26.993   5.873 -0.10 +0.00    +0.001 A  
DOCKED: ENDBRANCH   2  18
DOCKED: TORSDOF 5
DOCKED: TER
DOCKED: ENDMDL
________________________________________________________________________________


    FINAL DOCKED STATE:
    ________________________


Run:   102 / 512
Time taken for this run:   0.001s

DOCKED: MODEL        102
DOCKED: USER    Run = 102
DOCKED: USER
DOCKED: USER    Estimated Free Energy of Binding    =  -4.82 kcal/mol  [=(1)+(2)+(3)-(4)]
DOCKED: USER
DOCKED: USER    (1) Final Intermolecular Energy     =  -6.31 kcal/mol
DOCKED: USER        vdW + Hbond + desolv Energy     =  -6.31 kcal/mol
DOCKED: USER        Electrostatic Energy            =  +0.00 kcal/mol
DOCKED: USER        Moving Ligand-Fixed Receptor    =  -6.31 kcal/mol
DOCKED: USER        Moving Ligand-Moving Receptor   =  +0.00 kcal/mol
DOCKED: USER    (2) Final Total Internal Energy     =  -1.06 kcal/mol
DOCKED: USER    (3) Torsional Free Energy           =  +1.49 kcal/mol
DOCKED: USER    (4) Unbound System's Energy         =  -1.06 kcal/mol
DOCKED: USER
DOCKED: USER
DOCKED: REMARK  5 active torsions:
DOCKED: REMARK  status: ('A' for Active; 'I' for Inactive)
DOCKED: REMARK    1  A    between atoms: C_2  and  C_19 
DOCKED: REMARK    2  A    between atoms: C_2  and  C_11 
DOCKED: REMARK    3  A    between atoms: C_19  and  C_20 
DOCKED: REMARK    4  A    between atoms: C_20  and  C_21 
DOCKED: REMARK    5  A    between atoms: C_21  and  N_22 
DOCKED: USER                              x       y       z     vdW  Elec       q    Type
DOCKED: USER                           _______ _______ _______ _____ _____    ______ ____
DOCKED: ROOT
DOCKED: ATOM      1  O   UNL     1     -52.414 -31.190   8.474 -0.01 -0.00    -0.346 OA 
DOCKED: ATOM      2  C   UNL     1     -52.208 -32.637   8.529 -0.13 +0.00    +0.130 C  
DOCKED: ATOM      3  C   UNL     1     -52.496 -33.096   7.129 -0.27 +0.00    +0.004 A  
DOCKED: ATOM      4  C   UNL     1     -52.737 -31.996   6.318 -0.31 +0.00    +0.006 A  
DOCKED: ATOM      5  C   UNL     1     -52.614 -30.751   7.110 -0.19 +0.00    +0.169 C  
DOCKED: ATOM      6  C   UNL     1     -52.531 -34.383   6.612 -0.22 -0.00    -0.001 A  
DOCKED: ATOM      7  C   UNL     1     -53.024 -32.143   4.972 -0.04 +0.00    +0.008 A  
DOCKED: ATOM      8  C   UNL     1     -52.823 -34.547   5.257 -0.45 +0.00    +0.010 A  
DOCKED: ATOM      9  C   UNL     1     -53.068 -33.433   4.441 -0.41 +0.00    +0.068 A  
DOCKED: ATOM     10  N   UNL     1     -53.602 -33.774   1.929 -2.38 -0.00    -0.191 NA 
DOCKED: ATOM     11  C   UNL     1     -53.363 -33.621   3.056 -0.50 +0.00    +0.101 C  
DOCKED: ENDROOT
DOCKED: BRANCH   2  12
DOCKED: ATOM     12  C   UNL     1     -50.769 -32.904   8.957 -0.21 +0.00    +0.038 C  
DOCKED: BRANCH  12  13
DOCKED: ATOM     13  C   UNL     1     -49.774 -32.330   7.951 -0.21 +0.00    +0.038 C  
DOCKED: BRANCH  13  14
DOCKED: ATOM     14  C   UNL     1     -48.700 -31.501   8.653 -0.11 +0.00    +0.251 C  
DOCKED: BRANCH  14  15
DOCKED: ATOM     15  N   UNL     1     -48.002 -30.656   7.691 -0.09 +0.00    +0.141 N  
DOCKED: ATOM     16  C   UNL     1     -48.093 -29.248   8.080 -0.05 +0.00    +0.285 C  
DOCKED: ATOM     17  C   UNL     1     -46.600 -31.060   7.572 -0.06 +0.00    +0.285 C  
DOCKED: ENDBRANCH  14  15
DOCKED: ENDBRANCH  13  14
DOCKED: ENDBRANCH  12  13
DOCKED: ENDBRANCH   2  12
DOCKED: BRANCH   2  18
DOCKED: ATOM     18  C   UNL     1     -53.175 -33.177   9.529 -0.12 +0.00    +0.006 A  
DOCKED: ATOM     19  C   UNL     1     -54.523 -32.828   9.453 -0.09 +0.00    +0.001 A  
DOCKED: ATOM     20  C   UNL     1     -55.427 -33.334  10.388 -0.08 +0.00    +0.029 A  
DOCKED: ATOM     21  C   UNL     1     -54.982 -34.187  11.397 -0.08 +0.00    +0.140 A  
DOCKED: ATOM     22  C   UNL     1     -53.634 -34.536  11.473 -0.13 +0.00    +0.029 A  
DOCKED: ATOM     23  F   UNL     1     -55.850 -34.673  12.294 -0.00 -0.00    -0.204 F  
DOCKED: ATOM     24  C   UNL     1     -52.729 -34.030  10.538 -0.18 +0.00    +0.001 A  
DOCKED: ENDBRANCH   2  18
DOCKED: TORSDOF 5
DOCKED: TER
DOCKED: ENDMDL
________________________________________________________________________________


    FINAL DOCKED STATE:
    ________________________


Run:   103 / 512
Time taken for this run:   0.001s

DOCKED: MODEL        103
DOCKED: USER    Run = 103
DOCKED: USER
DOCKED: USER    Estimated Free Energy of Binding    =  -5.08 kcal/mol  [=(1)+(2)+(3)-(4)]
DOCKED: USER
DOCKED: USER    (1) Final Intermolecular Energy     =  -6.57 kcal/mol
DOCKED: USER        vdW + Hbond + desolv Energy     =  -6.57 kcal/mol
DOCKED: USER        Electrostatic Energy            =  +0.00 kcal/mol
DOCKED: USER        Moving Ligand-Fixed Receptor    =  -6.57 kcal/mol
DOCKED: USER        Moving Ligand-Moving Receptor   =  +0.00 kcal/mol
DOCKED: USER    (2) Final Total Internal Energy     =  -1.47 kcal/mol
DOCKED: USER    (3) Torsional Free Energy           =  +1.49 kcal/mol
DOCKED: USER    (4) Unbound System's Energy         =  -1.47 kcal/mol
DOCKED: USER
DOCKED: USER
DOCKED: REMARK  5 active torsions:
DOCKED: REMARK  status: ('A' for Active; 'I' for Inactive)
DOCKED: REMARK    1  A    between atoms: C_2  and  C_19 
DOCKED: REMARK    2  A    between atoms: C_2  and  C_11 
DOCKED: REMARK    3  A    between atoms: C_19  and  C_20 
DOCKED: REMARK    4  A    between atoms: C_20  and  C_21 
DOCKED: REMARK    5  A    between atoms: C_21  and  N_22 
DOCKED: USER                              x       y       z     vdW  Elec       q    Type
DOCKED: USER                           _______ _______ _______ _____ _____    ______ ____
DOCKED: ROOT
DOCKED: ATOM      1  O   UNL     1     -52.040 -31.324   8.056 -0.03 -0.00    -0.346 OA 
DOCKED: ATOM      2  C   UNL     1     -52.124 -32.783   8.119 -0.17 +0.00    +0.130 C  
DOCKED: ATOM      3  C   UNL     1     -52.511 -33.182   6.724 -0.31 +0.00    +0.004 A  
DOCKED: ATOM      4  C   UNL     1     -52.537 -32.060   5.908 -0.33 +0.00    +0.006 A  
DOCKED: ATOM      5  C   UNL     1     -52.164 -30.861   6.691 -0.23 +0.00    +0.169 C  
DOCKED: ATOM      6  C   UNL     1     -52.804 -34.439   6.215 -0.13 -0.00    -0.001 A  
DOCKED: ATOM      7  C   UNL     1     -52.861 -32.153   4.565 +0.23 +0.00    +0.008 A  
DOCKED: ATOM      8  C   UNL     1     -53.136 -34.549   4.864 -0.49 +0.00    +0.010 A  
DOCKED: ATOM      9  C   UNL     1     -53.163 -33.411   4.043 -0.41 +0.00    +0.068 A  
DOCKED: ATOM     10  N   UNL     1     -53.779 -33.651   1.538 -3.16 -0.00    -0.191 NA 
DOCKED: ATOM     11  C   UNL     1     -53.503 -33.543   2.662 -0.39 +0.00    +0.101 C  
DOCKED: ENDROOT
DOCKED: BRANCH   2  12
DOCKED: ATOM     12  C   UNL     1     -50.762 -33.327   8.536 -0.24 +0.00    +0.038 C  
DOCKED: BRANCH  12  13
DOCKED: ATOM     13  C   UNL     1     -50.044 -32.365   9.480 -0.16 +0.00    +0.038 C  
DOCKED: BRANCH  13  14
DOCKED: ATOM     14  C   UNL     1     -50.002 -32.920  10.902 -0.08 +0.00    +0.251 C  
DOCKED: BRANCH  14  15
DOCKED: ATOM     15  N   UNL     1     -50.540 -31.945  11.843 -0.03 +0.00    +0.141 N  
DOCKED: ATOM     16  C   UNL     1     -51.090 -30.790  11.131 -0.01 +0.00    +0.285 C  
DOCKED: ATOM     17  C   UNL     1     -51.566 -32.556  12.689 -0.02 +0.00    +0.285 C  
DOCKED: ENDBRANCH  14  15
DOCKED: ENDBRANCH  13  14
DOCKED: ENDBRANCH  12  13
DOCKED: ENDBRANCH   2  12
DOCKED: BRANCH   2  18
DOCKED: ATOM     18  C   UNL     1     -53.169 -33.117   9.130 -0.13 +0.00    +0.006 A  
DOCKED: ATOM     19  C   UNL     1     -54.337 -32.359   9.202 -0.08 +0.00    +0.001 A  
DOCKED: ATOM     20  C   UNL     1     -55.313 -32.672  10.148 -0.06 +0.00    +0.029 A  
DOCKED: ATOM     21  C   UNL     1     -55.122 -33.742  11.020 -0.06 +0.00    +0.140 A  
DOCKED: ATOM     22  C   UNL     1     -53.953 -34.501  10.948 -0.11 +0.00    +0.029 A  
DOCKED: ATOM     23  F   UNL     1     -56.060 -34.044  11.927 +0.01 -0.00    -0.204 F  
DOCKED: ATOM     24  C   UNL     1     -52.976 -34.188  10.002 -0.19 +0.00    +0.001 A  
DOCKED: ENDBRANCH   2  18
DOCKED: TORSDOF 5
DOCKED: TER
DOCKED: ENDMDL
________________________________________________________________________________


    FINAL DOCKED STATE:
    ________________________


Run:   104 / 512
Time taken for this run:   0.001s

DOCKED: MODEL        104
DOCKED: USER    Run = 104
DOCKED: USER
DOCKED: USER    Estimated Free Energy of Binding    =  -4.10 kcal/mol  [=(1)+(2)+(3)-(4)]
DOCKED: USER
DOCKED: USER    (1) Final Intermolecular Energy     =  -5.59 kcal/mol
DOCKED: USER        vdW + Hbond + desolv Energy     =  -5.59 kcal/mol
DOCKED: USER        Electrostatic Energy            =  +0.00 kcal/mol
DOCKED: USER        Moving Ligand-Fixed Receptor    =  -5.59 kcal/mol
DOCKED: USER        Moving Ligand-Moving Receptor   =  +0.00 kcal/mol
DOCKED: USER    (2) Final Total Internal Energy     =  -1.30 kcal/mol
DOCKED: USER    (3) Torsional Free Energy           =  +1.49 kcal/mol
DOCKED: USER    (4) Unbound System's Energy         =  -1.30 kcal/mol
DOCKED: USER
DOCKED: USER
DOCKED: REMARK  5 active torsions:
DOCKED: REMARK  status: ('A' for Active; 'I' for Inactive)
DOCKED: REMARK    1  A    between atoms: C_2  and  C_19 
DOCKED: REMARK    2  A    between atoms: C_2  and  C_11 
DOCKED: REMARK    3  A    between atoms: C_19  and  C_20 
DOCKED: REMARK    4  A    between atoms: C_20  and  C_21 
DOCKED: REMARK    5  A    between atoms: C_21  and  N_22 
DOCKED: USER                              x       y       z     vdW  Elec       q    Type
DOCKED: USER                           _______ _______ _______ _____ _____    ______ ____
DOCKED: ROOT
DOCKED: ATOM      1  O   UNL     1     -45.851 -20.943  -0.555 -0.09 -0.00    -0.346 OA 
DOCKED: ATOM      2  C   UNL     1     -45.828 -22.363  -0.908 -0.13 +0.00    +0.130 C  
DOCKED: ATOM      3  C   UNL     1     -46.924 -22.499  -1.925 -0.17 +0.00    +0.004 A  
DOCKED: ATOM      4  C   UNL     1     -47.453 -21.248  -2.211 -0.23 +0.00    +0.006 A  
DOCKED: ATOM      5  C   UNL     1     -46.747 -20.212  -1.425 -0.20 +0.00    +0.169 C  
DOCKED: ATOM      6  C   UNL     1     -47.406 -23.637  -2.555 -0.17 -0.00    -0.001 A  
DOCKED: ATOM      7  C   UNL     1     -48.479 -21.092  -3.127 -0.24 +0.00    +0.008 A  
DOCKED: ATOM      8  C   UNL     1     -48.444 -23.497  -3.478 -0.26 +0.00    +0.010 A  
DOCKED: ATOM      9  C   UNL     1     -48.977 -22.231  -3.763 -0.35 +0.00    +0.068 A  
DOCKED: ATOM     10  N   UNL     1     -50.899 -22.006  -5.485 -2.55 -0.00    -0.191 NA 
DOCKED: ATOM     11  C   UNL     1     -50.038 -22.107  -4.712 -0.42 +0.00    +0.101 C  
DOCKED: ENDROOT
DOCKED: BRANCH   2  12
DOCKED: ATOM     12  C   UNL     1     -44.451 -22.698  -1.471 -0.05 +0.00    +0.038 C  
DOCKED: BRANCH  12  13
DOCKED: ATOM     13  C   UNL     1     -43.530 -21.480  -1.452 -0.03 +0.00    +0.038 C  
DOCKED: BRANCH  13  14
DOCKED: ATOM     14  C   UNL     1     -43.666 -20.668  -2.738 -0.01 +0.00    +0.251 C  
DOCKED: BRANCH  14  15
DOCKED: ATOM     15  N   UNL     1     -44.046 -21.534  -3.847 -0.02 +0.00    +0.141 N  
DOCKED: ATOM     16  C   UNL     1     -45.036 -20.875  -4.701 -0.04 +0.00    +0.285 C  
DOCKED: ATOM     17  C   UNL     1     -42.870 -21.913  -4.632 +0.00 +0.00    +0.285 C  
DOCKED: ENDBRANCH  14  15
DOCKED: ENDBRANCH  13  14
DOCKED: ENDBRANCH  12  13
DOCKED: ENDBRANCH   2  12
DOCKED: BRANCH   2  18
DOCKED: ATOM     18  C   UNL     1     -46.098 -23.128   0.344 -0.12 +0.00    +0.006 A  
DOCKED: ATOM     19  C   UNL     1     -45.184 -23.087   1.396 -0.10 +0.00    +0.001 A  
DOCKED: ATOM     20  C   UNL     1     -45.438 -23.803   2.567 -0.08 +0.00    +0.029 A  
DOCKED: ATOM     21  C   UNL     1     -46.604 -24.558   2.684 -0.08 +0.00    +0.140 A  
DOCKED: ATOM     22  C   UNL     1     -47.518 -24.597   1.631 -0.14 +0.00    +0.029 A  
DOCKED: ATOM     23  F   UNL     1     -46.848 -25.243   3.808 -0.01 -0.00    -0.204 F  
DOCKED: ATOM     24  C   UNL     1     -47.265 -23.882   0.460 -0.12 +0.00    +0.001 A  
DOCKED: ENDBRANCH   2  18
DOCKED: TORSDOF 5
DOCKED: TER
DOCKED: ENDMDL
________________________________________________________________________________


    FINAL DOCKED STATE:
    ________________________


Run:   105 / 512
Time taken for this run:   0.001s

DOCKED: MODEL        105
DOCKED: USER    Run = 105
DOCKED: USER
DOCKED: USER    Estimated Free Energy of Binding    =  -3.86 kcal/mol  [=(1)+(2)+(3)-(4)]
DOCKED: USER
DOCKED: USER    (1) Final Intermolecular Energy     =  -5.36 kcal/mol
DOCKED: USER        vdW + Hbond + desolv Energy     =  -5.36 kcal/mol
DOCKED: USER        Electrostatic Energy            =  +0.00 kcal/mol
DOCKED: USER        Moving Ligand-Fixed Receptor    =  -5.36 kcal/mol
DOCKED: USER        Moving Ligand-Moving Receptor   =  +0.00 kcal/mol
DOCKED: USER    (2) Final Total Internal Energy     =  -1.35 kcal/mol
DOCKED: USER    (3) Torsional Free Energy           =  +1.49 kcal/mol
DOCKED: USER    (4) Unbound System's Energy         =  -1.35 kcal/mol
DOCKED: USER
DOCKED: USER
DOCKED: REMARK  5 active torsions:
DOCKED: REMARK  status: ('A' for Active; 'I' for Inactive)
DOCKED: REMARK    1  A    between atoms: C_2  and  C_19 
DOCKED: REMARK    2  A    between atoms: C_2  and  C_11 
DOCKED: REMARK    3  A    between atoms: C_19  and  C_20 
DOCKED: REMARK    4  A    between atoms: C_20  and  C_21 
DOCKED: REMARK    5  A    between atoms: C_21  and  N_22 
DOCKED: USER                              x       y       z     vdW  Elec       q    Type
DOCKED: USER                           _______ _______ _______ _____ _____    ______ ____
DOCKED: ROOT
DOCKED: ATOM      1  O   UNL     1     -45.598 -29.796   0.565 +0.01 -0.00    -0.346 OA 
DOCKED: ATOM      2  C   UNL     1     -44.896 -30.838  -0.186 -0.09 +0.00    +0.130 C  
DOCKED: ATOM      3  C   UNL     1     -45.072 -32.068   0.657 -0.14 +0.00    +0.004 A  
DOCKED: ATOM      4  C   UNL     1     -45.895 -31.781   1.737 -0.22 +0.00    +0.006 A  
DOCKED: ATOM      5  C   UNL     1     -46.324 -30.365   1.678 -0.15 +0.00    +0.169 C  
DOCKED: ATOM      6  C   UNL     1     -44.555 -33.343   0.476 -0.14 -0.00    -0.001 A  
DOCKED: ATOM      7  C   UNL     1     -46.224 -32.749   2.670 -0.29 +0.00    +0.008 A  
DOCKED: ATOM      8  C   UNL     1     -44.874 -34.329   1.411 -0.23 +0.00    +0.010 A  
DOCKED: ATOM      9  C   UNL     1     -45.705 -34.033   2.502 -0.31 +0.00    +0.068 A  
DOCKED: ATOM     10  N   UNL     1     -46.281 -35.888   4.216 -2.68 -0.00    -0.191 NA 
DOCKED: ATOM     11  C   UNL     1     -46.022 -35.056   3.448 -0.37 +0.00    +0.101 C  
DOCKED: ENDROOT
DOCKED: BRANCH   2  12
DOCKED: ATOM     12  C   UNL     1     -45.544 -30.962  -1.560 -0.06 +0.00    +0.038 C  
DOCKED: BRANCH  12  13
DOCKED: ATOM     13  C   UNL     1     -45.404 -29.670  -2.361 -0.14 +0.00    +0.038 C  
DOCKED: BRANCH  13  14
DOCKED: ATOM     14  C   UNL     1     -46.758 -28.988  -2.545 -0.19 +0.00    +0.251 C  
DOCKED: BRANCH  14  15
DOCKED: ATOM     15  N   UNL     1     -47.054 -28.129  -1.404 -0.15 +0.00    +0.141 N  
DOCKED: ATOM     16  C   UNL     1     -45.869 -27.364  -1.014 -0.02 +0.00    +0.285 C  
DOCKED: ATOM     17  C   UNL     1     -48.163 -27.225  -1.713 -0.15 +0.00    +0.285 C  
DOCKED: ENDBRANCH  14  15
DOCKED: ENDBRANCH  13  14
DOCKED: ENDBRANCH  12  13
DOCKED: ENDBRANCH   2  12
DOCKED: BRANCH   2  18
DOCKED: ATOM     18  C   UNL     1     -43.471 -30.410  -0.299 -0.03 +0.00    +0.006 A  
DOCKED: ATOM     19  C   UNL     1     -42.947 -29.487   0.605 -0.01 +0.00    +0.001 A  
DOCKED: ATOM     20  C   UNL     1     -41.614 -29.087   0.497 -0.00 +0.00    +0.029 A  
DOCKED: ATOM     21  C   UNL     1     -40.809 -29.611  -0.513 -0.00 +0.00    +0.140 A  
DOCKED: ATOM     22  C   UNL     1     -41.334 -30.534  -1.416 -0.00 +0.00    +0.029 A  
DOCKED: ATOM     23  F   UNL     1     -39.529 -29.229  -0.614 +0.00 -0.00    -0.204 F  
DOCKED: ATOM     24  C   UNL     1     -42.667 -30.935  -1.310 -0.01 +0.00    +0.001 A  
DOCKED: ENDBRANCH   2  18
DOCKED: TORSDOF 5
DOCKED: TER
DOCKED: ENDMDL
________________________________________________________________________________


    FINAL DOCKED STATE:
    ________________________


Run:   106 / 512
Time taken for this run:   0.001s

DOCKED: MODEL        106
DOCKED: USER    Run = 106
DOCKED: USER
DOCKED: USER    Estimated Free Energy of Binding    =  -4.00 kcal/mol  [=(1)+(2)+(3)-(4)]
DOCKED: USER
DOCKED: USER    (1) Final Intermolecular Energy     =  -5.49 kcal/mol
DOCKED: USER        vdW + Hbond + desolv Energy     =  -5.49 kcal/mol
DOCKED: USER        Electrostatic Energy            =  +0.00 kcal/mol
DOCKED: USER        Moving Ligand-Fixed Receptor    =  -5.49 kcal/mol
DOCKED: USER        Moving Ligand-Moving Receptor   =  +0.00 kcal/mol
DOCKED: USER    (2) Final Total Internal Energy     =  -1.27 kcal/mol
DOCKED: USER    (3) Torsional Free Energy           =  +1.49 kcal/mol
DOCKED: USER    (4) Unbound System's Energy         =  -1.27 kcal/mol
DOCKED: USER
DOCKED: USER
DOCKED: REMARK  5 active torsions:
DOCKED: REMARK  status: ('A' for Active; 'I' for Inactive)
DOCKED: REMARK    1  A    between atoms: C_2  and  C_19 
DOCKED: REMARK    2  A    between atoms: C_2  and  C_11 
DOCKED: REMARK    3  A    between atoms: C_19  and  C_20 
DOCKED: REMARK    4  A    between atoms: C_20  and  C_21 
DOCKED: REMARK    5  A    between atoms: C_21  and  N_22 
DOCKED: USER                              x       y       z     vdW  Elec       q    Type
DOCKED: USER                           _______ _______ _______ _____ _____    ______ ____
DOCKED: ROOT
DOCKED: ATOM      1  O   UNL     1     -53.125 -28.873   7.837 -0.04 -0.00    -0.346 OA 
DOCKED: ATOM      2  C   UNL     1     -51.799 -29.366   7.463 -0.14 +0.00    +0.130 C  
DOCKED: ATOM      3  C   UNL     1     -52.058 -30.761   6.973 -0.24 +0.00    +0.004 A  
DOCKED: ATOM      4  C   UNL     1     -53.424 -31.006   6.963 -0.23 +0.00    +0.006 A  
DOCKED: ATOM      5  C   UNL     1     -54.153 -29.805   7.427 -0.17 +0.00    +0.169 C  
DOCKED: ATOM      6  C   UNL     1     -51.158 -31.731   6.558 -0.19 -0.00    -0.001 A  
DOCKED: ATOM      7  C   UNL     1     -53.935 -32.223   6.546 -0.24 +0.00    +0.008 A  
DOCKED: ATOM      8  C   UNL     1     -51.657 -32.966   6.138 -0.33 +0.00    +0.010 A  
DOCKED: ATOM      9  C   UNL     1     -53.039 -33.210   6.132 -0.28 +0.00    +0.068 A  
DOCKED: ATOM     10  N   UNL     1     -53.932 -35.510   5.342 -2.48 -0.00    -0.191 NA 
DOCKED: ATOM     11  C   UNL     1     -53.532 -34.479   5.697 -0.34 +0.00    +0.101 C  
DOCKED: ENDROOT
DOCKED: BRANCH   2  12
DOCKED: ATOM     12  C   UNL     1     -51.233 -28.453   6.381 -0.14 +0.00    +0.038 C  
DOCKED: BRANCH  12  13
DOCKED: ATOM     13  C   UNL     1     -51.747 -27.023   6.535 -0.13 +0.00    +0.038 C  
DOCKED: BRANCH  13  14
DOCKED: ATOM     14  C   UNL     1     -53.067 -26.831   5.790 -0.11 +0.00    +0.251 C  
DOCKED: BRANCH  14  15
DOCKED: ATOM     15  N   UNL     1     -54.117 -26.421   6.715 -0.11 +0.00    +0.141 N  
DOCKED: ATOM     16  C   UNL     1     -53.613 -25.420   7.657 -0.02 +0.00    +0.285 C  
DOCKED: ATOM     17  C   UNL     1     -55.271 -25.895   5.985 -0.09 +0.00    +0.285 C  
DOCKED: ENDBRANCH  14  15
DOCKED: ENDBRANCH  13  14
DOCKED: ENDBRANCH  12  13
DOCKED: ENDBRANCH   2  12
DOCKED: BRANCH   2  18
DOCKED: ATOM     18  C   UNL     1     -50.956 -29.329   8.694 -0.06 +0.00    +0.006 A  
DOCKED: ATOM     19  C   UNL     1     -49.762 -30.048   8.742 -0.08 +0.00    +0.001 A  
DOCKED: ATOM     20  C   UNL     1     -48.975 -30.013   9.894 -0.04 +0.00    +0.029 A  
DOCKED: ATOM     21  C   UNL     1     -49.382 -29.259  10.994 -0.00 +0.00    +0.140 A  
DOCKED: ATOM     22  C   UNL     1     -50.576 -28.540  10.944 -0.00 +0.00    +0.029 A  
DOCKED: ATOM     23  F   UNL     1     -48.626 -29.224  12.099 +0.00 -0.00    -0.204 F  
DOCKED: ATOM     24  C   UNL     1     -51.365 -28.575   9.793 -0.02 +0.00    +0.001 A  
DOCKED: ENDBRANCH   2  18
DOCKED: TORSDOF 5
DOCKED: TER
DOCKED: ENDMDL
________________________________________________________________________________


    FINAL DOCKED STATE:
    ________________________


Run:   107 / 512
Time taken for this run:   0.001s

DOCKED: MODEL        107
DOCKED: USER    Run = 107
DOCKED: USER
DOCKED: USER    Estimated Free Energy of Binding    =  -4.71 kcal/mol  [=(1)+(2)+(3)-(4)]
DOCKED: USER
DOCKED: USER    (1) Final Intermolecular Energy     =  -6.20 kcal/mol
DOCKED: USER        vdW + Hbond + desolv Energy     =  -6.20 kcal/mol
DOCKED: USER        Electrostatic Energy            =  +0.00 kcal/mol
DOCKED: USER        Moving Ligand-Fixed Receptor    =  -6.20 kcal/mol
DOCKED: USER        Moving Ligand-Moving Receptor   =  +0.00 kcal/mol
DOCKED: USER    (2) Final Total Internal Energy     =  -1.21 kcal/mol
DOCKED: USER    (3) Torsional Free Energy           =  +1.49 kcal/mol
DOCKED: USER    (4) Unbound System's Energy         =  -1.21 kcal/mol
DOCKED: USER
DOCKED: USER
DOCKED: REMARK  5 active torsions:
DOCKED: REMARK  status: ('A' for Active; 'I' for Inactive)
DOCKED: REMARK    1  A    between atoms: C_2  and  C_19 
DOCKED: REMARK    2  A    between atoms: C_2  and  C_11 
DOCKED: REMARK    3  A    between atoms: C_19  and  C_20 
DOCKED: REMARK    4  A    between atoms: C_20  and  C_21 
DOCKED: REMARK    5  A    between atoms: C_21  and  N_22 
DOCKED: USER                              x       y       z     vdW  Elec       q    Type
DOCKED: USER                           _______ _______ _______ _____ _____    ______ ____
DOCKED: ROOT
DOCKED: ATOM      1  O   UNL     1     -50.230 -25.069   1.295 -0.11 -0.00    -0.346 OA 
DOCKED: ATOM      2  C   UNL     1     -48.916 -25.151   0.654 -0.19 +0.00    +0.130 C  
DOCKED: ATOM      3  C   UNL     1     -49.128 -24.508  -0.685 -0.27 +0.00    +0.004 A  
DOCKED: ATOM      4  C   UNL     1     -50.419 -24.003  -0.762 -0.14 +0.00    +0.006 A  
DOCKED: ATOM      5  C   UNL     1     -51.136 -24.262   0.507 -0.13 +0.00    +0.169 C  
DOCKED: ATOM      6  C   UNL     1     -48.246 -24.370  -1.747 -0.23 -0.00    -0.001 A  
DOCKED: ATOM      7  C   UNL     1     -50.872 -23.352  -1.897 -0.19 +0.00    +0.008 A  
DOCKED: ATOM      8  C   UNL     1     -48.689 -23.719  -2.900 -0.26 +0.00    +0.010 A  
DOCKED: ATOM      9  C   UNL     1     -49.996 -23.213  -2.974 -0.26 +0.00    +0.068 A  
DOCKED: ATOM     10  N   UNL     1     -50.784 -22.006  -5.126 -2.51 -0.00    -0.191 NA 
DOCKED: ATOM     11  C   UNL     1     -50.431 -22.548  -4.161 -0.31 +0.00    +0.101 C  
DOCKED: ENDROOT
DOCKED: BRANCH   2  12
DOCKED: ATOM     12  C   UNL     1     -47.910 -24.401   1.520 -0.17 +0.00    +0.038 C  
DOCKED: BRANCH  12  13
DOCKED: ATOM     13  C   UNL     1     -47.486 -25.233   2.729 -0.10 +0.00    +0.038 C  
DOCKED: BRANCH  13  14
DOCKED: ATOM     14  C   UNL     1     -48.596 -25.283   3.777 -0.06 +0.00    +0.251 C  
DOCKED: BRANCH  14  15
DOCKED: ATOM     15  N   UNL     1     -48.089 -25.840   5.026 -0.03 +0.00    +0.141 N  
DOCKED: ATOM     16  C   UNL     1     -48.576 -27.207   5.216 -0.06 +0.00    +0.285 C  
DOCKED: ATOM     17  C   UNL     1     -46.626 -25.815   5.045 -0.01 +0.00    +0.285 C  
DOCKED: ENDBRANCH  14  15
DOCKED: ENDBRANCH  13  14
DOCKED: ENDBRANCH  12  13
DOCKED: ENDBRANCH   2  12
DOCKED: BRANCH   2  18
DOCKED: ATOM     18  C   UNL     1     -48.568 -26.599   0.556 -0.16 +0.00    +0.006 A  
DOCKED: ATOM     19  C   UNL     1     -47.435 -26.996  -0.153 -0.11 +0.00    +0.001 A  
DOCKED: ATOM     20  C   UNL     1     -47.111 -28.351  -0.244 -0.15 +0.00    +0.029 A  
DOCKED: ATOM     21  C   UNL     1     -47.919 -29.304   0.373 -0.18 +0.00    +0.140 A  
DOCKED: ATOM     22  C   UNL     1     -49.052 -28.906   1.082 -0.24 +0.00    +0.029 A  
DOCKED: ATOM     23  F   UNL     1     -47.607 -30.604   0.287 -0.09 -0.00    -0.204 F  
DOCKED: ATOM     24  C   UNL     1     -49.377 -27.551   1.174 -0.22 +0.00    +0.001 A  
DOCKED: ENDBRANCH   2  18
DOCKED: TORSDOF 5
DOCKED: TER
DOCKED: ENDMDL
________________________________________________________________________________


    FINAL DOCKED STATE:
    ________________________


Run:   108 / 512
Time taken for this run:   0.001s

DOCKED: MODEL        108
DOCKED: USER    Run = 108
DOCKED: USER
DOCKED: USER    Estimated Free Energy of Binding    =  -3.97 kcal/mol  [=(1)+(2)+(3)-(4)]
DOCKED: USER
DOCKED: USER    (1) Final Intermolecular Energy     =  -5.46 kcal/mol
DOCKED: USER        vdW + Hbond + desolv Energy     =  -5.46 kcal/mol
DOCKED: USER        Electrostatic Energy            =  +0.00 kcal/mol
DOCKED: USER        Moving Ligand-Fixed Receptor    =  -5.46 kcal/mol
DOCKED: USER        Moving Ligand-Moving Receptor   =  +0.00 kcal/mol
DOCKED: USER    (2) Final Total Internal Energy     =  -1.33 kcal/mol
DOCKED: USER    (3) Torsional Free Energy           =  +1.49 kcal/mol
DOCKED: USER    (4) Unbound System's Energy         =  -1.33 kcal/mol
DOCKED: USER
DOCKED: USER
DOCKED: REMARK  5 active torsions:
DOCKED: REMARK  status: ('A' for Active; 'I' for Inactive)
DOCKED: REMARK    1  A    between atoms: C_2  and  C_19 
DOCKED: REMARK    2  A    between atoms: C_2  and  C_11 
DOCKED: REMARK    3  A    between atoms: C_19  and  C_20 
DOCKED: REMARK    4  A    between atoms: C_20  and  C_21 
DOCKED: REMARK    5  A    between atoms: C_21  and  N_22 
DOCKED: USER                              x       y       z     vdW  Elec       q    Type
DOCKED: USER                           _______ _______ _______ _____ _____    ______ ____
DOCKED: ROOT
DOCKED: ATOM      1  O   UNL     1     -49.154 -30.962   8.632 -0.06 -0.00    -0.346 OA 
DOCKED: ATOM      2  C   UNL     1     -50.345 -30.170   8.323 -0.10 +0.00    +0.130 C  
DOCKED: ATOM      3  C   UNL     1     -51.250 -31.142   7.621 -0.19 +0.00    +0.004 A  
DOCKED: ATOM      4  C   UNL     1     -50.673 -32.404   7.626 -0.25 +0.00    +0.006 A  
DOCKED: ATOM      5  C   UNL     1     -49.373 -32.360   8.333 -0.17 +0.00    +0.169 C  
DOCKED: ATOM      6  C   UNL     1     -52.488 -30.928   7.034 -0.24 -0.00    -0.001 A  
DOCKED: ATOM      7  C   UNL     1     -51.308 -33.489   7.046 -0.34 +0.00    +0.008 A  
DOCKED: ATOM      8  C   UNL     1     -53.140 -32.010   6.441 -0.28 +0.00    +0.010 A  
DOCKED: ATOM      9  C   UNL     1     -52.552 -33.285   6.448 -0.29 +0.00    +0.068 A  
DOCKED: ATOM     10  N   UNL     1     -53.791 -35.274   5.342 -2.55 -0.00    -0.191 NA 
DOCKED: ATOM     11  C   UNL     1     -53.235 -34.382   5.837 -0.35 +0.00    +0.101 C  
DOCKED: ENDROOT
DOCKED: BRANCH   2  12
DOCKED: ATOM     12  C   UNL     1     -50.932 -29.651   9.630 -0.04 +0.00    +0.038 C  
DOCKED: BRANCH  12  13
DOCKED: ATOM     13  C   UNL     1     -51.311 -30.798  10.565 -0.04 +0.00    +0.038 C  
DOCKED: BRANCH  13  14
DOCKED: ATOM     14  C   UNL     1     -50.607 -30.662  11.913 -0.01 +0.00    +0.251 C  
DOCKED: BRANCH  14  15
DOCKED: ATOM     15  N   UNL     1     -49.200 -30.331  11.720 -0.01 +0.00    +0.141 N  
DOCKED: ATOM     16  C   UNL     1     -48.689 -29.569  12.861 -0.00 +0.00    +0.285 C  
DOCKED: ATOM     17  C   UNL     1     -48.407 -31.545  11.523 -0.02 +0.00    +0.285 C  
DOCKED: ENDBRANCH  14  15
DOCKED: ENDBRANCH  13  14
DOCKED: ENDBRANCH  12  13
DOCKED: ENDBRANCH   2  12
DOCKED: BRANCH   2  18
DOCKED: ATOM     18  C   UNL     1     -49.906 -29.046   7.445 -0.12 +0.00    +0.006 A  
DOCKED: ATOM     19  C   UNL     1     -49.723 -27.773   7.983 -0.05 +0.00    +0.001 A  
DOCKED: ATOM     20  C   UNL     1     -49.313 -26.722   7.162 -0.03 +0.00    +0.029 A  
DOCKED: ATOM     21  C   UNL     1     -49.087 -26.946   5.804 -0.06 +0.00    +0.140 A  
DOCKED: ATOM     22  C   UNL     1     -49.270 -28.219   5.267 -0.14 +0.00    +0.029 A  
DOCKED: ATOM     23  F   UNL     1     -48.692 -25.938   5.016 -0.00 -0.00    -0.204 F  
DOCKED: ATOM     24  C   UNL     1     -49.681 -29.271   6.088 -0.12 +0.00    +0.001 A  
DOCKED: ENDBRANCH   2  18
DOCKED: TORSDOF 5
DOCKED: TER
DOCKED: ENDMDL
________________________________________________________________________________


    FINAL DOCKED STATE:
    ________________________


Run:   109 / 512
Time taken for this run:   0.001s

DOCKED: MODEL        109
DOCKED: USER    Run = 109
DOCKED: USER
DOCKED: USER    Estimated Free Energy of Binding    =  -4.30 kcal/mol  [=(1)+(2)+(3)-(4)]
DOCKED: USER
DOCKED: USER    (1) Final Intermolecular Energy     =  -5.79 kcal/mol
DOCKED: USER        vdW + Hbond + desolv Energy     =  -5.79 kcal/mol
DOCKED: USER        Electrostatic Energy            =  +0.00 kcal/mol
DOCKED: USER        Moving Ligand-Fixed Receptor    =  -5.79 kcal/mol
DOCKED: USER        Moving Ligand-Moving Receptor   =  +0.00 kcal/mol
DOCKED: USER    (2) Final Total Internal Energy     =  -1.08 kcal/mol
DOCKED: USER    (3) Torsional Free Energy           =  +1.49 kcal/mol
DOCKED: USER    (4) Unbound System's Energy         =  -1.08 kcal/mol
DOCKED: USER
DOCKED: USER
DOCKED: REMARK  5 active torsions:
DOCKED: REMARK  status: ('A' for Active; 'I' for Inactive)
DOCKED: REMARK    1  A    between atoms: C_2  and  C_19 
DOCKED: REMARK    2  A    between atoms: C_2  and  C_11 
DOCKED: REMARK    3  A    between atoms: C_19  and  C_20 
DOCKED: REMARK    4  A    between atoms: C_20  and  C_21 
DOCKED: REMARK    5  A    between atoms: C_21  and  N_22 
DOCKED: USER                              x       y       z     vdW  Elec       q    Type
DOCKED: USER                           _______ _______ _______ _____ _____    ______ ____
DOCKED: ROOT
DOCKED: ATOM      1  O   UNL     1     -49.853 -30.689   9.043 -0.03 -0.00    -0.346 OA 
DOCKED: ATOM      2  C   UNL     1     -50.937 -29.988   8.352 -0.09 +0.00    +0.130 C  
DOCKED: ATOM      3  C   UNL     1     -51.601 -31.063   7.542 -0.20 +0.00    +0.004 A  
DOCKED: ATOM      4  C   UNL     1     -51.021 -32.290   7.829 -0.23 +0.00    +0.006 A  
DOCKED: ATOM      5  C   UNL     1     -49.956 -32.118   8.842 -0.15 +0.00    +0.169 C  
DOCKED: ATOM      6  C   UNL     1     -52.644 -30.964   6.632 -0.26 -0.00    -0.001 A  
DOCKED: ATOM      7  C   UNL     1     -51.456 -33.454   7.217 -0.33 +0.00    +0.008 A  
DOCKED: ATOM      8  C   UNL     1     -53.091 -32.128   6.004 -0.31 +0.00    +0.010 A  
DOCKED: ATOM      9  C   UNL     1     -52.500 -33.366   6.296 -0.30 +0.00    +0.068 A  
DOCKED: ATOM     10  N   UNL     1     -53.358 -35.508   5.116 -2.44 -0.00    -0.191 NA 
DOCKED: ATOM     11  C   UNL     1     -52.973 -34.547   5.645 -0.32 +0.00    +0.101 C  
DOCKED: ENDROOT
DOCKED: BRANCH   2  12
DOCKED: ATOM     12  C   UNL     1     -51.861 -29.377   9.399 -0.04 +0.00    +0.038 C  
DOCKED: BRANCH  12  13
DOCKED: ATOM     13  C   UNL     1     -52.636 -28.190   8.831 -0.05 +0.00    +0.038 C  
DOCKED: BRANCH  13  14
DOCKED: ATOM     14  C   UNL     1     -54.082 -28.575   8.522 -0.04 +0.00    +0.251 C  
DOCKED: BRANCH  14  15
DOCKED: ATOM     15  N   UNL     1     -54.286 -28.663   7.081 -0.18 +0.00    +0.141 N  
DOCKED: ATOM     16  C   UNL     1     -55.661 -29.063   6.778 -0.13 +0.00    +0.285 C  
DOCKED: ATOM     17  C   UNL     1     -53.977 -27.384   6.438 -0.15 +0.00    +0.285 C  
DOCKED: ENDBRANCH  14  15
DOCKED: ENDBRANCH  13  14
DOCKED: ENDBRANCH  12  13
DOCKED: ENDBRANCH   2  12
DOCKED: BRANCH   2  18
DOCKED: ATOM     18  C   UNL     1     -50.304 -28.931   7.509 -0.12 +0.00    +0.006 A  
DOCKED: ATOM     19  C   UNL     1     -50.165 -29.127   6.135 -0.17 +0.00    +0.001 A  
DOCKED: ATOM     20  C   UNL     1     -49.573 -28.138   5.348 -0.11 +0.00    +0.029 A  
DOCKED: ATOM     21  C   UNL     1     -49.123 -26.956   5.935 -0.06 +0.00    +0.140 A  
DOCKED: ATOM     22  C   UNL     1     -49.262 -26.762   7.309 -0.03 +0.00    +0.029 A  
DOCKED: ATOM     23  F   UNL     1     -48.556 -26.007   5.179 -0.00 -0.00    -0.204 F  
DOCKED: ATOM     24  C   UNL     1     -49.854 -27.750   8.097 -0.04 +0.00    +0.001 A  
DOCKED: ENDBRANCH   2  18
DOCKED: TORSDOF 5
DOCKED: TER
DOCKED: ENDMDL
________________________________________________________________________________


    FINAL DOCKED STATE:
    ________________________


Run:   110 / 512
Time taken for this run:   0.001s

DOCKED: MODEL        110
DOCKED: USER    Run = 110
DOCKED: USER
DOCKED: USER    Estimated Free Energy of Binding    =  -3.77 kcal/mol  [=(1)+(2)+(3)-(4)]
DOCKED: USER
DOCKED: USER    (1) Final Intermolecular Energy     =  -5.26 kcal/mol
DOCKED: USER        vdW + Hbond + desolv Energy     =  -5.26 kcal/mol
DOCKED: USER        Electrostatic Energy            =  +0.00 kcal/mol
DOCKED: USER        Moving Ligand-Fixed Receptor    =  -5.26 kcal/mol
DOCKED: USER        Moving Ligand-Moving Receptor   =  +0.00 kcal/mol
DOCKED: USER    (2) Final Total Internal Energy     =  -1.45 kcal/mol
DOCKED: USER    (3) Torsional Free Energy           =  +1.49 kcal/mol
DOCKED: USER    (4) Unbound System's Energy         =  -1.45 kcal/mol
DOCKED: USER
DOCKED: USER
DOCKED: REMARK  5 active torsions:
DOCKED: REMARK  status: ('A' for Active; 'I' for Inactive)
DOCKED: REMARK    1  A    between atoms: C_2  and  C_19 
DOCKED: REMARK    2  A    between atoms: C_2  and  C_11 
DOCKED: REMARK    3  A    between atoms: C_19  and  C_20 
DOCKED: REMARK    4  A    between atoms: C_20  and  C_21 
DOCKED: REMARK    5  A    between atoms: C_21  and  N_22 
DOCKED: USER                              x       y       z     vdW  Elec       q    Type
DOCKED: USER                           _______ _______ _______ _____ _____    ______ ____
DOCKED: ROOT
DOCKED: ATOM      1  O   UNL     1     -44.506 -20.505  -6.125 -0.03 -0.00    -0.346 OA 
DOCKED: ATOM      2  C   UNL     1     -44.638 -20.645  -4.674 -0.08 +0.00    +0.130 C  
DOCKED: ATOM      3  C   UNL     1     -46.079 -21.018  -4.479 -0.16 +0.00    +0.004 A  
DOCKED: ATOM      4  C   UNL     1     -46.690 -21.184  -5.713 -0.19 +0.00    +0.006 A  
DOCKED: ATOM      5  C   UNL     1     -45.708 -20.950  -6.796 -0.10 +0.00    +0.169 C  
DOCKED: ATOM      6  C   UNL     1     -46.790 -21.205  -3.302 -0.18 -0.00    -0.001 A  
DOCKED: ATOM      7  C   UNL     1     -48.025 -21.537  -5.815 -0.27 +0.00    +0.008 A  
DOCKED: ATOM      8  C   UNL     1     -48.138 -21.557  -3.388 -0.31 +0.00    +0.010 A  
DOCKED: ATOM      9  C   UNL     1     -48.752 -21.723  -4.638 -0.35 +0.00    +0.068 A  
DOCKED: ATOM     10  N   UNL     1     -51.255 -22.382  -4.762 -2.49 -0.00    -0.191 NA 
DOCKED: ATOM     11  C   UNL     1     -50.132 -22.085  -4.706 -0.38 +0.00    +0.101 C  
DOCKED: ENDROOT
DOCKED: BRANCH   2  12
DOCKED: ATOM     12  C   UNL     1     -43.676 -21.730  -4.205 -0.03 +0.00    +0.038 C  
DOCKED: BRANCH  12  13
DOCKED: ATOM     13  C   UNL     1     -43.897 -23.037  -4.965 -0.02 +0.00    +0.038 C  
DOCKED: BRANCH  13  14
DOCKED: ATOM     14  C   UNL     1     -44.666 -24.045  -4.112 -0.00 +0.00    +0.251 C  
DOCKED: BRANCH  14  15
DOCKED: ATOM     15  N   UNL     1     -46.039 -24.168  -4.587 -0.06 +0.00    +0.141 N  
DOCKED: ATOM     16  C   UNL     1     -46.064 -24.542  -6.002 -0.07 +0.00    +0.285 C  
DOCKED: ATOM     17  C   UNL     1     -46.774 -25.151  -3.789 -0.09 +0.00    +0.285 C  
DOCKED: ENDBRANCH  14  15
DOCKED: ENDBRANCH  13  14
DOCKED: ENDBRANCH  12  13
DOCKED: ENDBRANCH   2  12
DOCKED: BRANCH   2  18
DOCKED: ATOM     18  C   UNL     1     -44.292 -19.323  -4.075 -0.09 +0.00    +0.006 A  
DOCKED: ATOM     19  C   UNL     1     -42.956 -18.954  -3.926 -0.04 +0.00    +0.001 A  
DOCKED: ATOM     20  C   UNL     1     -42.634 -17.717  -3.365 -0.02 +0.00    +0.029 A  
DOCKED: ATOM     21  C   UNL     1     -43.648 -16.853  -2.954 -0.02 +0.00    +0.140 A  
DOCKED: ATOM     22  C   UNL     1     -44.984 -17.223  -3.104 -0.13 +0.00    +0.029 A  
DOCKED: ATOM     23  F   UNL     1     -43.339 -15.665  -2.417 +0.01 -0.00    -0.204 F  
DOCKED: ATOM     24  C   UNL     1     -45.307 -18.460  -3.665 -0.14 +0.00    +0.001 A  
DOCKED: ENDBRANCH   2  18
DOCKED: TORSDOF 5
DOCKED: TER
DOCKED: ENDMDL
________________________________________________________________________________


    FINAL DOCKED STATE:
    ________________________


Run:   111 / 512
Time taken for this run:   0.001s

DOCKED: MODEL        111
DOCKED: USER    Run = 111
DOCKED: USER
DOCKED: USER    Estimated Free Energy of Binding    =  -4.27 kcal/mol  [=(1)+(2)+(3)-(4)]
DOCKED: USER
DOCKED: USER    (1) Final Intermolecular Energy     =  -5.77 kcal/mol
DOCKED: USER        vdW + Hbond + desolv Energy     =  -5.77 kcal/mol
DOCKED: USER        Electrostatic Energy            =  +0.00 kcal/mol
DOCKED: USER        Moving Ligand-Fixed Receptor    =  -5.77 kcal/mol
DOCKED: USER        Moving Ligand-Moving Receptor   =  +0.00 kcal/mol
DOCKED: USER    (2) Final Total Internal Energy     =  -1.50 kcal/mol
DOCKED: USER    (3) Torsional Free Energy           =  +1.49 kcal/mol
DOCKED: USER    (4) Unbound System's Energy         =  -1.50 kcal/mol
DOCKED: USER
DOCKED: USER
DOCKED: REMARK  5 active torsions:
DOCKED: REMARK  status: ('A' for Active; 'I' for Inactive)
DOCKED: REMARK    1  A    between atoms: C_2  and  C_19 
DOCKED: REMARK    2  A    between atoms: C_2  and  C_11 
DOCKED: REMARK    3  A    between atoms: C_19  and  C_20 
DOCKED: REMARK    4  A    between atoms: C_20  and  C_21 
DOCKED: REMARK    5  A    between atoms: C_21  and  N_22 
DOCKED: USER                              x       y       z     vdW  Elec       q    Type
DOCKED: USER                           _______ _______ _______ _____ _____    ______ ____
DOCKED: ROOT
DOCKED: ATOM      1  O   UNL     1     -51.413 -28.837   6.875 -0.07 -0.00    -0.346 OA 
DOCKED: ATOM      2  C   UNL     1     -52.532 -29.173   7.757 -0.12 +0.00    +0.130 C  
DOCKED: ATOM      3  C   UNL     1     -52.900 -30.571   7.354 -0.19 +0.00    +0.004 A  
DOCKED: ATOM      4  C   UNL     1     -52.001 -31.035   6.404 -0.28 +0.00    +0.006 A  
DOCKED: ATOM      5  C   UNL     1     -50.984 -29.997   6.126 -0.11 +0.00    +0.169 C  
DOCKED: ATOM      6  C   UNL     1     -53.940 -31.373   7.801 -0.15 -0.00    -0.001 A  
DOCKED: ATOM      7  C   UNL     1     -52.112 -32.307   5.868 -0.33 +0.00    +0.008 A  
DOCKED: ATOM      8  C   UNL     1     -54.068 -32.657   7.267 -0.19 +0.00    +0.010 A  
DOCKED: ATOM      9  C   UNL     1     -53.157 -33.121   6.305 -0.26 +0.00    +0.068 A  
DOCKED: ATOM     10  N   UNL     1     -53.420 -35.510   5.337 -2.61 -0.00    -0.191 NA 
DOCKED: ATOM     11  C   UNL     1     -53.303 -34.438   5.771 -0.34 +0.00    +0.101 C  
DOCKED: ENDROOT
DOCKED: BRANCH   2  12
DOCKED: ATOM     12  C   UNL     1     -52.055 -29.077   9.201 -0.04 +0.00    +0.038 C  
DOCKED: BRANCH  12  13
DOCKED: ATOM     13  C   UNL     1     -50.552 -29.332   9.309 -0.04 +0.00    +0.038 C  
DOCKED: BRANCH  13  14
DOCKED: ATOM     14  C   UNL     1     -50.266 -30.594  10.120 -0.02 +0.00    +0.251 C  
DOCKED: BRANCH  14  15
DOCKED: ATOM     15  N   UNL     1     -50.741 -31.774   9.408 -0.07 +0.00    +0.141 N  
DOCKED: ATOM     16  C   UNL     1     -49.634 -32.445   8.724 -0.12 +0.00    +0.285 C  
DOCKED: ATOM     17  C   UNL     1     -51.405 -32.699  10.327 -0.06 +0.00    +0.285 C  
DOCKED: ENDBRANCH  14  15
DOCKED: ENDBRANCH  13  14
DOCKED: ENDBRANCH  12  13
DOCKED: ENDBRANCH   2  12
DOCKED: BRANCH   2  18
DOCKED: ATOM     18  C   UNL     1     -53.616 -28.184   7.482 -0.15 +0.00    +0.006 A  
DOCKED: ATOM     19  C   UNL     1     -54.680 -28.052   8.373 -0.08 +0.00    +0.001 A  
DOCKED: ATOM     20  C   UNL     1     -55.693 -27.128   8.114 -0.07 +0.00    +0.029 A  
DOCKED: ATOM     21  C   UNL     1     -55.641 -26.338   6.967 -0.09 +0.00    +0.140 A  
DOCKED: ATOM     22  C   UNL     1     -54.576 -26.471   6.076 -0.18 +0.00    +0.029 A  
DOCKED: ATOM     23  F   UNL     1     -56.612 -25.449   6.720 +0.00 -0.00    -0.204 F  
DOCKED: ATOM     24  C   UNL     1     -53.562 -27.395   6.334 -0.19 +0.00    +0.001 A  
DOCKED: ENDBRANCH   2  18
DOCKED: TORSDOF 5
DOCKED: TER
DOCKED: ENDMDL
________________________________________________________________________________


    FINAL DOCKED STATE:
    ________________________


Run:   112 / 512
Time taken for this run:   0.001s

DOCKED: MODEL        112
DOCKED: USER    Run = 112
DOCKED: USER
DOCKED: USER    Estimated Free Energy of Binding    =  -5.51 kcal/mol  [=(1)+(2)+(3)-(4)]
DOCKED: USER
DOCKED: USER    (1) Final Intermolecular Energy     =  -7.00 kcal/mol
DOCKED: USER        vdW + Hbond + desolv Energy     =  -7.00 kcal/mol
DOCKED: USER        Electrostatic Energy            =  +0.00 kcal/mol
DOCKED: USER        Moving Ligand-Fixed Receptor    =  -7.00 kcal/mol
DOCKED: USER        Moving Ligand-Moving Receptor   =  +0.00 kcal/mol
DOCKED: USER    (2) Final Total Internal Energy     =  -1.28 kcal/mol
DOCKED: USER    (3) Torsional Free Energy           =  +1.49 kcal/mol
DOCKED: USER    (4) Unbound System's Energy         =  -1.28 kcal/mol
DOCKED: USER
DOCKED: USER
DOCKED: REMARK  5 active torsions:
DOCKED: REMARK  status: ('A' for Active; 'I' for Inactive)
DOCKED: REMARK    1  A    between atoms: C_2  and  C_19 
DOCKED: REMARK    2  A    between atoms: C_2  and  C_11 
DOCKED: REMARK    3  A    between atoms: C_19  and  C_20 
DOCKED: REMARK    4  A    between atoms: C_20  and  C_21 
DOCKED: REMARK    5  A    between atoms: C_21  and  N_22 
DOCKED: USER                              x       y       z     vdW  Elec       q    Type
DOCKED: USER                           _______ _______ _______ _____ _____    ______ ____
DOCKED: ROOT
DOCKED: ATOM      1  O   UNL     1     -51.771 -31.366   7.390 -0.08 -0.00    -0.346 OA 
DOCKED: ATOM      2  C   UNL     1     -52.361 -32.672   7.686 -0.18 +0.00    +0.130 C  
DOCKED: ATOM      3  C   UNL     1     -52.828 -33.168   6.348 -0.32 +0.00    +0.004 A  
DOCKED: ATOM      4  C   UNL     1     -52.441 -32.276   5.358 -0.34 +0.00    +0.006 A  
DOCKED: ATOM      5  C   UNL     1     -51.691 -31.151   5.961 -0.14 +0.00    +0.169 C  
DOCKED: ATOM      6  C   UNL     1     -53.529 -34.322   6.031 -0.33 -0.00    -0.001 A  
DOCKED: ATOM      7  C   UNL     1     -52.742 -32.502   4.026 -0.13 +0.00    +0.008 A  
DOCKED: ATOM      8  C   UNL     1     -53.845 -34.562   4.693 -0.44 +0.00    +0.010 A  
DOCKED: ATOM      9  C   UNL     1     -53.453 -33.656   3.695 -0.43 +0.00    +0.068 A  
DOCKED: ATOM     10  N   UNL     1     -54.051 -34.135   1.220 -3.14 -0.00    -0.191 NA 
DOCKED: ATOM     11  C   UNL     1     -53.783 -33.920   2.330 -0.29 +0.00    +0.101 C  
DOCKED: ENDROOT
DOCKED: BRANCH   2  12
DOCKED: ATOM     12  C   UNL     1     -51.286 -33.558   8.305 -0.29 +0.00    +0.038 C  
DOCKED: BRANCH  12  13
DOCKED: ATOM     13  C   UNL     1     -50.362 -32.755   9.219 -0.18 +0.00    +0.038 C  
DOCKED: BRANCH  13  14
DOCKED: ATOM     14  C   UNL     1     -48.919 -32.805   8.721 -0.01 +0.00    +0.251 C  
DOCKED: BRANCH  14  15
DOCKED: ATOM     15  N   UNL     1     -48.539 -31.523   8.139 -0.12 +0.00    +0.141 N  
DOCKED: ATOM     16  C   UNL     1     -49.011 -30.417   8.973 -0.06 +0.00    +0.285 C  
DOCKED: ATOM     17  C   UNL     1     -47.087 -31.445   7.967 -0.07 +0.00    +0.285 C  
DOCKED: ENDBRANCH  14  15
DOCKED: ENDBRANCH  13  14
DOCKED: ENDBRANCH  12  13
DOCKED: ENDBRANCH   2  12
DOCKED: BRANCH   2  18
DOCKED: ATOM     18  C   UNL     1     -53.482 -32.437   8.643 -0.11 +0.00    +0.006 A  
DOCKED: ATOM     19  C   UNL     1     -54.025 -33.506   9.356 -0.14 +0.00    +0.001 A  
DOCKED: ATOM     20  C   UNL     1     -55.074 -33.285  10.249 -0.08 +0.00    +0.029 A  
DOCKED: ATOM     21  C   UNL     1     -55.577 -31.997  10.430 -0.01 +0.00    +0.140 A  
DOCKED: ATOM     22  C   UNL     1     -55.033 -30.929   9.717 -0.04 +0.00    +0.029 A  
DOCKED: ATOM     23  F   UNL     1     -56.582 -31.785  11.289 +0.01 -0.00    -0.204 F  
DOCKED: ATOM     24  C   UNL     1     -53.985 -31.149   8.822 -0.07 +0.00    +0.001 A  
DOCKED: ENDBRANCH   2  18
DOCKED: TORSDOF 5
DOCKED: TER
DOCKED: ENDMDL
________________________________________________________________________________


    FINAL DOCKED STATE:
    ________________________


Run:   113 / 512
Time taken for this run:   0.001s

DOCKED: MODEL        113
DOCKED: USER    Run = 113
DOCKED: USER
DOCKED: USER    Estimated Free Energy of Binding    =  -5.55 kcal/mol  [=(1)+(2)+(3)-(4)]
DOCKED: USER
DOCKED: USER    (1) Final Intermolecular Energy     =  -7.04 kcal/mol
DOCKED: USER        vdW + Hbond + desolv Energy     =  -7.04 kcal/mol
DOCKED: USER        Electrostatic Energy            =  +0.00 kcal/mol
DOCKED: USER        Moving Ligand-Fixed Receptor    =  -7.04 kcal/mol
DOCKED: USER        Moving Ligand-Moving Receptor   =  +0.00 kcal/mol
DOCKED: USER    (2) Final Total Internal Energy     =  -1.04 kcal/mol
DOCKED: USER    (3) Torsional Free Energy           =  +1.49 kcal/mol
DOCKED: USER    (4) Unbound System's Energy         =  -1.04 kcal/mol
DOCKED: USER
DOCKED: USER
DOCKED: REMARK  5 active torsions:
DOCKED: REMARK  status: ('A' for Active; 'I' for Inactive)
DOCKED: REMARK    1  A    between atoms: C_2  and  C_19 
DOCKED: REMARK    2  A    between atoms: C_2  and  C_11 
DOCKED: REMARK    3  A    between atoms: C_19  and  C_20 
DOCKED: REMARK    4  A    between atoms: C_20  and  C_21 
DOCKED: REMARK    5  A    between atoms: C_21  and  N_22 
DOCKED: USER                              x       y       z     vdW  Elec       q    Type
DOCKED: USER                           _______ _______ _______ _____ _____    ______ ____
DOCKED: ROOT
DOCKED: ATOM      1  O   UNL     1     -51.992 -31.374   8.068 -0.03 -0.00    -0.346 OA 
DOCKED: ATOM      2  C   UNL     1     -51.952 -32.837   8.088 -0.18 +0.00    +0.130 C  
DOCKED: ATOM      3  C   UNL     1     -52.358 -33.226   6.696 -0.32 +0.00    +0.004 A  
DOCKED: ATOM      4  C   UNL     1     -52.510 -32.087   5.918 -0.34 +0.00    +0.006 A  
DOCKED: ATOM      5  C   UNL     1     -52.207 -30.884   6.724 -0.23 +0.00    +0.169 C  
DOCKED: ATOM      6  C   UNL     1     -52.566 -34.488   6.158 -0.07 -0.00    -0.001 A  
DOCKED: ATOM      7  C   UNL     1     -52.876 -32.169   4.585 +0.20 +0.00    +0.008 A  
DOCKED: ATOM      8  C   UNL     1     -52.940 -34.587   4.817 -0.50 +0.00    +0.010 A  
DOCKED: ATOM      9  C   UNL     1     -53.094 -33.432   4.035 -0.42 +0.00    +0.068 A  
DOCKED: ATOM     10  N   UNL     1     -53.785 -33.651   1.547 -3.17 -0.00    -0.191 NA 
DOCKED: ATOM     11  C   UNL     1     -53.476 -33.553   2.663 -0.40 +0.00    +0.101 C  
DOCKED: ENDROOT
DOCKED: BRANCH   2  12
DOCKED: ATOM     12  C   UNL     1     -50.535 -33.276   8.437 -0.23 +0.00    +0.038 C  
DOCKED: BRANCH  12  13
DOCKED: ATOM     13  C   UNL     1     -49.594 -32.079   8.554 -0.21 +0.00    +0.038 C  
DOCKED: BRANCH  13  14
DOCKED: ATOM     14  C   UNL     1     -48.135 -32.511   8.420 -0.11 +0.00    +0.251 C  
DOCKED: BRANCH  14  15
DOCKED: ATOM     15  N   UNL     1     -47.256 -31.348   8.449 -0.11 +0.00    +0.141 N  
DOCKED: ATOM     16  C   UNL     1     -46.149 -31.513   7.506 -0.07 +0.00    +0.285 C  
DOCKED: ATOM     17  C   UNL     1     -48.005 -30.128   8.143 -0.07 +0.00    +0.285 C  
DOCKED: ENDBRANCH  14  15
DOCKED: ENDBRANCH  13  14
DOCKED: ENDBRANCH  12  13
DOCKED: ENDBRANCH   2  12
DOCKED: BRANCH   2  18
DOCKED: ATOM     18  C   UNL     1     -52.926 -33.287   9.125 -0.15 +0.00    +0.006 A  
DOCKED: ATOM     19  C   UNL     1     -52.466 -33.768  10.350 -0.17 +0.00    +0.001 A  
DOCKED: ATOM     20  C   UNL     1     -53.377 -34.188  11.320 -0.14 +0.00    +0.029 A  
DOCKED: ATOM     21  C   UNL     1     -54.746 -34.127  11.063 -0.08 +0.00    +0.140 A  
DOCKED: ATOM     22  C   UNL     1     -55.205 -33.645   9.837 -0.11 +0.00    +0.029 A  
DOCKED: ATOM     23  F   UNL     1     -55.621 -34.528  11.994 -0.01 -0.00    -0.204 F  
DOCKED: ATOM     24  C   UNL     1     -54.294 -33.224   8.867 -0.13 +0.00    +0.001 A  
DOCKED: ENDBRANCH   2  18
DOCKED: TORSDOF 5
DOCKED: TER
DOCKED: ENDMDL
________________________________________________________________________________


    FINAL DOCKED STATE:
    ________________________


Run:   114 / 512
Time taken for this run:   0.001s

DOCKED: MODEL        114
DOCKED: USER    Run = 114
DOCKED: USER
DOCKED: USER    Estimated Free Energy of Binding    =  -3.91 kcal/mol  [=(1)+(2)+(3)-(4)]
DOCKED: USER
DOCKED: USER    (1) Final Intermolecular Energy     =  -5.40 kcal/mol
DOCKED: USER        vdW + Hbond + desolv Energy     =  -5.40 kcal/mol
DOCKED: USER        Electrostatic Energy            =  +0.00 kcal/mol
DOCKED: USER        Moving Ligand-Fixed Receptor    =  -5.40 kcal/mol
DOCKED: USER        Moving Ligand-Moving Receptor   =  +0.00 kcal/mol
DOCKED: USER    (2) Final Total Internal Energy     =  -1.24 kcal/mol
DOCKED: USER    (3) Torsional Free Energy           =  +1.49 kcal/mol
DOCKED: USER    (4) Unbound System's Energy         =  -1.24 kcal/mol
DOCKED: USER
DOCKED: USER
DOCKED: REMARK  5 active torsions:
DOCKED: REMARK  status: ('A' for Active; 'I' for Inactive)
DOCKED: REMARK    1  A    between atoms: C_2  and  C_19 
DOCKED: REMARK    2  A    between atoms: C_2  and  C_11 
DOCKED: REMARK    3  A    between atoms: C_19  and  C_20 
DOCKED: REMARK    4  A    between atoms: C_20  and  C_21 
DOCKED: REMARK    5  A    between atoms: C_21  and  N_22 
DOCKED: USER                              x       y       z     vdW  Elec       q    Type
DOCKED: USER                           _______ _______ _______ _____ _____    ______ ____
DOCKED: ROOT
DOCKED: ATOM      1  O   UNL     1     -53.905 -28.825   7.899 -0.04 -0.00    -0.346 OA 
DOCKED: ATOM      2  C   UNL     1     -52.532 -29.092   7.468 -0.15 +0.00    +0.130 C  
DOCKED: ATOM      3  C   UNL     1     -52.582 -30.506   6.965 -0.23 +0.00    +0.004 A  
DOCKED: ATOM      4  C   UNL     1     -53.890 -30.969   7.000 -0.22 +0.00    +0.006 A  
DOCKED: ATOM      5  C   UNL     1     -54.785 -29.906   7.510 -0.16 +0.00    +0.169 C  
DOCKED: ATOM      6  C   UNL     1     -51.554 -31.314   6.501 -0.28 -0.00    -0.001 A  
DOCKED: ATOM      7  C   UNL     1     -54.213 -32.248   6.581 -0.24 +0.00    +0.008 A  
DOCKED: ATOM      8  C   UNL     1     -51.863 -32.608   6.079 -0.33 +0.00    +0.010 A  
DOCKED: ATOM      9  C   UNL     1     -53.187 -33.072   6.119 -0.28 +0.00    +0.068 A  
DOCKED: ATOM     10  N   UNL     1     -53.727 -35.478   5.323 -2.54 -0.00    -0.191 NA 
DOCKED: ATOM     11  C   UNL     1     -53.485 -34.399   5.680 -0.37 +0.00    +0.101 C  
DOCKED: ENDROOT
DOCKED: BRANCH   2  12
DOCKED: ATOM     12  C   UNL     1     -52.162 -28.089   6.383 -0.14 +0.00    +0.038 C  
DOCKED: BRANCH  12  13
DOCKED: ATOM     13  C   UNL     1     -53.215 -26.989   6.259 -0.19 +0.00    +0.038 C  
DOCKED: BRANCH  13  14
DOCKED: ATOM     14  C   UNL     1     -53.158 -26.038   7.453 -0.04 +0.00    +0.251 C  
DOCKED: BRANCH  14  15
DOCKED: ATOM     15  N   UNL     1     -52.406 -24.837   7.110 -0.02 +0.00    +0.141 N  
DOCKED: ATOM     16  C   UNL     1     -51.349 -24.592   8.091 -0.00 +0.00    +0.285 C  
DOCKED: ATOM     17  C   UNL     1     -51.836 -24.952   5.767 -0.04 +0.00    +0.285 C  
DOCKED: ENDBRANCH  14  15
DOCKED: ENDBRANCH  13  14
DOCKED: ENDBRANCH  12  13
DOCKED: ENDBRANCH   2  12
DOCKED: BRANCH   2  18
DOCKED: ATOM     18  C   UNL     1     -51.659 -28.933   8.669 -0.05 +0.00    +0.006 A  
DOCKED: ATOM     19  C   UNL     1     -50.432 -28.281   8.556 -0.04 +0.00    +0.001 A  
DOCKED: ATOM     20  C   UNL     1     -49.617 -28.134   9.679 -0.01 +0.00    +0.029 A  
DOCKED: ATOM     21  C   UNL     1     -50.031 -28.636  10.912 -0.00 +0.00    +0.140 A  
DOCKED: ATOM     22  C   UNL     1     -51.259 -29.288  11.024 -0.01 +0.00    +0.029 A  
DOCKED: ATOM     23  F   UNL     1     -49.249 -28.493  11.990 -0.00 -0.00    -0.204 F  
DOCKED: ATOM     24  C   UNL     1     -52.074 -29.437   9.901 -0.02 +0.00    +0.001 A  
DOCKED: ENDBRANCH   2  18
DOCKED: TORSDOF 5
DOCKED: TER
DOCKED: ENDMDL
________________________________________________________________________________


    FINAL DOCKED STATE:
    ________________________


Run:   115 / 512
Time taken for this run:   0.001s

DOCKED: MODEL        115
DOCKED: USER    Run = 115
DOCKED: USER
DOCKED: USER    Estimated Free Energy of Binding    =  -3.56 kcal/mol  [=(1)+(2)+(3)-(4)]
DOCKED: USER
DOCKED: USER    (1) Final Intermolecular Energy     =  -5.05 kcal/mol
DOCKED: USER        vdW + Hbond + desolv Energy     =  -5.05 kcal/mol
DOCKED: USER        Electrostatic Energy            =  +0.00 kcal/mol
DOCKED: USER        Moving Ligand-Fixed Receptor    =  -5.05 kcal/mol
DOCKED: USER        Moving Ligand-Moving Receptor   =  +0.00 kcal/mol
DOCKED: USER    (2) Final Total Internal Energy     =  -1.40 kcal/mol
DOCKED: USER    (3) Torsional Free Energy           =  +1.49 kcal/mol
DOCKED: USER    (4) Unbound System's Energy         =  -1.40 kcal/mol
DOCKED: USER
DOCKED: USER
DOCKED: REMARK  5 active torsions:
DOCKED: REMARK  status: ('A' for Active; 'I' for Inactive)
DOCKED: REMARK    1  A    between atoms: C_2  and  C_19 
DOCKED: REMARK    2  A    between atoms: C_2  and  C_11 
DOCKED: REMARK    3  A    between atoms: C_19  and  C_20 
DOCKED: REMARK    4  A    between atoms: C_20  and  C_21 
DOCKED: REMARK    5  A    between atoms: C_21  and  N_22 
DOCKED: USER                              x       y       z     vdW  Elec       q    Type
DOCKED: USER                           _______ _______ _______ _____ _____    ______ ____
DOCKED: ROOT
DOCKED: ATOM      1  O   UNL     1     -45.135 -24.971  -2.650 +0.01 -0.00    -0.346 OA 
DOCKED: ATOM      2  C   UNL     1     -45.088 -23.569  -2.235 -0.03 +0.00    +0.130 C  
DOCKED: ATOM      3  C   UNL     1     -46.289 -22.957  -2.896 -0.09 +0.00    +0.004 A  
DOCKED: ATOM      4  C   UNL     1     -47.021 -23.944  -3.540 -0.14 +0.00    +0.006 A  
DOCKED: ATOM      5  C   UNL     1     -46.372 -25.260  -3.344 -0.08 +0.00    +0.169 C  
DOCKED: ATOM      6  C   UNL     1     -46.707 -21.634  -2.915 -0.18 -0.00    -0.001 A  
DOCKED: ATOM      7  C   UNL     1     -48.186 -23.646  -4.226 -0.21 +0.00    +0.008 A  
DOCKED: ATOM      8  C   UNL     1     -47.878 -21.317  -3.606 -0.24 +0.00    +0.010 A  
DOCKED: ATOM      9  C   UNL     1     -48.613 -22.318  -4.258 -0.32 +0.00    +0.068 A  
DOCKED: ATOM     10  N   UNL     1     -50.785 -21.695  -5.527 -2.56 -0.00    -0.191 NA 
DOCKED: ATOM     11  C   UNL     1     -49.810 -21.974  -4.958 -0.41 +0.00    +0.101 C  
DOCKED: ENDROOT
DOCKED: BRANCH   2  12
DOCKED: ATOM     12  C   UNL     1     -45.155 -23.513  -0.714 -0.08 +0.00    +0.038 C  
DOCKED: BRANCH  12  13
DOCKED: ATOM     13  C   UNL     1     -46.013 -24.644  -0.152 -0.08 +0.00    +0.038 C  
DOCKED: BRANCH  13  14
DOCKED: ATOM     14  C   UNL     1     -47.410 -24.145   0.214 -0.10 +0.00    +0.251 C  
DOCKED: BRANCH  14  15
DOCKED: ATOM     15  N   UNL     1     -48.419 -24.831  -0.584 -0.17 +0.00    +0.141 N  
DOCKED: ATOM     16  C   UNL     1     -48.099 -26.254  -0.708 -0.12 +0.00    +0.285 C  
DOCKED: ATOM     17  C   UNL     1     -49.747 -24.659   0.006 -0.20 +0.00    +0.285 C  
DOCKED: ENDBRANCH  14  15
DOCKED: ENDBRANCH  13  14
DOCKED: ENDBRANCH  12  13
DOCKED: ENDBRANCH   2  12
DOCKED: BRANCH   2  18
DOCKED: ATOM     18  C   UNL     1     -43.799 -23.008  -2.738 -0.01 +0.00    +0.006 A  
DOCKED: ATOM     19  C   UNL     1     -43.142 -22.014  -2.015 -0.02 +0.00    +0.001 A  
DOCKED: ATOM     20  C   UNL     1     -41.938 -21.491  -2.487 -0.00 +0.00    +0.029 A  
DOCKED: ATOM     21  C   UNL     1     -41.392 -21.963  -3.680 +0.00 +0.00    +0.140 A  
DOCKED: ATOM     22  C   UNL     1     -42.049 -22.958  -4.402 -0.00 +0.00    +0.029 A  
DOCKED: ATOM     23  F   UNL     1     -40.235 -21.462  -4.131 +0.00 -0.00    -0.204 F  
DOCKED: ATOM     24  C   UNL     1     -43.255 -23.481  -3.932 -0.00 +0.00    +0.001 A  
DOCKED: ENDBRANCH   2  18
DOCKED: TORSDOF 5
DOCKED: TER
DOCKED: ENDMDL
________________________________________________________________________________


    FINAL DOCKED STATE:
    ________________________


Run:   116 / 512
Time taken for this run:   0.001s

DOCKED: MODEL        116
DOCKED: USER    Run = 116
DOCKED: USER
DOCKED: USER    Estimated Free Energy of Binding    =  -4.30 kcal/mol  [=(1)+(2)+(3)-(4)]
DOCKED: USER
DOCKED: USER    (1) Final Intermolecular Energy     =  -5.80 kcal/mol
DOCKED: USER        vdW + Hbond + desolv Energy     =  -5.80 kcal/mol
DOCKED: USER        Electrostatic Energy            =  +0.00 kcal/mol
DOCKED: USER        Moving Ligand-Fixed Receptor    =  -5.80 kcal/mol
DOCKED: USER        Moving Ligand-Moving Receptor   =  +0.00 kcal/mol
DOCKED: USER    (2) Final Total Internal Energy     =  -0.86 kcal/mol
DOCKED: USER    (3) Torsional Free Energy           =  +1.49 kcal/mol
DOCKED: USER    (4) Unbound System's Energy         =  -0.86 kcal/mol
DOCKED: USER
DOCKED: USER
DOCKED: REMARK  5 active torsions:
DOCKED: REMARK  status: ('A' for Active; 'I' for Inactive)
DOCKED: REMARK    1  A    between atoms: C_2  and  C_19 
DOCKED: REMARK    2  A    between atoms: C_2  and  C_11 
DOCKED: REMARK    3  A    between atoms: C_19  and  C_20 
DOCKED: REMARK    4  A    between atoms: C_20  and  C_21 
DOCKED: REMARK    5  A    between atoms: C_21  and  N_22 
DOCKED: USER                              x       y       z     vdW  Elec       q    Type
DOCKED: USER                           _______ _______ _______ _____ _____    ______ ____
DOCKED: ROOT
DOCKED: ATOM      1  O   UNL     1     -48.805 -31.226   8.628 -0.08 -0.00    -0.346 OA 
DOCKED: ATOM      2  C   UNL     1     -49.725 -30.300   7.966 -0.13 +0.00    +0.130 C  
DOCKED: ATOM      3  C   UNL     1     -50.718 -31.202   7.290 -0.21 +0.00    +0.004 A  
DOCKED: ATOM      4  C   UNL     1     -50.454 -32.522   7.627 -0.24 +0.00    +0.006 A  
DOCKED: ATOM      5  C   UNL     1     -49.295 -32.584   8.546 -0.15 +0.00    +0.169 C  
DOCKED: ATOM      6  C   UNL     1     -51.776 -30.878   6.454 -0.28 -0.00    -0.001 A  
DOCKED: ATOM      7  C   UNL     1     -51.231 -33.559   7.140 -0.34 +0.00    +0.008 A  
DOCKED: ATOM      8  C   UNL     1     -52.566 -31.913   5.950 -0.32 +0.00    +0.010 A  
DOCKED: ATOM      9  C   UNL     1     -52.295 -33.246   6.292 -0.31 +0.00    +0.068 A  
DOCKED: ATOM     10  N   UNL     1     -53.785 -35.143   5.345 -2.57 -0.00    -0.191 NA 
DOCKED: ATOM     11  C   UNL     1     -53.117 -34.292   5.769 -0.37 +0.00    +0.101 C  
DOCKED: ENDROOT
DOCKED: BRANCH   2  12
DOCKED: ATOM     12  C   UNL     1     -50.359 -29.408   9.027 -0.05 +0.00    +0.038 C  
DOCKED: BRANCH  12  13
DOCKED: ATOM     13  C   UNL     1     -51.415 -28.486   8.420 -0.06 +0.00    +0.038 C  
DOCKED: BRANCH  13  14
DOCKED: ATOM     14  C   UNL     1     -51.962 -27.515   9.465 -0.01 +0.00    +0.251 C  
DOCKED: BRANCH  14  15
DOCKED: ATOM     15  N   UNL     1     -51.107 -26.338   9.559 -0.00 +0.00    +0.141 N  
DOCKED: ATOM     16  C   UNL     1     -51.815 -25.147   9.086 -0.00 +0.00    +0.285 C  
DOCKED: ATOM     17  C   UNL     1     -50.648 -26.142  10.935 +0.00 +0.00    +0.285 C  
DOCKED: ENDBRANCH  14  15
DOCKED: ENDBRANCH  13  14
DOCKED: ENDBRANCH  12  13
DOCKED: ENDBRANCH   2  12
DOCKED: BRANCH   2  18
DOCKED: ATOM     18  C   UNL     1     -48.917 -29.498   7.001 -0.13 +0.00    +0.006 A  
DOCKED: ATOM     19  C   UNL     1     -47.536 -29.401   7.161 -0.10 +0.00    +0.001 A  
DOCKED: ATOM     20  C   UNL     1     -46.782 -28.650   6.258 -0.08 +0.00    +0.029 A  
DOCKED: ATOM     21  C   UNL     1     -47.410 -27.999   5.198 -0.07 +0.00    +0.140 A  
DOCKED: ATOM     22  C   UNL     1     -48.792 -28.096   5.038 -0.14 +0.00    +0.029 A  
DOCKED: ATOM     23  F   UNL     1     -46.685 -27.280   4.330 -0.00 -0.00    -0.204 F  
DOCKED: ATOM     24  C   UNL     1     -49.547 -28.847   5.941 -0.16 +0.00    +0.001 A  
DOCKED: ENDBRANCH   2  18
DOCKED: TORSDOF 5
DOCKED: TER
DOCKED: ENDMDL
________________________________________________________________________________


    FINAL DOCKED STATE:
    ________________________


Run:   117 / 512
Time taken for this run:   0.001s

DOCKED: MODEL        117
DOCKED: USER    Run = 117
DOCKED: USER
DOCKED: USER    Estimated Free Energy of Binding    =  -3.78 kcal/mol  [=(1)+(2)+(3)-(4)]
DOCKED: USER
DOCKED: USER    (1) Final Intermolecular Energy     =  -5.27 kcal/mol
DOCKED: USER        vdW + Hbond + desolv Energy     =  -5.27 kcal/mol
DOCKED: USER        Electrostatic Energy            =  +0.00 kcal/mol
DOCKED: USER        Moving Ligand-Fixed Receptor    =  -5.27 kcal/mol
DOCKED: USER        Moving Ligand-Moving Receptor   =  +0.00 kcal/mol
DOCKED: USER    (2) Final Total Internal Energy     =  -1.34 kcal/mol
DOCKED: USER    (3) Torsional Free Energy           =  +1.49 kcal/mol
DOCKED: USER    (4) Unbound System's Energy         =  -1.34 kcal/mol
DOCKED: USER
DOCKED: USER
DOCKED: REMARK  5 active torsions:
DOCKED: REMARK  status: ('A' for Active; 'I' for Inactive)
DOCKED: REMARK    1  A    between atoms: C_2  and  C_19 
DOCKED: REMARK    2  A    between atoms: C_2  and  C_11 
DOCKED: REMARK    3  A    between atoms: C_19  and  C_20 
DOCKED: REMARK    4  A    between atoms: C_20  and  C_21 
DOCKED: REMARK    5  A    between atoms: C_21  and  N_22 
DOCKED: USER                              x       y       z     vdW  Elec       q    Type
DOCKED: USER                           _______ _______ _______ _____ _____    ______ ____
DOCKED: ROOT
DOCKED: ATOM      1  O   UNL     1     -45.222 -21.388  -1.068 -0.05 -0.00    -0.346 OA 
DOCKED: ATOM      2  C   UNL     1     -44.776 -21.079  -2.427 -0.06 +0.00    +0.130 C  
DOCKED: ATOM      3  C   UNL     1     -46.013 -21.253  -3.260 -0.13 +0.00    +0.004 A  
DOCKED: ATOM      4  C   UNL     1     -47.095 -21.528  -2.436 -0.22 +0.00    +0.006 A  
DOCKED: ATOM      5  C   UNL     1     -46.660 -21.542  -1.022 +0.03 +0.00    +0.169 C  
DOCKED: ATOM      6  C   UNL     1     -46.170 -21.163  -4.635 -0.17 -0.00    -0.001 A  
DOCKED: ATOM      7  C   UNL     1     -48.364 -21.726  -2.955 -0.32 +0.00    +0.008 A  
DOCKED: ATOM      8  C   UNL     1     -47.442 -21.365  -5.174 -0.25 +0.00    +0.010 A  
DOCKED: ATOM      9  C   UNL     1     -48.533 -21.644  -4.338 -0.33 +0.00    +0.068 A  
DOCKED: ATOM     10  N   UNL     1     -50.881 -22.008  -5.371 -2.54 -0.00    -0.191 NA 
DOCKED: ATOM     11  C   UNL     1     -49.828 -21.845  -4.907 -0.38 +0.00    +0.101 C  
DOCKED: ENDROOT
DOCKED: BRANCH   2  12
DOCKED: ATOM     12  C   UNL     1     -44.242 -19.652  -2.447 -0.07 +0.00    +0.038 C  
DOCKED: BRANCH  12  13
DOCKED: ATOM     13  C   UNL     1     -44.974 -18.769  -1.439 -0.11 +0.00    +0.038 C  
DOCKED: BRANCH  13  14
DOCKED: ATOM     14  C   UNL     1     -46.170 -18.072  -2.085 -0.13 +0.00    +0.251 C  
DOCKED: BRANCH  14  15
DOCKED: ATOM     15  N   UNL     1     -47.045 -17.512  -1.061 -0.18 +0.00    +0.141 N  
DOCKED: ATOM     16  C   UNL     1     -48.448 -17.779  -1.378 -0.18 +0.00    +0.285 C  
DOCKED: ATOM     17  C   UNL     1     -46.710 -18.055   0.257 -0.12 +0.00    +0.285 C  
DOCKED: ENDBRANCH  14  15
DOCKED: ENDBRANCH  13  14
DOCKED: ENDBRANCH  12  13
DOCKED: ENDBRANCH   2  12
DOCKED: BRANCH   2  18
DOCKED: ATOM     18  C   UNL     1     -43.703 -22.060  -2.767 -0.02 +0.00    +0.006 A  
DOCKED: ATOM     19  C   UNL     1     -42.605 -21.656  -3.525 -0.01 +0.00    +0.001 A  
DOCKED: ATOM     20  C   UNL     1     -41.603 -22.574  -3.842 -0.00 +0.00    +0.029 A  
DOCKED: ATOM     21  C   UNL     1     -41.701 -23.893  -3.402 -0.00 +0.00    +0.140 A  
DOCKED: ATOM     22  C   UNL     1     -42.800 -24.296  -2.645 -0.00 +0.00    +0.029 A  
DOCKED: ATOM     23  F   UNL     1     -40.738 -24.773  -3.706 +0.00 -0.00    -0.204 F  
DOCKED: ATOM     24  C   UNL     1     -43.803 -23.379  -2.327 -0.01 +0.00    +0.001 A  
DOCKED: ENDBRANCH   2  18
DOCKED: TORSDOF 5
DOCKED: TER
DOCKED: ENDMDL
________________________________________________________________________________


    FINAL DOCKED STATE:
    ________________________


Run:   118 / 512
Time taken for this run:   0.001s

DOCKED: MODEL        118
DOCKED: USER    Run = 118
DOCKED: USER
DOCKED: USER    Estimated Free Energy of Binding    =  -4.09 kcal/mol  [=(1)+(2)+(3)-(4)]
DOCKED: USER
DOCKED: USER    (1) Final Intermolecular Energy     =  -5.58 kcal/mol
DOCKED: USER        vdW + Hbond + desolv Energy     =  -5.58 kcal/mol
DOCKED: USER        Electrostatic Energy            =  +0.00 kcal/mol
DOCKED: USER        Moving Ligand-Fixed Receptor    =  -5.58 kcal/mol
DOCKED: USER        Moving Ligand-Moving Receptor   =  +0.00 kcal/mol
DOCKED: USER    (2) Final Total Internal Energy     =  -1.40 kcal/mol
DOCKED: USER    (3) Torsional Free Energy           =  +1.49 kcal/mol
DOCKED: USER    (4) Unbound System's Energy         =  -1.40 kcal/mol
DOCKED: USER
DOCKED: USER
DOCKED: REMARK  5 active torsions:
DOCKED: REMARK  status: ('A' for Active; 'I' for Inactive)
DOCKED: REMARK    1  A    between atoms: C_2  and  C_19 
DOCKED: REMARK    2  A    between atoms: C_2  and  C_11 
DOCKED: REMARK    3  A    between atoms: C_19  and  C_20 
DOCKED: REMARK    4  A    between atoms: C_20  and  C_21 
DOCKED: REMARK    5  A    between atoms: C_21  and  N_22 
DOCKED: USER                              x       y       z     vdW  Elec       q    Type
DOCKED: USER                           _______ _______ _______ _____ _____    ______ ____
DOCKED: ROOT
DOCKED: ATOM      1  O   UNL     1     -51.225 -28.973   7.074 -0.06 -0.00    -0.346 OA 
DOCKED: ATOM      2  C   UNL     1     -52.493 -29.194   7.770 -0.12 +0.00    +0.130 C  
DOCKED: ATOM      3  C   UNL     1     -52.906 -30.571   7.336 -0.20 +0.00    +0.004 A  
DOCKED: ATOM      4  C   UNL     1     -51.909 -31.131   6.550 -0.28 +0.00    +0.006 A  
DOCKED: ATOM      5  C   UNL     1     -50.779 -30.184   6.421 -0.15 +0.00    +0.169 C  
DOCKED: ATOM      6  C   UNL     1     -54.066 -31.275   7.624 -0.16 -0.00    -0.001 A  
DOCKED: ATOM      7  C   UNL     1     -52.038 -32.405   6.024 -0.34 +0.00    +0.008 A  
DOCKED: ATOM      8  C   UNL     1     -54.212 -32.560   7.097 -0.20 +0.00    +0.010 A  
DOCKED: ATOM      9  C   UNL     1     -53.203 -33.122   6.301 -0.26 +0.00    +0.068 A  
DOCKED: ATOM     10  N   UNL     1     -53.504 -35.510   5.343 -2.60 -0.00    -0.191 NA 
DOCKED: ATOM     11  C   UNL     1     -53.369 -34.438   5.772 -0.34 +0.00    +0.101 C  
DOCKED: ENDROOT
DOCKED: BRANCH   2  12
DOCKED: ATOM     12  C   UNL     1     -52.244 -29.094   9.270 -0.04 +0.00    +0.038 C  
DOCKED: BRANCH  12  13
DOCKED: ATOM     13  C   UNL     1     -51.106 -28.124   9.582 -0.02 +0.00    +0.038 C  
DOCKED: BRANCH  13  14
DOCKED: ATOM     14  C   UNL     1     -51.578 -27.002  10.505 -0.00 +0.00    +0.251 C  
DOCKED: BRANCH  14  15
DOCKED: ATOM     15  N   UNL     1     -51.198 -25.704   9.960 -0.00 +0.00    +0.141 N  
DOCKED: ATOM     16  C   UNL     1     -50.172 -25.858   8.927 -0.00 +0.00    +0.285 C  
DOCKED: ATOM     17  C   UNL     1     -52.366 -25.011   9.415 -0.00 +0.00    +0.285 C  
DOCKED: ENDBRANCH  14  15
DOCKED: ENDBRANCH  13  14
DOCKED: ENDBRANCH  12  13
DOCKED: ENDBRANCH   2  12
DOCKED: BRANCH   2  18
DOCKED: ATOM     18  C   UNL     1     -53.435 -28.132   7.309 -0.17 +0.00    +0.006 A  
DOCKED: ATOM     19  C   UNL     1     -54.595 -27.867   8.036 -0.10 +0.00    +0.001 A  
DOCKED: ATOM     20  C   UNL     1     -55.475 -26.874   7.603 -0.10 +0.00    +0.029 A  
DOCKED: ATOM     21  C   UNL     1     -55.194 -26.148   6.447 -0.11 +0.00    +0.140 A  
DOCKED: ATOM     22  C   UNL     1     -54.033 -26.414   5.721 -0.15 +0.00    +0.029 A  
DOCKED: ATOM     23  F   UNL     1     -56.038 -25.194   6.033 -0.01 -0.00    -0.204 F  
DOCKED: ATOM     24  C   UNL     1     -53.152 -27.407   6.152 -0.18 +0.00    +0.001 A  
DOCKED: ENDBRANCH   2  18
DOCKED: TORSDOF 5
DOCKED: TER
DOCKED: ENDMDL
________________________________________________________________________________


    FINAL DOCKED STATE:
    ________________________


Run:   119 / 512
Time taken for this run:   0.001s

DOCKED: MODEL        119
DOCKED: USER    Run = 119
DOCKED: USER
DOCKED: USER    Estimated Free Energy of Binding    =  -5.16 kcal/mol  [=(1)+(2)+(3)-(4)]
DOCKED: USER
DOCKED: USER    (1) Final Intermolecular Energy     =  -6.65 kcal/mol
DOCKED: USER        vdW + Hbond + desolv Energy     =  -6.65 kcal/mol
DOCKED: USER        Electrostatic Energy            =  +0.00 kcal/mol
DOCKED: USER        Moving Ligand-Fixed Receptor    =  -6.65 kcal/mol
DOCKED: USER        Moving Ligand-Moving Receptor   =  +0.00 kcal/mol
DOCKED: USER    (2) Final Total Internal Energy     =  -1.33 kcal/mol
DOCKED: USER    (3) Torsional Free Energy           =  +1.49 kcal/mol
DOCKED: USER    (4) Unbound System's Energy         =  -1.33 kcal/mol
DOCKED: USER
DOCKED: USER
DOCKED: REMARK  5 active torsions:
DOCKED: REMARK  status: ('A' for Active; 'I' for Inactive)
DOCKED: REMARK    1  A    between atoms: C_2  and  C_19 
DOCKED: REMARK    2  A    between atoms: C_2  and  C_11 
DOCKED: REMARK    3  A    between atoms: C_19  and  C_20 
DOCKED: REMARK    4  A    between atoms: C_20  and  C_21 
DOCKED: REMARK    5  A    between atoms: C_21  and  N_22 
DOCKED: USER                              x       y       z     vdW  Elec       q    Type
DOCKED: USER                           _______ _______ _______ _____ _____    ______ ____
DOCKED: ROOT
DOCKED: ATOM      1  O   UNL     1     -52.311 -31.282   8.487 -0.01 -0.00    -0.346 OA 
DOCKED: ATOM      2  C   UNL     1     -51.553 -32.532   8.411 -0.16 +0.00    +0.130 C  
DOCKED: ATOM      3  C   UNL     1     -51.935 -33.103   7.076 -0.31 +0.00    +0.004 A  
DOCKED: ATOM      4  C   UNL     1     -52.752 -32.207   6.401 -0.30 +0.00    +0.006 A  
DOCKED: ATOM      5  C   UNL     1     -52.954 -30.994   7.224 -0.18 +0.00    +0.169 C  
DOCKED: ATOM      6  C   UNL     1     -51.578 -34.313   6.500 -0.42 -0.00    -0.001 A  
DOCKED: ATOM      7  C   UNL     1     -53.242 -32.489   5.137 -0.23 +0.00    +0.008 A  
DOCKED: ATOM      8  C   UNL     1     -52.067 -34.615   5.228 -0.41 +0.00    +0.010 A  
DOCKED: ATOM      9  C   UNL     1     -52.894 -33.707   4.550 -0.42 +0.00    +0.068 A  
DOCKED: ATOM     10  N   UNL     1     -53.782 -34.295   2.188 -2.18 -0.00    -0.191 NA 
DOCKED: ATOM     11  C   UNL     1     -53.384 -34.032   3.247 -0.52 +0.00    +0.101 C  
DOCKED: ENDROOT
DOCKED: BRANCH   2  12
DOCKED: ATOM     12  C   UNL     1     -50.068 -32.202   8.512 -0.22 +0.00    +0.038 C  
DOCKED: BRANCH  12  13
DOCKED: ATOM     13  C   UNL     1     -49.692 -31.040   7.596 -0.11 +0.00    +0.038 C  
DOCKED: BRANCH  13  14
DOCKED: ATOM     14  C   UNL     1     -49.794 -29.705   8.331 -0.07 +0.00    +0.251 C  
DOCKED: BRANCH  14  15
DOCKED: ATOM     15  N   UNL     1     -50.119 -28.634   7.396 -0.08 +0.00    +0.141 N  
DOCKED: ATOM     16  C   UNL     1     -50.213 -29.153   6.030 -0.09 +0.00    +0.285 C  
DOCKED: ATOM     17  C   UNL     1     -51.372 -27.980   7.778 -0.05 +0.00    +0.285 C  
DOCKED: ENDBRANCH  14  15
DOCKED: ENDBRANCH  13  14
DOCKED: ENDBRANCH  12  13
DOCKED: ENDBRANCH   2  12
DOCKED: BRANCH   2  18
DOCKED: ATOM     18  C   UNL     1     -51.996 -33.381   9.555 -0.17 +0.00    +0.006 A  
DOCKED: ATOM     19  C   UNL     1     -51.051 -33.929  10.422 -0.15 +0.00    +0.001 A  
DOCKED: ATOM     20  C   UNL     1     -51.466 -34.724  11.491 -0.23 +0.00    +0.029 A  
DOCKED: ATOM     21  C   UNL     1     -52.824 -34.969  11.692 -0.03 +0.00    +0.140 A  
DOCKED: ATOM     22  C   UNL     1     -53.768 -34.420  10.824 -0.13 +0.00    +0.029 A  
DOCKED: ATOM     23  F   UNL     1     -53.222 -35.730  12.719 -0.04 -0.00    -0.204 F  
DOCKED: ATOM     24  C   UNL     1     -53.354 -33.625   9.754 -0.15 +0.00    +0.001 A  
DOCKED: ENDBRANCH   2  18
DOCKED: TORSDOF 5
DOCKED: TER
DOCKED: ENDMDL
________________________________________________________________________________


    FINAL DOCKED STATE:
    ________________________


Run:   120 / 512
Time taken for this run:   0.001s

DOCKED: MODEL        120
DOCKED: USER    Run = 120
DOCKED: USER
DOCKED: USER    Estimated Free Energy of Binding    =  -5.95 kcal/mol  [=(1)+(2)+(3)-(4)]
DOCKED: USER
DOCKED: USER    (1) Final Intermolecular Energy     =  -7.44 kcal/mol
DOCKED: USER        vdW + Hbond + desolv Energy     =  -7.44 kcal/mol
DOCKED: USER        Electrostatic Energy            =  +0.00 kcal/mol
DOCKED: USER        Moving Ligand-Fixed Receptor    =  -7.44 kcal/mol
DOCKED: USER        Moving Ligand-Moving Receptor   =  +0.00 kcal/mol
DOCKED: USER    (2) Final Total Internal Energy     =  -1.39 kcal/mol
DOCKED: USER    (3) Torsional Free Energy           =  +1.49 kcal/mol
DOCKED: USER    (4) Unbound System's Energy         =  -1.39 kcal/mol
DOCKED: USER
DOCKED: USER
DOCKED: REMARK  5 active torsions:
DOCKED: REMARK  status: ('A' for Active; 'I' for Inactive)
DOCKED: REMARK    1  A    between atoms: C_2  and  C_19 
DOCKED: REMARK    2  A    between atoms: C_2  and  C_11 
DOCKED: REMARK    3  A    between atoms: C_19  and  C_20 
DOCKED: REMARK    4  A    between atoms: C_20  and  C_21 
DOCKED: REMARK    5  A    between atoms: C_21  and  N_22 
DOCKED: USER                              x       y       z     vdW  Elec       q    Type
DOCKED: USER                           _______ _______ _______ _____ _____    ______ ____
DOCKED: ROOT
DOCKED: ATOM      1  O   UNL     1     -51.371 -31.342   7.904 -0.06 -0.00    -0.346 OA 
DOCKED: ATOM      2  C   UNL     1     -51.162 -32.790   7.859 -0.23 +0.00    +0.130 C  
DOCKED: ATOM      3  C   UNL     1     -51.727 -33.193   6.528 -0.34 +0.00    +0.004 A  
DOCKED: ATOM      4  C   UNL     1     -52.122 -32.063   5.826 -0.32 +0.00    +0.006 A  
DOCKED: ATOM      5  C   UNL     1     -51.840 -30.851   6.627 -0.23 +0.00    +0.169 C  
DOCKED: ATOM      6  C   UNL     1     -51.868 -34.458   5.976 -0.40 -0.00    -0.001 A  
DOCKED: ATOM      7  C   UNL     1     -52.674 -32.157   4.560 +0.00 +0.00    +0.008 A  
DOCKED: ATOM      8  C   UNL     1     -52.426 -34.570   4.702 -0.46 +0.00    +0.010 A  
DOCKED: ATOM      9  C   UNL     1     -52.826 -33.425   3.997 -0.39 +0.00    +0.068 A  
DOCKED: ATOM     10  N   UNL     1     -53.854 -33.667   1.631 -3.10 -0.00    -0.191 NA 
DOCKED: ATOM     11  C   UNL     1     -53.394 -33.558   2.693 -0.43 +0.00    +0.101 C  
DOCKED: ENDROOT
DOCKED: BRANCH   2  12
DOCKED: ATOM     12  C   UNL     1     -49.668 -33.066   7.978 -0.17 +0.00    +0.038 C  
DOCKED: BRANCH  12  13
DOCKED: ATOM     13  C   UNL     1     -48.922 -31.857   8.541 -0.19 +0.00    +0.038 C  
DOCKED: BRANCH  13  14
DOCKED: ATOM     14  C   UNL     1     -48.264 -32.191   9.878 -0.08 +0.00    +0.251 C  
DOCKED: BRANCH  14  15
DOCKED: ATOM     15  N   UNL     1     -48.717 -31.268  10.911 -0.03 +0.00    +0.141 N  
DOCKED: ATOM     16  C   UNL     1     -49.937 -30.579  10.489 -0.01 +0.00    +0.285 C  
DOCKED: ATOM     17  C   UNL     1     -48.944 -31.975  12.172 -0.02 +0.00    +0.285 C  
DOCKED: ENDBRANCH  14  15
DOCKED: ENDBRANCH  13  14
DOCKED: ENDBRANCH  12  13
DOCKED: ENDBRANCH   2  12
DOCKED: BRANCH   2  18
DOCKED: ATOM     18  C   UNL     1     -51.911 -33.375   9.010 -0.19 +0.00    +0.006 A  
DOCKED: ATOM     19  C   UNL     1     -53.305 -33.340   9.024 -0.15 +0.00    +0.001 A  
DOCKED: ATOM     20  C   UNL     1     -54.004 -33.887  10.100 -0.14 +0.00    +0.029 A  
DOCKED: ATOM     21  C   UNL     1     -53.309 -34.469  11.160 -0.09 +0.00    +0.140 A  
DOCKED: ATOM     22  C   UNL     1     -51.915 -34.504  11.144 -0.21 +0.00    +0.029 A  
DOCKED: ATOM     23  F   UNL     1     -53.980 -34.996  12.192 -0.03 -0.00    -0.204 F  
DOCKED: ATOM     24  C   UNL     1     -51.215 -33.957  10.068 -0.17 +0.00    +0.001 A  
DOCKED: ENDBRANCH   2  18
DOCKED: TORSDOF 5
DOCKED: TER
DOCKED: ENDMDL
________________________________________________________________________________


    FINAL DOCKED STATE:
    ________________________


Run:   121 / 512
Time taken for this run:   0.001s

DOCKED: MODEL        121
DOCKED: USER    Run = 121
DOCKED: USER
DOCKED: USER    Estimated Free Energy of Binding    =  -3.92 kcal/mol  [=(1)+(2)+(3)-(4)]
DOCKED: USER
DOCKED: USER    (1) Final Intermolecular Energy     =  -5.41 kcal/mol
DOCKED: USER        vdW + Hbond + desolv Energy     =  -5.41 kcal/mol
DOCKED: USER        Electrostatic Energy            =  +0.00 kcal/mol
DOCKED: USER        Moving Ligand-Fixed Receptor    =  -5.41 kcal/mol
DOCKED: USER        Moving Ligand-Moving Receptor   =  +0.00 kcal/mol
DOCKED: USER    (2) Final Total Internal Energy     =  -1.42 kcal/mol
DOCKED: USER    (3) Torsional Free Energy           =  +1.49 kcal/mol
DOCKED: USER    (4) Unbound System's Energy         =  -1.42 kcal/mol
DOCKED: USER
DOCKED: USER
DOCKED: REMARK  5 active torsions:
DOCKED: REMARK  status: ('A' for Active; 'I' for Inactive)
DOCKED: REMARK    1  A    between atoms: C_2  and  C_19 
DOCKED: REMARK    2  A    between atoms: C_2  and  C_11 
DOCKED: REMARK    3  A    between atoms: C_19  and  C_20 
DOCKED: REMARK    4  A    between atoms: C_20  and  C_21 
DOCKED: REMARK    5  A    between atoms: C_21  and  N_22 
DOCKED: USER                              x       y       z     vdW  Elec       q    Type
DOCKED: USER                           _______ _______ _______ _____ _____    ______ ____
DOCKED: ROOT
DOCKED: ATOM      1  O   UNL     1     -44.538 -23.303  -2.981 +0.01 -0.00    -0.346 OA 
DOCKED: ATOM      2  C   UNL     1     -45.196 -22.385  -2.050 -0.06 +0.00    +0.130 C  
DOCKED: ATOM      3  C   UNL     1     -46.545 -22.154  -2.667 -0.15 +0.00    +0.004 A  
DOCKED: ATOM      4  C   UNL     1     -46.687 -22.954  -3.792 -0.12 +0.00    +0.006 A  
DOCKED: ATOM      5  C   UNL     1     -45.466 -23.767  -3.987 -0.03 +0.00    +0.169 C  
DOCKED: ATOM      6  C   UNL     1     -47.569 -21.311  -2.259 -0.22 -0.00    -0.001 A  
DOCKED: ATOM      7  C   UNL     1     -47.848 -22.937  -4.546 -0.24 +0.00    +0.008 A  
DOCKED: ATOM      8  C   UNL     1     -48.744 -21.280  -3.012 -0.28 +0.00    +0.010 A  
DOCKED: ATOM      9  C   UNL     1     -48.883 -22.089  -4.149 -0.36 +0.00    +0.068 A  
DOCKED: ATOM     10  N   UNL     1     -51.080 -22.010  -5.521 -2.58 -0.00    -0.191 NA 
DOCKED: ATOM     11  C   UNL     1     -50.094 -22.045  -4.906 -0.38 +0.00    +0.101 C  
DOCKED: ENDROOT
DOCKED: BRANCH   2  12
DOCKED: ATOM     12  C   UNL     1     -45.276 -23.057  -0.684 -0.10 +0.00    +0.038 C  
DOCKED: BRANCH  12  13
DOCKED: ATOM     13  C   UNL     1     -46.634 -23.723  -0.470 -0.15 +0.00    +0.038 C  
DOCKED: BRANCH  13  14
DOCKED: ATOM     14  C   UNL     1     -46.683 -25.097  -1.136 -0.05 +0.00    +0.251 C  
DOCKED: BRANCH  14  15
DOCKED: ATOM     15  N   UNL     1     -47.970 -25.297  -1.791 -0.16 +0.00    +0.141 N  
DOCKED: ATOM     16  C   UNL     1     -48.151 -26.703  -2.156 -0.16 +0.00    +0.285 C  
DOCKED: ATOM     17  C   UNL     1     -49.064 -24.852  -0.926 -0.18 +0.00    +0.285 C  
DOCKED: ENDBRANCH  14  15
DOCKED: ENDBRANCH  13  14
DOCKED: ENDBRANCH  12  13
DOCKED: ENDBRANCH   2  12
DOCKED: BRANCH   2  18
DOCKED: ATOM     18  C   UNL     1     -44.363 -21.148  -1.993 -0.05 +0.00    +0.006 A  
DOCKED: ATOM     19  C   UNL     1     -44.378 -20.249  -3.058 -0.07 +0.00    +0.001 A  
DOCKED: ATOM     20  C   UNL     1     -43.598 -19.093  -3.004 -0.04 +0.00    +0.029 A  
DOCKED: ATOM     21  C   UNL     1     -42.805 -18.838  -1.886 -0.00 +0.00    +0.140 A  
DOCKED: ATOM     22  C   UNL     1     -42.791 -19.739  -0.821 -0.02 +0.00    +0.029 A  
DOCKED: ATOM     23  F   UNL     1     -42.058 -17.728  -1.834 +0.00 -0.00    -0.204 F  
DOCKED: ATOM     24  C   UNL     1     -43.570 -20.896  -0.875 -0.04 +0.00    +0.001 A  
DOCKED: ENDBRANCH   2  18
DOCKED: TORSDOF 5
DOCKED: TER
DOCKED: ENDMDL
________________________________________________________________________________


    FINAL DOCKED STATE:
    ________________________


Run:   122 / 512
Time taken for this run:   0.001s

DOCKED: MODEL        122
DOCKED: USER    Run = 122
DOCKED: USER
DOCKED: USER    Estimated Free Energy of Binding    =  -4.00 kcal/mol  [=(1)+(2)+(3)-(4)]
DOCKED: USER
DOCKED: USER    (1) Final Intermolecular Energy     =  -5.49 kcal/mol
DOCKED: USER        vdW + Hbond + desolv Energy     =  -5.49 kcal/mol
DOCKED: USER        Electrostatic Energy            =  +0.00 kcal/mol
DOCKED: USER        Moving Ligand-Fixed Receptor    =  -5.49 kcal/mol
DOCKED: USER        Moving Ligand-Moving Receptor   =  +0.00 kcal/mol
DOCKED: USER    (2) Final Total Internal Energy     =  -1.19 kcal/mol
DOCKED: USER    (3) Torsional Free Energy           =  +1.49 kcal/mol
DOCKED: USER    (4) Unbound System's Energy         =  -1.19 kcal/mol
DOCKED: USER
DOCKED: USER
DOCKED: REMARK  5 active torsions:
DOCKED: REMARK  status: ('A' for Active; 'I' for Inactive)
DOCKED: REMARK    1  A    between atoms: C_2  and  C_19 
DOCKED: REMARK    2  A    between atoms: C_2  and  C_11 
DOCKED: REMARK    3  A    between atoms: C_19  and  C_20 
DOCKED: REMARK    4  A    between atoms: C_20  and  C_21 
DOCKED: REMARK    5  A    between atoms: C_21  and  N_22 
DOCKED: USER                              x       y       z     vdW  Elec       q    Type
DOCKED: USER                           _______ _______ _______ _____ _____    ______ ____
DOCKED: ROOT
DOCKED: ATOM      1  O   UNL     1     -50.140 -32.480  10.337 -0.04 -0.00    -0.346 OA 
DOCKED: ATOM      2  C   UNL     1     -50.111 -31.540   9.215 -0.11 +0.00    +0.130 C  
DOCKED: ATOM      3  C   UNL     1     -50.877 -32.248   8.134 -0.21 +0.00    +0.004 A  
DOCKED: ATOM      4  C   UNL     1     -51.393 -33.437   8.630 -0.22 +0.00    +0.006 A  
DOCKED: ATOM      5  C   UNL     1     -51.022 -33.591  10.054 -0.12 +0.00    +0.169 C  
DOCKED: ATOM      6  C   UNL     1     -51.108 -31.864   6.822 -0.23 -0.00    -0.001 A  
DOCKED: ATOM      7  C   UNL     1     -52.150 -34.280   7.834 -0.29 +0.00    +0.008 A  
DOCKED: ATOM      8  C   UNL     1     -51.865 -32.706   6.005 -0.33 +0.00    +0.010 A  
DOCKED: ATOM      9  C   UNL     1     -52.384 -33.908   6.510 -0.31 +0.00    +0.068 A  
DOCKED: ATOM     10  N   UNL     1     -53.790 -35.445   4.970 -2.32 -0.00    -0.191 NA 
DOCKED: ATOM     11  C   UNL     1     -53.159 -34.756   5.660 -0.23 +0.00    +0.101 C  
DOCKED: ENDROOT
DOCKED: BRANCH   2  12
DOCKED: ATOM     12  C   UNL     1     -50.771 -30.240   9.657 -0.05 +0.00    +0.038 C  
DOCKED: BRANCH  12  13
DOCKED: ATOM     13  C   UNL     1     -51.915 -29.850   8.722 -0.07 +0.00    +0.038 C  
DOCKED: BRANCH  13  14
DOCKED: ATOM     14  C   UNL     1     -53.239 -30.445   9.197 -0.02 +0.00    +0.251 C  
DOCKED: BRANCH  14  15
DOCKED: ATOM     15  N   UNL     1     -54.052 -30.849   8.056 -0.08 +0.00    +0.141 N  
DOCKED: ATOM     16  C   UNL     1     -55.202 -31.641   8.496 -0.03 +0.00    +0.285 C  
DOCKED: ATOM     17  C   UNL     1     -54.502 -29.678   7.302 -0.14 +0.00    +0.285 C  
DOCKED: ENDBRANCH  14  15
DOCKED: ENDBRANCH  13  14
DOCKED: ENDBRANCH  12  13
DOCKED: ENDBRANCH   2  12
DOCKED: BRANCH   2  18
DOCKED: ATOM     18  C   UNL     1     -48.677 -31.324   8.865 -0.14 +0.00    +0.006 A  
DOCKED: ATOM     19  C   UNL     1     -47.804 -32.410   8.798 -0.18 +0.00    +0.001 A  
DOCKED: ATOM     20  C   UNL     1     -46.463 -32.206   8.470 -0.15 +0.00    +0.029 A  
DOCKED: ATOM     21  C   UNL     1     -45.997 -30.918   8.210 -0.07 +0.00    +0.140 A  
DOCKED: ATOM     22  C   UNL     1     -46.870 -29.833   8.277 -0.07 +0.00    +0.029 A  
DOCKED: ATOM     23  F   UNL     1     -44.710 -30.723   7.894 -0.00 -0.00    -0.204 F  
DOCKED: ATOM     24  C   UNL     1     -48.212 -30.035   8.605 -0.09 +0.00    +0.001 A  
DOCKED: ENDBRANCH   2  18
DOCKED: TORSDOF 5
DOCKED: TER
DOCKED: ENDMDL
________________________________________________________________________________


    FINAL DOCKED STATE:
    ________________________


Run:   123 / 512
Time taken for this run:   0.001s

DOCKED: MODEL        123
DOCKED: USER    Run = 123
DOCKED: USER
DOCKED: USER    Estimated Free Energy of Binding    =  -4.02 kcal/mol  [=(1)+(2)+(3)-(4)]
DOCKED: USER
DOCKED: USER    (1) Final Intermolecular Energy     =  -5.52 kcal/mol
DOCKED: USER        vdW + Hbond + desolv Energy     =  -5.52 kcal/mol
DOCKED: USER        Electrostatic Energy            =  +0.00 kcal/mol
DOCKED: USER        Moving Ligand-Fixed Receptor    =  -5.52 kcal/mol
DOCKED: USER        Moving Ligand-Moving Receptor   =  +0.00 kcal/mol
DOCKED: USER    (2) Final Total Internal Energy     =  -1.25 kcal/mol
DOCKED: USER    (3) Torsional Free Energy           =  +1.49 kcal/mol
DOCKED: USER    (4) Unbound System's Energy         =  -1.25 kcal/mol
DOCKED: USER
DOCKED: USER
DOCKED: REMARK  5 active torsions:
DOCKED: REMARK  status: ('A' for Active; 'I' for Inactive)
DOCKED: REMARK    1  A    between atoms: C_2  and  C_19 
DOCKED: REMARK    2  A    between atoms: C_2  and  C_11 
DOCKED: REMARK    3  A    between atoms: C_19  and  C_20 
DOCKED: REMARK    4  A    between atoms: C_20  and  C_21 
DOCKED: REMARK    5  A    between atoms: C_21  and  N_22 
DOCKED: USER                              x       y       z     vdW  Elec       q    Type
DOCKED: USER                           _______ _______ _______ _____ _____    ______ ____
DOCKED: ROOT
DOCKED: ATOM      1  O   UNL     1     -54.770 -28.533   7.822 -0.05 -0.00    -0.346 OA 
DOCKED: ATOM      2  C   UNL     1     -53.337 -28.698   7.570 -0.14 +0.00    +0.130 C  
DOCKED: ATOM      3  C   UNL     1     -53.220 -30.111   7.076 -0.21 +0.00    +0.004 A  
DOCKED: ATOM      4  C   UNL     1     -54.485 -30.669   6.950 -0.22 +0.00    +0.006 A  
DOCKED: ATOM      5  C   UNL     1     -55.512 -29.675   7.334 -0.18 +0.00    +0.169 C  
DOCKED: ATOM      6  C   UNL     1     -52.085 -30.841   6.753 -0.26 -0.00    -0.001 A  
DOCKED: ATOM      7  C   UNL     1     -54.658 -31.968   6.505 -0.23 +0.00    +0.008 A  
DOCKED: ATOM      8  C   UNL     1     -52.244 -32.154   6.306 -0.32 +0.00    +0.010 A  
DOCKED: ATOM      9  C   UNL     1     -53.524 -32.714   6.182 -0.25 +0.00    +0.068 A  
DOCKED: ATOM     10  N   UNL     1     -53.783 -35.152   5.345 -2.56 -0.00    -0.191 NA 
DOCKED: ATOM     11  C   UNL     1     -53.667 -34.059   5.721 -0.36 +0.00    +0.101 C  
DOCKED: ENDROOT
DOCKED: BRANCH   2  12
DOCKED: ATOM     12  C   UNL     1     -52.907 -27.669   6.532 -0.19 +0.00    +0.038 C  
DOCKED: BRANCH  12  13
DOCKED: ATOM     13  C   UNL     1     -54.115 -27.023   5.855 -0.06 +0.00    +0.038 C  
DOCKED: BRANCH  13  14
DOCKED: ATOM     14  C   UNL     1     -54.511 -25.727   6.560 -0.08 +0.00    +0.251 C  
DOCKED: BRANCH  14  15
DOCKED: ATOM     15  N   UNL     1     -55.894 -25.384   6.251 -0.10 +0.00    +0.141 N  
DOCKED: ATOM     16  C   UNL     1     -55.993 -24.786   4.919 -0.10 +0.00    +0.285 C  
DOCKED: ATOM     17  C   UNL     1     -56.751 -26.568   6.340 -0.10 +0.00    +0.285 C  
DOCKED: ENDBRANCH  14  15
DOCKED: ENDBRANCH  13  14
DOCKED: ENDBRANCH  12  13
DOCKED: ENDBRANCH   2  12
DOCKED: BRANCH   2  18
DOCKED: ATOM     18  C   UNL     1     -52.638 -28.477   8.870 -0.04 +0.00    +0.006 A  
DOCKED: ATOM     19  C   UNL     1     -52.989 -29.233   9.987 -0.02 +0.00    +0.001 A  
DOCKED: ATOM     20  C   UNL     1     -52.334 -29.024  11.202 -0.00 +0.00    +0.029 A  
DOCKED: ATOM     21  C   UNL     1     -51.330 -28.061  11.297 -0.00 +0.00    +0.140 A  
DOCKED: ATOM     22  C   UNL     1     -50.980 -27.306  10.178 -0.00 +0.00    +0.029 A  
DOCKED: ATOM     23  F   UNL     1     -50.701 -27.862  12.462 +0.00 -0.00    -0.204 F  
DOCKED: ATOM     24  C   UNL     1     -51.635 -27.513   8.963 -0.03 +0.00    +0.001 A  
DOCKED: ENDBRANCH   2  18
DOCKED: TORSDOF 5
DOCKED: TER
DOCKED: ENDMDL
________________________________________________________________________________


    FINAL DOCKED STATE:
    ________________________


Run:   124 / 512
Time taken for this run:   0.001s

DOCKED: MODEL        124
DOCKED: USER    Run = 124
DOCKED: USER
DOCKED: USER    Estimated Free Energy of Binding    =  -3.98 kcal/mol  [=(1)+(2)+(3)-(4)]
DOCKED: USER
DOCKED: USER    (1) Final Intermolecular Energy     =  -5.47 kcal/mol
DOCKED: USER        vdW + Hbond + desolv Energy     =  -5.47 kcal/mol
DOCKED: USER        Electrostatic Energy            =  +0.00 kcal/mol
DOCKED: USER        Moving Ligand-Fixed Receptor    =  -5.47 kcal/mol
DOCKED: USER        Moving Ligand-Moving Receptor   =  +0.00 kcal/mol
DOCKED: USER    (2) Final Total Internal Energy     =  -1.30 kcal/mol
DOCKED: USER    (3) Torsional Free Energy           =  +1.49 kcal/mol
DOCKED: USER    (4) Unbound System's Energy         =  -1.30 kcal/mol
DOCKED: USER
DOCKED: USER
DOCKED: REMARK  5 active torsions:
DOCKED: REMARK  status: ('A' for Active; 'I' for Inactive)
DOCKED: REMARK    1  A    between atoms: C_2  and  C_19 
DOCKED: REMARK    2  A    between atoms: C_2  and  C_11 
DOCKED: REMARK    3  A    between atoms: C_19  and  C_20 
DOCKED: REMARK    4  A    between atoms: C_20  and  C_21 
DOCKED: REMARK    5  A    between atoms: C_21  and  N_22 
DOCKED: USER                              x       y       z     vdW  Elec       q    Type
DOCKED: USER                           _______ _______ _______ _____ _____    ______ ____
DOCKED: ROOT
DOCKED: ATOM      1  O   UNL     1     -45.552 -20.997  -0.534 -0.08 -0.00    -0.346 OA 
DOCKED: ATOM      2  C   UNL     1     -45.524 -22.404  -0.934 -0.11 +0.00    +0.130 C  
DOCKED: ATOM      3  C   UNL     1     -46.681 -22.531  -1.882 -0.16 +0.00    +0.004 A  
DOCKED: ATOM      4  C   UNL     1     -47.252 -21.284  -2.092 -0.20 +0.00    +0.006 A  
DOCKED: ATOM      5  C   UNL     1     -46.516 -20.258  -1.319 -0.19 +0.00    +0.169 C  
DOCKED: ATOM      6  C   UNL     1     -47.180 -23.659  -2.517 -0.15 -0.00    -0.001 A  
DOCKED: ATOM      7  C   UNL     1     -48.338 -21.122  -2.935 -0.27 +0.00    +0.008 A  
DOCKED: ATOM      8  C   UNL     1     -48.278 -23.512  -3.367 -0.25 +0.00    +0.010 A  
DOCKED: ATOM      9  C   UNL     1     -48.854 -22.250  -3.575 -0.33 +0.00    +0.068 A  
DOCKED: ATOM     10  N   UNL     1     -50.887 -22.012  -5.162 -2.55 -0.00    -0.191 NA 
DOCKED: ATOM     11  C   UNL     1     -49.976 -22.118  -4.449 -0.44 +0.00    +0.101 C  
DOCKED: ENDROOT
DOCKED: BRANCH   2  12
DOCKED: ATOM     12  C   UNL     1     -44.181 -22.691  -1.594 -0.04 +0.00    +0.038 C  
DOCKED: BRANCH  12  13
DOCKED: ATOM     13  C   UNL     1     -43.582 -21.429  -2.211 -0.03 +0.00    +0.038 C  
DOCKED: BRANCH  13  14
DOCKED: ATOM     14  C   UNL     1     -43.517 -21.538  -3.733 -0.00 +0.00    +0.251 C  
DOCKED: BRANCH  14  15
DOCKED: ATOM     15  N   UNL     1     -43.761 -20.238  -4.346 -0.04 +0.00    +0.141 N  
DOCKED: ATOM     16  C   UNL     1     -45.167 -20.104  -4.730 -0.03 +0.00    +0.285 C  
DOCKED: ATOM     17  C   UNL     1     -43.378 -19.158  -3.435 -0.01 +0.00    +0.285 C  
DOCKED: ENDBRANCH  14  15
DOCKED: ENDBRANCH  13  14
DOCKED: ENDBRANCH  12  13
DOCKED: ENDBRANCH   2  12
DOCKED: BRANCH   2  18
DOCKED: ATOM     18  C   UNL     1     -45.697 -23.214   0.308 -0.12 +0.00    +0.006 A  
DOCKED: ATOM     19  C   UNL     1     -46.944 -23.757   0.616 -0.12 +0.00    +0.001 A  
DOCKED: ATOM     20  C   UNL     1     -47.105 -24.514   1.778 -0.13 +0.00    +0.029 A  
DOCKED: ATOM     21  C   UNL     1     -46.020 -24.727   2.627 -0.06 +0.00    +0.140 A  
DOCKED: ATOM     22  C   UNL     1     -44.773 -24.184   2.317 -0.06 +0.00    +0.029 A  
DOCKED: ATOM     23  F   UNL     1     -46.174 -25.455   3.741 -0.00 -0.00    -0.204 F  
DOCKED: ATOM     24  C   UNL     1     -44.611 -23.426   1.156 -0.08 +0.00    +0.001 A  
DOCKED: ENDBRANCH   2  18
DOCKED: TORSDOF 5
DOCKED: TER
DOCKED: ENDMDL
________________________________________________________________________________


    FINAL DOCKED STATE:
    ________________________


Run:   125 / 512
Time taken for this run:   0.001s

DOCKED: MODEL        125
DOCKED: USER    Run = 125
DOCKED: USER
DOCKED: USER    Estimated Free Energy of Binding    =  -4.17 kcal/mol  [=(1)+(2)+(3)-(4)]
DOCKED: USER
DOCKED: USER    (1) Final Intermolecular Energy     =  -5.66 kcal/mol
DOCKED: USER        vdW + Hbond + desolv Energy     =  -5.66 kcal/mol
DOCKED: USER        Electrostatic Energy            =  +0.00 kcal/mol
DOCKED: USER        Moving Ligand-Fixed Receptor    =  -5.66 kcal/mol
DOCKED: USER        Moving Ligand-Moving Receptor   =  +0.00 kcal/mol
DOCKED: USER    (2) Final Total Internal Energy     =  -1.54 kcal/mol
DOCKED: USER    (3) Torsional Free Energy           =  +1.49 kcal/mol
DOCKED: USER    (4) Unbound System's Energy         =  -1.54 kcal/mol
DOCKED: USER
DOCKED: USER
DOCKED: REMARK  5 active torsions:
DOCKED: REMARK  status: ('A' for Active; 'I' for Inactive)
DOCKED: REMARK    1  A    between atoms: C_2  and  C_19 
DOCKED: REMARK    2  A    between atoms: C_2  and  C_11 
DOCKED: REMARK    3  A    between atoms: C_19  and  C_20 
DOCKED: REMARK    4  A    between atoms: C_20  and  C_21 
DOCKED: REMARK    5  A    between atoms: C_21  and  N_22 
DOCKED: USER                              x       y       z     vdW  Elec       q    Type
DOCKED: USER                           _______ _______ _______ _____ _____    ______ ____
DOCKED: ROOT
DOCKED: ATOM      1  O   UNL     1     -54.077 -31.589   8.672 -0.00 -0.00    -0.346 OA 
DOCKED: ATOM      2  C   UNL     1     -52.743 -32.169   8.505 -0.10 +0.00    +0.130 C  
DOCKED: ATOM      3  C   UNL     1     -52.778 -32.759   7.125 -0.24 +0.00    +0.004 A  
DOCKED: ATOM      4  C   UNL     1     -53.984 -32.448   6.514 -0.25 +0.00    +0.006 A  
DOCKED: ATOM      5  C   UNL     1     -54.814 -31.632   7.428 -0.14 +0.00    +0.169 C  
DOCKED: ATOM      6  C   UNL     1     -51.814 -33.502   6.459 -0.37 -0.00    -0.001 A  
DOCKED: ATOM      7  C   UNL     1     -54.270 -32.869   5.227 -0.22 +0.00    +0.008 A  
DOCKED: ATOM      8  C   UNL     1     -52.089 -33.938   5.162 -0.32 +0.00    +0.010 A  
DOCKED: ATOM      9  C   UNL     1     -53.310 -33.622   4.549 -0.40 +0.00    +0.068 A  
DOCKED: ATOM     10  N   UNL     1     -53.786 -34.442   2.137 -2.13 -0.00    -0.191 NA 
DOCKED: ATOM     11  C   UNL     1     -53.573 -34.075   3.219 -0.46 +0.00    +0.101 C  
DOCKED: ENDROOT
DOCKED: BRANCH   2  12
DOCKED: ATOM     12  C   UNL     1     -51.712 -31.057   8.649 -0.11 +0.00    +0.038 C  
DOCKED: BRANCH  12  13
DOCKED: ATOM     13  C   UNL     1     -52.334 -29.793   9.239 -0.05 +0.00    +0.038 C  
DOCKED: BRANCH  13  14
DOCKED: ATOM     14  C   UNL     1     -52.376 -29.861  10.764 -0.00 +0.00    +0.251 C  
DOCKED: BRANCH  14  15
DOCKED: ATOM     15  N   UNL     1     -53.696 -29.478  11.252 -0.00 +0.00    +0.141 N  
DOCKED: ATOM     16  C   UNL     1     -54.468 -28.824  10.195 -0.00 +0.00    +0.285 C  
DOCKED: ATOM     17  C   UNL     1     -54.418 -30.648  11.758 +0.00 +0.00    +0.285 C  
DOCKED: ENDBRANCH  14  15
DOCKED: ENDBRANCH  13  14
DOCKED: ENDBRANCH  12  13
DOCKED: ENDBRANCH   2  12
DOCKED: BRANCH   2  18
DOCKED: ATOM     18  C   UNL     1     -52.579 -33.198   9.573 -0.14 +0.00    +0.006 A  
DOCKED: ATOM     19  C   UNL     1     -51.304 -33.641   9.923 -0.18 +0.00    +0.001 A  
DOCKED: ATOM     20  C   UNL     1     -51.151 -34.604  10.922 -0.19 +0.00    +0.029 A  
DOCKED: ATOM     21  C   UNL     1     -52.272 -35.121  11.569 -0.08 +0.00    +0.140 A  
DOCKED: ATOM     22  C   UNL     1     -53.547 -34.677  11.219 -0.09 +0.00    +0.029 A  
DOCKED: ATOM     23  F   UNL     1     -52.126 -36.043  12.529 -0.06 -0.00    -0.204 F  
DOCKED: ATOM     24  C   UNL     1     -53.701 -33.715  10.220 -0.14 +0.00    +0.001 A  
DOCKED: ENDBRANCH   2  18
DOCKED: TORSDOF 5
DOCKED: TER
DOCKED: ENDMDL
________________________________________________________________________________


    FINAL DOCKED STATE:
    ________________________


Run:   126 / 512
Time taken for this run:   0.001s

DOCKED: MODEL        126
DOCKED: USER    Run = 126
DOCKED: USER
DOCKED: USER    Estimated Free Energy of Binding    =  -4.59 kcal/mol  [=(1)+(2)+(3)-(4)]
DOCKED: USER
DOCKED: USER    (1) Final Intermolecular Energy     =  -6.08 kcal/mol
DOCKED: USER        vdW + Hbond + desolv Energy     =  -6.08 kcal/mol
DOCKED: USER        Electrostatic Energy            =  +0.00 kcal/mol
DOCKED: USER        Moving Ligand-Fixed Receptor    =  -6.08 kcal/mol
DOCKED: USER        Moving Ligand-Moving Receptor   =  +0.00 kcal/mol
DOCKED: USER    (2) Final Total Internal Energy     =  -1.18 kcal/mol
DOCKED: USER    (3) Torsional Free Energy           =  +1.49 kcal/mol
DOCKED: USER    (4) Unbound System's Energy         =  -1.18 kcal/mol
DOCKED: USER
DOCKED: USER
DOCKED: REMARK  5 active torsions:
DOCKED: REMARK  status: ('A' for Active; 'I' for Inactive)
DOCKED: REMARK    1  A    between atoms: C_2  and  C_19 
DOCKED: REMARK    2  A    between atoms: C_2  and  C_11 
DOCKED: REMARK    3  A    between atoms: C_19  and  C_20 
DOCKED: REMARK    4  A    between atoms: C_20  and  C_21 
DOCKED: REMARK    5  A    between atoms: C_21  and  N_22 
DOCKED: USER                              x       y       z     vdW  Elec       q    Type
DOCKED: USER                           _______ _______ _______ _____ _____    ______ ____
DOCKED: ROOT
DOCKED: ATOM      1  O   UNL     1     -48.904 -25.035   0.270 -0.09 -0.00    -0.346 OA 
DOCKED: ATOM      2  C   UNL     1     -47.738 -24.928  -0.608 -0.15 +0.00    +0.130 C  
DOCKED: ATOM      3  C   UNL     1     -48.267 -24.226  -1.825 -0.24 +0.00    +0.004 A  
DOCKED: ATOM      4  C   UNL     1     -49.590 -23.864  -1.617 -0.30 +0.00    +0.006 A  
DOCKED: ATOM      5  C   UNL     1     -50.019 -24.283  -0.264 -0.24 +0.00    +0.169 C  
DOCKED: ATOM      6  C   UNL     1     -47.625 -23.922  -3.017 -0.19 -0.00    -0.001 A  
DOCKED: ATOM      7  C   UNL     1     -50.315 -23.193  -2.587 -0.40 +0.00    +0.008 A  
DOCKED: ATOM      8  C   UNL     1     -48.344 -23.250  -4.007 -0.26 +0.00    +0.010 A  
DOCKED: ATOM      9  C   UNL     1     -49.682 -22.887  -3.792 -0.25 +0.00    +0.068 A  
DOCKED: ATOM     10  N   UNL     1     -50.986 -21.635  -5.649 -2.44 -0.00    -0.191 NA 
DOCKED: ATOM     11  C   UNL     1     -50.401 -22.197  -4.817 -0.22 +0.00    +0.101 C  
DOCKED: ENDROOT
DOCKED: BRANCH   2  12
DOCKED: ATOM     12  C   UNL     1     -46.660 -24.131   0.116 -0.14 +0.00    +0.038 C  
DOCKED: BRANCH  12  13
DOCKED: ATOM     13  C   UNL     1     -45.370 -24.070  -0.700 -0.07 +0.00    +0.038 C  
DOCKED: BRANCH  13  14
DOCKED: ATOM     14  C   UNL     1     -44.752 -22.674  -0.647 -0.06 +0.00    +0.251 C  
DOCKED: BRANCH  14  15
DOCKED: ATOM     15  N   UNL     1     -45.117 -21.912  -1.836 -0.05 +0.00    +0.141 N  
DOCKED: ATOM     16  C   UNL     1     -45.805 -20.675  -1.464 -0.11 +0.00    +0.285 C  
DOCKED: ATOM     17  C   UNL     1     -43.931 -21.612  -2.640 -0.00 +0.00    +0.285 C  
DOCKED: ENDBRANCH  14  15
DOCKED: ENDBRANCH  13  14
DOCKED: ENDBRANCH  12  13
DOCKED: ENDBRANCH   2  12
DOCKED: BRANCH   2  18
DOCKED: ATOM     18  C   UNL     1     -47.278 -26.319  -0.893 -0.11 +0.00    +0.006 A  
DOCKED: ATOM     19  C   UNL     1     -46.593 -27.041   0.083 -0.06 +0.00    +0.001 A  
DOCKED: ATOM     20  C   UNL     1     -46.163 -28.341  -0.185 -0.08 +0.00    +0.029 A  
DOCKED: ATOM     21  C   UNL     1     -46.420 -28.918  -1.428 -0.14 +0.00    +0.140 A  
DOCKED: ATOM     22  C   UNL     1     -47.106 -28.196  -2.404 -0.21 +0.00    +0.029 A  
DOCKED: ATOM     23  F   UNL     1     -46.009 -30.166  -1.684 -0.07 -0.00    -0.204 F  
DOCKED: ATOM     24  C   UNL     1     -47.535 -26.895  -2.137 -0.20 +0.00    +0.001 A  
DOCKED: ENDBRANCH   2  18
DOCKED: TORSDOF 5
DOCKED: TER
DOCKED: ENDMDL
________________________________________________________________________________


    FINAL DOCKED STATE:
    ________________________


Run:   127 / 512
Time taken for this run:   0.001s

DOCKED: MODEL        127
DOCKED: USER    Run = 127
DOCKED: USER
DOCKED: USER    Estimated Free Energy of Binding    =  -3.72 kcal/mol  [=(1)+(2)+(3)-(4)]
DOCKED: USER
DOCKED: USER    (1) Final Intermolecular Energy     =  -5.21 kcal/mol
DOCKED: USER        vdW + Hbond + desolv Energy     =  -5.21 kcal/mol
DOCKED: USER        Electrostatic Energy            =  +0.00 kcal/mol
DOCKED: USER        Moving Ligand-Fixed Receptor    =  -5.21 kcal/mol
DOCKED: USER        Moving Ligand-Moving Receptor   =  +0.00 kcal/mol
DOCKED: USER    (2) Final Total Internal Energy     =  -1.47 kcal/mol
DOCKED: USER    (3) Torsional Free Energy           =  +1.49 kcal/mol
DOCKED: USER    (4) Unbound System's Energy         =  -1.47 kcal/mol
DOCKED: USER
DOCKED: USER
DOCKED: REMARK  5 active torsions:
DOCKED: REMARK  status: ('A' for Active; 'I' for Inactive)
DOCKED: REMARK    1  A    between atoms: C_2  and  C_19 
DOCKED: REMARK    2  A    between atoms: C_2  and  C_11 
DOCKED: REMARK    3  A    between atoms: C_19  and  C_20 
DOCKED: REMARK    4  A    between atoms: C_20  and  C_21 
DOCKED: REMARK    5  A    between atoms: C_21  and  N_22 
DOCKED: USER                              x       y       z     vdW  Elec       q    Type
DOCKED: USER                           _______ _______ _______ _____ _____    ______ ____
DOCKED: ROOT
DOCKED: ATOM      1  O   UNL     1     -46.368 -25.276  -0.901 -0.00 -0.00    -0.346 OA 
DOCKED: ATOM      2  C   UNL     1     -45.893 -25.452  -2.274 -0.04 +0.00    +0.130 C  
DOCKED: ATOM      3  C   UNL     1     -46.882 -24.681  -3.098 -0.13 +0.00    +0.004 A  
DOCKED: ATOM      4  C   UNL     1     -47.779 -24.030  -2.264 -0.20 +0.00    +0.006 A  
DOCKED: ATOM      5  C   UNL     1     -47.444 -24.310  -0.850 -0.14 +0.00    +0.169 C  
DOCKED: ATOM      6  C   UNL     1     -46.974 -24.556  -4.477 -0.16 -0.00    -0.001 A  
DOCKED: ATOM      7  C   UNL     1     -48.795 -23.240  -2.774 -0.31 +0.00    +0.008 A  
DOCKED: ATOM      8  C   UNL     1     -47.996 -23.766  -5.007 -0.19 +0.00    +0.010 A  
DOCKED: ATOM      9  C   UNL     1     -48.902 -23.112  -4.159 -0.24 +0.00    +0.068 A  
DOCKED: ATOM     10  N   UNL     1     -50.784 -21.650  -5.176 -2.38 -0.00    -0.191 NA 
DOCKED: ATOM     11  C   UNL     1     -49.940 -22.306  -4.720 -0.40 +0.00    +0.101 C  
DOCKED: ENDROOT
DOCKED: BRANCH   2  12
DOCKED: ATOM     12  C   UNL     1     -44.478 -24.894  -2.370 -0.01 +0.00    +0.038 C  
DOCKED: BRANCH  12  13
DOCKED: ATOM     13  C   UNL     1     -44.414 -23.450  -1.877 -0.03 +0.00    +0.038 C  
DOCKED: BRANCH  13  14
DOCKED: ATOM     14  C   UNL     1     -44.226 -22.480  -3.042 -0.00 +0.00    +0.251 C  
DOCKED: BRANCH  14  15
DOCKED: ATOM     15  N   UNL     1     -44.966 -21.247  -2.800 -0.04 +0.00    +0.141 N  
DOCKED: ATOM     16  C   UNL     1     -45.845 -20.943  -3.930 -0.06 +0.00    +0.285 C  
DOCKED: ATOM     17  C   UNL     1     -45.743 -21.347  -1.564 -0.09 +0.00    +0.285 C  
DOCKED: ENDBRANCH  14  15
DOCKED: ENDBRANCH  13  14
DOCKED: ENDBRANCH  12  13
DOCKED: ENDBRANCH   2  12
DOCKED: BRANCH   2  18
DOCKED: ATOM     18  C   UNL     1     -45.915 -26.917  -2.558 -0.06 +0.00    +0.006 A  
DOCKED: ATOM     19  C   UNL     1     -46.538 -27.790  -1.668 -0.13 +0.00    +0.001 A  
DOCKED: ATOM     20  C   UNL     1     -46.557 -29.159  -1.935 -0.19 +0.00    +0.029 A  
DOCKED: ATOM     21  C   UNL     1     -45.955 -29.653  -3.092 -0.16 +0.00    +0.140 A  
DOCKED: ATOM     22  C   UNL     1     -45.332 -28.779  -3.982 -0.07 +0.00    +0.029 A  
DOCKED: ATOM     23  F   UNL     1     -45.975 -30.967  -3.349 -0.11 -0.00    -0.204 F  
DOCKED: ATOM     24  C   UNL     1     -45.311 -27.409  -3.715 -0.05 +0.00    +0.001 A  
DOCKED: ENDBRANCH   2  18
DOCKED: TORSDOF 5
DOCKED: TER
DOCKED: ENDMDL
________________________________________________________________________________


    FINAL DOCKED STATE:
    ________________________


Run:   128 / 512
Time taken for this run:   0.001s

DOCKED: MODEL        128
DOCKED: USER    Run = 128
DOCKED: USER
DOCKED: USER    Estimated Free Energy of Binding    =  -5.89 kcal/mol  [=(1)+(2)+(3)-(4)]
DOCKED: USER
DOCKED: USER    (1) Final Intermolecular Energy     =  -7.38 kcal/mol
DOCKED: USER        vdW + Hbond + desolv Energy     =  -7.38 kcal/mol
DOCKED: USER        Electrostatic Energy            =  +0.00 kcal/mol
DOCKED: USER        Moving Ligand-Fixed Receptor    =  -7.38 kcal/mol
DOCKED: USER        Moving Ligand-Moving Receptor   =  +0.00 kcal/mol
DOCKED: USER    (2) Final Total Internal Energy     =  -1.35 kcal/mol
DOCKED: USER    (3) Torsional Free Energy           =  +1.49 kcal/mol
DOCKED: USER    (4) Unbound System's Energy         =  -1.35 kcal/mol
DOCKED: USER
DOCKED: USER
DOCKED: REMARK  5 active torsions:
DOCKED: REMARK  status: ('A' for Active; 'I' for Inactive)
DOCKED: REMARK    1  A    between atoms: C_2  and  C_19 
DOCKED: REMARK    2  A    between atoms: C_2  and  C_11 
DOCKED: REMARK    3  A    between atoms: C_19  and  C_20 
DOCKED: REMARK    4  A    between atoms: C_20  and  C_21 
DOCKED: REMARK    5  A    between atoms: C_21  and  N_22 
DOCKED: USER                              x       y       z     vdW  Elec       q    Type
DOCKED: USER                           _______ _______ _______ _____ _____    ______ ____
DOCKED: ROOT
DOCKED: ATOM      1  O   UNL     1     -51.491 -31.265   7.909 -0.05 -0.00    -0.346 OA 
DOCKED: ATOM      2  C   UNL     1     -51.223 -32.704   7.884 -0.23 +0.00    +0.130 C  
DOCKED: ATOM      3  C   UNL     1     -51.766 -33.147   6.556 -0.34 +0.00    +0.004 A  
DOCKED: ATOM      4  C   UNL     1     -52.204 -32.043   5.838 -0.33 +0.00    +0.006 A  
DOCKED: ATOM      5  C   UNL     1     -51.974 -30.810   6.624 -0.23 +0.00    +0.169 C  
DOCKED: ATOM      6  C   UNL     1     -51.854 -34.424   6.021 -0.41 -0.00    -0.001 A  
DOCKED: ATOM      7  C   UNL     1     -52.746 -32.175   4.571 +0.06 +0.00    +0.008 A  
DOCKED: ATOM      8  C   UNL     1     -52.402 -34.575   4.746 -0.46 +0.00    +0.010 A  
DOCKED: ATOM      9  C   UNL     1     -52.845 -33.456   4.025 -0.40 +0.00    +0.068 A  
DOCKED: ATOM     10  N   UNL     1     -53.853 -33.770   1.659 -3.01 -0.00    -0.191 NA 
DOCKED: ATOM     11  C   UNL     1     -53.401 -33.629   2.720 -0.45 +0.00    +0.101 C  
DOCKED: ENDROOT
DOCKED: BRANCH   2  12
DOCKED: ATOM     12  C   UNL     1     -49.720 -32.917   8.012 -0.22 +0.00    +0.038 C  
DOCKED: BRANCH  12  13
DOCKED: ATOM     13  C   UNL     1     -48.998 -31.612   8.340 -0.18 +0.00    +0.038 C  
DOCKED: BRANCH  13  14
DOCKED: ATOM     14  C   UNL     1     -49.048 -31.318   9.838 -0.06 +0.00    +0.251 C  
DOCKED: BRANCH  14  15
DOCKED: ATOM     15  N   UNL     1     -48.759 -32.526  10.602 -0.08 +0.00    +0.141 N  
DOCKED: ATOM     16  C   UNL     1     -47.327 -32.823  10.576 -0.06 +0.00    +0.285 C  
DOCKED: ATOM     17  C   UNL     1     -49.223 -32.385  11.984 -0.04 +0.00    +0.285 C  
DOCKED: ENDBRANCH  14  15
DOCKED: ENDBRANCH  13  14
DOCKED: ENDBRANCH  12  13
DOCKED: ENDBRANCH   2  12
DOCKED: BRANCH   2  18
DOCKED: ATOM     18  C   UNL     1     -51.953 -33.304   9.039 -0.18 +0.00    +0.006 A  
DOCKED: ATOM     19  C   UNL     1     -51.297 -34.191   9.892 -0.13 +0.00    +0.001 A  
DOCKED: ATOM     20  C   UNL     1     -51.981 -34.751  10.972 -0.22 +0.00    +0.029 A  
DOCKED: ATOM     21  C   UNL     1     -53.317 -34.423  11.198 -0.10 +0.00    +0.140 A  
DOCKED: ATOM     22  C   UNL     1     -53.971 -33.535  10.345 -0.11 +0.00    +0.029 A  
DOCKED: ATOM     23  F   UNL     1     -53.972 -34.960  12.235 -0.03 -0.00    -0.204 F  
DOCKED: ATOM     24  C   UNL     1     -53.289 -32.975   9.264 -0.12 +0.00    +0.001 A  
DOCKED: ENDBRANCH   2  18
DOCKED: TORSDOF 5
DOCKED: TER
DOCKED: ENDMDL
________________________________________________________________________________


    FINAL DOCKED STATE:
    ________________________


Run:   129 / 512
Time taken for this run:   0.001s

DOCKED: MODEL        129
DOCKED: USER    Run = 129
DOCKED: USER
DOCKED: USER    Estimated Free Energy of Binding    =  -5.67 kcal/mol  [=(1)+(2)+(3)-(4)]
DOCKED: USER
DOCKED: USER    (1) Final Intermolecular Energy     =  -7.16 kcal/mol
DOCKED: USER        vdW + Hbond + desolv Energy     =  -7.16 kcal/mol
DOCKED: USER        Electrostatic Energy            =  +0.00 kcal/mol
DOCKED: USER        Moving Ligand-Fixed Receptor    =  -7.16 kcal/mol
DOCKED: USER        Moving Ligand-Moving Receptor   =  +0.00 kcal/mol
DOCKED: USER    (2) Final Total Internal Energy     =  -1.44 kcal/mol
DOCKED: USER    (3) Torsional Free Energy           =  +1.49 kcal/mol
DOCKED: USER    (4) Unbound System's Energy         =  -1.44 kcal/mol
DOCKED: USER
DOCKED: USER
DOCKED: REMARK  5 active torsions:
DOCKED: REMARK  status: ('A' for Active; 'I' for Inactive)
DOCKED: REMARK    1  A    between atoms: C_2  and  C_19 
DOCKED: REMARK    2  A    between atoms: C_2  and  C_11 
DOCKED: REMARK    3  A    between atoms: C_19  and  C_20 
DOCKED: REMARK    4  A    between atoms: C_20  and  C_21 
DOCKED: REMARK    5  A    between atoms: C_21  and  N_22 
DOCKED: USER                              x       y       z     vdW  Elec       q    Type
DOCKED: USER                           _______ _______ _______ _____ _____    ______ ____
DOCKED: ROOT
DOCKED: ATOM      1  O   UNL     1     -51.413 -31.150   7.789 -0.06 -0.00    -0.346 OA 
DOCKED: ATOM      2  C   UNL     1     -51.185 -32.595   7.838 -0.23 +0.00    +0.130 C  
DOCKED: ATOM      3  C   UNL     1     -51.736 -33.090   6.531 -0.34 +0.00    +0.004 A  
DOCKED: ATOM      4  C   UNL     1     -52.142 -32.012   5.757 -0.32 +0.00    +0.006 A  
DOCKED: ATOM      5  C   UNL     1     -51.880 -30.748   6.481 -0.24 +0.00    +0.169 C  
DOCKED: ATOM      6  C   UNL     1     -51.857 -34.389   6.061 -0.42 -0.00    -0.001 A  
DOCKED: ATOM      7  C   UNL     1     -52.684 -32.194   4.496 +0.03 +0.00    +0.008 A  
DOCKED: ATOM      8  C   UNL     1     -52.405 -34.590   4.793 -0.46 +0.00    +0.010 A  
DOCKED: ATOM      9  C   UNL     1     -52.816 -33.497   4.015 -0.40 +0.00    +0.068 A  
DOCKED: ATOM     10  N   UNL     1     -53.826 -33.904   1.664 -2.95 -0.00    -0.191 NA 
DOCKED: ATOM     11  C   UNL     1     -53.373 -33.721   2.718 -0.42 +0.00    +0.101 C  
DOCKED: ENDROOT
DOCKED: BRANCH   2  12
DOCKED: ATOM     12  C   UNL     1     -49.688 -32.843   7.983 -0.22 +0.00    +0.038 C  
DOCKED: BRANCH  12  13
DOCKED: ATOM     13  C   UNL     1     -48.932 -31.543   8.251 -0.15 +0.00    +0.038 C  
DOCKED: BRANCH  13  14
DOCKED: ATOM     14  C   UNL     1     -47.990 -31.692   9.444 -0.08 +0.00    +0.251 C  
DOCKED: BRANCH  14  15
DOCKED: ATOM     15  N   UNL     1     -48.632 -31.208  10.661 -0.04 +0.00    +0.141 N  
DOCKED: ATOM     16  C   UNL     1     -49.652 -30.207  10.343 -0.01 +0.00    +0.285 C  
DOCKED: ATOM     17  C   UNL     1     -49.225 -32.318  11.407 -0.04 +0.00    +0.285 C  
DOCKED: ENDBRANCH  14  15
DOCKED: ENDBRANCH  13  14
DOCKED: ENDBRANCH  12  13
DOCKED: ENDBRANCH   2  12
DOCKED: BRANCH   2  18
DOCKED: ATOM     18  C   UNL     1     -51.934 -33.116   9.019 -0.17 +0.00    +0.006 A  
DOCKED: ATOM     19  C   UNL     1     -51.544 -34.312   9.619 -0.22 +0.00    +0.001 A  
DOCKED: ATOM     20  C   UNL     1     -52.245 -34.798  10.723 -0.15 +0.00    +0.029 A  
DOCKED: ATOM     21  C   UNL     1     -53.334 -34.087  11.226 -0.10 +0.00    +0.140 A  
DOCKED: ATOM     22  C   UNL     1     -53.723 -32.890  10.626 -0.07 +0.00    +0.029 A  
DOCKED: ATOM     23  F   UNL     1     -54.005 -34.553  12.287 -0.02 -0.00    -0.204 F  
DOCKED: ATOM     24  C   UNL     1     -53.022 -32.404   9.520 -0.09 +0.00    +0.001 A  
DOCKED: ENDBRANCH   2  18
DOCKED: TORSDOF 5
DOCKED: TER
DOCKED: ENDMDL
________________________________________________________________________________


    FINAL DOCKED STATE:
    ________________________


Run:   130 / 512
Time taken for this run:   0.001s

DOCKED: MODEL        130
DOCKED: USER    Run = 130
DOCKED: USER
DOCKED: USER    Estimated Free Energy of Binding    =  -4.23 kcal/mol  [=(1)+(2)+(3)-(4)]
DOCKED: USER
DOCKED: USER    (1) Final Intermolecular Energy     =  -5.73 kcal/mol
DOCKED: USER        vdW + Hbond + desolv Energy     =  -5.73 kcal/mol
DOCKED: USER        Electrostatic Energy            =  +0.00 kcal/mol
DOCKED: USER        Moving Ligand-Fixed Receptor    =  -5.73 kcal/mol
DOCKED: USER        Moving Ligand-Moving Receptor   =  +0.00 kcal/mol
DOCKED: USER    (2) Final Total Internal Energy     =  -1.37 kcal/mol
DOCKED: USER    (3) Torsional Free Energy           =  +1.49 kcal/mol
DOCKED: USER    (4) Unbound System's Energy         =  -1.37 kcal/mol
DOCKED: USER
DOCKED: USER
DOCKED: REMARK  5 active torsions:
DOCKED: REMARK  status: ('A' for Active; 'I' for Inactive)
DOCKED: REMARK    1  A    between atoms: C_2  and  C_19 
DOCKED: REMARK    2  A    between atoms: C_2  and  C_11 
DOCKED: REMARK    3  A    between atoms: C_19  and  C_20 
DOCKED: REMARK    4  A    between atoms: C_20  and  C_21 
DOCKED: REMARK    5  A    between atoms: C_21  and  N_22 
DOCKED: USER                              x       y       z     vdW  Elec       q    Type
DOCKED: USER                           _______ _______ _______ _____ _____    ______ ____
DOCKED: ROOT
DOCKED: ATOM      1  O   UNL     1     -50.487 -33.051   8.436 -0.11 -0.00    -0.346 OA 
DOCKED: ATOM      2  C   UNL     1     -51.684 -32.211   8.372 -0.14 +0.00    +0.130 C  
DOCKED: ATOM      3  C   UNL     1     -52.296 -32.558   7.046 -0.27 +0.00    +0.004 A  
DOCKED: ATOM      4  C   UNL     1     -51.575 -33.585   6.453 -0.37 +0.00    +0.006 A  
DOCKED: ATOM      5  C   UNL     1     -50.460 -33.992   7.337 -0.19 +0.00    +0.169 C  
DOCKED: ATOM      6  C   UNL     1     -53.409 -32.016   6.419 -0.27 -0.00    -0.001 A  
DOCKED: ATOM      7  C   UNL     1     -51.936 -34.101   5.220 -0.30 +0.00    +0.008 A  
DOCKED: ATOM      8  C   UNL     1     -53.783 -32.522   5.173 -0.02 +0.00    +0.010 A  
DOCKED: ATOM      9  C   UNL     1     -53.050 -33.559   4.577 -0.41 +0.00    +0.068 A  
DOCKED: ATOM     10  N   UNL     1     -53.775 -34.479   2.265 -1.99 -0.00    -0.191 NA 
DOCKED: ATOM     11  C   UNL     1     -53.450 -34.066   3.302 -0.51 +0.00    +0.101 C  
DOCKED: ENDROOT
DOCKED: BRANCH   2  12
DOCKED: ATOM     12  C   UNL     1     -52.583 -32.562   9.551 -0.11 +0.00    +0.038 C  
DOCKED: BRANCH  12  13
DOCKED: ATOM     13  C   UNL     1     -52.586 -34.065   9.821 -0.23 +0.00    +0.038 C  
DOCKED: BRANCH  13  14
DOCKED: ATOM     14  C   UNL     1     -53.728 -34.755   9.078 -0.10 +0.00    +0.251 C  
DOCKED: BRANCH  14  15
DOCKED: ATOM     15  N   UNL     1     -54.858 -33.846   8.928 -0.11 +0.00    +0.141 N  
DOCKED: ATOM     16  C   UNL     1     -55.702 -34.253   7.803 -0.08 +0.00    +0.285 C  
DOCKED: ATOM     17  C   UNL     1     -55.645 -33.795  10.161 -0.04 +0.00    +0.285 C  
DOCKED: ENDBRANCH  14  15
DOCKED: ENDBRANCH  13  14
DOCKED: ENDBRANCH  12  13
DOCKED: ENDBRANCH   2  12
DOCKED: BRANCH   2  18
DOCKED: ATOM     18  C   UNL     1     -51.226 -30.793   8.447 -0.11 +0.00    +0.006 A  
DOCKED: ATOM     19  C   UNL     1     -51.731 -29.949   9.436 -0.04 +0.00    +0.001 A  
DOCKED: ATOM     20  C   UNL     1     -51.302 -28.623   9.505 -0.02 +0.00    +0.029 A  
DOCKED: ATOM     21  C   UNL     1     -50.370 -28.143   8.587 -0.03 +0.00    +0.140 A  
DOCKED: ATOM     22  C   UNL     1     -49.865 -28.987   7.598 -0.11 +0.00    +0.029 A  
DOCKED: ATOM     23  F   UNL     1     -49.957 -26.870   8.655 +0.00 -0.00    -0.204 F  
DOCKED: ATOM     24  C   UNL     1     -50.293 -30.314   7.528 -0.17 +0.00    +0.001 A  
DOCKED: ENDBRANCH   2  18
DOCKED: TORSDOF 5
DOCKED: TER
DOCKED: ENDMDL
________________________________________________________________________________


    FINAL DOCKED STATE:
    ________________________


Run:   131 / 512
Time taken for this run:   0.001s

DOCKED: MODEL        131
DOCKED: USER    Run = 131
DOCKED: USER
DOCKED: USER    Estimated Free Energy of Binding    =  -3.86 kcal/mol  [=(1)+(2)+(3)-(4)]
DOCKED: USER
DOCKED: USER    (1) Final Intermolecular Energy     =  -5.35 kcal/mol
DOCKED: USER        vdW + Hbond + desolv Energy     =  -5.35 kcal/mol
DOCKED: USER        Electrostatic Energy            =  +0.00 kcal/mol
DOCKED: USER        Moving Ligand-Fixed Receptor    =  -5.35 kcal/mol
DOCKED: USER        Moving Ligand-Moving Receptor   =  +0.00 kcal/mol
DOCKED: USER    (2) Final Total Internal Energy     =  -1.15 kcal/mol
DOCKED: USER    (3) Torsional Free Energy           =  +1.49 kcal/mol
DOCKED: USER    (4) Unbound System's Energy         =  -1.15 kcal/mol
DOCKED: USER
DOCKED: USER
DOCKED: REMARK  5 active torsions:
DOCKED: REMARK  status: ('A' for Active; 'I' for Inactive)
DOCKED: REMARK    1  A    between atoms: C_2  and  C_19 
DOCKED: REMARK    2  A    between atoms: C_2  and  C_11 
DOCKED: REMARK    3  A    between atoms: C_19  and  C_20 
DOCKED: REMARK    4  A    between atoms: C_20  and  C_21 
DOCKED: REMARK    5  A    between atoms: C_21  and  N_22 
DOCKED: USER                              x       y       z     vdW  Elec       q    Type
DOCKED: USER                           _______ _______ _______ _____ _____    ______ ____
DOCKED: ROOT
DOCKED: ATOM      1  O   UNL     1     -46.030 -29.595   0.790 +0.00 -0.00    -0.346 OA 
DOCKED: ATOM      2  C   UNL     1     -45.194 -30.526   0.031 -0.10 +0.00    +0.130 C  
DOCKED: ATOM      3  C   UNL     1     -45.288 -31.808   0.807 -0.15 +0.00    +0.004 A  
DOCKED: ATOM      4  C   UNL     1     -46.186 -31.655   1.855 -0.25 +0.00    +0.006 A  
DOCKED: ATOM      5  C   UNL     1     -46.750 -30.286   1.837 -0.18 +0.00    +0.169 C  
DOCKED: ATOM      6  C   UNL     1     -44.640 -33.016   0.597 -0.14 -0.00    -0.001 A  
DOCKED: ATOM      7  C   UNL     1     -46.462 -32.696   2.725 -0.26 +0.00    +0.008 A  
DOCKED: ATOM      8  C   UNL     1     -44.904 -34.074   1.468 -0.22 +0.00    +0.010 A  
DOCKED: ATOM      9  C   UNL     1     -45.811 -33.914   2.526 -0.31 +0.00    +0.068 A  
DOCKED: ATOM     10  N   UNL     1     -46.283 -35.900   4.123 -2.64 -0.00    -0.191 NA 
DOCKED: ATOM     11  C   UNL     1     -46.071 -35.009   3.407 -0.35 +0.00    +0.101 C  
DOCKED: ENDROOT
DOCKED: BRANCH   2  12
DOCKED: ATOM     12  C   UNL     1     -45.760 -30.643  -1.379 -0.09 +0.00    +0.038 C  
DOCKED: BRANCH  12  13
DOCKED: ATOM     13  C   UNL     1     -46.840 -29.594  -1.635 -0.14 +0.00    +0.038 C  
DOCKED: BRANCH  13  14
DOCKED: ATOM     14  C   UNL     1     -46.247 -28.339  -2.273 -0.12 +0.00    +0.251 C  
DOCKED: BRANCH  14  15
DOCKED: ATOM     15  N   UNL     1     -46.379 -28.398  -3.724 -0.14 +0.00    +0.141 N  
DOCKED: ATOM     16  C   UNL     1     -45.061 -28.427  -4.362 -0.02 +0.00    +0.285 C  
DOCKED: ATOM     17  C   UNL     1     -47.162 -29.568  -4.124 -0.21 +0.00    +0.285 C  
DOCKED: ENDBRANCH  14  15
DOCKED: ENDBRANCH  13  14
DOCKED: ENDBRANCH  12  13
DOCKED: ENDBRANCH   2  12
DOCKED: BRANCH   2  18
DOCKED: ATOM     18  C   UNL     1     -43.815 -29.957   0.012 -0.03 +0.00    +0.006 A  
DOCKED: ATOM     19  C   UNL     1     -43.436 -29.016   0.968 -0.01 +0.00    +0.001 A  
DOCKED: ATOM     20  C   UNL     1     -42.146 -28.484   0.949 -0.00 +0.00    +0.029 A  
DOCKED: ATOM     21  C   UNL     1     -41.237 -28.896  -0.024 +0.00 +0.00    +0.140 A  
DOCKED: ATOM     22  C   UNL     1     -41.616 -29.838  -0.980 -0.00 +0.00    +0.029 A  
DOCKED: ATOM     23  F   UNL     1     -39.998 -28.387  -0.041 +0.00 -0.00    -0.204 F  
DOCKED: ATOM     24  C   UNL     1     -42.907 -30.369  -0.962 -0.01 +0.00    +0.001 A  
DOCKED: ENDBRANCH   2  18
DOCKED: TORSDOF 5
DOCKED: TER
DOCKED: ENDMDL
________________________________________________________________________________


    FINAL DOCKED STATE:
    ________________________


Run:   132 / 512
Time taken for this run:   0.001s

DOCKED: MODEL        132
DOCKED: USER    Run = 132
DOCKED: USER
DOCKED: USER    Estimated Free Energy of Binding    =  -4.78 kcal/mol  [=(1)+(2)+(3)-(4)]
DOCKED: USER
DOCKED: USER    (1) Final Intermolecular Energy     =  -6.28 kcal/mol
DOCKED: USER        vdW + Hbond + desolv Energy     =  -6.28 kcal/mol
DOCKED: USER        Electrostatic Energy            =  +0.00 kcal/mol
DOCKED: USER        Moving Ligand-Fixed Receptor    =  -6.28 kcal/mol
DOCKED: USER        Moving Ligand-Moving Receptor   =  +0.00 kcal/mol
DOCKED: USER    (2) Final Total Internal Energy     =  -1.11 kcal/mol
DOCKED: USER    (3) Torsional Free Energy           =  +1.49 kcal/mol
DOCKED: USER    (4) Unbound System's Energy         =  -1.11 kcal/mol
DOCKED: USER
DOCKED: USER
DOCKED: REMARK  5 active torsions:
DOCKED: REMARK  status: ('A' for Active; 'I' for Inactive)
DOCKED: REMARK    1  A    between atoms: C_2  and  C_19 
DOCKED: REMARK    2  A    between atoms: C_2  and  C_11 
DOCKED: REMARK    3  A    between atoms: C_19  and  C_20 
DOCKED: REMARK    4  A    between atoms: C_20  and  C_21 
DOCKED: REMARK    5  A    between atoms: C_21  and  N_22 
DOCKED: USER                              x       y       z     vdW  Elec       q    Type
DOCKED: USER                           _______ _______ _______ _____ _____    ______ ____
DOCKED: ROOT
DOCKED: ATOM      1  O   UNL     1     -51.778 -31.164   8.759 -0.02 -0.00    -0.346 OA 
DOCKED: ATOM      2  C   UNL     1     -51.383 -32.573   8.796 -0.15 +0.00    +0.130 C  
DOCKED: ATOM      3  C   UNL     1     -51.778 -33.092   7.444 -0.28 +0.00    +0.004 A  
DOCKED: ATOM      4  C   UNL     1     -52.255 -32.049   6.664 -0.30 +0.00    +0.006 A  
DOCKED: ATOM      5  C   UNL     1     -52.197 -30.783   7.428 -0.17 +0.00    +0.169 C  
DOCKED: ATOM      6  C   UNL     1     -51.711 -34.384   6.942 -0.37 -0.00    -0.001 A  
DOCKED: ATOM      7  C   UNL     1     -52.682 -32.258   5.364 -0.34 +0.00    +0.008 A  
DOCKED: ATOM      8  C   UNL     1     -52.142 -34.612   5.634 -0.38 +0.00    +0.010 A  
DOCKED: ATOM      9  C   UNL     1     -52.625 -33.554   4.849 -0.38 +0.00    +0.068 A  
DOCKED: ATOM     10  N   UNL     1     -53.412 -34.011   2.423 -1.97 -0.00    -0.191 NA 
DOCKED: ATOM     11  C   UNL     1     -53.060 -33.806   3.511 -0.53 +0.00    +0.101 C  
DOCKED: ENDROOT
DOCKED: BRANCH   2  12
DOCKED: ATOM     12  C   UNL     1     -49.881 -32.647   9.045 -0.18 +0.00    +0.038 C  
DOCKED: BRANCH  12  13
DOCKED: ATOM     13  C   UNL     1     -49.101 -31.891   7.970 -0.09 +0.00    +0.038 C  
DOCKED: BRANCH  13  14
DOCKED: ATOM     14  C   UNL     1     -47.666 -31.623   8.420 -0.11 +0.00    +0.251 C  
DOCKED: BRANCH  14  15
DOCKED: ATOM     15  N   UNL     1     -47.314 -30.228   8.187 -0.07 +0.00    +0.141 N  
DOCKED: ATOM     16  C   UNL     1     -48.389 -29.536   7.475 -0.08 +0.00    +0.285 C  
DOCKED: ATOM     17  C   UNL     1     -47.025 -29.551   9.452 -0.01 +0.00    +0.285 C  
DOCKED: ENDBRANCH  14  15
DOCKED: ENDBRANCH  13  14
DOCKED: ENDBRANCH  12  13
DOCKED: ENDBRANCH   2  12
DOCKED: BRANCH   2  18
DOCKED: ATOM     18  C   UNL     1     -52.145 -33.210   9.910 -0.14 +0.00    +0.006 A  
DOCKED: ATOM     19  C   UNL     1     -53.475 -32.858  10.135 -0.09 +0.00    +0.001 A  
DOCKED: ATOM     20  C   UNL     1     -54.186 -33.454  11.177 -0.09 +0.00    +0.029 A  
DOCKED: ATOM     21  C   UNL     1     -53.567 -34.402  11.991 -0.10 +0.00    +0.140 A  
DOCKED: ATOM     22  C   UNL     1     -52.236 -34.753  11.765 -0.20 +0.00    +0.029 A  
DOCKED: ATOM     23  F   UNL     1     -54.250 -34.975  12.990 -0.02 -0.00    -0.204 F  
DOCKED: ATOM     24  C   UNL     1     -51.524 -34.157  10.724 -0.21 +0.00    +0.001 A  
DOCKED: ENDBRANCH   2  18
DOCKED: TORSDOF 5
DOCKED: TER
DOCKED: ENDMDL
________________________________________________________________________________


    FINAL DOCKED STATE:
    ________________________


Run:   133 / 512
Time taken for this run:   0.001s

DOCKED: MODEL        133
DOCKED: USER    Run = 133
DOCKED: USER
DOCKED: USER    Estimated Free Energy of Binding    =  -3.73 kcal/mol  [=(1)+(2)+(3)-(4)]
DOCKED: USER
DOCKED: USER    (1) Final Intermolecular Energy     =  -5.22 kcal/mol
DOCKED: USER        vdW + Hbond + desolv Energy     =  -5.22 kcal/mol
DOCKED: USER        Electrostatic Energy            =  +0.00 kcal/mol
DOCKED: USER        Moving Ligand-Fixed Receptor    =  -5.22 kcal/mol
DOCKED: USER        Moving Ligand-Moving Receptor   =  +0.00 kcal/mol
DOCKED: USER    (2) Final Total Internal Energy     =  -1.33 kcal/mol
DOCKED: USER    (3) Torsional Free Energy           =  +1.49 kcal/mol
DOCKED: USER    (4) Unbound System's Energy         =  -1.33 kcal/mol
DOCKED: USER
DOCKED: USER
DOCKED: REMARK  5 active torsions:
DOCKED: REMARK  status: ('A' for Active; 'I' for Inactive)
DOCKED: REMARK    1  A    between atoms: C_2  and  C_19 
DOCKED: REMARK    2  A    between atoms: C_2  and  C_11 
DOCKED: REMARK    3  A    between atoms: C_19  and  C_20 
DOCKED: REMARK    4  A    between atoms: C_20  and  C_21 
DOCKED: REMARK    5  A    between atoms: C_21  and  N_22 
DOCKED: USER                              x       y       z     vdW  Elec       q    Type
DOCKED: USER                           _______ _______ _______ _____ _____    ______ ____
DOCKED: ROOT
DOCKED: ATOM      1  O   UNL     1     -45.485 -20.041  -1.917 -0.06 -0.00    -0.346 OA 
DOCKED: ATOM      2  C   UNL     1     -45.262 -20.416  -3.314 -0.10 +0.00    +0.130 C  
DOCKED: ATOM      3  C   UNL     1     -46.579 -20.992  -3.746 -0.10 +0.00    +0.004 A  
DOCKED: ATOM      4  C   UNL     1     -47.506 -20.857  -2.723 -0.18 +0.00    +0.006 A  
DOCKED: ATOM      5  C   UNL     1     -46.881 -20.181  -1.565 -0.21 +0.00    +0.169 C  
DOCKED: ATOM      6  C   UNL     1     -46.931 -21.579  -4.953 -0.21 -0.00    -0.001 A  
DOCKED: ATOM      7  C   UNL     1     -48.809 -21.304  -2.867 -0.23 +0.00    +0.008 A  
DOCKED: ATOM      8  C   UNL     1     -48.240 -22.039  -5.113 -0.33 +0.00    +0.010 A  
DOCKED: ATOM      9  C   UNL     1     -49.173 -21.901  -4.075 -0.39 +0.00    +0.068 A  
DOCKED: ATOM     10  N   UNL     1     -51.595 -22.761  -4.405 -2.37 -0.00    -0.191 NA 
DOCKED: ATOM     11  C   UNL     1     -50.509 -22.376  -4.257 -0.34 +0.00    +0.101 C  
DOCKED: ENDROOT
DOCKED: BRANCH   2  12
DOCKED: ATOM     12  C   UNL     1     -44.876 -19.165  -4.094 -0.12 +0.00    +0.038 C  
DOCKED: BRANCH  12  13
DOCKED: ATOM     13  C   UNL     1     -44.575 -17.996  -3.159 -0.12 +0.00    +0.038 C  
DOCKED: BRANCH  13  14
DOCKED: ATOM     14  C   UNL     1     -45.659 -16.924  -3.251 -0.11 +0.00    +0.251 C  
DOCKED: BRANCH  14  15
DOCKED: ATOM     15  N   UNL     1     -46.138 -16.570  -1.920 -0.11 +0.00    +0.141 N  
DOCKED: ATOM     16  C   UNL     1     -47.559 -16.894  -1.780 -0.12 +0.00    +0.285 C  
DOCKED: ATOM     17  C   UNL     1     -45.356 -17.259  -0.892 -0.04 +0.00    +0.285 C  
DOCKED: ENDBRANCH  14  15
DOCKED: ENDBRANCH  13  14
DOCKED: ENDBRANCH  12  13
DOCKED: ENDBRANCH   2  12
DOCKED: BRANCH   2  18
DOCKED: ATOM     18  C   UNL     1     -44.157 -21.419  -3.325 -0.04 +0.00    +0.006 A  
DOCKED: ATOM     19  C   UNL     1     -43.513 -21.733  -4.521 -0.02 +0.00    +0.001 A  
DOCKED: ATOM     20  C   UNL     1     -42.480 -22.672  -4.530 -0.00 +0.00    +0.029 A  
DOCKED: ATOM     21  C   UNL     1     -42.092 -23.293  -3.343 +0.00 +0.00    +0.140 A  
DOCKED: ATOM     22  C   UNL     1     -42.737 -22.978  -2.147 -0.01 +0.00    +0.029 A  
DOCKED: ATOM     23  F   UNL     1     -41.100 -24.192  -3.352 -0.00 -0.00    -0.204 F  
DOCKED: ATOM     24  C   UNL     1     -43.770 -22.040  -2.138 -0.02 +0.00    +0.001 A  
DOCKED: ENDBRANCH   2  18
DOCKED: TORSDOF 5
DOCKED: TER
DOCKED: ENDMDL
________________________________________________________________________________


    FINAL DOCKED STATE:
    ________________________


Run:   134 / 512
Time taken for this run:   0.001s

DOCKED: MODEL        134
DOCKED: USER    Run = 134
DOCKED: USER
DOCKED: USER    Estimated Free Energy of Binding    =  -4.20 kcal/mol  [=(1)+(2)+(3)-(4)]
DOCKED: USER
DOCKED: USER    (1) Final Intermolecular Energy     =  -5.69 kcal/mol
DOCKED: USER        vdW + Hbond + desolv Energy     =  -5.69 kcal/mol
DOCKED: USER        Electrostatic Energy            =  +0.00 kcal/mol
DOCKED: USER        Moving Ligand-Fixed Receptor    =  -5.69 kcal/mol
DOCKED: USER        Moving Ligand-Moving Receptor   =  +0.00 kcal/mol
DOCKED: USER    (2) Final Total Internal Energy     =  -1.55 kcal/mol
DOCKED: USER    (3) Torsional Free Energy           =  +1.49 kcal/mol
DOCKED: USER    (4) Unbound System's Energy         =  -1.55 kcal/mol
DOCKED: USER
DOCKED: USER
DOCKED: REMARK  5 active torsions:
DOCKED: REMARK  status: ('A' for Active; 'I' for Inactive)
DOCKED: REMARK    1  A    between atoms: C_2  and  C_19 
DOCKED: REMARK    2  A    between atoms: C_2  and  C_11 
DOCKED: REMARK    3  A    between atoms: C_19  and  C_20 
DOCKED: REMARK    4  A    between atoms: C_20  and  C_21 
DOCKED: REMARK    5  A    between atoms: C_21  and  N_22 
DOCKED: USER                              x       y       z     vdW  Elec       q    Type
DOCKED: USER                           _______ _______ _______ _____ _____    ______ ____
DOCKED: ROOT
DOCKED: ATOM      1  O   UNL     1     -49.520 -30.407   8.323 -0.06 -0.00    -0.346 OA 
DOCKED: ATOM      2  C   UNL     1     -50.737 -29.772   7.814 -0.12 +0.00    +0.130 C  
DOCKED: ATOM      3  C   UNL     1     -51.497 -30.904   7.185 -0.23 +0.00    +0.004 A  
DOCKED: ATOM      4  C   UNL     1     -50.828 -32.099   7.412 -0.24 +0.00    +0.006 A  
DOCKED: ATOM      5  C   UNL     1     -49.604 -31.847   8.205 -0.15 +0.00    +0.169 C  
DOCKED: ATOM      6  C   UNL     1     -52.691 -30.879   6.479 -0.27 -0.00    -0.001 A  
DOCKED: ATOM      7  C   UNL     1     -51.324 -33.302   6.940 -0.33 +0.00    +0.008 A  
DOCKED: ATOM      8  C   UNL     1     -53.201 -32.084   5.993 -0.29 +0.00    +0.010 A  
DOCKED: ATOM      9  C   UNL     1     -52.521 -33.290   6.223 -0.31 +0.00    +0.068 A  
DOCKED: ATOM     10  N   UNL     1     -53.498 -35.509   5.311 -2.58 -0.00    -0.191 NA 
DOCKED: ATOM     11  C   UNL     1     -53.060 -34.514   5.720 -0.31 +0.00    +0.101 C  
DOCKED: ENDROOT
DOCKED: BRANCH   2  12
DOCKED: ATOM     12  C   UNL     1     -51.477 -29.139   8.986 -0.05 +0.00    +0.038 C  
DOCKED: BRANCH  12  13
DOCKED: ATOM     13  C   UNL     1     -50.702 -29.307  10.291 -0.02 +0.00    +0.038 C  
DOCKED: BRANCH  13  14
DOCKED: ATOM     14  C   UNL     1     -50.002 -28.009  10.686 -0.00 +0.00    +0.251 C  
DOCKED: BRANCH  14  15
DOCKED: ATOM     15  N   UNL     1     -49.107 -27.571   9.622 -0.01 +0.00    +0.141 N  
DOCKED: ATOM     16  C   UNL     1     -49.289 -26.144   9.349 -0.00 +0.00    +0.285 C  
DOCKED: ATOM     17  C   UNL     1     -47.713 -27.846   9.974 -0.00 +0.00    +0.285 C  
DOCKED: ENDBRANCH  14  15
DOCKED: ENDBRANCH  13  14
DOCKED: ENDBRANCH  12  13
DOCKED: ENDBRANCH   2  12
DOCKED: BRANCH   2  18
DOCKED: ATOM     18  C   UNL     1     -50.308 -28.739   6.826 -0.15 +0.00    +0.006 A  
DOCKED: ATOM     19  C   UNL     1     -51.175 -27.702   6.482 -0.13 +0.00    +0.001 A  
DOCKED: ATOM     20  C   UNL     1     -50.773 -26.737   5.558 -0.09 +0.00    +0.029 A  
DOCKED: ATOM     21  C   UNL     1     -49.507 -26.810   4.979 -0.07 +0.00    +0.140 A  
DOCKED: ATOM     22  C   UNL     1     -48.641 -27.848   5.323 -0.11 +0.00    +0.029 A  
DOCKED: ATOM     23  F   UNL     1     -49.121 -25.883   4.093 -0.01 -0.00    -0.204 F  
DOCKED: ATOM     24  C   UNL     1     -49.042 -28.814   6.248 -0.15 +0.00    +0.001 A  
DOCKED: ENDBRANCH   2  18
DOCKED: TORSDOF 5
DOCKED: TER
DOCKED: ENDMDL
________________________________________________________________________________


    FINAL DOCKED STATE:
    ________________________


Run:   135 / 512
Time taken for this run:   0.001s

DOCKED: MODEL        135
DOCKED: USER    Run = 135
DOCKED: USER
DOCKED: USER    Estimated Free Energy of Binding    =  -4.17 kcal/mol  [=(1)+(2)+(3)-(4)]
DOCKED: USER
DOCKED: USER    (1) Final Intermolecular Energy     =  -5.67 kcal/mol
DOCKED: USER        vdW + Hbond + desolv Energy     =  -5.67 kcal/mol
DOCKED: USER        Electrostatic Energy            =  +0.00 kcal/mol
DOCKED: USER        Moving Ligand-Fixed Receptor    =  -5.67 kcal/mol
DOCKED: USER        Moving Ligand-Moving Receptor   =  +0.00 kcal/mol
DOCKED: USER    (2) Final Total Internal Energy     =  -1.28 kcal/mol
DOCKED: USER    (3) Torsional Free Energy           =  +1.49 kcal/mol
DOCKED: USER    (4) Unbound System's Energy         =  -1.28 kcal/mol
DOCKED: USER
DOCKED: USER
DOCKED: REMARK  5 active torsions:
DOCKED: REMARK  status: ('A' for Active; 'I' for Inactive)
DOCKED: REMARK    1  A    between atoms: C_2  and  C_19 
DOCKED: REMARK    2  A    between atoms: C_2  and  C_11 
DOCKED: REMARK    3  A    between atoms: C_19  and  C_20 
DOCKED: REMARK    4  A    between atoms: C_20  and  C_21 
DOCKED: REMARK    5  A    between atoms: C_21  and  N_22 
DOCKED: USER                              x       y       z     vdW  Elec       q    Type
DOCKED: USER                           _______ _______ _______ _____ _____    ______ ____
DOCKED: ROOT
DOCKED: ATOM      1  O   UNL     1     -50.242 -29.842   7.932 -0.05 -0.00    -0.346 OA 
DOCKED: ATOM      2  C   UNL     1     -51.662 -29.498   7.856 -0.11 +0.00    +0.130 C  
DOCKED: ATOM      3  C   UNL     1     -52.300 -30.726   7.274 -0.21 +0.00    +0.004 A  
DOCKED: ATOM      4  C   UNL     1     -51.347 -31.724   7.132 -0.25 +0.00    +0.006 A  
DOCKED: ATOM      5  C   UNL     1     -50.035 -31.238   7.615 -0.12 +0.00    +0.169 C  
DOCKED: ATOM      6  C   UNL     1     -53.620 -30.946   6.909 -0.23 -0.00    -0.001 A  
DOCKED: ATOM      7  C   UNL     1     -51.676 -32.968   6.620 -0.32 +0.00    +0.008 A  
DOCKED: ATOM      8  C   UNL     1     -53.967 -32.193   6.388 -0.25 +0.00    +0.010 A  
DOCKED: ATOM      9  C   UNL     1     -53.000 -33.199   6.244 -0.28 +0.00    +0.068 A  
DOCKED: ATOM     10  N   UNL     1     -53.679 -35.504   5.277 -2.53 -0.00    -0.191 NA 
DOCKED: ATOM     11  C   UNL     1     -53.375 -34.470   5.710 -0.34 +0.00    +0.101 C  
DOCKED: ENDROOT
DOCKED: BRANCH   2  12
DOCKED: ATOM     12  C   UNL     1     -52.158 -29.182   9.263 -0.04 +0.00    +0.038 C  
DOCKED: BRANCH  12  13
DOCKED: ATOM     13  C   UNL     1     -51.014 -29.208  10.275 -0.02 +0.00    +0.038 C  
DOCKED: BRANCH  13  14
DOCKED: ATOM     14  C   UNL     1     -51.158 -30.387  11.236 -0.01 +0.00    +0.251 C  
DOCKED: BRANCH  14  15
DOCKED: ATOM     15  N   UNL     1     -49.845 -30.873  11.643 -0.01 +0.00    +0.141 N  
DOCKED: ATOM     16  C   UNL     1     -49.605 -32.215  11.113 -0.05 +0.00    +0.285 C  
DOCKED: ATOM     17  C   UNL     1     -48.795 -29.955  11.197 -0.01 +0.00    +0.285 C  
DOCKED: ENDBRANCH  14  15
DOCKED: ENDBRANCH  13  14
DOCKED: ENDBRANCH  12  13
DOCKED: ENDBRANCH   2  12
DOCKED: BRANCH   2  18
DOCKED: ATOM     18  C   UNL     1     -51.775 -28.305   6.966 -0.15 +0.00    +0.006 A  
DOCKED: ATOM     19  C   UNL     1     -53.025 -27.739   6.715 -0.18 +0.00    +0.001 A  
DOCKED: ATOM     20  C   UNL     1     -53.129 -26.625   5.882 -0.16 +0.00    +0.029 A  
DOCKED: ATOM     21  C   UNL     1     -51.985 -26.078   5.301 -0.11 +0.00    +0.140 A  
DOCKED: ATOM     22  C   UNL     1     -50.736 -26.646   5.552 -0.10 +0.00    +0.029 A  
DOCKED: ATOM     23  F   UNL     1     -52.085 -25.008   4.503 -0.03 -0.00    -0.204 F  
DOCKED: ATOM     24  C   UNL     1     -50.631 -27.761   6.385 -0.13 +0.00    +0.001 A  
DOCKED: ENDBRANCH   2  18
DOCKED: TORSDOF 5
DOCKED: TER
DOCKED: ENDMDL
________________________________________________________________________________


    FINAL DOCKED STATE:
    ________________________


Run:   136 / 512
Time taken for this run:   0.001s

DOCKED: MODEL        136
DOCKED: USER    Run = 136
DOCKED: USER
DOCKED: USER    Estimated Free Energy of Binding    =  -4.25 kcal/mol  [=(1)+(2)+(3)-(4)]
DOCKED: USER
DOCKED: USER    (1) Final Intermolecular Energy     =  -5.74 kcal/mol
DOCKED: USER        vdW + Hbond + desolv Energy     =  -5.74 kcal/mol
DOCKED: USER        Electrostatic Energy            =  +0.00 kcal/mol
DOCKED: USER        Moving Ligand-Fixed Receptor    =  -5.74 kcal/mol
DOCKED: USER        Moving Ligand-Moving Receptor   =  +0.00 kcal/mol
DOCKED: USER    (2) Final Total Internal Energy     =  -1.34 kcal/mol
DOCKED: USER    (3) Torsional Free Energy           =  +1.49 kcal/mol
DOCKED: USER    (4) Unbound System's Energy         =  -1.34 kcal/mol
DOCKED: USER
DOCKED: USER
DOCKED: REMARK  5 active torsions:
DOCKED: REMARK  status: ('A' for Active; 'I' for Inactive)
DOCKED: REMARK    1  A    between atoms: C_2  and  C_19 
DOCKED: REMARK    2  A    between atoms: C_2  and  C_11 
DOCKED: REMARK    3  A    between atoms: C_19  and  C_20 
DOCKED: REMARK    4  A    between atoms: C_20  and  C_21 
DOCKED: REMARK    5  A    between atoms: C_21  and  N_22 
DOCKED: USER                              x       y       z     vdW  Elec       q    Type
DOCKED: USER                           _______ _______ _______ _____ _____    ______ ____
DOCKED: ROOT
DOCKED: ATOM      1  O   UNL     1     -49.005 -30.944   8.384 -0.07 -0.00    -0.346 OA 
DOCKED: ATOM      2  C   UNL     1     -50.027 -30.106   7.755 -0.13 +0.00    +0.130 C  
DOCKED: ATOM      3  C   UNL     1     -50.968 -31.095   7.130 -0.22 +0.00    +0.004 A  
DOCKED: ATOM      4  C   UNL     1     -50.581 -32.385   7.467 -0.22 +0.00    +0.006 A  
DOCKED: ATOM      5  C   UNL     1     -49.383 -32.340   8.334 -0.17 +0.00    +0.169 C  
DOCKED: ATOM      6  C   UNL     1     -52.084 -30.871   6.338 -0.27 -0.00    -0.001 A  
DOCKED: ATOM      7  C   UNL     1     -51.289 -33.488   7.022 -0.34 +0.00    +0.008 A  
DOCKED: ATOM      8  C   UNL     1     -52.806 -31.974   5.878 -0.31 +0.00    +0.010 A  
DOCKED: ATOM      9  C   UNL     1     -52.410 -33.276   6.219 -0.31 +0.00    +0.068 A  
DOCKED: ATOM     10  N   UNL     1     -53.775 -35.301   5.352 -2.55 -0.00    -0.191 NA 
DOCKED: ATOM     11  C   UNL     1     -53.162 -34.393   5.740 -0.37 +0.00    +0.101 C  
DOCKED: ENDROOT
DOCKED: BRANCH   2  12
DOCKED: ATOM     12  C   UNL     1     -50.688 -29.258   8.835 -0.06 +0.00    +0.038 C  
DOCKED: BRANCH  12  13
DOCKED: ATOM     13  C   UNL     1     -49.748 -28.162   9.335 -0.02 +0.00    +0.038 C  
DOCKED: BRANCH  13  14
DOCKED: ATOM     14  C   UNL     1     -48.729 -28.723  10.326 -0.01 +0.00    +0.251 C  
DOCKED: BRANCH  14  15
DOCKED: ATOM     15  N   UNL     1     -49.382 -29.622  11.270 -0.01 +0.00    +0.141 N  
DOCKED: ATOM     16  C   UNL     1     -48.607 -30.854  11.429 -0.01 +0.00    +0.285 C  
DOCKED: ATOM     17  C   UNL     1     -49.562 -28.965  12.566 -0.00 +0.00    +0.285 C  
DOCKED: ENDBRANCH  14  15
DOCKED: ENDBRANCH  13  14
DOCKED: ENDBRANCH  12  13
DOCKED: ENDBRANCH   2  12
DOCKED: BRANCH   2  18
DOCKED: ATOM     18  C   UNL     1     -49.330 -29.251   6.749 -0.15 +0.00    +0.006 A  
DOCKED: ATOM     19  C   UNL     1     -47.969 -29.429   6.507 -0.08 +0.00    +0.001 A  
DOCKED: ATOM     20  C   UNL     1     -47.319 -28.628   5.567 -0.10 +0.00    +0.029 A  
DOCKED: ATOM     21  C   UNL     1     -48.031 -27.653   4.870 -0.08 +0.00    +0.140 A  
DOCKED: ATOM     22  C   UNL     1     -49.393 -27.476   5.113 -0.11 +0.00    +0.029 A  
DOCKED: ATOM     23  F   UNL     1     -47.407 -26.886   3.966 -0.00 -0.00    -0.204 F  
DOCKED: ATOM     24  C   UNL     1     -50.044 -28.276   6.053 -0.15 +0.00    +0.001 A  
DOCKED: ENDBRANCH   2  18
DOCKED: TORSDOF 5
DOCKED: TER
DOCKED: ENDMDL
________________________________________________________________________________


    FINAL DOCKED STATE:
    ________________________


Run:   137 / 512
Time taken for this run:   0.001s

DOCKED: MODEL        137
DOCKED: USER    Run = 137
DOCKED: USER
DOCKED: USER    Estimated Free Energy of Binding    =  -4.40 kcal/mol  [=(1)+(2)+(3)-(4)]
DOCKED: USER
DOCKED: USER    (1) Final Intermolecular Energy     =  -5.89 kcal/mol
DOCKED: USER        vdW + Hbond + desolv Energy     =  -5.89 kcal/mol
DOCKED: USER        Electrostatic Energy            =  +0.00 kcal/mol
DOCKED: USER        Moving Ligand-Fixed Receptor    =  -5.89 kcal/mol
DOCKED: USER        Moving Ligand-Moving Receptor   =  +0.00 kcal/mol
DOCKED: USER    (2) Final Total Internal Energy     =  -1.37 kcal/mol
DOCKED: USER    (3) Torsional Free Energy           =  +1.49 kcal/mol
DOCKED: USER    (4) Unbound System's Energy         =  -1.37 kcal/mol
DOCKED: USER
DOCKED: USER
DOCKED: REMARK  5 active torsions:
DOCKED: REMARK  status: ('A' for Active; 'I' for Inactive)
DOCKED: REMARK    1  A    between atoms: C_2  and  C_19 
DOCKED: REMARK    2  A    between atoms: C_2  and  C_11 
DOCKED: REMARK    3  A    between atoms: C_19  and  C_20 
DOCKED: REMARK    4  A    between atoms: C_20  and  C_21 
DOCKED: REMARK    5  A    between atoms: C_21  and  N_22 
DOCKED: USER                              x       y       z     vdW  Elec       q    Type
DOCKED: USER                           _______ _______ _______ _____ _____    ______ ____
DOCKED: ROOT
DOCKED: ATOM      1  O   UNL     1     -51.626 -28.736   7.308 -0.05 -0.00    -0.346 OA 
DOCKED: ATOM      2  C   UNL     1     -53.056 -28.832   7.605 -0.14 +0.00    +0.130 C  
DOCKED: ATOM      3  C   UNL     1     -53.426 -30.213   7.146 -0.21 +0.00    +0.004 A  
DOCKED: ATOM      4  C   UNL     1     -52.288 -30.886   6.726 -0.26 +0.00    +0.006 A  
DOCKED: ATOM      5  C   UNL     1     -51.101 -30.016   6.888 -0.19 +0.00    +0.169 C  
DOCKED: ATOM      6  C   UNL     1     -54.669 -30.827   7.113 -0.21 -0.00    -0.001 A  
DOCKED: ATOM      7  C   UNL     1     -52.352 -32.187   6.257 -0.33 +0.00    +0.008 A  
DOCKED: ATOM      8  C   UNL     1     -54.751 -32.138   6.639 -0.23 +0.00    +0.010 A  
DOCKED: ATOM      9  C   UNL     1     -53.598 -32.814   6.214 -0.24 +0.00    +0.068 A  
DOCKED: ATOM     10  N   UNL     1     -53.785 -35.248   5.345 -2.56 -0.00    -0.191 NA 
DOCKED: ATOM     11  C   UNL     1     -53.701 -34.156   5.734 -0.35 +0.00    +0.101 C  
DOCKED: ENDROOT
DOCKED: BRANCH   2  12
DOCKED: ATOM     12  C   UNL     1     -53.252 -28.633   9.103 -0.04 +0.00    +0.038 C  
DOCKED: BRANCH  12  13
DOCKED: ATOM     13  C   UNL     1     -52.188 -27.704   9.685 -0.02 +0.00    +0.038 C  
DOCKED: BRANCH  13  14
DOCKED: ATOM     14  C   UNL     1     -51.140 -28.491  10.468 -0.00 +0.00    +0.251 C  
DOCKED: BRANCH  14  15
DOCKED: ATOM     15  N   UNL     1     -49.798 -28.059  10.096 -0.01 +0.00    +0.141 N  
DOCKED: ATOM     16  C   UNL     1     -49.069 -29.145   9.439 -0.01 +0.00    +0.285 C  
DOCKED: ATOM     17  C   UNL     1     -49.858 -26.887   9.222 -0.00 +0.00    +0.285 C  
DOCKED: ENDBRANCH  14  15
DOCKED: ENDBRANCH  13  14
DOCKED: ENDBRANCH  12  13
DOCKED: ENDBRANCH   2  12
DOCKED: BRANCH   2  18
DOCKED: ATOM     18  C   UNL     1     -53.737 -27.757   6.825 -0.20 +0.00    +0.006 A  
DOCKED: ATOM     19  C   UNL     1     -52.983 -26.860   6.070 -0.17 +0.00    +0.001 A  
DOCKED: ATOM     20  C   UNL     1     -53.621 -25.856   5.341 -0.16 +0.00    +0.029 A  
DOCKED: ATOM     21  C   UNL     1     -55.011 -25.750   5.369 -0.11 +0.00    +0.140 A  
DOCKED: ATOM     22  C   UNL     1     -55.764 -26.648   6.124 -0.17 +0.00    +0.029 A  
DOCKED: ATOM     23  F   UNL     1     -55.623 -24.787   4.668 -0.02 -0.00    -0.204 F  
DOCKED: ATOM     24  C   UNL     1     -55.127 -27.653   6.854 -0.21 +0.00    +0.001 A  
DOCKED: ENDBRANCH   2  18
DOCKED: TORSDOF 5
DOCKED: TER
DOCKED: ENDMDL
________________________________________________________________________________


    FINAL DOCKED STATE:
    ________________________


Run:   138 / 512
Time taken for this run:   0.001s

DOCKED: MODEL        138
DOCKED: USER    Run = 138
DOCKED: USER
DOCKED: USER    Estimated Free Energy of Binding    =  -4.85 kcal/mol  [=(1)+(2)+(3)-(4)]
DOCKED: USER
DOCKED: USER    (1) Final Intermolecular Energy     =  -6.34 kcal/mol
DOCKED: USER        vdW + Hbond + desolv Energy     =  -6.34 kcal/mol
DOCKED: USER        Electrostatic Energy            =  +0.00 kcal/mol
DOCKED: USER        Moving Ligand-Fixed Receptor    =  -6.34 kcal/mol
DOCKED: USER        Moving Ligand-Moving Receptor   =  +0.00 kcal/mol
DOCKED: USER    (2) Final Total Internal Energy     =  -0.85 kcal/mol
DOCKED: USER    (3) Torsional Free Energy           =  +1.49 kcal/mol
DOCKED: USER    (4) Unbound System's Energy         =  -0.85 kcal/mol
DOCKED: USER
DOCKED: USER
DOCKED: REMARK  5 active torsions:
DOCKED: REMARK  status: ('A' for Active; 'I' for Inactive)
DOCKED: REMARK    1  A    between atoms: C_2  and  C_19 
DOCKED: REMARK    2  A    between atoms: C_2  and  C_11 
DOCKED: REMARK    3  A    between atoms: C_19  and  C_20 
DOCKED: REMARK    4  A    between atoms: C_20  and  C_21 
DOCKED: REMARK    5  A    between atoms: C_21  and  N_22 
DOCKED: USER                              x       y       z     vdW  Elec       q    Type
DOCKED: USER                           _______ _______ _______ _____ _____    ______ ____
DOCKED: ROOT
DOCKED: ATOM      1  O   UNL     1     -55.824 -32.325   8.112 -0.01 -0.00    -0.346 OA 
DOCKED: ATOM      2  C   UNL     1     -54.395 -32.023   8.016 -0.11 +0.00    +0.130 C  
DOCKED: ATOM      3  C   UNL     1     -54.034 -32.437   6.618 -0.24 +0.00    +0.004 A  
DOCKED: ATOM      4  C   UNL     1     -55.176 -32.836   5.939 -0.28 +0.00    +0.006 A  
DOCKED: ATOM      5  C   UNL     1     -56.357 -32.704   6.822 -0.18 +0.00    +0.169 C  
DOCKED: ATOM      6  C   UNL     1     -52.795 -32.448   5.994 -0.34 -0.00    -0.001 A  
DOCKED: ATOM      7  C   UNL     1     -55.121 -33.262   4.623 -0.19 +0.00    +0.008 A  
DOCKED: ATOM      8  C   UNL     1     -52.722 -32.879   4.669 -0.39 +0.00    +0.010 A  
DOCKED: ATOM      9  C   UNL     1     -53.879 -33.283   3.987 -0.27 +0.00    +0.068 A  
DOCKED: ATOM     10  N   UNL     1     -53.709 -34.072   1.525 -2.76 -0.00    -0.191 NA 
DOCKED: ATOM     11  C   UNL     1     -53.785 -33.719   2.629 -0.26 +0.00    +0.101 C  
DOCKED: ENDROOT
DOCKED: BRANCH   2  12
DOCKED: ATOM     12  C   UNL     1     -54.199 -30.532   8.262 -0.12 +0.00    +0.038 C  
DOCKED: BRANCH  12  13
DOCKED: ATOM     13  C   UNL     1     -52.897 -30.031   7.640 -0.17 +0.00    +0.038 C  
DOCKED: BRANCH  13  14
DOCKED: ATOM     14  C   UNL     1     -52.277 -28.919   8.484 -0.04 +0.00    +0.251 C  
DOCKED: BRANCH  14  15
DOCKED: ATOM     15  N   UNL     1     -51.335 -28.142   7.687 -0.06 +0.00    +0.141 N  
DOCKED: ATOM     16  C   UNL     1     -50.855 -28.926   6.548 -0.13 +0.00    +0.285 C  
DOCKED: ATOM     17  C   UNL     1     -51.954 -26.900   7.223 -0.06 +0.00    +0.285 C  
DOCKED: ENDBRANCH  14  15
DOCKED: ENDBRANCH  13  14
DOCKED: ENDBRANCH  12  13
DOCKED: ENDBRANCH   2  12
DOCKED: BRANCH   2  18
DOCKED: ATOM     18  C   UNL     1     -53.706 -32.837   9.060 -0.11 +0.00    +0.006 A  
DOCKED: ATOM     19  C   UNL     1     -52.387 -32.548   9.409 -0.11 +0.00    +0.001 A  
DOCKED: ATOM     20  C   UNL     1     -51.744 -33.310  10.386 -0.13 +0.00    +0.029 A  
DOCKED: ATOM     21  C   UNL     1     -52.419 -34.358  11.010 -0.14 +0.00    +0.140 A  
DOCKED: ATOM     22  C   UNL     1     -53.738 -34.646  10.660 -0.04 +0.00    +0.029 A  
DOCKED: ATOM     23  F   UNL     1     -51.802 -35.088  11.948 -0.07 -0.00    -0.204 F  
DOCKED: ATOM     24  C   UNL     1     -54.382 -33.884   9.683 -0.15 +0.00    +0.001 A  
DOCKED: ENDBRANCH   2  18
DOCKED: TORSDOF 5
DOCKED: TER
DOCKED: ENDMDL
________________________________________________________________________________


    FINAL DOCKED STATE:
    ________________________


Run:   139 / 512
Time taken for this run:   0.001s

DOCKED: MODEL        139
DOCKED: USER    Run = 139
DOCKED: USER
DOCKED: USER    Estimated Free Energy of Binding    =  -3.91 kcal/mol  [=(1)+(2)+(3)-(4)]
DOCKED: USER
DOCKED: USER    (1) Final Intermolecular Energy     =  -5.41 kcal/mol
DOCKED: USER        vdW + Hbond + desolv Energy     =  -5.41 kcal/mol
DOCKED: USER        Electrostatic Energy            =  +0.00 kcal/mol
DOCKED: USER        Moving Ligand-Fixed Receptor    =  -5.41 kcal/mol
DOCKED: USER        Moving Ligand-Moving Receptor   =  +0.00 kcal/mol
DOCKED: USER    (2) Final Total Internal Energy     =  -1.34 kcal/mol
DOCKED: USER    (3) Torsional Free Energy           =  +1.49 kcal/mol
DOCKED: USER    (4) Unbound System's Energy         =  -1.34 kcal/mol
DOCKED: USER
DOCKED: USER
DOCKED: REMARK  5 active torsions:
DOCKED: REMARK  status: ('A' for Active; 'I' for Inactive)
DOCKED: REMARK    1  A    between atoms: C_2  and  C_19 
DOCKED: REMARK    2  A    between atoms: C_2  and  C_11 
DOCKED: REMARK    3  A    between atoms: C_19  and  C_20 
DOCKED: REMARK    4  A    between atoms: C_20  and  C_21 
DOCKED: REMARK    5  A    between atoms: C_21  and  N_22 
DOCKED: USER                              x       y       z     vdW  Elec       q    Type
DOCKED: USER                           _______ _______ _______ _____ _____    ______ ____
DOCKED: ROOT
DOCKED: ATOM      1  O   UNL     1     -43.129 -31.775  -1.042 +0.01 -0.00    -0.346 OA 
DOCKED: ATOM      2  C   UNL     1     -44.189 -30.981  -0.420 -0.06 +0.00    +0.130 C  
DOCKED: ATOM      3  C   UNL     1     -44.807 -31.921   0.573 -0.12 +0.00    +0.004 A  
DOCKED: ATOM      4  C   UNL     1     -44.093 -33.111   0.597 -0.10 +0.00    +0.006 A  
DOCKED: ATOM      5  C   UNL     1     -42.963 -33.037  -0.355 -0.03 +0.00    +0.169 C  
DOCKED: ATOM      6  C   UNL     1     -45.907 -31.735   1.398 -0.22 -0.00    -0.001 A  
DOCKED: ATOM      7  C   UNL     1     -44.453 -34.151   1.437 -0.18 +0.00    +0.008 A  
DOCKED: ATOM      8  C   UNL     1     -46.285 -32.775   2.248 -0.30 +0.00    +0.010 A  
DOCKED: ATOM      9  C   UNL     1     -45.561 -33.977   2.268 -0.28 +0.00    +0.068 A  
DOCKED: ATOM     10  N   UNL     1     -46.287 -35.887   3.861 -2.56 -0.00    -0.191 NA 
DOCKED: ATOM     11  C   UNL     1     -45.962 -35.030   3.146 -0.42 +0.00    +0.101 C  
DOCKED: ENDROOT
DOCKED: BRANCH   2  12
DOCKED: ATOM     12  C   UNL     1     -43.556 -29.758   0.234 -0.02 +0.00    +0.038 C  
DOCKED: BRANCH  12  13
DOCKED: ATOM     13  C   UNL     1     -42.253 -29.368  -0.460 -0.00 +0.00    +0.038 C  
DOCKED: BRANCH  13  14
DOCKED: ATOM     14  C   UNL     1     -41.181 -28.984   0.559 +0.00 +0.00    +0.251 C  
DOCKED: BRANCH  14  15
DOCKED: ATOM     15  N   UNL     1     -40.349 -30.138   0.879 -0.00 +0.00    +0.141 N  
DOCKED: ATOM     16  C   UNL     1     -40.955 -30.931   1.949 -0.00 +0.00    +0.285 C  
DOCKED: ATOM     17  C   UNL     1     -40.138 -30.966  -0.310 -0.00 +0.00    +0.285 C  
DOCKED: ENDBRANCH  14  15
DOCKED: ENDBRANCH  13  14
DOCKED: ENDBRANCH  12  13
DOCKED: ENDBRANCH   2  12
DOCKED: BRANCH   2  18
DOCKED: ATOM     18  C   UNL     1     -45.131 -30.582  -1.508 -0.13 +0.00    +0.006 A  
DOCKED: ATOM     19  C   UNL     1     -45.981 -29.492  -1.328 -0.15 +0.00    +0.001 A  
DOCKED: ATOM     20  C   UNL     1     -46.861 -29.121  -2.346 -0.21 +0.00    +0.029 A  
DOCKED: ATOM     21  C   UNL     1     -46.889 -29.839  -3.540 -0.19 +0.00    +0.140 A  
DOCKED: ATOM     22  C   UNL     1     -46.038 -30.930  -3.719 -0.15 +0.00    +0.029 A  
DOCKED: ATOM     23  F   UNL     1     -47.732 -29.482  -4.517 -0.15 -0.00    -0.204 F  
DOCKED: ATOM     24  C   UNL     1     -45.157 -31.302  -2.702 -0.14 +0.00    +0.001 A  
DOCKED: ENDBRANCH   2  18
DOCKED: TORSDOF 5
DOCKED: TER
DOCKED: ENDMDL
________________________________________________________________________________


    FINAL DOCKED STATE:
    ________________________


Run:   140 / 512
Time taken for this run:   0.001s

DOCKED: MODEL        140
DOCKED: USER    Run = 140
DOCKED: USER
DOCKED: USER    Estimated Free Energy of Binding    =  -4.61 kcal/mol  [=(1)+(2)+(3)-(4)]
DOCKED: USER
DOCKED: USER    (1) Final Intermolecular Energy     =  -6.11 kcal/mol
DOCKED: USER        vdW + Hbond + desolv Energy     =  -6.11 kcal/mol
DOCKED: USER        Electrostatic Energy            =  +0.00 kcal/mol
DOCKED: USER        Moving Ligand-Fixed Receptor    =  -6.11 kcal/mol
DOCKED: USER        Moving Ligand-Moving Receptor   =  +0.00 kcal/mol
DOCKED: USER    (2) Final Total Internal Energy     =  -1.30 kcal/mol
DOCKED: USER    (3) Torsional Free Energy           =  +1.49 kcal/mol
DOCKED: USER    (4) Unbound System's Energy         =  -1.30 kcal/mol
DOCKED: USER
DOCKED: USER
DOCKED: REMARK  5 active torsions:
DOCKED: REMARK  status: ('A' for Active; 'I' for Inactive)
DOCKED: REMARK    1  A    between atoms: C_2  and  C_19 
DOCKED: REMARK    2  A    between atoms: C_2  and  C_11 
DOCKED: REMARK    3  A    between atoms: C_19  and  C_20 
DOCKED: REMARK    4  A    between atoms: C_20  and  C_21 
DOCKED: REMARK    5  A    between atoms: C_21  and  N_22 
DOCKED: USER                              x       y       z     vdW  Elec       q    Type
DOCKED: USER                           _______ _______ _______ _____ _____    ______ ____
DOCKED: ROOT
DOCKED: ATOM      1  O   UNL     1     -52.713 -31.244   9.162 -0.00 -0.00    -0.346 OA 
DOCKED: ATOM      2  C   UNL     1     -51.838 -32.414   9.086 -0.11 +0.00    +0.130 C  
DOCKED: ATOM      3  C   UNL     1     -52.062 -32.942   7.699 -0.23 +0.00    +0.004 A  
DOCKED: ATOM      4  C   UNL     1     -52.906 -32.086   7.004 -0.23 +0.00    +0.006 A  
DOCKED: ATOM      5  C   UNL     1     -53.283 -30.944   7.866 -0.11 +0.00    +0.169 C  
DOCKED: ATOM      6  C   UNL     1     -51.551 -34.081   7.095 -0.38 -0.00    -0.001 A  
DOCKED: ATOM      7  C   UNL     1     -53.270 -32.340   5.693 -0.29 +0.00    +0.008 A  
DOCKED: ATOM      8  C   UNL     1     -51.913 -34.354   5.775 -0.44 +0.00    +0.010 A  
DOCKED: ATOM      9  C   UNL     1     -52.767 -33.487   5.077 -0.38 +0.00    +0.068 A  
DOCKED: ATOM     10  N   UNL     1     -53.414 -34.020   2.625 -1.94 -0.00    -0.191 NA 
DOCKED: ATOM     11  C   UNL     1     -53.124 -33.781   3.725 -0.52 +0.00    +0.101 C  
DOCKED: ENDROOT
DOCKED: BRANCH   2  12
DOCKED: ATOM     12  C   UNL     1     -50.403 -31.959   9.323 -0.14 +0.00    +0.038 C  
DOCKED: BRANCH  12  13
DOCKED: ATOM     13  C   UNL     1     -50.246 -30.460   9.080 -0.08 +0.00    +0.038 C  
DOCKED: BRANCH  13  14
DOCKED: ATOM     14  C   UNL     1     -49.827 -30.178   7.638 -0.11 +0.00    +0.251 C  
DOCKED: BRANCH  14  15
DOCKED: ATOM     15  N   UNL     1     -49.978 -28.760   7.334 -0.09 +0.00    +0.141 N  
DOCKED: ATOM     16  C   UNL     1     -50.960 -28.562   6.267 -0.06 +0.00    +0.285 C  
DOCKED: ATOM     17  C   UNL     1     -50.372 -28.015   8.531 -0.02 +0.00    +0.285 C  
DOCKED: ENDBRANCH  14  15
DOCKED: ENDBRANCH  13  14
DOCKED: ENDBRANCH  12  13
DOCKED: ENDBRANCH   2  12
DOCKED: BRANCH   2  18
DOCKED: ATOM     18  C   UNL     1     -52.285 -33.362  10.148 -0.14 +0.00    +0.006 A  
DOCKED: ATOM     19  C   UNL     1     -51.372 -34.248  10.720 -0.21 +0.00    +0.001 A  
DOCKED: ATOM     20  C   UNL     1     -51.791 -35.135  11.713 -0.23 +0.00    +0.029 A  
DOCKED: ATOM     21  C   UNL     1     -53.121 -35.134  12.133 -0.08 +0.00    +0.140 A  
DOCKED: ATOM     22  C   UNL     1     -54.033 -34.247  11.561 -0.13 +0.00    +0.029 A  
DOCKED: ATOM     23  F   UNL     1     -53.522 -35.983  13.087 -0.06 -0.00    -0.204 F  
DOCKED: ATOM     24  C   UNL     1     -53.614 -33.360  10.567 -0.11 +0.00    +0.001 A  
DOCKED: ENDBRANCH   2  18
DOCKED: TORSDOF 5
DOCKED: TER
DOCKED: ENDMDL
________________________________________________________________________________


    FINAL DOCKED STATE:
    ________________________


Run:   141 / 512
Time taken for this run:   0.001s

DOCKED: MODEL        141
DOCKED: USER    Run = 141
DOCKED: USER
DOCKED: USER    Estimated Free Energy of Binding    =  -4.22 kcal/mol  [=(1)+(2)+(3)-(4)]
DOCKED: USER
DOCKED: USER    (1) Final Intermolecular Energy     =  -5.71 kcal/mol
DOCKED: USER        vdW + Hbond + desolv Energy     =  -5.71 kcal/mol
DOCKED: USER        Electrostatic Energy            =  +0.00 kcal/mol
DOCKED: USER        Moving Ligand-Fixed Receptor    =  -5.71 kcal/mol
DOCKED: USER        Moving Ligand-Moving Receptor   =  +0.00 kcal/mol
DOCKED: USER    (2) Final Total Internal Energy     =  -1.37 kcal/mol
DOCKED: USER    (3) Torsional Free Energy           =  +1.49 kcal/mol
DOCKED: USER    (4) Unbound System's Energy         =  -1.37 kcal/mol
DOCKED: USER
DOCKED: USER
DOCKED: REMARK  5 active torsions:
DOCKED: REMARK  status: ('A' for Active; 'I' for Inactive)
DOCKED: REMARK    1  A    between atoms: C_2  and  C_19 
DOCKED: REMARK    2  A    between atoms: C_2  and  C_11 
DOCKED: REMARK    3  A    between atoms: C_19  and  C_20 
DOCKED: REMARK    4  A    between atoms: C_20  and  C_21 
DOCKED: REMARK    5  A    between atoms: C_21  and  N_22 
DOCKED: USER                              x       y       z     vdW  Elec       q    Type
DOCKED: USER                           _______ _______ _______ _____ _____    ______ ____
DOCKED: ROOT
DOCKED: ATOM      1  O   UNL     1     -49.368 -31.240   8.692 -0.07 -0.00    -0.346 OA 
DOCKED: ATOM      2  C   UNL     1     -50.601 -30.493   8.439 -0.10 +0.00    +0.130 C  
DOCKED: ATOM      3  C   UNL     1     -51.444 -31.450   7.646 -0.20 +0.00    +0.004 A  
DOCKED: ATOM      4  C   UNL     1     -50.796 -32.674   7.549 -0.27 +0.00    +0.006 A  
DOCKED: ATOM      5  C   UNL     1     -49.505 -32.617   8.271 -0.16 +0.00    +0.169 C  
DOCKED: ATOM      6  C   UNL     1     -52.689 -31.257   7.066 -0.23 -0.00    -0.001 A  
DOCKED: ATOM      7  C   UNL     1     -51.364 -33.738   6.871 -0.36 +0.00    +0.008 A  
DOCKED: ATOM      8  C   UNL     1     -53.274 -32.320   6.375 -0.28 +0.00    +0.010 A  
DOCKED: ATOM      9  C   UNL     1     -52.614 -33.554   6.279 -0.31 +0.00    +0.068 A  
DOCKED: ATOM     10  N   UNL     1     -53.729 -35.508   4.993 -2.37 -0.00    -0.191 NA 
DOCKED: ATOM     11  C   UNL     1     -53.229 -34.632   5.569 -0.32 +0.00    +0.101 C  
DOCKED: ENDROOT
DOCKED: BRANCH   2  12
DOCKED: ATOM     12  C   UNL     1     -51.225 -30.123   9.779 -0.04 +0.00    +0.038 C  
DOCKED: BRANCH  12  13
DOCKED: ATOM     13  C   UNL     1     -52.098 -31.255  10.318 -0.05 +0.00    +0.038 C  
DOCKED: BRANCH  13  14
DOCKED: ATOM     14  C   UNL     1     -51.256 -32.298  11.050 -0.04 +0.00    +0.251 C  
DOCKED: BRANCH  14  15
DOCKED: ATOM     15  N   UNL     1     -52.037 -33.505  11.288 -0.09 +0.00    +0.141 N  
DOCKED: ATOM     16  C   UNL     1     -52.797 -33.872  10.091 -0.10 +0.00    +0.285 C  
DOCKED: ATOM     17  C   UNL     1     -51.168 -34.610  11.695 -0.15 +0.00    +0.285 C  
DOCKED: ENDBRANCH  14  15
DOCKED: ENDBRANCH  13  14
DOCKED: ENDBRANCH  12  13
DOCKED: ENDBRANCH   2  12
DOCKED: BRANCH   2  18
DOCKED: ATOM     18  C   UNL     1     -50.223 -29.274   7.666 -0.12 +0.00    +0.006 A  
DOCKED: ATOM     19  C   UNL     1     -49.360 -29.380   6.576 -0.14 +0.00    +0.001 A  
DOCKED: ATOM     20  C   UNL     1     -49.007 -28.239   5.854 -0.13 +0.00    +0.029 A  
DOCKED: ATOM     21  C   UNL     1     -49.516 -26.995   6.223 -0.06 +0.00    +0.140 A  
DOCKED: ATOM     22  C   UNL     1     -50.379 -26.890   7.314 -0.05 +0.00    +0.029 A  
DOCKED: ATOM     23  F   UNL     1     -49.178 -25.901   5.529 -0.01 -0.00    -0.204 F  
DOCKED: ATOM     24  C   UNL     1     -50.733 -28.031   8.037 -0.06 +0.00    +0.001 A  
DOCKED: ENDBRANCH   2  18
DOCKED: TORSDOF 5
DOCKED: TER
DOCKED: ENDMDL
________________________________________________________________________________


    FINAL DOCKED STATE:
    ________________________


Run:   142 / 512
Time taken for this run:   0.001s

DOCKED: MODEL        142
DOCKED: USER    Run = 142
DOCKED: USER
DOCKED: USER    Estimated Free Energy of Binding    =  -3.73 kcal/mol  [=(1)+(2)+(3)-(4)]
DOCKED: USER
DOCKED: USER    (1) Final Intermolecular Energy     =  -5.22 kcal/mol
DOCKED: USER        vdW + Hbond + desolv Energy     =  -5.22 kcal/mol
DOCKED: USER        Electrostatic Energy            =  +0.00 kcal/mol
DOCKED: USER        Moving Ligand-Fixed Receptor    =  -5.22 kcal/mol
DOCKED: USER        Moving Ligand-Moving Receptor   =  +0.00 kcal/mol
DOCKED: USER    (2) Final Total Internal Energy     =  -1.20 kcal/mol
DOCKED: USER    (3) Torsional Free Energy           =  +1.49 kcal/mol
DOCKED: USER    (4) Unbound System's Energy         =  -1.20 kcal/mol
DOCKED: USER
DOCKED: USER
DOCKED: REMARK  5 active torsions:
DOCKED: REMARK  status: ('A' for Active; 'I' for Inactive)
DOCKED: REMARK    1  A    between atoms: C_2  and  C_19 
DOCKED: REMARK    2  A    between atoms: C_2  and  C_11 
DOCKED: REMARK    3  A    between atoms: C_19  and  C_20 
DOCKED: REMARK    4  A    between atoms: C_20  and  C_21 
DOCKED: REMARK    5  A    between atoms: C_21  and  N_22 
DOCKED: USER                              x       y       z     vdW  Elec       q    Type
DOCKED: USER                           _______ _______ _______ _____ _____    ______ ____
DOCKED: ROOT
DOCKED: ATOM      1  O   UNL     1     -45.675 -26.079  -2.855 +0.01 -0.00    -0.346 OA 
DOCKED: ATOM      2  C   UNL     1     -46.732 -26.069  -1.843 -0.09 +0.00    +0.130 C  
DOCKED: ATOM      3  C   UNL     1     -47.744 -25.105  -2.390 -0.19 +0.00    +0.004 A  
DOCKED: ATOM      4  C   UNL     1     -47.355 -24.686  -3.654 -0.17 +0.00    +0.006 A  
DOCKED: ATOM      5  C   UNL     1     -46.083 -25.343  -4.032 -0.08 +0.00    +0.169 C  
DOCKED: ATOM      6  C   UNL     1     -48.922 -24.645  -1.819 -0.28 -0.00    -0.001 A  
DOCKED: ATOM      7  C   UNL     1     -48.121 -23.794  -4.386 -0.19 +0.00    +0.008 A  
DOCKED: ATOM      8  C   UNL     1     -49.704 -23.742  -2.543 -0.24 +0.00    +0.010 A  
DOCKED: ATOM      9  C   UNL     1     -49.305 -23.320  -3.820 +0.05 +0.00    +0.068 A  
DOCKED: ATOM     10  N   UNL     1     -50.781 -21.647  -5.137 -2.32 -0.00    -0.191 NA 
DOCKED: ATOM     11  C   UNL     1     -50.119 -22.397  -4.546 -0.38 +0.00    +0.101 C  
DOCKED: ENDROOT
DOCKED: BRANCH   2  12
DOCKED: ATOM     12  C   UNL     1     -47.277 -27.485  -1.700 -0.20 +0.00    +0.038 C  
DOCKED: BRANCH  12  13
DOCKED: ATOM     13  C   UNL     1     -46.566 -28.453  -2.644 -0.20 +0.00    +0.038 C  
DOCKED: BRANCH  13  14
DOCKED: ATOM     14  C   UNL     1     -47.530 -29.009  -3.690 -0.16 +0.00    +0.251 C  
DOCKED: BRANCH  14  15
DOCKED: ATOM     15  N   UNL     1     -46.907 -29.003  -5.008 -0.21 +0.00    +0.141 N  
DOCKED: ATOM     16  C   UNL     1     -45.491 -29.361  -4.911 -0.07 +0.00    +0.285 C  
DOCKED: ATOM     17  C   UNL     1     -47.601 -29.923  -5.911 -0.22 +0.00    +0.285 C  
DOCKED: ENDBRANCH  14  15
DOCKED: ENDBRANCH  13  14
DOCKED: ENDBRANCH  12  13
DOCKED: ENDBRANCH   2  12
DOCKED: BRANCH   2  18
DOCKED: ATOM     18  C   UNL     1     -46.111 -25.600  -0.569 -0.05 +0.00    +0.006 A  
DOCKED: ATOM     19  C   UNL     1     -45.832 -24.246  -0.388 -0.08 +0.00    +0.001 A  
DOCKED: ATOM     20  C   UNL     1     -45.251 -23.809   0.804 -0.09 +0.00    +0.029 A  
DOCKED: ATOM     21  C   UNL     1     -44.952 -24.726   1.811 -0.04 +0.00    +0.140 A  
DOCKED: ATOM     22  C   UNL     1     -45.232 -26.079   1.628 -0.02 +0.00    +0.029 A  
DOCKED: ATOM     23  F   UNL     1     -44.396 -24.305   2.955 -0.01 -0.00    -0.204 F  
DOCKED: ATOM     24  C   UNL     1     -45.812 -26.518   0.437 -0.03 +0.00    +0.001 A  
DOCKED: ENDBRANCH   2  18
DOCKED: TORSDOF 5
DOCKED: TER
DOCKED: ENDMDL
________________________________________________________________________________


    FINAL DOCKED STATE:
    ________________________


Run:   143 / 512
Time taken for this run:   0.001s

DOCKED: MODEL        143
DOCKED: USER    Run = 143
DOCKED: USER
DOCKED: USER    Estimated Free Energy of Binding    =  -4.44 kcal/mol  [=(1)+(2)+(3)-(4)]
DOCKED: USER
DOCKED: USER    (1) Final Intermolecular Energy     =  -5.93 kcal/mol
DOCKED: USER        vdW + Hbond + desolv Energy     =  -5.93 kcal/mol
DOCKED: USER        Electrostatic Energy            =  +0.00 kcal/mol
DOCKED: USER        Moving Ligand-Fixed Receptor    =  -5.93 kcal/mol
DOCKED: USER        Moving Ligand-Moving Receptor   =  +0.00 kcal/mol
DOCKED: USER    (2) Final Total Internal Energy     =  -1.46 kcal/mol
DOCKED: USER    (3) Torsional Free Energy           =  +1.49 kcal/mol
DOCKED: USER    (4) Unbound System's Energy         =  -1.46 kcal/mol
DOCKED: USER
DOCKED: USER
DOCKED: REMARK  5 active torsions:
DOCKED: REMARK  status: ('A' for Active; 'I' for Inactive)
DOCKED: REMARK    1  A    between atoms: C_2  and  C_19 
DOCKED: REMARK    2  A    between atoms: C_2  and  C_11 
DOCKED: REMARK    3  A    between atoms: C_19  and  C_20 
DOCKED: REMARK    4  A    between atoms: C_20  and  C_21 
DOCKED: REMARK    5  A    between atoms: C_21  and  N_22 
DOCKED: USER                              x       y       z     vdW  Elec       q    Type
DOCKED: USER                           _______ _______ _______ _____ _____    ______ ____
DOCKED: ROOT
DOCKED: ATOM      1  O   UNL     1     -51.082 -29.205   7.698 -0.04 -0.00    -0.346 OA 
DOCKED: ATOM      2  C   UNL     1     -52.543 -29.188   7.770 -0.12 +0.00    +0.130 C  
DOCKED: ATOM      3  C   UNL     1     -52.946 -30.531   7.233 -0.21 +0.00    +0.004 A  
DOCKED: ATOM      4  C   UNL     1     -51.813 -31.291   6.979 -0.26 +0.00    +0.006 A  
DOCKED: ATOM      5  C   UNL     1     -50.601 -30.521   7.338 -0.17 +0.00    +0.169 C  
DOCKED: ATOM      6  C   UNL     1     -54.214 -31.043   6.998 -0.22 -0.00    -0.001 A  
DOCKED: ATOM      7  C   UNL     1     -51.906 -32.580   6.482 -0.33 +0.00    +0.008 A  
DOCKED: ATOM      8  C   UNL     1     -54.324 -32.339   6.491 -0.24 +0.00    +0.010 A  
DOCKED: ATOM      9  C   UNL     1     -53.176 -33.104   6.235 -0.27 +0.00    +0.068 A  
DOCKED: ATOM     10  N   UNL     1     -53.417 -35.508   5.301 -2.59 -0.00    -0.191 NA 
DOCKED: ATOM     11  C   UNL     1     -53.309 -34.429   5.719 -0.36 +0.00    +0.101 C  
DOCKED: ENDROOT
DOCKED: BRANCH   2  12
DOCKED: ATOM     12  C   UNL     1     -52.952 -28.984   9.224 -0.04 +0.00    +0.038 C  
DOCKED: BRANCH  12  13
DOCKED: ATOM     13  C   UNL     1     -52.601 -30.201  10.078 -0.03 +0.00    +0.038 C  
DOCKED: BRANCH  13  14
DOCKED: ATOM     14  C   UNL     1     -53.861 -30.899  10.584 -0.01 +0.00    +0.251 C  
DOCKED: BRANCH  14  15
DOCKED: ATOM     15  N   UNL     1     -53.651 -32.340  10.651 -0.03 +0.00    +0.141 N  
DOCKED: ATOM     16  C   UNL     1     -54.717 -33.051   9.944 -0.03 +0.00    +0.285 C  
DOCKED: ATOM     17  C   UNL     1     -52.346 -32.697  10.091 -0.04 +0.00    +0.285 C  
DOCKED: ENDBRANCH  14  15
DOCKED: ENDBRANCH  13  14
DOCKED: ENDBRANCH  12  13
DOCKED: ENDBRANCH   2  12
DOCKED: BRANCH   2  18
DOCKED: ATOM     18  C   UNL     1     -53.009 -28.057   6.916 -0.18 +0.00    +0.006 A  
DOCKED: ATOM     19  C   UNL     1     -52.092 -27.338   6.150 -0.13 +0.00    +0.001 A  
DOCKED: ATOM     20  C   UNL     1     -52.528 -26.280   5.352 -0.14 +0.00    +0.029 A  
DOCKED: ATOM     21  C   UNL     1     -53.881 -25.943   5.320 -0.10 +0.00    +0.140 A  
DOCKED: ATOM     22  C   UNL     1     -54.798 -26.662   6.086 -0.17 +0.00    +0.029 A  
DOCKED: ATOM     23  F   UNL     1     -54.300 -24.928   4.553 -0.03 -0.00    -0.204 F  
DOCKED: ATOM     24  C   UNL     1     -54.362 -27.720   6.885 -0.21 +0.00    +0.001 A  
DOCKED: ENDBRANCH   2  18
DOCKED: TORSDOF 5
DOCKED: TER
DOCKED: ENDMDL
________________________________________________________________________________


    FINAL DOCKED STATE:
    ________________________


Run:   144 / 512
Time taken for this run:   0.001s

DOCKED: MODEL        144
DOCKED: USER    Run = 144
DOCKED: USER
DOCKED: USER    Estimated Free Energy of Binding    =  -3.76 kcal/mol  [=(1)+(2)+(3)-(4)]
DOCKED: USER
DOCKED: USER    (1) Final Intermolecular Energy     =  -5.25 kcal/mol
DOCKED: USER        vdW + Hbond + desolv Energy     =  -5.25 kcal/mol
DOCKED: USER        Electrostatic Energy            =  +0.00 kcal/mol
DOCKED: USER        Moving Ligand-Fixed Receptor    =  -5.25 kcal/mol
DOCKED: USER        Moving Ligand-Moving Receptor   =  +0.00 kcal/mol
DOCKED: USER    (2) Final Total Internal Energy     =  -1.49 kcal/mol
DOCKED: USER    (3) Torsional Free Energy           =  +1.49 kcal/mol
DOCKED: USER    (4) Unbound System's Energy         =  -1.49 kcal/mol
DOCKED: USER
DOCKED: USER
DOCKED: REMARK  5 active torsions:
DOCKED: REMARK  status: ('A' for Active; 'I' for Inactive)
DOCKED: REMARK    1  A    between atoms: C_2  and  C_19 
DOCKED: REMARK    2  A    between atoms: C_2  and  C_11 
DOCKED: REMARK    3  A    between atoms: C_19  and  C_20 
DOCKED: REMARK    4  A    between atoms: C_20  and  C_21 
DOCKED: REMARK    5  A    between atoms: C_21  and  N_22 
DOCKED: USER                              x       y       z     vdW  Elec       q    Type
DOCKED: USER                           _______ _______ _______ _____ _____    ______ ____
DOCKED: ROOT
DOCKED: ATOM      1  O   UNL     1     -47.655 -24.921   0.559 -0.05 -0.00    -0.346 OA 
DOCKED: ATOM      2  C   UNL     1     -48.989 -25.143  -0.001 -0.22 +0.00    +0.130 C  
DOCKED: ATOM      3  C   UNL     1     -49.066 -24.170  -1.141 -0.26 +0.00    +0.004 A  
DOCKED: ATOM      4  C   UNL     1     -47.846 -23.527  -1.291 -0.13 +0.00    +0.006 A  
DOCKED: ATOM      5  C   UNL     1     -46.886 -24.031  -0.283 -0.12 +0.00    +0.169 C  
DOCKED: ATOM      6  C   UNL     1     -50.129 -23.885  -1.987 -0.30 -0.00    -0.001 A  
DOCKED: ATOM      7  C   UNL     1     -47.646 -22.580  -2.281 -0.20 +0.00    +0.008 A  
DOCKED: ATOM      8  C   UNL     1     -49.945 -22.929  -2.987 -0.41 +0.00    +0.010 A  
DOCKED: ATOM      9  C   UNL     1     -48.710 -22.280  -3.133 -0.30 +0.00    +0.068 A  
DOCKED: ATOM     10  N   UNL     1     -48.401 -20.514  -5.004 -0.83 -0.00    -0.191 NA 
DOCKED: ATOM     11  C   UNL     1     -48.540 -21.306  -4.164 -0.33 +0.00    +0.101 C  
DOCKED: ENDROOT
DOCKED: BRANCH   2  12
DOCKED: ATOM     12  C   UNL     1     -49.087 -26.596  -0.452 -0.19 +0.00    +0.038 C  
DOCKED: BRANCH  12  13
DOCKED: ATOM     13  C   UNL     1     -47.796 -27.358  -0.162 -0.16 +0.00    +0.038 C  
DOCKED: BRANCH  13  14
DOCKED: ATOM     14  C   UNL     1     -47.983 -28.332   1.000 -0.14 +0.00    +0.251 C  
DOCKED: BRANCH  14  15
DOCKED: ATOM     15  N   UNL     1     -48.073 -27.607   2.261 -0.09 +0.00    +0.141 N  
DOCKED: ATOM     16  C   UNL     1     -48.524 -28.493   3.335 -0.11 +0.00    +0.285 C  
DOCKED: ATOM     17  C   UNL     1     -46.783 -27.007   2.605 -0.02 +0.00    +0.285 C  
DOCKED: ENDBRANCH  14  15
DOCKED: ENDBRANCH  13  14
DOCKED: ENDBRANCH  12  13
DOCKED: ENDBRANCH   2  12
DOCKED: BRANCH   2  18
DOCKED: ATOM     18  C   UNL     1     -49.971 -24.848   1.083 -0.27 +0.00    +0.006 A  
DOCKED: ATOM     19  C   UNL     1     -49.673 -23.891   2.052 -0.21 +0.00    +0.001 A  
DOCKED: ATOM     20  C   UNL     1     -50.592 -23.617   3.065 -0.23 +0.00    +0.029 A  
DOCKED: ATOM     21  C   UNL     1     -51.808 -24.298   3.108 -0.16 +0.00    +0.140 A  
DOCKED: ATOM     22  C   UNL     1     -52.105 -25.255   2.138 -0.27 +0.00    +0.029 A  
DOCKED: ATOM     23  F   UNL     1     -52.691 -24.033   4.079 -0.01 -0.00    -0.204 F  
DOCKED: ATOM     24  C   UNL     1     -51.186 -25.531   1.124 -0.25 +0.00    +0.001 A  
DOCKED: ENDBRANCH   2  18
DOCKED: TORSDOF 5
DOCKED: TER
DOCKED: ENDMDL
________________________________________________________________________________


    FINAL DOCKED STATE:
    ________________________


Run:   145 / 512
Time taken for this run:   0.001s

DOCKED: MODEL        145
DOCKED: USER    Run = 145
DOCKED: USER
DOCKED: USER    Estimated Free Energy of Binding    =  -4.36 kcal/mol  [=(1)+(2)+(3)-(4)]
DOCKED: USER
DOCKED: USER    (1) Final Intermolecular Energy     =  -5.85 kcal/mol
DOCKED: USER        vdW + Hbond + desolv Energy     =  -5.85 kcal/mol
DOCKED: USER        Electrostatic Energy            =  +0.00 kcal/mol
DOCKED: USER        Moving Ligand-Fixed Receptor    =  -5.85 kcal/mol
DOCKED: USER        Moving Ligand-Moving Receptor   =  +0.00 kcal/mol
DOCKED: USER    (2) Final Total Internal Energy     =  -1.47 kcal/mol
DOCKED: USER    (3) Torsional Free Energy           =  +1.49 kcal/mol
DOCKED: USER    (4) Unbound System's Energy         =  -1.47 kcal/mol
DOCKED: USER
DOCKED: USER
DOCKED: REMARK  5 active torsions:
DOCKED: REMARK  status: ('A' for Active; 'I' for Inactive)
DOCKED: REMARK    1  A    between atoms: C_2  and  C_19 
DOCKED: REMARK    2  A    between atoms: C_2  and  C_11 
DOCKED: REMARK    3  A    between atoms: C_19  and  C_20 
DOCKED: REMARK    4  A    between atoms: C_20  and  C_21 
DOCKED: REMARK    5  A    between atoms: C_21  and  N_22 
DOCKED: USER                              x       y       z     vdW  Elec       q    Type
DOCKED: USER                           _______ _______ _______ _____ _____    ______ ____
DOCKED: ROOT
DOCKED: ATOM      1  O   UNL     1     -49.346 -30.600   8.121 -0.07 -0.00    -0.346 OA 
DOCKED: ATOM      2  C   UNL     1     -50.550 -29.893   7.681 -0.14 +0.00    +0.130 C  
DOCKED: ATOM      3  C   UNL     1     -51.410 -30.976   7.096 -0.24 +0.00    +0.004 A  
DOCKED: ATOM      4  C   UNL     1     -50.801 -32.208   7.284 -0.24 +0.00    +0.006 A  
DOCKED: ATOM      5  C   UNL     1     -49.522 -32.031   8.007 -0.12 +0.00    +0.169 C  
DOCKED: ATOM      6  C   UNL     1     -52.638 -30.879   6.458 -0.27 -0.00    -0.001 A  
DOCKED: ATOM      7  C   UNL     1     -51.392 -33.379   6.841 -0.34 +0.00    +0.008 A  
DOCKED: ATOM      8  C   UNL     1     -53.245 -32.050   6.002 -0.28 +0.00    +0.010 A  
DOCKED: ATOM      9  C   UNL     1     -52.625 -33.294   6.193 -0.31 +0.00    +0.068 A  
DOCKED: ATOM     10  N   UNL     1     -53.781 -35.449   5.338 -2.55 -0.00    -0.191 NA 
DOCKED: ATOM     11  C   UNL     1     -53.262 -34.482   5.721 -0.33 +0.00    +0.101 C  
DOCKED: ENDROOT
DOCKED: BRANCH   2  12
DOCKED: ATOM     12  C   UNL     1     -51.184 -29.220   8.892 -0.05 +0.00    +0.038 C  
DOCKED: BRANCH  12  13
DOCKED: ATOM     13  C   UNL     1     -52.217 -30.129   9.556 -0.04 +0.00    +0.038 C  
DOCKED: BRANCH  13  14
DOCKED: ATOM     14  C   UNL     1     -51.561 -31.042  10.591 -0.01 +0.00    +0.251 C  
DOCKED: BRANCH  14  15
DOCKED: ATOM     15  N   UNL     1     -52.353 -32.253  10.773 -0.04 +0.00    +0.141 N  
DOCKED: ATOM     16  C   UNL     1     -53.558 -32.212   9.943 -0.02 +0.00    +0.285 C  
DOCKED: ATOM     17  C   UNL     1     -51.559 -33.441  10.457 -0.09 +0.00    +0.285 C  
DOCKED: ENDBRANCH  14  15
DOCKED: ENDBRANCH  13  14
DOCKED: ENDBRANCH  12  13
DOCKED: ENDBRANCH   2  12
DOCKED: BRANCH   2  18
DOCKED: ATOM     18  C   UNL     1     -50.118 -28.884   6.670 -0.16 +0.00    +0.006 A  
DOCKED: ATOM     19  C   UNL     1     -49.001 -29.130   5.872 -0.11 +0.00    +0.001 A  
DOCKED: ATOM     20  C   UNL     1     -48.598 -28.186   4.928 -0.14 +0.00    +0.029 A  
DOCKED: ATOM     21  C   UNL     1     -49.312 -26.997   4.782 -0.08 +0.00    +0.140 A  
DOCKED: ATOM     22  C   UNL     1     -50.429 -26.751   5.580 -0.10 +0.00    +0.029 A  
DOCKED: ATOM     23  F   UNL     1     -48.925 -26.091   3.874 -0.01 -0.00    -0.204 F  
DOCKED: ATOM     24  C   UNL     1     -50.832 -27.695   6.525 -0.13 +0.00    +0.001 A  
DOCKED: ENDBRANCH   2  18
DOCKED: TORSDOF 5
DOCKED: TER
DOCKED: ENDMDL
________________________________________________________________________________


    FINAL DOCKED STATE:
    ________________________


Run:   146 / 512
Time taken for this run:   0.001s

DOCKED: MODEL        146
DOCKED: USER    Run = 146
DOCKED: USER
DOCKED: USER    Estimated Free Energy of Binding    =  -3.67 kcal/mol  [=(1)+(2)+(3)-(4)]
DOCKED: USER
DOCKED: USER    (1) Final Intermolecular Energy     =  -5.17 kcal/mol
DOCKED: USER        vdW + Hbond + desolv Energy     =  -5.17 kcal/mol
DOCKED: USER        Electrostatic Energy            =  +0.00 kcal/mol
DOCKED: USER        Moving Ligand-Fixed Receptor    =  -5.17 kcal/mol
DOCKED: USER        Moving Ligand-Moving Receptor   =  +0.00 kcal/mol
DOCKED: USER    (2) Final Total Internal Energy     =  -1.52 kcal/mol
DOCKED: USER    (3) Torsional Free Energy           =  +1.49 kcal/mol
DOCKED: USER    (4) Unbound System's Energy         =  -1.52 kcal/mol
DOCKED: USER
DOCKED: USER
DOCKED: REMARK  5 active torsions:
DOCKED: REMARK  status: ('A' for Active; 'I' for Inactive)
DOCKED: REMARK    1  A    between atoms: C_2  and  C_19 
DOCKED: REMARK    2  A    between atoms: C_2  and  C_11 
DOCKED: REMARK    3  A    between atoms: C_19  and  C_20 
DOCKED: REMARK    4  A    between atoms: C_20  and  C_21 
DOCKED: REMARK    5  A    between atoms: C_21  and  N_22 
DOCKED: USER                              x       y       z     vdW  Elec       q    Type
DOCKED: USER                           _______ _______ _______ _____ _____    ______ ____
DOCKED: ROOT
DOCKED: ATOM      1  O   UNL     1     -48.267 -25.526   0.496 -0.04 -0.00    -0.346 OA 
DOCKED: ATOM      2  C   UNL     1     -47.270 -24.526   0.112 -0.13 +0.00    +0.130 C  
DOCKED: ATOM      3  C   UNL     1     -47.878 -23.853  -1.084 -0.16 +0.00    +0.004 A  
DOCKED: ATOM      4  C   UNL     1     -49.157 -24.348  -1.298 -0.29 +0.00    +0.006 A  
DOCKED: ATOM      5  C   UNL     1     -49.484 -25.358  -0.268 -0.22 +0.00    +0.169 C  
DOCKED: ATOM      6  C   UNL     1     -47.347 -22.872  -1.909 -0.17 -0.00    -0.001 A  
DOCKED: ATOM      7  C   UNL     1     -49.942 -23.887  -2.341 -0.20 +0.00    +0.008 A  
DOCKED: ATOM      8  C   UNL     1     -48.125 -22.400  -2.968 -0.27 +0.00    +0.010 A  
DOCKED: ATOM      9  C   UNL     1     -49.417 -22.905  -3.182 -0.34 +0.00    +0.068 A  
DOCKED: ATOM     10  N   UNL     1     -50.837 -22.003  -5.153 -2.54 -0.00    -0.191 NA 
DOCKED: ATOM     11  C   UNL     1     -50.199 -22.408  -4.269 -0.41 +0.00    +0.101 C  
DOCKED: ENDROOT
DOCKED: BRANCH   2  12
DOCKED: ATOM     12  C   UNL     1     -47.063 -23.576   1.286 +0.00 +0.00    +0.038 C  
DOCKED: BRANCH  12  13
DOCKED: ATOM     13  C   UNL     1     -47.370 -24.260   2.617 -0.14 +0.00    +0.038 C  
DOCKED: BRANCH  13  14
DOCKED: ATOM     14  C   UNL     1     -46.144 -24.998   3.151 -0.04 +0.00    +0.251 C  
DOCKED: BRANCH  14  15
DOCKED: ATOM     15  N   UNL     1     -46.523 -26.312   3.658 -0.02 +0.00    +0.141 N  
DOCKED: ATOM     16  C   UNL     1     -47.873 -26.665   3.217 -0.04 +0.00    +0.285 C  
DOCKED: ATOM     17  C   UNL     1     -45.564 -27.329   3.222 -0.01 +0.00    +0.285 C  
DOCKED: ENDBRANCH  14  15
DOCKED: ENDBRANCH  13  14
DOCKED: ENDBRANCH  12  13
DOCKED: ENDBRANCH   2  12
DOCKED: BRANCH   2  18
DOCKED: ATOM     18  C   UNL     1     -46.014 -25.263  -0.212 -0.05 +0.00    +0.006 A  
DOCKED: ATOM     19  C   UNL     1     -44.796 -24.584  -0.247 -0.03 +0.00    +0.001 A  
DOCKED: ATOM     20  C   UNL     1     -43.623 -25.274  -0.550 -0.01 +0.00    +0.029 A  
DOCKED: ATOM     21  C   UNL     1     -43.667 -26.642  -0.817 -0.00 +0.00    +0.140 A  
DOCKED: ATOM     22  C   UNL     1     -44.885 -27.321  -0.782 -0.01 +0.00    +0.029 A  
DOCKED: ATOM     23  F   UNL     1     -42.540 -27.305  -1.107 +0.00 -0.00    -0.204 F  
DOCKED: ATOM     24  C   UNL     1     -46.060 -26.631  -0.479 -0.04 +0.00    +0.001 A  
DOCKED: ENDBRANCH   2  18
DOCKED: TORSDOF 5
DOCKED: TER
DOCKED: ENDMDL
________________________________________________________________________________


    FINAL DOCKED STATE:
    ________________________


Run:   147 / 512
Time taken for this run:   0.001s

DOCKED: MODEL        147
DOCKED: USER    Run = 147
DOCKED: USER
DOCKED: USER    Estimated Free Energy of Binding    =  -5.78 kcal/mol  [=(1)+(2)+(3)-(4)]
DOCKED: USER
DOCKED: USER    (1) Final Intermolecular Energy     =  -7.27 kcal/mol
DOCKED: USER        vdW + Hbond + desolv Energy     =  -7.27 kcal/mol
DOCKED: USER        Electrostatic Energy            =  +0.00 kcal/mol
DOCKED: USER        Moving Ligand-Fixed Receptor    =  -7.27 kcal/mol
DOCKED: USER        Moving Ligand-Moving Receptor   =  +0.00 kcal/mol
DOCKED: USER    (2) Final Total Internal Energy     =  -1.16 kcal/mol
DOCKED: USER    (3) Torsional Free Energy           =  +1.49 kcal/mol
DOCKED: USER    (4) Unbound System's Energy         =  -1.16 kcal/mol
DOCKED: USER
DOCKED: USER
DOCKED: REMARK  5 active torsions:
DOCKED: REMARK  status: ('A' for Active; 'I' for Inactive)
DOCKED: REMARK    1  A    between atoms: C_2  and  C_19 
DOCKED: REMARK    2  A    between atoms: C_2  and  C_11 
DOCKED: REMARK    3  A    between atoms: C_19  and  C_20 
DOCKED: REMARK    4  A    between atoms: C_20  and  C_21 
DOCKED: REMARK    5  A    between atoms: C_21  and  N_22 
DOCKED: USER                              x       y       z     vdW  Elec       q    Type
DOCKED: USER                           _______ _______ _______ _____ _____    ______ ____
DOCKED: ROOT
DOCKED: ATOM      1  O   UNL     1     -51.014 -34.092   7.875 -0.18 -0.00    -0.346 OA 
DOCKED: ATOM      2  C   UNL     1     -52.316 -33.435   7.999 -0.20 +0.00    +0.130 C  
DOCKED: ATOM      3  C   UNL     1     -52.868 -33.464   6.603 -0.31 +0.00    +0.004 A  
DOCKED: ATOM      4  C   UNL     1     -52.009 -34.173   5.776 -0.43 +0.00    +0.006 A  
DOCKED: ATOM      5  C   UNL     1     -50.853 -34.666   6.556 -0.26 +0.00    +0.169 C  
DOCKED: ATOM      6  C   UNL     1     -54.043 -32.916   6.108 -0.29 -0.00    -0.001 A  
DOCKED: ATOM      7  C   UNL     1     -52.290 -34.355   4.432 -0.39 +0.00    +0.008 A  
DOCKED: ATOM      8  C   UNL     1     -54.338 -33.087   4.755 -0.18 +0.00    +0.010 A  
DOCKED: ATOM      9  C   UNL     1     -53.466 -33.803   3.921 -0.43 +0.00    +0.068 A  
DOCKED: ATOM     10  N   UNL     1     -54.046 -34.106   1.414 -3.06 -0.00    -0.191 NA 
DOCKED: ATOM     11  C   UNL     1     -53.785 -33.970   2.539 -0.29 +0.00    +0.101 C  
DOCKED: ENDROOT
DOCKED: BRANCH   2  12
DOCKED: ATOM     12  C   UNL     1     -53.163 -34.226   8.989 -0.25 +0.00    +0.038 C  
DOCKED: BRANCH  12  13
DOCKED: ATOM     13  C   UNL     1     -54.371 -34.863   8.304 -0.26 +0.00    +0.038 C  
DOCKED: BRANCH  13  14
DOCKED: ATOM     14  C   UNL     1     -55.614 -34.773   9.188 -0.11 +0.00    +0.251 C  
DOCKED: BRANCH  14  15
DOCKED: ATOM     15  N   UNL     1     -55.844 -33.394   9.601 -0.07 +0.00    +0.141 N  
DOCKED: ATOM     16  C   UNL     1     -56.759 -32.723   8.676 -0.05 +0.00    +0.285 C  
DOCKED: ATOM     17  C   UNL     1     -56.375 -33.346  10.964 -0.01 +0.00    +0.285 C  
DOCKED: ENDBRANCH  14  15
DOCKED: ENDBRANCH  13  14
DOCKED: ENDBRANCH  12  13
DOCKED: ENDBRANCH   2  12
DOCKED: BRANCH   2  18
DOCKED: ATOM     18  C   UNL     1     -52.060 -32.051   8.495 -0.13 +0.00    +0.006 A  
DOCKED: ATOM     19  C   UNL     1     -51.175 -31.218   7.810 -0.18 +0.00    +0.001 A  
DOCKED: ATOM     20  C   UNL     1     -50.937 -29.924   8.275 -0.10 +0.00    +0.029 A  
DOCKED: ATOM     21  C   UNL     1     -51.582 -29.465   9.422 -0.02 +0.00    +0.140 A  
DOCKED: ATOM     22  C   UNL     1     -52.467 -30.298  10.106 -0.02 +0.00    +0.029 A  
DOCKED: ATOM     23  F   UNL     1     -51.355 -28.222   9.866 +0.00 -0.00    -0.204 F  
DOCKED: ATOM     24  C   UNL     1     -52.706 -31.593   9.642 -0.06 +0.00    +0.001 A  
DOCKED: ENDBRANCH   2  18
DOCKED: TORSDOF 5
DOCKED: TER
DOCKED: ENDMDL
________________________________________________________________________________


    FINAL DOCKED STATE:
    ________________________


Run:   148 / 512
Time taken for this run:   0.001s

DOCKED: MODEL        148
DOCKED: USER    Run = 148
DOCKED: USER
DOCKED: USER    Estimated Free Energy of Binding    =  -3.48 kcal/mol  [=(1)+(2)+(3)-(4)]
DOCKED: USER
DOCKED: USER    (1) Final Intermolecular Energy     =  -4.97 kcal/mol
DOCKED: USER        vdW + Hbond + desolv Energy     =  -4.97 kcal/mol
DOCKED: USER        Electrostatic Energy            =  +0.00 kcal/mol
DOCKED: USER        Moving Ligand-Fixed Receptor    =  -4.97 kcal/mol
DOCKED: USER        Moving Ligand-Moving Receptor   =  +0.00 kcal/mol
DOCKED: USER    (2) Final Total Internal Energy     =  -1.10 kcal/mol
DOCKED: USER    (3) Torsional Free Energy           =  +1.49 kcal/mol
DOCKED: USER    (4) Unbound System's Energy         =  -1.10 kcal/mol
DOCKED: USER
DOCKED: USER
DOCKED: REMARK  5 active torsions:
DOCKED: REMARK  status: ('A' for Active; 'I' for Inactive)
DOCKED: REMARK    1  A    between atoms: C_2  and  C_19 
DOCKED: REMARK    2  A    between atoms: C_2  and  C_11 
DOCKED: REMARK    3  A    between atoms: C_19  and  C_20 
DOCKED: REMARK    4  A    between atoms: C_20  and  C_21 
DOCKED: REMARK    5  A    between atoms: C_21  and  N_22 
DOCKED: USER                              x       y       z     vdW  Elec       q    Type
DOCKED: USER                           _______ _______ _______ _____ _____    ______ ____
DOCKED: ROOT
DOCKED: ATOM      1  O   UNL     1     -45.513 -34.611   4.602 -1.88 -0.00    -0.346 OA 
DOCKED: ATOM      2  C   UNL     1     -44.525 -33.633   4.147 -0.15 +0.00    +0.130 C  
DOCKED: ATOM      3  C   UNL     1     -44.253 -34.032   2.725 -0.18 +0.00    +0.004 A  
DOCKED: ATOM      4  C   UNL     1     -45.092 -35.076   2.364 -0.33 +0.00    +0.006 A  
DOCKED: ATOM      5  C   UNL     1     -45.973 -35.427   3.500 -0.30 +0.00    +0.169 C  
DOCKED: ATOM      6  C   UNL     1     -43.343 -33.505   1.820 -0.09 -0.00    -0.001 A  
DOCKED: ATOM      7  C   UNL     1     -45.050 -35.630   1.096 -0.29 +0.00    +0.008 A  
DOCKED: ATOM      8  C   UNL     1     -43.285 -34.055   0.538 -0.08 +0.00    +0.010 A  
DOCKED: ATOM      9  C   UNL     1     -44.134 -35.112   0.179 -0.14 +0.00    +0.068 A  
DOCKED: ATOM     10  N   UNL     1     -44.004 -36.108  -2.210 -0.03 -0.00    -0.191 NA 
DOCKED: ATOM     11  C   UNL     1     -44.062 -35.662  -1.139 -0.13 +0.00    +0.101 C  
DOCKED: ENDROOT
DOCKED: BRANCH   2  12
DOCKED: ATOM     12  C   UNL     1     -45.133 -32.240   4.266 -0.21 +0.00    +0.038 C  
DOCKED: BRANCH  12  13
DOCKED: ATOM     13  C   UNL     1     -46.210 -32.010   3.208 -0.17 +0.00    +0.038 C  
DOCKED: BRANCH  13  14
DOCKED: ATOM     14  C   UNL     1     -45.825 -30.866   2.272 -0.11 +0.00    +0.251 C  
DOCKED: BRANCH  14  15
DOCKED: ATOM     15  N   UNL     1     -46.753 -30.796   1.149 -0.20 +0.00    +0.141 N  
DOCKED: ATOM     16  C   UNL     1     -47.744 -31.869   1.231 -0.09 +0.00    +0.285 C  
DOCKED: ATOM     17  C   UNL     1     -47.418 -29.492   1.110 -0.17 +0.00    +0.285 C  
DOCKED: ENDBRANCH  14  15
DOCKED: ENDBRANCH  13  14
DOCKED: ENDBRANCH  12  13
DOCKED: ENDBRANCH   2  12
DOCKED: BRANCH   2  18
DOCKED: ATOM     18  C   UNL     1     -43.330 -33.776   5.029 -0.03 +0.00    +0.006 A  
DOCKED: ATOM     19  C   UNL     1     -43.446 -33.549   6.400 -0.12 +0.00    +0.001 A  
DOCKED: ATOM     20  C   UNL     1     -42.328 -33.683   7.225 -0.06 +0.00    +0.029 A  
DOCKED: ATOM     21  C   UNL     1     -41.097 -34.044   6.677 -0.02 +0.00    +0.140 A  
DOCKED: ATOM     22  C   UNL     1     -40.982 -34.270   5.306 -0.07 +0.00    +0.029 A  
DOCKED: ATOM     23  F   UNL     1     -40.025 -34.174   7.469 +0.01 -0.00    -0.204 F  
DOCKED: ATOM     24  C   UNL     1     -42.100 -34.136   4.481 -0.10 +0.00    +0.001 A  
DOCKED: ENDBRANCH   2  18
DOCKED: TORSDOF 5
DOCKED: TER
DOCKED: ENDMDL
________________________________________________________________________________


    FINAL DOCKED STATE:
    ________________________


Run:   149 / 512
Time taken for this run:   0.001s

DOCKED: MODEL        149
DOCKED: USER    Run = 149
DOCKED: USER
DOCKED: USER    Estimated Free Energy of Binding    =  -5.07 kcal/mol  [=(1)+(2)+(3)-(4)]
DOCKED: USER
DOCKED: USER    (1) Final Intermolecular Energy     =  -6.56 kcal/mol
DOCKED: USER        vdW + Hbond + desolv Energy     =  -6.56 kcal/mol
DOCKED: USER        Electrostatic Energy            =  +0.00 kcal/mol
DOCKED: USER        Moving Ligand-Fixed Receptor    =  -6.56 kcal/mol
DOCKED: USER        Moving Ligand-Moving Receptor   =  +0.00 kcal/mol
DOCKED: USER    (2) Final Total Internal Energy     =  -1.35 kcal/mol
DOCKED: USER    (3) Torsional Free Energy           =  +1.49 kcal/mol
DOCKED: USER    (4) Unbound System's Energy         =  -1.35 kcal/mol
DOCKED: USER
DOCKED: USER
DOCKED: REMARK  5 active torsions:
DOCKED: REMARK  status: ('A' for Active; 'I' for Inactive)
DOCKED: REMARK    1  A    between atoms: C_2  and  C_19 
DOCKED: REMARK    2  A    between atoms: C_2  and  C_11 
DOCKED: REMARK    3  A    between atoms: C_19  and  C_20 
DOCKED: REMARK    4  A    between atoms: C_20  and  C_21 
DOCKED: REMARK    5  A    between atoms: C_21  and  N_22 
DOCKED: USER                              x       y       z     vdW  Elec       q    Type
DOCKED: USER                           _______ _______ _______ _____ _____    ______ ____
DOCKED: ROOT
DOCKED: ATOM      1  O   UNL     1     -51.574 -31.472   7.547 -0.07 -0.00    -0.346 OA 
DOCKED: ATOM      2  C   UNL     1     -52.424 -32.621   7.861 -0.16 +0.00    +0.130 C  
DOCKED: ATOM      3  C   UNL     1     -52.906 -33.088   6.518 -0.30 +0.00    +0.004 A  
DOCKED: ATOM      4  C   UNL     1     -52.298 -32.343   5.518 -0.35 +0.00    +0.006 A  
DOCKED: ATOM      5  C   UNL     1     -51.375 -31.354   6.119 -0.05 +0.00    +0.169 C  
DOCKED: ATOM      6  C   UNL     1     -53.803 -34.100   6.206 -0.31 -0.00    -0.001 A  
DOCKED: ATOM      7  C   UNL     1     -52.565 -32.578   4.180 -0.09 +0.00    +0.008 A  
DOCKED: ATOM      8  C   UNL     1     -54.086 -34.346   4.862 -0.42 +0.00    +0.010 A  
DOCKED: ATOM      9  C   UNL     1     -53.470 -33.589   3.854 -0.42 +0.00    +0.068 A  
DOCKED: ATOM     10  N   UNL     1     -54.015 -34.076   1.368 -3.09 -0.00    -0.191 NA 
DOCKED: ATOM     11  C   UNL     1     -53.771 -33.857   2.483 -0.28 +0.00    +0.101 C  
DOCKED: ENDROOT
DOCKED: BRANCH   2  12
DOCKED: ATOM     12  C   UNL     1     -51.580 -33.663   8.584 -0.27 +0.00    +0.038 C  
DOCKED: BRANCH  12  13
DOCKED: ATOM     13  C   UNL     1     -50.117 -33.233   8.671 -0.10 +0.00    +0.038 C  
DOCKED: BRANCH  13  14
DOCKED: ATOM     14  C   UNL     1     -49.901 -32.247   9.818 -0.08 +0.00    +0.251 C  
DOCKED: BRANCH  14  15
DOCKED: ATOM     15  N   UNL     1     -48.802 -31.341   9.508 -0.07 +0.00    +0.141 N  
DOCKED: ATOM     16  C   UNL     1     -48.052 -31.817   8.344 -0.10 +0.00    +0.285 C  
DOCKED: ATOM     17  C   UNL     1     -49.303 -29.986   9.268 -0.03 +0.00    +0.285 C  
DOCKED: ENDBRANCH  14  15
DOCKED: ENDBRANCH  13  14
DOCKED: ENDBRANCH  12  13
DOCKED: ENDBRANCH   2  12
DOCKED: BRANCH   2  18
DOCKED: ATOM     18  C   UNL     1     -53.527 -32.122   8.733 -0.09 +0.00    +0.006 A  
DOCKED: ATOM     19  C   UNL     1     -53.334 -32.018  10.110 -0.05 +0.00    +0.001 A  
DOCKED: ATOM     20  C   UNL     1     -54.366 -31.552  10.925 -0.02 +0.00    +0.029 A  
DOCKED: ATOM     21  C   UNL     1     -55.589 -31.189  10.362 -0.01 +0.00    +0.140 A  
DOCKED: ATOM     22  C   UNL     1     -55.782 -31.293   8.985 -0.07 +0.00    +0.029 A  
DOCKED: ATOM     23  F   UNL     1     -56.579 -30.739  11.144 +0.01 -0.00    -0.204 F  
DOCKED: ATOM     24  C   UNL     1     -54.750 -31.760   8.169 -0.12 +0.00    +0.001 A  
DOCKED: ENDBRANCH   2  18
DOCKED: TORSDOF 5
DOCKED: TER
DOCKED: ENDMDL
________________________________________________________________________________


    FINAL DOCKED STATE:
    ________________________


Run:   150 / 512
Time taken for this run:   0.001s

DOCKED: MODEL        150
DOCKED: USER    Run = 150
DOCKED: USER
DOCKED: USER    Estimated Free Energy of Binding    =  -4.61 kcal/mol  [=(1)+(2)+(3)-(4)]
DOCKED: USER
DOCKED: USER    (1) Final Intermolecular Energy     =  -6.10 kcal/mol
DOCKED: USER        vdW + Hbond + desolv Energy     =  -6.10 kcal/mol
DOCKED: USER        Electrostatic Energy            =  +0.00 kcal/mol
DOCKED: USER        Moving Ligand-Fixed Receptor    =  -6.10 kcal/mol
DOCKED: USER        Moving Ligand-Moving Receptor   =  +0.00 kcal/mol
DOCKED: USER    (2) Final Total Internal Energy     =  -1.37 kcal/mol
DOCKED: USER    (3) Torsional Free Energy           =  +1.49 kcal/mol
DOCKED: USER    (4) Unbound System's Energy         =  -1.37 kcal/mol
DOCKED: USER
DOCKED: USER
DOCKED: REMARK  5 active torsions:
DOCKED: REMARK  status: ('A' for Active; 'I' for Inactive)
DOCKED: REMARK    1  A    between atoms: C_2  and  C_19 
DOCKED: REMARK    2  A    between atoms: C_2  and  C_11 
DOCKED: REMARK    3  A    between atoms: C_19  and  C_20 
DOCKED: REMARK    4  A    between atoms: C_20  and  C_21 
DOCKED: REMARK    5  A    between atoms: C_21  and  N_22 
DOCKED: USER                              x       y       z     vdW  Elec       q    Type
DOCKED: USER                           _______ _______ _______ _____ _____    ______ ____
DOCKED: ROOT
DOCKED: ATOM      1  O   UNL     1     -51.919 -31.099   7.639 -0.05 -0.00    -0.346 OA 
DOCKED: ATOM      2  C   UNL     1     -53.342 -31.420   7.752 -0.13 +0.00    +0.130 C  
DOCKED: ATOM      3  C   UNL     1     -53.658 -32.110   6.456 -0.26 +0.00    +0.004 A  
DOCKED: ATOM      4  C   UNL     1     -52.496 -32.269   5.716 -0.35 +0.00    +0.006 A  
DOCKED: ATOM      5  C   UNL     1     -51.344 -31.716   6.463 -0.18 +0.00    +0.169 C  
DOCKED: ATOM      6  C   UNL     1     -54.876 -32.571   5.977 -0.25 -0.00    -0.001 A  
DOCKED: ATOM      7  C   UNL     1     -52.509 -32.886   4.476 -0.23 +0.00    +0.008 A  
DOCKED: ATOM      8  C   UNL     1     -54.907 -33.191   4.726 -0.19 +0.00    +0.010 A  
DOCKED: ATOM      9  C   UNL     1     -53.729 -33.348   3.981 -0.34 +0.00    +0.068 A  
DOCKED: ATOM     10  N   UNL     1     -53.821 -34.508   1.666 -2.39 -0.00    -0.191 NA 
DOCKED: ATOM     11  C   UNL     1     -53.780 -33.987   2.704 -0.29 +0.00    +0.101 C  
DOCKED: ENDROOT
DOCKED: BRANCH   2  12
DOCKED: ATOM     12  C   UNL     1     -53.540 -32.319   8.966 -0.11 +0.00    +0.038 C  
DOCKED: BRANCH  12  13
DOCKED: ATOM     13  C   UNL     1     -53.253 -33.781   8.630 -0.22 +0.00    +0.038 C  
DOCKED: BRANCH  13  14
DOCKED: ATOM     14  C   UNL     1     -51.837 -34.173   9.046 -0.16 +0.00    +0.251 C  
DOCKED: BRANCH  14  15
DOCKED: ATOM     15  N   UNL     1     -51.274 -33.168   9.939 -0.11 +0.00    +0.141 N  
DOCKED: ATOM     16  C   UNL     1     -51.361 -33.608  11.332 -0.09 +0.00    +0.285 C  
DOCKED: ATOM     17  C   UNL     1     -49.883 -32.882   9.583 -0.04 +0.00    +0.285 C  
DOCKED: ENDBRANCH  14  15
DOCKED: ENDBRANCH  13  14
DOCKED: ENDBRANCH  12  13
DOCKED: ENDBRANCH   2  12
DOCKED: BRANCH   2  18
DOCKED: ATOM     18  C   UNL     1     -54.069 -30.127   7.914 -0.14 +0.00    +0.006 A  
DOCKED: ATOM     19  C   UNL     1     -54.941 -29.949   8.988 -0.06 +0.00    +0.001 A  
DOCKED: ATOM     20  C   UNL     1     -55.621 -28.739   9.139 -0.04 +0.00    +0.029 A  
DOCKED: ATOM     21  C   UNL     1     -55.427 -27.711   8.217 -0.05 +0.00    +0.140 A  
DOCKED: ATOM     22  C   UNL     1     -54.555 -27.891   7.144 -0.19 +0.00    +0.029 A  
DOCKED: ATOM     23  F   UNL     1     -56.078 -26.550   8.363 +0.01 -0.00    -0.204 F  
DOCKED: ATOM     24  C   UNL     1     -53.875 -29.100   6.992 -0.23 +0.00    +0.001 A  
DOCKED: ENDBRANCH   2  18
DOCKED: TORSDOF 5
DOCKED: TER
DOCKED: ENDMDL
________________________________________________________________________________


    FINAL DOCKED STATE:
    ________________________


Run:   151 / 512
Time taken for this run:   0.001s

DOCKED: MODEL        151
DOCKED: USER    Run = 151
DOCKED: USER
DOCKED: USER    Estimated Free Energy of Binding    =  -3.42 kcal/mol  [=(1)+(2)+(3)-(4)]
DOCKED: USER
DOCKED: USER    (1) Final Intermolecular Energy     =  -4.91 kcal/mol
DOCKED: USER        vdW + Hbond + desolv Energy     =  -4.91 kcal/mol
DOCKED: USER        Electrostatic Energy            =  +0.00 kcal/mol
DOCKED: USER        Moving Ligand-Fixed Receptor    =  -4.91 kcal/mol
DOCKED: USER        Moving Ligand-Moving Receptor   =  +0.00 kcal/mol
DOCKED: USER    (2) Final Total Internal Energy     =  -1.53 kcal/mol
DOCKED: USER    (3) Torsional Free Energy           =  +1.49 kcal/mol
DOCKED: USER    (4) Unbound System's Energy         =  -1.53 kcal/mol
DOCKED: USER
DOCKED: USER
DOCKED: REMARK  5 active torsions:
DOCKED: REMARK  status: ('A' for Active; 'I' for Inactive)
DOCKED: REMARK    1  A    between atoms: C_2  and  C_19 
DOCKED: REMARK    2  A    between atoms: C_2  and  C_11 
DOCKED: REMARK    3  A    between atoms: C_19  and  C_20 
DOCKED: REMARK    4  A    between atoms: C_20  and  C_21 
DOCKED: REMARK    5  A    between atoms: C_21  and  N_22 
DOCKED: USER                              x       y       z     vdW  Elec       q    Type
DOCKED: USER                           _______ _______ _______ _____ _____    ______ ____
DOCKED: ROOT
DOCKED: ATOM      1  O   UNL     1     -45.124 -30.142   0.143 +0.01 -0.00    -0.346 OA 
DOCKED: ATOM      2  C   UNL     1     -44.590 -31.303  -0.571 -0.09 +0.00    +0.130 C  
DOCKED: ATOM      3  C   UNL     1     -44.857 -32.451   0.359 -0.13 +0.00    +0.004 A  
DOCKED: ATOM      4  C   UNL     1     -45.578 -32.004   1.457 -0.19 +0.00    +0.006 A  
DOCKED: ATOM      5  C   UNL     1     -45.846 -30.554   1.326 -0.12 +0.00    +0.169 C  
DOCKED: ATOM      6  C   UNL     1     -44.500 -33.786   0.237 -0.15 -0.00    -0.001 A  
DOCKED: ATOM      7  C   UNL     1     -45.961 -32.869   2.467 -0.29 +0.00    +0.008 A  
DOCKED: ATOM      8  C   UNL     1     -44.875 -34.670   1.249 -0.25 +0.00    +0.010 A  
DOCKED: ATOM      9  C   UNL     1     -45.603 -34.214   2.359 -0.31 +0.00    +0.068 A  
DOCKED: ATOM     10  N   UNL     1     -46.288 -35.882   4.219 -2.68 -0.00    -0.191 NA 
DOCKED: ATOM     11  C   UNL     1     -45.980 -35.134   3.385 -0.39 +0.00    +0.101 C  
DOCKED: ENDROOT
DOCKED: BRANCH   2  12
DOCKED: ATOM     12  C   UNL     1     -45.325 -31.432  -1.900 +0.10 +0.00    +0.038 C  
DOCKED: BRANCH  12  13
DOCKED: ATOM     13  C   UNL     1     -46.278 -30.260  -2.126 -0.11 +0.00    +0.038 C  
DOCKED: BRANCH  13  14
DOCKED: ATOM     14  C   UNL     1     -45.596 -29.141  -2.911 -0.10 +0.00    +0.251 C  
DOCKED: BRANCH  14  15
DOCKED: ATOM     15  N   UNL     1     -45.701 -27.878  -2.189 -0.05 +0.00    +0.141 N  
DOCKED: ATOM     16  C   UNL     1     -46.850 -27.896  -1.283 -0.11 +0.00    +0.285 C  
DOCKED: ATOM     17  C   UNL     1     -44.471 -27.606  -1.444 -0.00 +0.00    +0.285 C  
DOCKED: ENDBRANCH  14  15
DOCKED: ENDBRANCH  13  14
DOCKED: ENDBRANCH  12  13
DOCKED: ENDBRANCH   2  12
DOCKED: BRANCH   2  18
DOCKED: ATOM     18  C   UNL     1     -43.134 -31.053  -0.784 -0.02 +0.00    +0.006 A  
DOCKED: ATOM     19  C   UNL     1     -42.283 -30.920   0.312 -0.01 +0.00    +0.001 A  
DOCKED: ATOM     20  C   UNL     1     -40.922 -30.685   0.112 -0.00 +0.00    +0.029 A  
DOCKED: ATOM     21  C   UNL     1     -40.414 -30.585  -1.182 +0.00 +0.00    +0.140 A  
DOCKED: ATOM     22  C   UNL     1     -41.266 -30.719  -2.278 -0.00 +0.00    +0.029 A  
DOCKED: ATOM     23  F   UNL     1     -39.108 -30.362  -1.374 +0.00 -0.00    -0.204 F  
DOCKED: ATOM     24  C   UNL     1     -42.628 -30.952  -2.079 -0.01 +0.00    +0.001 A  
DOCKED: ENDBRANCH   2  18
DOCKED: TORSDOF 5
DOCKED: TER
DOCKED: ENDMDL
________________________________________________________________________________


    FINAL DOCKED STATE:
    ________________________


Run:   152 / 512
Time taken for this run:   0.001s

DOCKED: MODEL        152
DOCKED: USER    Run = 152
DOCKED: USER
DOCKED: USER    Estimated Free Energy of Binding    =  -3.89 kcal/mol  [=(1)+(2)+(3)-(4)]
DOCKED: USER
DOCKED: USER    (1) Final Intermolecular Energy     =  -5.38 kcal/mol
DOCKED: USER        vdW + Hbond + desolv Energy     =  -5.38 kcal/mol
DOCKED: USER        Electrostatic Energy            =  +0.00 kcal/mol
DOCKED: USER        Moving Ligand-Fixed Receptor    =  -5.38 kcal/mol
DOCKED: USER        Moving Ligand-Moving Receptor   =  +0.00 kcal/mol
DOCKED: USER    (2) Final Total Internal Energy     =  -1.24 kcal/mol
DOCKED: USER    (3) Torsional Free Energy           =  +1.49 kcal/mol
DOCKED: USER    (4) Unbound System's Energy         =  -1.24 kcal/mol
DOCKED: USER
DOCKED: USER
DOCKED: REMARK  5 active torsions:
DOCKED: REMARK  status: ('A' for Active; 'I' for Inactive)
DOCKED: REMARK    1  A    between atoms: C_2  and  C_19 
DOCKED: REMARK    2  A    between atoms: C_2  and  C_11 
DOCKED: REMARK    3  A    between atoms: C_19  and  C_20 
DOCKED: REMARK    4  A    between atoms: C_20  and  C_21 
DOCKED: REMARK    5  A    between atoms: C_21  and  N_22 
DOCKED: USER                              x       y       z     vdW  Elec       q    Type
DOCKED: USER                           _______ _______ _______ _____ _____    ______ ____
DOCKED: ROOT
DOCKED: ATOM      1  O   UNL     1     -47.325 -24.991   0.352 -0.04 -0.00    -0.346 OA 
DOCKED: ATOM      2  C   UNL     1     -48.708 -25.059  -0.121 -0.21 +0.00    +0.130 C  
DOCKED: ATOM      3  C   UNL     1     -48.746 -24.084  -1.262 -0.24 +0.00    +0.004 A  
DOCKED: ATOM      4  C   UNL     1     -47.472 -23.585  -1.493 -0.17 +0.00    +0.006 A  
DOCKED: ATOM      5  C   UNL     1     -46.514 -24.195  -0.544 -0.10 +0.00    +0.169 C  
DOCKED: ATOM      6  C   UNL     1     -49.821 -23.680  -2.041 -0.32 -0.00    -0.001 A  
DOCKED: ATOM      7  C   UNL     1     -47.229 -22.668  -2.500 -0.18 +0.00    +0.008 A  
DOCKED: ATOM      8  C   UNL     1     -49.593 -22.751  -3.058 -0.41 +0.00    +0.010 A  
DOCKED: ATOM      9  C   UNL     1     -48.303 -22.248  -3.287 -0.27 +0.00    +0.068 A  
DOCKED: ATOM     10  N   UNL     1     -47.914 -20.530  -5.187 -0.87 -0.00    -0.191 NA 
DOCKED: ATOM     11  C   UNL     1     -48.089 -21.300  -4.334 -0.25 +0.00    +0.101 C  
DOCKED: ENDROOT
DOCKED: BRANCH   2  12
DOCKED: ATOM     12  C   UNL     1     -49.000 -26.491  -0.554 -0.20 +0.00    +0.038 C  
DOCKED: BRANCH  12  13
DOCKED: ATOM     13  C   UNL     1     -48.443 -26.776  -1.947 -0.18 +0.00    +0.038 C  
DOCKED: BRANCH  13  14
DOCKED: ATOM     14  C   UNL     1     -47.007 -27.290  -1.870 -0.12 +0.00    +0.251 C  
DOCKED: BRANCH  14  15
DOCKED: ATOM     15  N   UNL     1     -46.549 -27.716  -3.187 -0.13 +0.00    +0.141 N  
DOCKED: ATOM     16  C   UNL     1     -47.413 -28.772  -3.717 -0.21 +0.00    +0.285 C  
DOCKED: ATOM     17  C   UNL     1     -46.510 -26.581  -4.111 -0.09 +0.00    +0.285 C  
DOCKED: ENDBRANCH  14  15
DOCKED: ENDBRANCH  13  14
DOCKED: ENDBRANCH  12  13
DOCKED: ENDBRANCH   2  12
DOCKED: BRANCH   2  18
DOCKED: ATOM     18  C   UNL     1     -49.580 -24.653   1.021 -0.25 +0.00    +0.006 A  
DOCKED: ATOM     19  C   UNL     1     -50.967 -24.680   0.882 -0.28 +0.00    +0.001 A  
DOCKED: ATOM     20  C   UNL     1     -51.780 -24.300   1.950 -0.29 +0.00    +0.029 A  
DOCKED: ATOM     21  C   UNL     1     -51.207 -23.894   3.154 -0.17 +0.00    +0.140 A  
DOCKED: ATOM     22  C   UNL     1     -49.819 -23.868   3.292 -0.19 +0.00    +0.029 A  
DOCKED: ATOM     23  F   UNL     1     -51.988 -23.531   4.179 -0.01 -0.00    -0.204 F  
DOCKED: ATOM     24  C   UNL     1     -49.004 -24.247   2.224 -0.20 +0.00    +0.001 A  
DOCKED: ENDBRANCH   2  18
DOCKED: TORSDOF 5
DOCKED: TER
DOCKED: ENDMDL
________________________________________________________________________________


    FINAL DOCKED STATE:
    ________________________


Run:   153 / 512
Time taken for this run:   0.001s

DOCKED: MODEL        153
DOCKED: USER    Run = 153
DOCKED: USER
DOCKED: USER    Estimated Free Energy of Binding    =  -3.06 kcal/mol  [=(1)+(2)+(3)-(4)]
DOCKED: USER
DOCKED: USER    (1) Final Intermolecular Energy     =  -4.55 kcal/mol
DOCKED: USER        vdW + Hbond + desolv Energy     =  -4.55 kcal/mol
DOCKED: USER        Electrostatic Energy            =  +0.00 kcal/mol
DOCKED: USER        Moving Ligand-Fixed Receptor    =  -4.55 kcal/mol
DOCKED: USER        Moving Ligand-Moving Receptor   =  +0.00 kcal/mol
DOCKED: USER    (2) Final Total Internal Energy     =  -1.41 kcal/mol
DOCKED: USER    (3) Torsional Free Energy           =  +1.49 kcal/mol
DOCKED: USER    (4) Unbound System's Energy         =  -1.41 kcal/mol
DOCKED: USER
DOCKED: USER
DOCKED: REMARK  5 active torsions:
DOCKED: REMARK  status: ('A' for Active; 'I' for Inactive)
DOCKED: REMARK    1  A    between atoms: C_2  and  C_19 
DOCKED: REMARK    2  A    between atoms: C_2  and  C_11 
DOCKED: REMARK    3  A    between atoms: C_19  and  C_20 
DOCKED: REMARK    4  A    between atoms: C_20  and  C_21 
DOCKED: REMARK    5  A    between atoms: C_21  and  N_22 
DOCKED: USER                              x       y       z     vdW  Elec       q    Type
DOCKED: USER                           _______ _______ _______ _____ _____    ______ ____
DOCKED: ROOT
DOCKED: ATOM      1  O   UNL     1     -42.336 -31.454   0.740 +0.00 -0.00    -0.346 OA 
DOCKED: ATOM      2  C   UNL     1     -42.856 -32.450  -0.198 -0.03 +0.00    +0.130 C  
DOCKED: ATOM      3  C   UNL     1     -43.704 -33.344   0.660 -0.08 +0.00    +0.004 A  
DOCKED: ATOM      4  C   UNL     1     -43.755 -32.840   1.952 -0.08 +0.00    +0.006 A  
DOCKED: ATOM      5  C   UNL     1     -42.967 -31.590   2.035 -0.02 +0.00    +0.169 C  
DOCKED: ATOM      6  C   UNL     1     -44.385 -34.504   0.321 -0.17 -0.00    -0.001 A  
DOCKED: ATOM      7  C   UNL     1     -44.480 -33.476   2.945 -0.18 +0.00    +0.008 A  
DOCKED: ATOM      8  C   UNL     1     -45.118 -35.159   1.312 -0.29 +0.00    +0.010 A  
DOCKED: ATOM      9  C   UNL     1     -45.165 -34.647   2.618 -0.28 +0.00    +0.068 A  
DOCKED: ATOM     10  N   UNL     1     -46.539 -35.884   4.433 -2.45 -0.00    -0.191 NA 
DOCKED: ATOM     11  C   UNL     1     -45.922 -35.330   3.619 -0.35 +0.00    +0.101 C  
DOCKED: ENDROOT
DOCKED: BRANCH   2  12
DOCKED: ATOM     12  C   UNL     1     -43.656 -31.728  -1.275 -0.07 +0.00    +0.038 C  
DOCKED: BRANCH  12  13
DOCKED: ATOM     13  C   UNL     1     -44.453 -30.564  -0.690 -0.08 +0.00    +0.038 C  
DOCKED: BRANCH  13  14
DOCKED: ATOM     14  C   UNL     1     -45.854 -31.011  -0.276 -0.04 +0.00    +0.251 C  
DOCKED: BRANCH  14  15
DOCKED: ATOM     15  N   UNL     1     -46.396 -30.109   0.734 -0.14 +0.00    +0.141 N  
DOCKED: ATOM     16  C   UNL     1     -46.998 -30.866   1.832 -0.19 +0.00    +0.285 C  
DOCKED: ATOM     17  C   UNL     1     -45.352 -29.218   1.244 -0.02 +0.00    +0.285 C  
DOCKED: ENDBRANCH  14  15
DOCKED: ENDBRANCH  13  14
DOCKED: ENDBRANCH  12  13
DOCKED: ENDBRANCH   2  12
DOCKED: BRANCH   2  18
DOCKED: ATOM     18  C   UNL     1     -41.677 -33.154  -0.784 -0.01 +0.00    +0.006 A  
DOCKED: ATOM     19  C   UNL     1     -40.656 -33.613   0.047 -0.02 +0.00    +0.001 A  
DOCKED: ATOM     20  C   UNL     1     -39.554 -34.271  -0.502 -0.02 +0.00    +0.029 A  
DOCKED: ATOM     21  C   UNL     1     -39.476 -34.469  -1.879 -0.00 +0.00    +0.140 A  
DOCKED: ATOM     22  C   UNL     1     -40.498 -34.010  -2.710 -0.00 +0.00    +0.029 A  
DOCKED: ATOM     23  F   UNL     1     -38.420 -35.102  -2.406 +0.00 -0.00    -0.204 F  
DOCKED: ATOM     24  C   UNL     1     -41.600 -33.352  -2.162 -0.01 +0.00    +0.001 A  
DOCKED: ENDBRANCH   2  18
DOCKED: TORSDOF 5
DOCKED: TER
DOCKED: ENDMDL
________________________________________________________________________________


    FINAL DOCKED STATE:
    ________________________


Run:   154 / 512
Time taken for this run:   0.001s

DOCKED: MODEL        154
DOCKED: USER    Run = 154
DOCKED: USER
DOCKED: USER    Estimated Free Energy of Binding    =  -5.09 kcal/mol  [=(1)+(2)+(3)-(4)]
DOCKED: USER
DOCKED: USER    (1) Final Intermolecular Energy     =  -6.58 kcal/mol
DOCKED: USER        vdW + Hbond + desolv Energy     =  -6.58 kcal/mol
DOCKED: USER        Electrostatic Energy            =  +0.00 kcal/mol
DOCKED: USER        Moving Ligand-Fixed Receptor    =  -6.58 kcal/mol
DOCKED: USER        Moving Ligand-Moving Receptor   =  +0.00 kcal/mol
DOCKED: USER    (2) Final Total Internal Energy     =  -1.01 kcal/mol
DOCKED: USER    (3) Torsional Free Energy           =  +1.49 kcal/mol
DOCKED: USER    (4) Unbound System's Energy         =  -1.01 kcal/mol
DOCKED: USER
DOCKED: USER
DOCKED: REMARK  5 active torsions:
DOCKED: REMARK  status: ('A' for Active; 'I' for Inactive)
DOCKED: REMARK    1  A    between atoms: C_2  and  C_19 
DOCKED: REMARK    2  A    between atoms: C_2  and  C_11 
DOCKED: REMARK    3  A    between atoms: C_19  and  C_20 
DOCKED: REMARK    4  A    between atoms: C_20  and  C_21 
DOCKED: REMARK    5  A    between atoms: C_21  and  N_22 
DOCKED: USER                              x       y       z     vdW  Elec       q    Type
DOCKED: USER                           _______ _______ _______ _____ _____    ______ ____
DOCKED: ROOT
DOCKED: ATOM      1  O   UNL     1     -51.583 -31.073   8.084 -0.04 -0.00    -0.346 OA 
DOCKED: ATOM      2  C   UNL     1     -51.443 -32.525   8.203 -0.18 +0.00    +0.130 C  
DOCKED: ATOM      3  C   UNL     1     -51.943 -33.043   6.885 -0.32 +0.00    +0.004 A  
DOCKED: ATOM      4  C   UNL     1     -52.239 -31.978   6.047 -0.33 +0.00    +0.006 A  
DOCKED: ATOM      5  C   UNL     1     -51.947 -30.701   6.735 -0.22 +0.00    +0.169 C  
DOCKED: ATOM      6  C   UNL     1     -52.112 -34.353   6.459 -0.34 -0.00    -0.001 A  
DOCKED: ATOM      7  C   UNL     1     -52.715 -32.182   4.763 -0.10 +0.00    +0.008 A  
DOCKED: ATOM      8  C   UNL     1     -52.596 -34.575   5.169 -0.47 +0.00    +0.010 A  
DOCKED: ATOM      9  C   UNL     1     -52.895 -33.495   4.325 -0.41 +0.00    +0.068 A  
DOCKED: ATOM     10  N   UNL     1     -53.785 -33.943   1.933 -2.61 -0.00    -0.191 NA 
DOCKED: ATOM     11  C   UNL     1     -53.387 -33.742   3.006 -0.49 +0.00    +0.101 C  
DOCKED: ENDROOT
DOCKED: BRANCH   2  12
DOCKED: ATOM     12  C   UNL     1     -49.974 -32.850   8.449 -0.23 +0.00    +0.038 C  
DOCKED: BRANCH  12  13
DOCKED: ATOM     13  C   UNL     1     -49.152 -31.582   8.667 -0.17 +0.00    +0.038 C  
DOCKED: BRANCH  13  14
DOCKED: ATOM     14  C   UNL     1     -47.797 -31.679   7.970 +0.01 +0.00    +0.251 C  
DOCKED: BRANCH  14  15
DOCKED: ATOM     15  N   UNL     1     -47.246 -30.348   7.745 -0.09 +0.00    +0.141 N  
DOCKED: ATOM     16  C   UNL     1     -46.565 -30.283   6.450 +0.03 +0.00    +0.285 C  
DOCKED: ATOM     17  C   UNL     1     -48.300 -29.335   7.815 -0.06 +0.00    +0.285 C  
DOCKED: ENDBRANCH  14  15
DOCKED: ENDBRANCH  13  14
DOCKED: ENDBRANCH  12  13
DOCKED: ENDBRANCH   2  12
DOCKED: BRANCH   2  18
DOCKED: ATOM     18  C   UNL     1     -52.289 -32.953   9.355 -0.13 +0.00    +0.006 A  
DOCKED: ATOM     19  C   UNL     1     -52.788 -34.254   9.408 -0.23 +0.00    +0.001 A  
DOCKED: ATOM     20  C   UNL     1     -53.580 -34.652  10.486 -0.03 +0.00    +0.029 A  
DOCKED: ATOM     21  C   UNL     1     -53.871 -33.750  11.508 -0.07 +0.00    +0.140 A  
DOCKED: ATOM     22  C   UNL     1     -53.371 -32.449  11.455 -0.04 +0.00    +0.029 A  
DOCKED: ATOM     23  F   UNL     1     -54.629 -34.133  12.544 -0.00 -0.00    -0.204 F  
DOCKED: ATOM     24  C   UNL     1     -52.580 -32.049  10.377 -0.06 +0.00    +0.001 A  
DOCKED: ENDBRANCH   2  18
DOCKED: TORSDOF 5
DOCKED: TER
DOCKED: ENDMDL
________________________________________________________________________________


    FINAL DOCKED STATE:
    ________________________


Run:   155 / 512
Time taken for this run:   0.001s

DOCKED: MODEL        155
DOCKED: USER    Run = 155
DOCKED: USER
DOCKED: USER    Estimated Free Energy of Binding    =  -4.61 kcal/mol  [=(1)+(2)+(3)-(4)]
DOCKED: USER
DOCKED: USER    (1) Final Intermolecular Energy     =  -6.10 kcal/mol
DOCKED: USER        vdW + Hbond + desolv Energy     =  -6.10 kcal/mol
DOCKED: USER        Electrostatic Energy            =  +0.00 kcal/mol
DOCKED: USER        Moving Ligand-Fixed Receptor    =  -6.10 kcal/mol
DOCKED: USER        Moving Ligand-Moving Receptor   =  +0.00 kcal/mol
DOCKED: USER    (2) Final Total Internal Energy     =  -1.35 kcal/mol
DOCKED: USER    (3) Torsional Free Energy           =  +1.49 kcal/mol
DOCKED: USER    (4) Unbound System's Energy         =  -1.35 kcal/mol
DOCKED: USER
DOCKED: USER
DOCKED: REMARK  5 active torsions:
DOCKED: REMARK  status: ('A' for Active; 'I' for Inactive)
DOCKED: REMARK    1  A    between atoms: C_2  and  C_19 
DOCKED: REMARK    2  A    between atoms: C_2  and  C_11 
DOCKED: REMARK    3  A    between atoms: C_19  and  C_20 
DOCKED: REMARK    4  A    between atoms: C_20  and  C_21 
DOCKED: REMARK    5  A    between atoms: C_21  and  N_22 
DOCKED: USER                              x       y       z     vdW  Elec       q    Type
DOCKED: USER                           _______ _______ _______ _____ _____    ______ ____
DOCKED: ROOT
DOCKED: ATOM      1  O   UNL     1     -52.278 -33.492   8.946 -0.05 -0.00    -0.346 OA 
DOCKED: ATOM      2  C   UNL     1     -51.976 -32.222   8.284 -0.14 +0.00    +0.130 C  
DOCKED: ATOM      3  C   UNL     1     -52.301 -32.483   6.841 -0.29 +0.00    +0.004 A  
DOCKED: ATOM      4  C   UNL     1     -52.845 -33.752   6.707 -0.31 +0.00    +0.006 A  
DOCKED: ATOM      5  C   UNL     1     -52.929 -34.405   8.032 -0.20 +0.00    +0.169 C  
DOCKED: ATOM      6  C   UNL     1     -52.138 -31.658   5.738 -0.29 -0.00    -0.001 A  
DOCKED: ATOM      7  C   UNL     1     -53.239 -34.240   5.473 -0.42 +0.00    +0.008 A  
DOCKED: ATOM      8  C   UNL     1     -52.527 -32.137   4.486 +0.11 +0.00    +0.010 A  
DOCKED: ATOM      9  C   UNL     1     -53.075 -33.422   4.354 -0.41 +0.00    +0.068 A  
DOCKED: ATOM     10  N   UNL     1     -53.790 -34.280   2.016 -2.36 -0.00    -0.191 NA 
DOCKED: ATOM     11  C   UNL     1     -53.468 -33.895   3.065 -0.48 +0.00    +0.101 C  
DOCKED: ENDROOT
DOCKED: BRANCH   2  12
DOCKED: ATOM     12  C   UNL     1     -52.849 -31.136   8.901 -0.09 +0.00    +0.038 C  
DOCKED: BRANCH  12  13
DOCKED: ATOM     13  C   UNL     1     -54.047 -30.811   8.012 -0.14 +0.00    +0.038 C  
DOCKED: BRANCH  13  14
DOCKED: ATOM     14  C   UNL     1     -55.359 -30.955   8.782 -0.03 +0.00    +0.251 C  
DOCKED: BRANCH  14  15
DOCKED: ATOM     15  N   UNL     1     -56.337 -31.687   7.986 -0.10 +0.00    +0.141 N  
DOCKED: ATOM     16  C   UNL     1     -56.348 -31.200   6.606 -0.10 +0.00    +0.285 C  
DOCKED: ATOM     17  C   UNL     1     -56.054 -33.123   8.016 -0.06 +0.00    +0.285 C  
DOCKED: ENDBRANCH  14  15
DOCKED: ENDBRANCH  13  14
DOCKED: ENDBRANCH  12  13
DOCKED: ENDBRANCH   2  12
DOCKED: BRANCH   2  18
DOCKED: ATOM     18  C   UNL     1     -50.528 -31.944   8.513 -0.18 +0.00    +0.006 A  
DOCKED: ATOM     19  C   UNL     1     -49.570 -32.881   8.130 -0.18 +0.00    +0.001 A  
DOCKED: ATOM     20  C   UNL     1     -48.216 -32.620   8.345 -0.15 +0.00    +0.029 A  
DOCKED: ATOM     21  C   UNL     1     -47.823 -31.423   8.942 -0.10 +0.00    +0.140 A  
DOCKED: ATOM     22  C   UNL     1     -48.782 -30.486   9.324 -0.07 +0.00    +0.029 A  
DOCKED: ATOM     23  F   UNL     1     -46.523 -31.171   9.146 -0.01 -0.00    -0.204 F  
DOCKED: ATOM     24  C   UNL     1     -50.137 -30.746   9.110 -0.09 +0.00    +0.001 A  
DOCKED: ENDBRANCH   2  18
DOCKED: TORSDOF 5
DOCKED: TER
DOCKED: ENDMDL
________________________________________________________________________________


    FINAL DOCKED STATE:
    ________________________


Run:   156 / 512
Time taken for this run:   0.001s

DOCKED: MODEL        156
DOCKED: USER    Run = 156
DOCKED: USER
DOCKED: USER    Estimated Free Energy of Binding    =  -3.42 kcal/mol  [=(1)+(2)+(3)-(4)]
DOCKED: USER
DOCKED: USER    (1) Final Intermolecular Energy     =  -4.91 kcal/mol
DOCKED: USER        vdW + Hbond + desolv Energy     =  -4.91 kcal/mol
DOCKED: USER        Electrostatic Energy            =  +0.00 kcal/mol
DOCKED: USER        Moving Ligand-Fixed Receptor    =  -4.91 kcal/mol
DOCKED: USER        Moving Ligand-Moving Receptor   =  +0.00 kcal/mol
DOCKED: USER    (2) Final Total Internal Energy     =  -1.51 kcal/mol
DOCKED: USER    (3) Torsional Free Energy           =  +1.49 kcal/mol
DOCKED: USER    (4) Unbound System's Energy         =  -1.51 kcal/mol
DOCKED: USER
DOCKED: USER
DOCKED: REMARK  5 active torsions:
DOCKED: REMARK  status: ('A' for Active; 'I' for Inactive)
DOCKED: REMARK    1  A    between atoms: C_2  and  C_19 
DOCKED: REMARK    2  A    between atoms: C_2  and  C_11 
DOCKED: REMARK    3  A    between atoms: C_19  and  C_20 
DOCKED: REMARK    4  A    between atoms: C_20  and  C_21 
DOCKED: REMARK    5  A    between atoms: C_21  and  N_22 
DOCKED: USER                              x       y       z     vdW  Elec       q    Type
DOCKED: USER                           _______ _______ _______ _____ _____    ______ ____
DOCKED: ROOT
DOCKED: ATOM      1  O   UNL     1     -45.686 -20.133  -0.669 -0.08 -0.00    -0.346 OA 
DOCKED: ATOM      2  C   UNL     1     -45.130 -21.200  -1.503 -0.10 +0.00    +0.130 C  
DOCKED: ATOM      3  C   UNL     1     -46.274 -21.592  -2.393 -0.15 +0.00    +0.004 A  
DOCKED: ATOM      4  C   UNL     1     -47.353 -20.751  -2.165 -0.26 +0.00    +0.006 A  
DOCKED: ATOM      5  C   UNL     1     -47.001 -19.750  -1.133 -0.19 +0.00    +0.169 C  
DOCKED: ATOM      6  C   UNL     1     -46.348 -22.606  -3.338 -0.10 -0.00    -0.001 A  
DOCKED: ATOM      7  C   UNL     1     -48.539 -20.895  -2.865 -0.17 +0.00    +0.008 A  
DOCKED: ATOM      8  C   UNL     1     -47.539 -22.766  -4.048 -0.20 +0.00    +0.010 A  
DOCKED: ATOM      9  C   UNL     1     -48.629 -21.915  -3.813 -0.33 +0.00    +0.068 A  
DOCKED: ATOM     10  N   UNL     1     -50.823 -22.237  -5.153 -2.38 -0.00    -0.191 NA 
DOCKED: ATOM     11  C   UNL     1     -49.839 -22.093  -4.551 -0.44 +0.00    +0.101 C  
DOCKED: ENDROOT
DOCKED: BRANCH   2  12
DOCKED: ATOM     12  C   UNL     1     -43.942 -20.639  -2.276 -0.05 +0.00    +0.038 C  
DOCKED: BRANCH  12  13
DOCKED: ATOM     13  C   UNL     1     -43.483 -19.302  -1.697 -0.04 +0.00    +0.038 C  
DOCKED: BRANCH  13  14
DOCKED: ATOM     14  C   UNL     1     -42.544 -19.511  -0.510 -0.01 +0.00    +0.251 C  
DOCKED: BRANCH  14  15
DOCKED: ATOM     15  N   UNL     1     -43.308 -19.836   0.689 -0.04 +0.00    +0.141 N  
DOCKED: ATOM     16  C   UNL     1     -42.446 -20.455   1.697 -0.02 +0.00    +0.285 C  
DOCKED: ATOM     17  C   UNL     1     -43.946 -18.637   1.234 -0.05 +0.00    +0.285 C  
DOCKED: ENDBRANCH  14  15
DOCKED: ENDBRANCH  13  14
DOCKED: ENDBRANCH  12  13
DOCKED: ENDBRANCH   2  12
DOCKED: BRANCH   2  18
DOCKED: ATOM     18  C   UNL     1     -44.705 -22.296  -0.585 -0.09 +0.00    +0.006 A  
DOCKED: ATOM     19  C   UNL     1     -43.934 -23.352  -1.069 -0.03 +0.00    +0.001 A  
DOCKED: ATOM     20  C   UNL     1     -43.538 -24.377  -0.209 -0.01 +0.00    +0.029 A  
DOCKED: ATOM     21  C   UNL     1     -43.912 -24.344   1.133 -0.02 +0.00    +0.140 A  
DOCKED: ATOM     22  C   UNL     1     -44.683 -23.288   1.617 -0.08 +0.00    +0.029 A  
DOCKED: ATOM     23  F   UNL     1     -43.530 -25.327   1.959 +0.00 -0.00    -0.204 F  
DOCKED: ATOM     24  C   UNL     1     -45.081 -22.262   0.758 -0.08 +0.00    +0.001 A  
DOCKED: ENDBRANCH   2  18
DOCKED: TORSDOF 5
DOCKED: TER
DOCKED: ENDMDL
________________________________________________________________________________


    FINAL DOCKED STATE:
    ________________________


Run:   157 / 512
Time taken for this run:   0.001s

DOCKED: MODEL        157
DOCKED: USER    Run = 157
DOCKED: USER
DOCKED: USER    Estimated Free Energy of Binding    =  -5.78 kcal/mol  [=(1)+(2)+(3)-(4)]
DOCKED: USER
DOCKED: USER    (1) Final Intermolecular Energy     =  -7.27 kcal/mol
DOCKED: USER        vdW + Hbond + desolv Energy     =  -7.27 kcal/mol
DOCKED: USER        Electrostatic Energy            =  +0.00 kcal/mol
DOCKED: USER        Moving Ligand-Fixed Receptor    =  -7.27 kcal/mol
DOCKED: USER        Moving Ligand-Moving Receptor   =  +0.00 kcal/mol
DOCKED: USER    (2) Final Total Internal Energy     =  -1.33 kcal/mol
DOCKED: USER    (3) Torsional Free Energy           =  +1.49 kcal/mol
DOCKED: USER    (4) Unbound System's Energy         =  -1.33 kcal/mol
DOCKED: USER
DOCKED: USER
DOCKED: REMARK  5 active torsions:
DOCKED: REMARK  status: ('A' for Active; 'I' for Inactive)
DOCKED: REMARK    1  A    between atoms: C_2  and  C_19 
DOCKED: REMARK    2  A    between atoms: C_2  and  C_11 
DOCKED: REMARK    3  A    between atoms: C_19  and  C_20 
DOCKED: REMARK    4  A    between atoms: C_20  and  C_21 
DOCKED: REMARK    5  A    between atoms: C_21  and  N_22 
DOCKED: USER                              x       y       z     vdW  Elec       q    Type
DOCKED: USER                           _______ _______ _______ _____ _____    ______ ____
DOCKED: ROOT
DOCKED: ATOM      1  O   UNL     1     -50.813 -34.475   7.653 -0.26 -0.00    -0.346 OA 
DOCKED: ATOM      2  C   UNL     1     -51.824 -33.418   7.706 -0.25 +0.00    +0.130 C  
DOCKED: ATOM      3  C   UNL     1     -52.458 -33.459   6.345 -0.35 +0.00    +0.004 A  
DOCKED: ATOM      4  C   UNL     1     -51.933 -34.518   5.618 -0.42 +0.00    +0.006 A  
DOCKED: ATOM      5  C   UNL     1     -50.940 -35.248   6.437 -0.23 +0.00    +0.169 C  
DOCKED: ATOM      6  C   UNL     1     -53.429 -32.633   5.800 -0.32 -0.00    -0.001 A  
DOCKED: ATOM      7  C   UNL     1     -52.355 -34.783   4.326 -0.38 +0.00    +0.008 A  
DOCKED: ATOM      8  C   UNL     1     -53.862 -32.885   4.497 -0.09 +0.00    +0.010 A  
DOCKED: ATOM      9  C   UNL     1     -53.328 -33.955   3.764 -0.46 +0.00    +0.068 A  
DOCKED: ATOM     10  N   UNL     1     -54.157 -34.399   1.350 -2.92 -0.00    -0.191 NA 
DOCKED: ATOM     11  C   UNL     1     -53.785 -34.200   2.433 -0.30 +0.00    +0.101 C  
DOCKED: ENDROOT
DOCKED: BRANCH   2  12
DOCKED: ATOM     12  C   UNL     1     -52.803 -33.742   8.827 -0.22 +0.00    +0.038 C  
DOCKED: BRANCH  12  13
DOCKED: ATOM     13  C   UNL     1     -53.813 -32.614   9.028 -0.11 +0.00    +0.038 C  
DOCKED: BRANCH  13  14
DOCKED: ATOM     14  C   UNL     1     -53.532 -31.848  10.319 -0.02 +0.00    +0.251 C  
DOCKED: BRANCH  14  15
DOCKED: ATOM     15  N   UNL     1     -53.876 -30.440  10.159 -0.02 +0.00    +0.141 N  
DOCKED: ATOM     16  C   UNL     1     -52.835 -29.586  10.733 -0.00 +0.00    +0.285 C  
DOCKED: ATOM     17  C   UNL     1     -54.075 -30.115   8.745 -0.03 +0.00    +0.285 C  
DOCKED: ENDBRANCH  14  15
DOCKED: ENDBRANCH  13  14
DOCKED: ENDBRANCH  12  13
DOCKED: ENDBRANCH   2  12
DOCKED: BRANCH   2  18
DOCKED: ATOM     18  C   UNL     1     -51.103 -32.138   7.973 -0.21 +0.00    +0.006 A  
DOCKED: ATOM     19  C   UNL     1     -51.122 -31.117   7.024 -0.24 +0.00    +0.001 A  
DOCKED: ATOM     20  C   UNL     1     -50.448 -29.921   7.275 -0.17 +0.00    +0.029 A  
DOCKED: ATOM     21  C   UNL     1     -49.757 -29.748   8.474 -0.07 +0.00    +0.140 A  
DOCKED: ATOM     22  C   UNL     1     -49.739 -30.770   9.422 -0.07 +0.00    +0.029 A  
DOCKED: ATOM     23  F   UNL     1     -49.112 -28.600   8.715 -0.00 -0.00    -0.204 F  
DOCKED: ATOM     24  C   UNL     1     -50.413 -31.967   9.172 -0.14 +0.00    +0.001 A  
DOCKED: ENDBRANCH   2  18
DOCKED: TORSDOF 5
DOCKED: TER
DOCKED: ENDMDL
________________________________________________________________________________


    FINAL DOCKED STATE:
    ________________________


Run:   158 / 512
Time taken for this run:   0.001s

DOCKED: MODEL        158
DOCKED: USER    Run = 158
DOCKED: USER
DOCKED: USER    Estimated Free Energy of Binding    =  -3.78 kcal/mol  [=(1)+(2)+(3)-(4)]
DOCKED: USER
DOCKED: USER    (1) Final Intermolecular Energy     =  -5.27 kcal/mol
DOCKED: USER        vdW + Hbond + desolv Energy     =  -5.27 kcal/mol
DOCKED: USER        Electrostatic Energy            =  +0.00 kcal/mol
DOCKED: USER        Moving Ligand-Fixed Receptor    =  -5.27 kcal/mol
DOCKED: USER        Moving Ligand-Moving Receptor   =  +0.00 kcal/mol
DOCKED: USER    (2) Final Total Internal Energy     =  -1.26 kcal/mol
DOCKED: USER    (3) Torsional Free Energy           =  +1.49 kcal/mol
DOCKED: USER    (4) Unbound System's Energy         =  -1.26 kcal/mol
DOCKED: USER
DOCKED: USER
DOCKED: REMARK  5 active torsions:
DOCKED: REMARK  status: ('A' for Active; 'I' for Inactive)
DOCKED: REMARK    1  A    between atoms: C_2  and  C_19 
DOCKED: REMARK    2  A    between atoms: C_2  and  C_11 
DOCKED: REMARK    3  A    between atoms: C_19  and  C_20 
DOCKED: REMARK    4  A    between atoms: C_20  and  C_21 
DOCKED: REMARK    5  A    between atoms: C_21  and  N_22 
DOCKED: USER                              x       y       z     vdW  Elec       q    Type
DOCKED: USER                           _______ _______ _______ _____ _____    ______ ____
DOCKED: ROOT
DOCKED: ATOM      1  O   UNL     1     -45.759 -20.358  -0.518 -0.09 -0.00    -0.346 OA 
DOCKED: ATOM      2  C   UNL     1     -45.461 -21.692  -1.042 -0.12 +0.00    +0.130 C  
DOCKED: ATOM      3  C   UNL     1     -46.592 -21.967  -1.990 -0.17 +0.00    +0.004 A  
DOCKED: ATOM      4  C   UNL     1     -47.405 -20.847  -2.084 -0.23 +0.00    +0.006 A  
DOCKED: ATOM      5  C   UNL     1     -46.870 -19.764  -1.229 -0.21 +0.00    +0.169 C  
DOCKED: ATOM      6  C   UNL     1     -46.872 -23.113  -2.719 -0.14 -0.00    -0.001 A  
DOCKED: ATOM      7  C   UNL     1     -48.522 -20.834  -2.902 -0.09 +0.00    +0.008 A  
DOCKED: ATOM      8  C   UNL     1     -47.997 -23.118  -3.545 -0.24 +0.00    +0.010 A  
DOCKED: ATOM      9  C   UNL     1     -48.818 -21.983  -3.636 -0.34 +0.00    +0.068 A  
DOCKED: ATOM     10  N   UNL     1     -50.896 -22.024  -5.183 -2.54 -0.00    -0.191 NA 
DOCKED: ATOM     11  C   UNL     1     -49.964 -22.006  -4.489 -0.45 +0.00    +0.101 C  
DOCKED: ENDROOT
DOCKED: BRANCH   2  12
DOCKED: ATOM     12  C   UNL     1     -44.104 -21.646  -1.734 -0.05 +0.00    +0.038 C  
DOCKED: BRANCH  12  13
DOCKED: ATOM     13  C   UNL     1     -43.815 -22.947  -2.481 -0.02 +0.00    +0.038 C  
DOCKED: BRANCH  13  14
DOCKED: ATOM     14  C   UNL     1     -43.200 -23.990  -1.550 -0.00 +0.00    +0.251 C  
DOCKED: BRANCH  14  15
DOCKED: ATOM     15  N   UNL     1     -44.068 -25.158  -1.453 -0.01 +0.00    +0.141 N  
DOCKED: ATOM     16  C   UNL     1     -44.289 -25.747  -2.775 +0.00 +0.00    +0.285 C  
DOCKED: ATOM     17  C   UNL     1     -43.496 -26.151  -0.543 +0.00 +0.00    +0.285 C  
DOCKED: ENDBRANCH  14  15
DOCKED: ENDBRANCH  13  14
DOCKED: ENDBRANCH  12  13
DOCKED: ENDBRANCH   2  12
DOCKED: BRANCH   2  18
DOCKED: ATOM     18  C   UNL     1     -45.439 -22.623   0.124 -0.12 +0.00    +0.006 A  
DOCKED: ATOM     19  C   UNL     1     -46.349 -23.677   0.190 -0.14 +0.00    +0.001 A  
DOCKED: ATOM     20  C   UNL     1     -46.328 -24.548   1.281 -0.10 +0.00    +0.029 A  
DOCKED: ATOM     21  C   UNL     1     -45.398 -24.363   2.302 -0.06 +0.00    +0.140 A  
DOCKED: ATOM     22  C   UNL     1     -44.487 -23.309   2.235 -0.07 +0.00    +0.029 A  
DOCKED: ATOM     23  F   UNL     1     -45.377 -25.200   3.348 -0.00 -0.00    -0.204 F  
DOCKED: ATOM     24  C   UNL     1     -44.508 -22.437   1.145 -0.09 +0.00    +0.001 A  
DOCKED: ENDBRANCH   2  18
DOCKED: TORSDOF 5
DOCKED: TER
DOCKED: ENDMDL
________________________________________________________________________________


    FINAL DOCKED STATE:
    ________________________


Run:   159 / 512
Time taken for this run:   0.001s

DOCKED: MODEL        159
DOCKED: USER    Run = 159
DOCKED: USER
DOCKED: USER    Estimated Free Energy of Binding    =  -4.13 kcal/mol  [=(1)+(2)+(3)-(4)]
DOCKED: USER
DOCKED: USER    (1) Final Intermolecular Energy     =  -5.62 kcal/mol
DOCKED: USER        vdW + Hbond + desolv Energy     =  -5.62 kcal/mol
DOCKED: USER        Electrostatic Energy            =  +0.00 kcal/mol
DOCKED: USER        Moving Ligand-Fixed Receptor    =  -5.62 kcal/mol
DOCKED: USER        Moving Ligand-Moving Receptor   =  +0.00 kcal/mol
DOCKED: USER    (2) Final Total Internal Energy     =  -1.24 kcal/mol
DOCKED: USER    (3) Torsional Free Energy           =  +1.49 kcal/mol
DOCKED: USER    (4) Unbound System's Energy         =  -1.24 kcal/mol
DOCKED: USER
DOCKED: USER
DOCKED: REMARK  5 active torsions:
DOCKED: REMARK  status: ('A' for Active; 'I' for Inactive)
DOCKED: REMARK    1  A    between atoms: C_2  and  C_19 
DOCKED: REMARK    2  A    between atoms: C_2  and  C_11 
DOCKED: REMARK    3  A    between atoms: C_19  and  C_20 
DOCKED: REMARK    4  A    between atoms: C_20  and  C_21 
DOCKED: REMARK    5  A    between atoms: C_21  and  N_22 
DOCKED: USER                              x       y       z     vdW  Elec       q    Type
DOCKED: USER                           _______ _______ _______ _____ _____    ______ ____
DOCKED: ROOT
DOCKED: ATOM      1  O   UNL     1     -44.168 -33.558  -1.889 -0.02 -0.00    -0.346 OA 
DOCKED: ATOM      2  C   UNL     1     -44.111 -32.422  -0.969 -0.10 +0.00    +0.130 C  
DOCKED: ATOM      3  C   UNL     1     -44.589 -32.992   0.336 -0.13 +0.00    +0.004 A  
DOCKED: ATOM      4  C   UNL     1     -44.795 -34.358   0.201 -0.18 +0.00    +0.006 A  
DOCKED: ATOM      5  C   UNL     1     -44.461 -34.783  -1.177 -0.08 +0.00    +0.169 C  
DOCKED: ATOM      6  C   UNL     1     -44.812 -32.355   1.547 -0.13 -0.00    -0.001 A  
DOCKED: ATOM      7  C   UNL     1     -45.233 -35.129   1.264 -0.30 +0.00    +0.008 A  
DOCKED: ATOM      8  C   UNL     1     -45.258 -33.118   2.628 -0.24 +0.00    +0.010 A  
DOCKED: ATOM      9  C   UNL     1     -45.467 -34.498   2.487 -0.32 +0.00    +0.068 A  
DOCKED: ATOM     10  N   UNL     1     -46.290 -35.885   4.514 -2.68 -0.00    -0.191 NA 
DOCKED: ATOM     11  C   UNL     1     -45.922 -35.263   3.605 -0.36 +0.00    +0.101 C  
DOCKED: ENDROOT
DOCKED: BRANCH   2  12
DOCKED: ATOM     12  C   UNL     1     -42.672 -31.923  -0.907 -0.03 +0.00    +0.038 C  
DOCKED: BRANCH  12  13
DOCKED: ATOM     13  C   UNL     1     -42.586 -30.553  -0.237 -0.01 +0.00    +0.038 C  
DOCKED: BRANCH  13  14
DOCKED: ATOM     14  C   UNL     1     -41.880 -29.544  -1.140 -0.00 +0.00    +0.251 C  
DOCKED: BRANCH  14  15
DOCKED: ATOM     15  N   UNL     1     -42.500 -28.230  -1.015 -0.00 +0.00    +0.141 N  
DOCKED: ATOM     16  C   UNL     1     -43.428 -27.990  -2.122 +0.00 +0.00    +0.285 C  
DOCKED: ATOM     17  C   UNL     1     -43.197 -28.109   0.267 -0.00 +0.00    +0.285 C  
DOCKED: ENDBRANCH  14  15
DOCKED: ENDBRANCH  13  14
DOCKED: ENDBRANCH  12  13
DOCKED: ENDBRANCH   2  12
DOCKED: BRANCH   2  18
DOCKED: ATOM     18  C   UNL     1     -45.022 -31.373  -1.513 -0.09 +0.00    +0.006 A  
DOCKED: ATOM     19  C   UNL     1     -45.788 -30.597  -0.645 -0.13 +0.00    +0.001 A  
DOCKED: ATOM     20  C   UNL     1     -46.640 -29.616  -1.156 -0.17 +0.00    +0.029 A  
DOCKED: ATOM     21  C   UNL     1     -46.723 -29.413  -2.533 -0.18 +0.00    +0.140 A  
DOCKED: ATOM     22  C   UNL     1     -45.956 -30.190  -3.400 -0.21 +0.00    +0.029 A  
DOCKED: ATOM     23  F   UNL     1     -47.539 -28.471  -3.022 -0.12 -0.00    -0.204 F  
DOCKED: ATOM     24  C   UNL     1     -45.104 -31.171  -2.891 -0.15 +0.00    +0.001 A  
DOCKED: ENDBRANCH   2  18
DOCKED: TORSDOF 5
DOCKED: TER
DOCKED: ENDMDL
________________________________________________________________________________


    FINAL DOCKED STATE:
    ________________________


Run:   160 / 512
Time taken for this run:   0.001s

DOCKED: MODEL        160
DOCKED: USER    Run = 160
DOCKED: USER
DOCKED: USER    Estimated Free Energy of Binding    =  -3.90 kcal/mol  [=(1)+(2)+(3)-(4)]
DOCKED: USER
DOCKED: USER    (1) Final Intermolecular Energy     =  -5.40 kcal/mol
DOCKED: USER        vdW + Hbond + desolv Energy     =  -5.40 kcal/mol
DOCKED: USER        Electrostatic Energy            =  +0.00 kcal/mol
DOCKED: USER        Moving Ligand-Fixed Receptor    =  -5.40 kcal/mol
DOCKED: USER        Moving Ligand-Moving Receptor   =  +0.00 kcal/mol
DOCKED: USER    (2) Final Total Internal Energy     =  -1.13 kcal/mol
DOCKED: USER    (3) Torsional Free Energy           =  +1.49 kcal/mol
DOCKED: USER    (4) Unbound System's Energy         =  -1.13 kcal/mol
DOCKED: USER
DOCKED: USER
DOCKED: REMARK  5 active torsions:
DOCKED: REMARK  status: ('A' for Active; 'I' for Inactive)
DOCKED: REMARK    1  A    between atoms: C_2  and  C_19 
DOCKED: REMARK    2  A    between atoms: C_2  and  C_11 
DOCKED: REMARK    3  A    between atoms: C_19  and  C_20 
DOCKED: REMARK    4  A    between atoms: C_20  and  C_21 
DOCKED: REMARK    5  A    between atoms: C_21  and  N_22 
DOCKED: USER                              x       y       z     vdW  Elec       q    Type
DOCKED: USER                           _______ _______ _______ _____ _____    ______ ____
DOCKED: ROOT
DOCKED: ATOM      1  O   UNL     1     -53.550 -28.863   8.654 -0.01 -0.00    -0.346 OA 
DOCKED: ATOM      2  C   UNL     1     -54.897 -29.020   8.103 -0.11 +0.00    +0.130 C  
DOCKED: ATOM      3  C   UNL     1     -54.850 -30.353   7.413 -0.20 +0.00    +0.004 A  
DOCKED: ATOM      4  C   UNL     1     -53.621 -30.955   7.643 -0.16 +0.00    +0.006 A  
DOCKED: ATOM      5  C   UNL     1     -52.786 -30.082   8.499 -0.07 +0.00    +0.169 C  
DOCKED: ATOM      6  C   UNL     1     -55.822 -30.987   6.652 -0.18 -0.00    -0.001 A  
DOCKED: ATOM      7  C   UNL     1     -53.320 -32.202   7.121 -0.21 +0.00    +0.008 A  
DOCKED: ATOM      8  C   UNL     1     -55.532 -32.243   6.115 -0.23 +0.00    +0.010 A  
DOCKED: ATOM      9  C   UNL     1     -54.288 -32.847   6.349 -0.22 +0.00    +0.068 A  
DOCKED: ATOM     10  N   UNL     1     -53.784 -35.180   5.342 -2.56 -0.00    -0.191 NA 
DOCKED: ATOM     11  C   UNL     1     -54.010 -34.133   5.793 -0.32 +0.00    +0.101 C  
DOCKED: ENDROOT
DOCKED: BRANCH   2  12
DOCKED: ATOM     12  C   UNL     1     -55.896 -28.982   9.253 -0.06 +0.00    +0.038 C  
DOCKED: BRANCH  12  13
DOCKED: ATOM     13  C   UNL     1     -55.189 -28.995  10.606 -0.02 +0.00    +0.038 C  
DOCKED: BRANCH  13  14
DOCKED: ATOM     14  C   UNL     1     -54.824 -30.418  11.022 -0.00 +0.00    +0.251 C  
DOCKED: BRANCH  14  15
DOCKED: ATOM     15  N   UNL     1     -55.928 -31.033  11.749 -0.01 +0.00    +0.141 N  
DOCKED: ATOM     16  C   UNL     1     -55.513 -32.308  12.336 +0.00 +0.00    +0.285 C  
DOCKED: ATOM     17  C   UNL     1     -56.426 -30.132  12.790 +0.00 +0.00    +0.285 C  
DOCKED: ENDBRANCH  14  15
DOCKED: ENDBRANCH  13  14
DOCKED: ENDBRANCH  12  13
DOCKED: ENDBRANCH   2  12
DOCKED: BRANCH   2  18
DOCKED: ATOM     18  C   UNL     1     -55.117 -27.885   7.160 -0.19 +0.00    +0.006 A  
DOCKED: ATOM     19  C   UNL     1     -54.027 -27.180   6.651 -0.19 +0.00    +0.001 A  
DOCKED: ATOM     20  C   UNL     1     -54.235 -26.118   5.770 -0.17 +0.00    +0.029 A  
DOCKED: ATOM     21  C   UNL     1     -55.531 -25.764   5.398 -0.09 +0.00    +0.140 A  
DOCKED: ATOM     22  C   UNL     1     -56.621 -26.470   5.906 -0.18 +0.00    +0.029 A  
DOCKED: ATOM     23  F   UNL     1     -55.730 -24.746   4.550 -0.03 -0.00    -0.204 F  
DOCKED: ATOM     24  C   UNL     1     -56.414 -27.532   6.789 -0.21 +0.00    +0.001 A  
DOCKED: ENDBRANCH   2  18
DOCKED: TORSDOF 5
DOCKED: TER
DOCKED: ENDMDL
________________________________________________________________________________


    FINAL DOCKED STATE:
    ________________________


Run:   161 / 512
Time taken for this run:   0.001s

DOCKED: MODEL        161
DOCKED: USER    Run = 161
DOCKED: USER
DOCKED: USER    Estimated Free Energy of Binding    =  -4.43 kcal/mol  [=(1)+(2)+(3)-(4)]
DOCKED: USER
DOCKED: USER    (1) Final Intermolecular Energy     =  -5.93 kcal/mol
DOCKED: USER        vdW + Hbond + desolv Energy     =  -5.93 kcal/mol
DOCKED: USER        Electrostatic Energy            =  +0.00 kcal/mol
DOCKED: USER        Moving Ligand-Fixed Receptor    =  -5.93 kcal/mol
DOCKED: USER        Moving Ligand-Moving Receptor   =  +0.00 kcal/mol
DOCKED: USER    (2) Final Total Internal Energy     =  -1.30 kcal/mol
DOCKED: USER    (3) Torsional Free Energy           =  +1.49 kcal/mol
DOCKED: USER    (4) Unbound System's Energy         =  -1.30 kcal/mol
DOCKED: USER
DOCKED: USER
DOCKED: REMARK  5 active torsions:
DOCKED: REMARK  status: ('A' for Active; 'I' for Inactive)
DOCKED: REMARK    1  A    between atoms: C_2  and  C_19 
DOCKED: REMARK    2  A    between atoms: C_2  and  C_11 
DOCKED: REMARK    3  A    between atoms: C_19  and  C_20 
DOCKED: REMARK    4  A    between atoms: C_20  and  C_21 
DOCKED: REMARK    5  A    between atoms: C_21  and  N_22 
DOCKED: USER                              x       y       z     vdW  Elec       q    Type
DOCKED: USER                           _______ _______ _______ _____ _____    ______ ____
DOCKED: ROOT
DOCKED: ATOM      1  O   UNL     1     -51.356 -29.175   7.314 -0.06 -0.00    -0.346 OA 
DOCKED: ATOM      2  C   UNL     1     -52.746 -29.324   7.745 -0.13 +0.00    +0.130 C  
DOCKED: ATOM      3  C   UNL     1     -53.151 -30.662   7.196 -0.21 +0.00    +0.004 A  
DOCKED: ATOM      4  C   UNL     1     -52.057 -31.273   6.600 -0.28 +0.00    +0.006 A  
DOCKED: ATOM      5  C   UNL     1     -50.867 -30.401   6.722 -0.18 +0.00    +0.169 C  
DOCKED: ATOM      6  C   UNL     1     -54.386 -31.292   7.231 -0.20 -0.00    -0.001 A  
DOCKED: ATOM      7  C   UNL     1     -52.159 -32.525   6.018 -0.35 +0.00    +0.008 A  
DOCKED: ATOM      8  C   UNL     1     -54.507 -32.553   6.645 -0.23 +0.00    +0.010 A  
DOCKED: ATOM      9  C   UNL     1     -53.398 -33.166   6.042 -0.27 +0.00    +0.068 A  
DOCKED: ATOM     10  N   UNL     1     -53.654 -35.510   4.967 -2.36 -0.00    -0.191 NA 
DOCKED: ATOM     11  C   UNL     1     -53.539 -34.459   5.448 -0.38 +0.00    +0.101 C  
DOCKED: ENDROOT
DOCKED: BRANCH   2  12
DOCKED: ATOM     12  C   UNL     1     -52.789 -29.271   9.267 -0.04 +0.00    +0.038 C  
DOCKED: BRANCH  12  13
DOCKED: ATOM     13  C   UNL     1     -51.575 -29.963   9.883 -0.03 +0.00    +0.038 C  
DOCKED: BRANCH  13  14
DOCKED: ATOM     14  C   UNL     1     -51.997 -30.944  10.976 -0.01 +0.00    +0.251 C  
DOCKED: BRANCH  14  15
DOCKED: ATOM     15  N   UNL     1     -52.082 -32.296  10.439 -0.05 +0.00    +0.141 N  
DOCKED: ATOM     16  C   UNL     1     -50.811 -32.692   9.831 -0.07 +0.00    +0.285 C  
DOCKED: ATOM     17  C   UNL     1     -52.460 -33.245  11.488 -0.05 +0.00    +0.285 C  
DOCKED: ENDBRANCH  14  15
DOCKED: ENDBRANCH  13  14
DOCKED: ENDBRANCH  12  13
DOCKED: ENDBRANCH   2  12
DOCKED: BRANCH   2  18
DOCKED: ATOM     18  C   UNL     1     -53.512 -28.193   7.145 -0.18 +0.00    +0.006 A  
DOCKED: ATOM     19  C   UNL     1     -54.904 -28.170   7.233 -0.20 +0.00    +0.001 A  
DOCKED: ATOM     20  C   UNL     1     -55.619 -27.111   6.670 -0.18 +0.00    +0.029 A  
DOCKED: ATOM     21  C   UNL     1     -54.942 -26.079   6.023 -0.12 +0.00    +0.140 A  
DOCKED: ATOM     22  C   UNL     1     -53.551 -26.103   5.936 -0.16 +0.00    +0.029 A  
DOCKED: ATOM     23  F   UNL     1     -55.629 -25.062   5.485 -0.02 -0.00    -0.204 F  
DOCKED: ATOM     24  C   UNL     1     -52.834 -27.161   6.497 -0.17 +0.00    +0.001 A  
DOCKED: ENDBRANCH   2  18
DOCKED: TORSDOF 5
DOCKED: TER
DOCKED: ENDMDL
________________________________________________________________________________


    FINAL DOCKED STATE:
    ________________________


Run:   162 / 512
Time taken for this run:   0.001s

DOCKED: MODEL        162
DOCKED: USER    Run = 162
DOCKED: USER
DOCKED: USER    Estimated Free Energy of Binding    =  -3.93 kcal/mol  [=(1)+(2)+(3)-(4)]
DOCKED: USER
DOCKED: USER    (1) Final Intermolecular Energy     =  -5.42 kcal/mol
DOCKED: USER        vdW + Hbond + desolv Energy     =  -5.42 kcal/mol
DOCKED: USER        Electrostatic Energy            =  +0.00 kcal/mol
DOCKED: USER        Moving Ligand-Fixed Receptor    =  -5.42 kcal/mol
DOCKED: USER        Moving Ligand-Moving Receptor   =  +0.00 kcal/mol
DOCKED: USER    (2) Final Total Internal Energy     =  -1.08 kcal/mol
DOCKED: USER    (3) Torsional Free Energy           =  +1.49 kcal/mol
DOCKED: USER    (4) Unbound System's Energy         =  -1.08 kcal/mol
DOCKED: USER
DOCKED: USER
DOCKED: REMARK  5 active torsions:
DOCKED: REMARK  status: ('A' for Active; 'I' for Inactive)
DOCKED: REMARK    1  A    between atoms: C_2  and  C_19 
DOCKED: REMARK    2  A    between atoms: C_2  and  C_11 
DOCKED: REMARK    3  A    between atoms: C_19  and  C_20 
DOCKED: REMARK    4  A    between atoms: C_20  and  C_21 
DOCKED: REMARK    5  A    between atoms: C_21  and  N_22 
DOCKED: USER                              x       y       z     vdW  Elec       q    Type
DOCKED: USER                           _______ _______ _______ _____ _____    ______ ____
DOCKED: ROOT
DOCKED: ATOM      1  O   UNL     1     -45.813 -29.156   1.639 +0.00 -0.00    -0.346 OA 
DOCKED: ATOM      2  C   UNL     1     -45.521 -30.024   0.498 -0.09 +0.00    +0.130 C  
DOCKED: ATOM      3  C   UNL     1     -45.621 -31.410   1.066 -0.16 +0.00    +0.004 A  
DOCKED: ATOM      4  C   UNL     1     -46.042 -31.344   2.387 -0.21 +0.00    +0.006 A  
DOCKED: ATOM      5  C   UNL     1     -46.259 -29.933   2.775 -0.12 +0.00    +0.169 C  
DOCKED: ATOM      6  C   UNL     1     -45.371 -32.633   0.460 -0.13 -0.00    -0.001 A  
DOCKED: ATOM      7  C   UNL     1     -46.223 -32.489   3.144 -0.18 +0.00    +0.008 A  
DOCKED: ATOM      8  C   UNL     1     -45.544 -33.796   1.211 -0.25 +0.00    +0.010 A  
DOCKED: ATOM      9  C   UNL     1     -45.969 -33.725   2.546 -0.30 +0.00    +0.068 A  
DOCKED: ATOM     10  N   UNL     1     -46.285 -35.904   3.911 -2.57 -0.00    -0.191 NA 
DOCKED: ATOM     11  C   UNL     1     -46.142 -34.926   3.299 -0.34 +0.00    +0.101 C  
DOCKED: ENDROOT
DOCKED: BRANCH   2  12
DOCKED: ATOM     12  C   UNL     1     -46.552 -29.754  -0.591 -0.19 +0.00    +0.038 C  
DOCKED: BRANCH  12  13
DOCKED: ATOM     13  C   UNL     1     -47.611 -28.758  -0.121 -0.21 +0.00    +0.038 C  
DOCKED: BRANCH  13  14
DOCKED: ATOM     14  C   UNL     1     -47.786 -27.625  -1.130 -0.15 +0.00    +0.251 C  
DOCKED: BRANCH  14  15
DOCKED: ATOM     15  N   UNL     1     -48.789 -26.677  -0.658 -0.19 +0.00    +0.141 N  
DOCKED: ATOM     16  C   UNL     1     -49.555 -27.246   0.451 -0.15 +0.00    +0.285 C  
DOCKED: ATOM     17  C   UNL     1     -48.159 -25.421  -0.248 -0.11 +0.00    +0.285 C  
DOCKED: ENDBRANCH  14  15
DOCKED: ENDBRANCH  13  14
DOCKED: ENDBRANCH  12  13
DOCKED: ENDBRANCH   2  12
DOCKED: BRANCH   2  18
DOCKED: ATOM     18  C   UNL     1     -44.144 -29.685   0.033 -0.03 +0.00    +0.006 A  
DOCKED: ATOM     19  C   UNL     1     -43.166 -29.320   0.957 -0.01 +0.00    +0.001 A  
DOCKED: ATOM     20  C   UNL     1     -41.880 -29.003   0.521 -0.00 +0.00    +0.029 A  
DOCKED: ATOM     21  C   UNL     1     -41.572 -29.051  -0.838 -0.00 +0.00    +0.140 A  
DOCKED: ATOM     22  C   UNL     1     -42.551 -29.417  -1.762 -0.00 +0.00    +0.029 A  
DOCKED: ATOM     23  F   UNL     1     -40.337 -28.748  -1.256 +0.00 -0.00    -0.204 F  
DOCKED: ATOM     24  C   UNL     1     -43.838 -29.734  -1.327 -0.03 +0.00    +0.001 A  
DOCKED: ENDBRANCH   2  18
DOCKED: TORSDOF 5
DOCKED: TER
DOCKED: ENDMDL
________________________________________________________________________________


    FINAL DOCKED STATE:
    ________________________


Run:   163 / 512
Time taken for this run:   0.001s

DOCKED: MODEL        163
DOCKED: USER    Run = 163
DOCKED: USER
DOCKED: USER    Estimated Free Energy of Binding    =  -4.62 kcal/mol  [=(1)+(2)+(3)-(4)]
DOCKED: USER
DOCKED: USER    (1) Final Intermolecular Energy     =  -6.11 kcal/mol
DOCKED: USER        vdW + Hbond + desolv Energy     =  -6.11 kcal/mol
DOCKED: USER        Electrostatic Energy            =  +0.00 kcal/mol
DOCKED: USER        Moving Ligand-Fixed Receptor    =  -6.11 kcal/mol
DOCKED: USER        Moving Ligand-Moving Receptor   =  +0.00 kcal/mol
DOCKED: USER    (2) Final Total Internal Energy     =  -1.35 kcal/mol
DOCKED: USER    (3) Torsional Free Energy           =  +1.49 kcal/mol
DOCKED: USER    (4) Unbound System's Energy         =  -1.35 kcal/mol
DOCKED: USER
DOCKED: USER
DOCKED: REMARK  5 active torsions:
DOCKED: REMARK  status: ('A' for Active; 'I' for Inactive)
DOCKED: REMARK    1  A    between atoms: C_2  and  C_19 
DOCKED: REMARK    2  A    between atoms: C_2  and  C_11 
DOCKED: REMARK    3  A    between atoms: C_19  and  C_20 
DOCKED: REMARK    4  A    between atoms: C_20  and  C_21 
DOCKED: REMARK    5  A    between atoms: C_21  and  N_22 
DOCKED: USER                              x       y       z     vdW  Elec       q    Type
DOCKED: USER                           _______ _______ _______ _____ _____    ______ ____
DOCKED: ROOT
DOCKED: ATOM      1  O   UNL     1     -46.980 -25.130  -0.313 -0.02 -0.00    -0.346 OA 
DOCKED: ATOM      2  C   UNL     1     -48.393 -25.263   0.047 -0.17 +0.00    +0.130 C  
DOCKED: ATOM      3  C   UNL     1     -49.111 -24.499  -1.027 -0.28 +0.00    +0.004 A  
DOCKED: ATOM      4  C   UNL     1     -48.199 -24.061  -1.978 -0.23 +0.00    +0.006 A  
DOCKED: ATOM      5  C   UNL     1     -46.837 -24.510  -1.612 -0.09 +0.00    +0.169 C  
DOCKED: ATOM      6  C   UNL     1     -50.464 -24.222  -1.158 -0.11 -0.00    -0.001 A  
DOCKED: ATOM      7  C   UNL     1     -48.605 -23.333  -3.083 -0.29 +0.00    +0.008 A  
DOCKED: ATOM      8  C   UNL     1     -50.888 -23.485  -2.265 -0.35 +0.00    +0.010 A  
DOCKED: ATOM      9  C   UNL     1     -49.963 -23.043  -3.223 -0.29 +0.00    +0.068 A  
DOCKED: ATOM     10  N   UNL     1     -50.785 -21.682  -5.268 -2.44 -0.00    -0.191 NA 
DOCKED: ATOM     11  C   UNL     1     -50.416 -22.292  -4.350 -0.35 +0.00    +0.101 C  
DOCKED: ENDROOT
DOCKED: BRANCH   2  12
DOCKED: ATOM     12  C   UNL     1     -48.750 -26.745   0.060 -0.21 +0.00    +0.038 C  
DOCKED: BRANCH  12  13
DOCKED: ATOM     13  C   UNL     1     -47.527 -27.610   0.360 -0.14 +0.00    +0.038 C  
DOCKED: BRANCH  13  14
DOCKED: ATOM     14  C   UNL     1     -47.065 -28.360  -0.887 -0.14 +0.00    +0.251 C  
DOCKED: BRANCH  14  15
DOCKED: ATOM     15  N   UNL     1     -45.640 -28.148  -1.108 -0.04 +0.00    +0.141 N  
DOCKED: ATOM     16  C   UNL     1     -45.417 -27.360  -2.321 -0.02 +0.00    +0.285 C  
DOCKED: ATOM     17  C   UNL     1     -45.032 -27.485   0.047 -0.00 +0.00    +0.285 C  
DOCKED: ENDBRANCH  14  15
DOCKED: ENDBRANCH  13  14
DOCKED: ENDBRANCH  12  13
DOCKED: ENDBRANCH   2  12
DOCKED: BRANCH   2  18
DOCKED: ATOM     18  C   UNL     1     -48.557 -24.658   1.401 -0.19 +0.00    +0.006 A  
DOCKED: ATOM     19  C   UNL     1     -49.811 -24.643   2.010 -0.23 +0.00    +0.001 A  
DOCKED: ATOM     20  C   UNL     1     -49.963 -24.076   3.276 -0.19 +0.00    +0.029 A  
DOCKED: ATOM     21  C   UNL     1     -48.861 -23.526   3.931 -0.13 +0.00    +0.140 A  
DOCKED: ATOM     22  C   UNL     1     -47.607 -23.542   3.321 -0.03 +0.00    +0.029 A  
DOCKED: ATOM     23  F   UNL     1     -49.007 -22.984   5.147 -0.04 -0.00    -0.204 F  
DOCKED: ATOM     24  C   UNL     1     -47.454 -24.108   2.054 -0.13 +0.00    +0.001 A  
DOCKED: ENDBRANCH   2  18
DOCKED: TORSDOF 5
DOCKED: TER
DOCKED: ENDMDL
________________________________________________________________________________


    FINAL DOCKED STATE:
    ________________________


Run:   164 / 512
Time taken for this run:   0.001s

DOCKED: MODEL        164
DOCKED: USER    Run = 164
DOCKED: USER
DOCKED: USER    Estimated Free Energy of Binding    =  -3.69 kcal/mol  [=(1)+(2)+(3)-(4)]
DOCKED: USER
DOCKED: USER    (1) Final Intermolecular Energy     =  -5.18 kcal/mol
DOCKED: USER        vdW + Hbond + desolv Energy     =  -5.18 kcal/mol
DOCKED: USER        Electrostatic Energy            =  +0.00 kcal/mol
DOCKED: USER        Moving Ligand-Fixed Receptor    =  -5.18 kcal/mol
DOCKED: USER        Moving Ligand-Moving Receptor   =  +0.00 kcal/mol
DOCKED: USER    (2) Final Total Internal Energy     =  -1.37 kcal/mol
DOCKED: USER    (3) Torsional Free Energy           =  +1.49 kcal/mol
DOCKED: USER    (4) Unbound System's Energy         =  -1.37 kcal/mol
DOCKED: USER
DOCKED: USER
DOCKED: REMARK  5 active torsions:
DOCKED: REMARK  status: ('A' for Active; 'I' for Inactive)
DOCKED: REMARK    1  A    between atoms: C_2  and  C_19 
DOCKED: REMARK    2  A    between atoms: C_2  and  C_11 
DOCKED: REMARK    3  A    between atoms: C_19  and  C_20 
DOCKED: REMARK    4  A    between atoms: C_20  and  C_21 
DOCKED: REMARK    5  A    between atoms: C_21  and  N_22 
DOCKED: USER                              x       y       z     vdW  Elec       q    Type
DOCKED: USER                           _______ _______ _______ _____ _____    ______ ____
DOCKED: ROOT
DOCKED: ATOM      1  O   UNL     1     -50.182 -31.046   9.873 -0.02 -0.00    -0.346 OA 
DOCKED: ATOM      2  C   UNL     1     -50.177 -30.385   8.567 -0.10 +0.00    +0.130 C  
DOCKED: ATOM      3  C   UNL     1     -50.933 -31.333   7.682 -0.20 +0.00    +0.004 A  
DOCKED: ATOM      4  C   UNL     1     -51.423 -32.389   8.438 -0.18 +0.00    +0.006 A  
DOCKED: ATOM      5  C   UNL     1     -51.041 -32.209   9.857 -0.08 +0.00    +0.169 C  
DOCKED: ATOM      6  C   UNL     1     -51.178 -31.262   6.318 -0.09 -0.00    -0.001 A  
DOCKED: ATOM      7  C   UNL     1     -52.165 -33.405   7.862 -0.24 +0.00    +0.008 A  
DOCKED: ATOM      8  C   UNL     1     -51.921 -32.281   5.721 -0.30 +0.00    +0.010 A  
DOCKED: ATOM      9  C   UNL     1     -52.413 -33.347   6.489 -0.29 +0.00    +0.068 A  
DOCKED: ATOM     10  N   UNL     1     -53.794 -35.220   5.351 -2.55 -0.00    -0.191 NA 
DOCKED: ATOM     11  C   UNL     1     -53.174 -34.380   5.862 -0.35 +0.00    +0.101 C  
DOCKED: ENDROOT
DOCKED: BRANCH   2  12
DOCKED: ATOM     12  C   UNL     1     -50.862 -29.031   8.708 -0.06 +0.00    +0.038 C  
DOCKED: BRANCH  12  13
DOCKED: ATOM     13  C   UNL     1     -52.371 -29.147   8.507 -0.08 +0.00    +0.038 C  
DOCKED: BRANCH  13  14
DOCKED: ATOM     14  C   UNL     1     -53.108 -29.117   9.845 -0.01 +0.00    +0.251 C  
DOCKED: BRANCH  14  15
DOCKED: ATOM     15  N   UNL     1     -54.099 -30.186   9.902 -0.02 +0.00    +0.141 N  
DOCKED: ATOM     16  C   UNL     1     -55.311 -29.729  10.583 +0.00 +0.00    +0.285 C  
DOCKED: ATOM     17  C   UNL     1     -54.422 -30.662   8.556 -0.03 +0.00    +0.285 C  
DOCKED: ENDBRANCH  14  15
DOCKED: ENDBRANCH  13  14
DOCKED: ENDBRANCH  12  13
DOCKED: ENDBRANCH   2  12
DOCKED: BRANCH   2  18
DOCKED: ATOM     18  C   UNL     1     -48.749 -30.227   8.163 -0.12 +0.00    +0.006 A  
DOCKED: ATOM     19  C   UNL     1     -48.336 -29.071   7.501 -0.10 +0.00    +0.001 A  
DOCKED: ATOM     20  C   UNL     1     -47.001 -28.924   7.124 -0.07 +0.00    +0.029 A  
DOCKED: ATOM     21  C   UNL     1     -46.081 -29.932   7.410 -0.06 +0.00    +0.140 A  
DOCKED: ATOM     22  C   UNL     1     -46.494 -31.087   8.072 -0.11 +0.00    +0.029 A  
DOCKED: ATOM     23  F   UNL     1     -44.798 -29.790   7.050 -0.00 -0.00    -0.204 F  
DOCKED: ATOM     24  C   UNL     1     -47.830 -31.235   8.449 -0.14 +0.00    +0.001 A  
DOCKED: ENDBRANCH   2  18
DOCKED: TORSDOF 5
DOCKED: TER
DOCKED: ENDMDL
________________________________________________________________________________


    FINAL DOCKED STATE:
    ________________________


Run:   165 / 512
Time taken for this run:   0.001s

DOCKED: MODEL        165
DOCKED: USER    Run = 165
DOCKED: USER
DOCKED: USER    Estimated Free Energy of Binding    =  -4.75 kcal/mol  [=(1)+(2)+(3)-(4)]
DOCKED: USER
DOCKED: USER    (1) Final Intermolecular Energy     =  -6.24 kcal/mol
DOCKED: USER        vdW + Hbond + desolv Energy     =  -6.24 kcal/mol
DOCKED: USER        Electrostatic Energy            =  +0.00 kcal/mol
DOCKED: USER        Moving Ligand-Fixed Receptor    =  -6.24 kcal/mol
DOCKED: USER        Moving Ligand-Moving Receptor   =  +0.00 kcal/mol
DOCKED: USER    (2) Final Total Internal Energy     =  -1.21 kcal/mol
DOCKED: USER    (3) Torsional Free Energy           =  +1.49 kcal/mol
DOCKED: USER    (4) Unbound System's Energy         =  -1.21 kcal/mol
DOCKED: USER
DOCKED: USER
DOCKED: REMARK  5 active torsions:
DOCKED: REMARK  status: ('A' for Active; 'I' for Inactive)
DOCKED: REMARK    1  A    between atoms: C_2  and  C_19 
DOCKED: REMARK    2  A    between atoms: C_2  and  C_11 
DOCKED: REMARK    3  A    between atoms: C_19  and  C_20 
DOCKED: REMARK    4  A    between atoms: C_20  and  C_21 
DOCKED: REMARK    5  A    between atoms: C_21  and  N_22 
DOCKED: USER                              x       y       z     vdW  Elec       q    Type
DOCKED: USER                           _______ _______ _______ _____ _____    ______ ____
DOCKED: ROOT
DOCKED: ATOM      1  O   UNL     1     -49.296 -30.809   8.652 -0.06 -0.00    -0.346 OA 
DOCKED: ATOM      2  C   UNL     1     -50.126 -30.062   7.707 -0.14 +0.00    +0.130 C  
DOCKED: ATOM      3  C   UNL     1     -50.961 -31.121   7.047 -0.22 +0.00    +0.004 A  
DOCKED: ATOM      4  C   UNL     1     -50.710 -32.350   7.640 -0.25 +0.00    +0.006 A  
DOCKED: ATOM      5  C   UNL     1     -49.717 -32.191   8.725 -0.16 +0.00    +0.169 C  
DOCKED: ATOM      6  C   UNL     1     -51.878 -31.004   6.012 -0.23 -0.00    -0.001 A  
DOCKED: ATOM      7  C   UNL     1     -51.359 -33.499   7.220 -0.34 +0.00    +0.008 A  
DOCKED: ATOM      8  C   UNL     1     -52.537 -32.154   5.574 -0.34 +0.00    +0.010 A  
DOCKED: ATOM      9  C   UNL     1     -52.279 -33.395   6.176 -0.32 +0.00    +0.068 A  
DOCKED: ATOM     10  N   UNL     1     -53.523 -35.509   5.342 -2.60 -0.00    -0.191 NA 
DOCKED: ATOM     11  C   UNL     1     -52.964 -34.561   5.715 -0.29 +0.00    +0.101 C  
DOCKED: ENDROOT
DOCKED: BRANCH   2  12
DOCKED: ATOM     12  C   UNL     1     -50.958 -29.052   8.489 -0.07 +0.00    +0.038 C  
DOCKED: BRANCH  12  13
DOCKED: ATOM     13  C   UNL     1     -52.388 -29.549   8.694 -0.07 +0.00    +0.038 C  
DOCKED: BRANCH  13  14
DOCKED: ATOM     14  C   UNL     1     -53.392 -28.641   7.986 -0.07 +0.00    +0.251 C  
DOCKED: BRANCH  14  15
DOCKED: ATOM     15  N   UNL     1     -54.244 -29.422   7.097 -0.19 +0.00    +0.141 N  
DOCKED: ATOM     16  C   UNL     1     -54.781 -30.592   7.795 -0.08 +0.00    +0.285 C  
DOCKED: ATOM     17  C   UNL     1     -55.335 -28.599   6.573 -0.14 +0.00    +0.285 C  
DOCKED: ENDBRANCH  14  15
DOCKED: ENDBRANCH  13  14
DOCKED: ENDBRANCH  12  13
DOCKED: ENDBRANCH   2  12
DOCKED: BRANCH   2  18
DOCKED: ATOM     18  C   UNL     1     -49.200 -29.377   6.759 -0.14 +0.00    +0.006 A  
DOCKED: ATOM     19  C   UNL     1     -47.820 -29.497   6.924 -0.11 +0.00    +0.001 A  
DOCKED: ATOM     20  C   UNL     1     -46.955 -28.856   6.036 -0.09 +0.00    +0.029 A  
DOCKED: ATOM     21  C   UNL     1     -47.470 -28.097   4.986 -0.08 +0.00    +0.140 A  
DOCKED: ATOM     22  C   UNL     1     -48.849 -27.978   4.822 -0.13 +0.00    +0.029 A  
DOCKED: ATOM     23  F   UNL     1     -46.639 -27.483   4.134 -0.00 -0.00    -0.204 F  
DOCKED: ATOM     24  C   UNL     1     -49.716 -28.618   5.709 -0.15 +0.00    +0.001 A  
DOCKED: ENDBRANCH   2  18
DOCKED: TORSDOF 5
DOCKED: TER
DOCKED: ENDMDL
________________________________________________________________________________


    FINAL DOCKED STATE:
    ________________________


Run:   166 / 512
Time taken for this run:   0.001s

DOCKED: MODEL        166
DOCKED: USER    Run = 166
DOCKED: USER
DOCKED: USER    Estimated Free Energy of Binding    =  -5.41 kcal/mol  [=(1)+(2)+(3)-(4)]
DOCKED: USER
DOCKED: USER    (1) Final Intermolecular Energy     =  -6.90 kcal/mol
DOCKED: USER        vdW + Hbond + desolv Energy     =  -6.90 kcal/mol
DOCKED: USER        Electrostatic Energy            =  +0.00 kcal/mol
DOCKED: USER        Moving Ligand-Fixed Receptor    =  -6.90 kcal/mol
DOCKED: USER        Moving Ligand-Moving Receptor   =  +0.00 kcal/mol
DOCKED: USER    (2) Final Total Internal Energy     =  -1.12 kcal/mol
DOCKED: USER    (3) Torsional Free Energy           =  +1.49 kcal/mol
DOCKED: USER    (4) Unbound System's Energy         =  -1.12 kcal/mol
DOCKED: USER
DOCKED: USER
DOCKED: REMARK  5 active torsions:
DOCKED: REMARK  status: ('A' for Active; 'I' for Inactive)
DOCKED: REMARK    1  A    between atoms: C_2  and  C_19 
DOCKED: REMARK    2  A    between atoms: C_2  and  C_11 
DOCKED: REMARK    3  A    between atoms: C_19  and  C_20 
DOCKED: REMARK    4  A    between atoms: C_20  and  C_21 
DOCKED: REMARK    5  A    between atoms: C_21  and  N_22 
DOCKED: USER                              x       y       z     vdW  Elec       q    Type
DOCKED: USER                           _______ _______ _______ _____ _____    ______ ____
DOCKED: ROOT
DOCKED: ATOM      1  O   UNL     1     -51.386 -33.161   8.108 -0.08 -0.00    -0.346 OA 
DOCKED: ATOM      2  C   UNL     1     -52.841 -33.286   8.208 -0.16 +0.00    +0.130 C  
DOCKED: ATOM      3  C   UNL     1     -53.287 -33.439   6.782 -0.27 +0.00    +0.004 A  
DOCKED: ATOM      4  C   UNL     1     -52.178 -33.507   5.951 -0.39 +0.00    +0.006 A  
DOCKED: ATOM      5  C   UNL     1     -50.940 -33.418   6.756 -0.21 +0.00    +0.169 C  
DOCKED: ATOM      6  C   UNL     1     -54.571 -33.524   6.264 -0.29 -0.00    -0.001 A  
DOCKED: ATOM      7  C   UNL     1     -52.313 -33.656   4.581 -0.30 +0.00    +0.008 A  
DOCKED: ATOM      8  C   UNL     1     -54.724 -33.669   4.885 -0.35 +0.00    +0.010 A  
DOCKED: ATOM      9  C   UNL     1     -53.600 -33.735   4.047 -0.41 +0.00    +0.068 A  
DOCKED: ATOM     10  N   UNL     1     -53.919 -34.011   1.491 -3.04 -0.00    -0.191 NA 
DOCKED: ATOM     11  C   UNL     1     -53.776 -33.887   2.637 -0.28 +0.00    +0.101 C  
DOCKED: ENDROOT
DOCKED: BRANCH   2  12
DOCKED: ATOM     12  C   UNL     1     -53.163 -34.505   9.064 -0.26 +0.00    +0.038 C  
DOCKED: BRANCH  12  13
DOCKED: ATOM     13  C   UNL     1     -53.848 -34.104  10.369 -0.17 +0.00    +0.038 C  
DOCKED: BRANCH  13  14
DOCKED: ATOM     14  C   UNL     1     -53.161 -34.749  11.571 -0.07 +0.00    +0.251 C  
DOCKED: BRANCH  14  15
DOCKED: ATOM     15  N   UNL     1     -51.835 -34.176  11.766 -0.13 +0.00    +0.141 N  
DOCKED: ATOM     16  C   UNL     1     -51.842 -33.226  12.879 -0.02 +0.00    +0.285 C  
DOCKED: ATOM     17  C   UNL     1     -50.847 -35.230  12.004 -0.15 +0.00    +0.285 C  
DOCKED: ENDBRANCH  14  15
DOCKED: ENDBRANCH  13  14
DOCKED: ENDBRANCH  12  13
DOCKED: ENDBRANCH   2  12
DOCKED: BRANCH   2  18
DOCKED: ATOM     18  C   UNL     1     -53.344 -32.034   8.843 -0.09 +0.00    +0.006 A  
DOCKED: ATOM     19  C   UNL     1     -54.662 -31.629   8.637 -0.09 +0.00    +0.001 A  
DOCKED: ATOM     20  C   UNL     1     -55.131 -30.457   9.231 -0.05 +0.00    +0.029 A  
DOCKED: ATOM     21  C   UNL     1     -54.283 -29.693  10.032 -0.01 +0.00    +0.140 A  
DOCKED: ATOM     22  C   UNL     1     -52.965 -30.099  10.238 -0.02 +0.00    +0.029 A  
DOCKED: ATOM     23  F   UNL     1     -54.735 -28.569  10.604 +0.00 -0.00    -0.204 F  
DOCKED: ATOM     24  C   UNL     1     -52.495 -31.271   9.643 -0.05 +0.00    +0.001 A  
DOCKED: ENDBRANCH   2  18
DOCKED: TORSDOF 5
DOCKED: TER
DOCKED: ENDMDL
________________________________________________________________________________


    FINAL DOCKED STATE:
    ________________________


Run:   167 / 512
Time taken for this run:   0.001s

DOCKED: MODEL        167
DOCKED: USER    Run = 167
DOCKED: USER
DOCKED: USER    Estimated Free Energy of Binding    =  -5.64 kcal/mol  [=(1)+(2)+(3)-(4)]
DOCKED: USER
DOCKED: USER    (1) Final Intermolecular Energy     =  -7.13 kcal/mol
DOCKED: USER        vdW + Hbond + desolv Energy     =  -7.13 kcal/mol
DOCKED: USER        Electrostatic Energy            =  +0.00 kcal/mol
DOCKED: USER        Moving Ligand-Fixed Receptor    =  -7.13 kcal/mol
DOCKED: USER        Moving Ligand-Moving Receptor   =  +0.00 kcal/mol
DOCKED: USER    (2) Final Total Internal Energy     =  -1.12 kcal/mol
DOCKED: USER    (3) Torsional Free Energy           =  +1.49 kcal/mol
DOCKED: USER    (4) Unbound System's Energy         =  -1.12 kcal/mol
DOCKED: USER
DOCKED: USER
DOCKED: REMARK  5 active torsions:
DOCKED: REMARK  status: ('A' for Active; 'I' for Inactive)
DOCKED: REMARK    1  A    between atoms: C_2  and  C_19 
DOCKED: REMARK    2  A    between atoms: C_2  and  C_11 
DOCKED: REMARK    3  A    between atoms: C_19  and  C_20 
DOCKED: REMARK    4  A    between atoms: C_20  and  C_21 
DOCKED: REMARK    5  A    between atoms: C_21  and  N_22 
DOCKED: USER                              x       y       z     vdW  Elec       q    Type
DOCKED: USER                           _______ _______ _______ _____ _____    ______ ____
DOCKED: ROOT
DOCKED: ATOM      1  O   UNL     1     -51.655 -32.799   8.186 -0.06 -0.00    -0.346 OA 
DOCKED: ATOM      2  C   UNL     1     -52.988 -33.402   8.220 -0.16 +0.00    +0.130 C  
DOCKED: ATOM      3  C   UNL     1     -53.365 -33.521   6.771 -0.27 +0.00    +0.004 A  
DOCKED: ATOM      4  C   UNL     1     -52.299 -33.126   5.977 -0.37 +0.00    +0.006 A  
DOCKED: ATOM      5  C   UNL     1     -51.154 -32.735   6.831 -0.24 +0.00    +0.169 C  
DOCKED: ATOM      6  C   UNL     1     -54.553 -33.956   6.202 -0.28 -0.00    -0.001 A  
DOCKED: ATOM      7  C   UNL     1     -52.382 -33.147   4.595 -0.24 +0.00    +0.008 A  
DOCKED: ATOM      8  C   UNL     1     -54.655 -33.979   4.810 -0.37 +0.00    +0.010 A  
DOCKED: ATOM      9  C   UNL     1     -53.575 -33.577   4.011 -0.40 +0.00    +0.068 A  
DOCKED: ATOM     10  N   UNL     1     -53.795 -33.636   1.430 -3.17 -0.00    -0.191 NA 
DOCKED: ATOM     11  C   UNL     1     -53.696 -33.609   2.588 -0.29 +0.00    +0.101 C  
DOCKED: ENDROOT
DOCKED: BRANCH   2  12
DOCKED: ATOM     12  C   UNL     1     -52.891 -34.751   8.921 -0.29 +0.00    +0.038 C  
DOCKED: BRANCH  12  13
DOCKED: ATOM     13  C   UNL     1     -51.689 -34.804   9.863 -0.24 +0.00    +0.038 C  
DOCKED: BRANCH  13  14
DOCKED: ATOM     14  C   UNL     1     -52.134 -34.780  11.324 -0.14 +0.00    +0.251 C  
DOCKED: BRANCH  14  15
DOCKED: ATOM     15  N   UNL     1     -50.993 -34.539  12.198 -0.16 +0.00    +0.141 N  
DOCKED: ATOM     16  C   UNL     1     -50.522 -33.159  12.064 -0.06 +0.00    +0.285 C  
DOCKED: ATOM     17  C   UNL     1     -51.341 -34.823  13.591 -0.08 +0.00    +0.285 C  
DOCKED: ENDBRANCH  14  15
DOCKED: ENDBRANCH  13  14
DOCKED: ENDBRANCH  12  13
DOCKED: ENDBRANCH   2  12
DOCKED: BRANCH   2  18
DOCKED: ATOM     18  C   UNL     1     -53.871 -32.465   8.975 -0.09 +0.00    +0.006 A  
DOCKED: ATOM     19  C   UNL     1     -55.256 -32.552   8.841 -0.10 +0.00    +0.001 A  
DOCKED: ATOM     20  C   UNL     1     -56.081 -31.676   9.547 -0.06 +0.00    +0.029 A  
DOCKED: ATOM     21  C   UNL     1     -55.520 -30.714  10.386 -0.01 +0.00    +0.140 A  
DOCKED: ATOM     22  C   UNL     1     -54.134 -30.628  10.520 -0.02 +0.00    +0.029 A  
DOCKED: ATOM     23  F   UNL     1     -56.311 -29.874  11.066 +0.01 -0.00    -0.204 F  
DOCKED: ATOM     24  C   UNL     1     -53.309 -31.504   9.814 -0.05 +0.00    +0.001 A  
DOCKED: ENDBRANCH   2  18
DOCKED: TORSDOF 5
DOCKED: TER
DOCKED: ENDMDL
________________________________________________________________________________


    FINAL DOCKED STATE:
    ________________________


Run:   168 / 512
Time taken for this run:   0.001s

DOCKED: MODEL        168
DOCKED: USER    Run = 168
DOCKED: USER
DOCKED: USER    Estimated Free Energy of Binding    =  -4.05 kcal/mol  [=(1)+(2)+(3)-(4)]
DOCKED: USER
DOCKED: USER    (1) Final Intermolecular Energy     =  -5.54 kcal/mol
DOCKED: USER        vdW + Hbond + desolv Energy     =  -5.54 kcal/mol
DOCKED: USER        Electrostatic Energy            =  +0.00 kcal/mol
DOCKED: USER        Moving Ligand-Fixed Receptor    =  -5.54 kcal/mol
DOCKED: USER        Moving Ligand-Moving Receptor   =  +0.00 kcal/mol
DOCKED: USER    (2) Final Total Internal Energy     =  -1.42 kcal/mol
DOCKED: USER    (3) Torsional Free Energy           =  +1.49 kcal/mol
DOCKED: USER    (4) Unbound System's Energy         =  -1.42 kcal/mol
DOCKED: USER
DOCKED: USER
DOCKED: REMARK  5 active torsions:
DOCKED: REMARK  status: ('A' for Active; 'I' for Inactive)
DOCKED: REMARK    1  A    between atoms: C_2  and  C_19 
DOCKED: REMARK    2  A    between atoms: C_2  and  C_11 
DOCKED: REMARK    3  A    between atoms: C_19  and  C_20 
DOCKED: REMARK    4  A    between atoms: C_20  and  C_21 
DOCKED: REMARK    5  A    between atoms: C_21  and  N_22 
DOCKED: USER                              x       y       z     vdW  Elec       q    Type
DOCKED: USER                           _______ _______ _______ _____ _____    ______ ____
DOCKED: ROOT
DOCKED: ATOM      1  O   UNL     1     -43.534 -33.328  -2.095 -0.01 -0.00    -0.346 OA 
DOCKED: ATOM      2  C   UNL     1     -43.888 -32.181  -1.257 -0.09 +0.00    +0.130 C  
DOCKED: ATOM      3  C   UNL     1     -44.474 -32.805  -0.023 -0.12 +0.00    +0.004 A  
DOCKED: ATOM      4  C   UNL     1     -44.362 -34.186  -0.100 -0.14 +0.00    +0.006 A  
DOCKED: ATOM      5  C   UNL     1     -43.694 -34.567  -1.365 -0.08 +0.00    +0.169 C  
DOCKED: ATOM      6  C   UNL     1     -45.048 -32.198   1.084 -0.14 -0.00    -0.001 A  
DOCKED: ATOM      7  C   UNL     1     -44.822 -35.004   0.918 -0.25 +0.00    +0.008 A  
DOCKED: ATOM      8  C   UNL     1     -45.521 -33.010   2.117 -0.25 +0.00    +0.010 A  
DOCKED: ATOM      9  C   UNL     1     -45.408 -34.406   2.034 -0.29 +0.00    +0.068 A  
DOCKED: ATOM     10  N   UNL     1     -46.291 -35.882   3.971 -2.59 -0.00    -0.191 NA 
DOCKED: ATOM     11  C   UNL     1     -45.896 -35.220   3.102 -0.43 +0.00    +0.101 C  
DOCKED: ENDROOT
DOCKED: BRANCH   2  12
DOCKED: ATOM     12  C   UNL     1     -42.623 -31.381  -0.974 -0.02 +0.00    +0.038 C  
DOCKED: BRANCH  12  13
DOCKED: ATOM     13  C   UNL     1     -41.998 -30.853  -2.263 -0.01 +0.00    +0.038 C  
DOCKED: BRANCH  13  14
DOCKED: ATOM     14  C   UNL     1     -40.673 -31.554  -2.559 -0.00 +0.00    +0.251 C  
DOCKED: BRANCH  14  15
DOCKED: ATOM     15  N   UNL     1     -40.775 -32.332  -3.788 -0.00 +0.00    +0.141 N  
DOCKED: ATOM     16  C   UNL     1     -40.837 -33.764  -3.488 -0.00 +0.00    +0.285 C  
DOCKED: ATOM     17  C   UNL     1     -41.949 -31.924  -4.561 -0.00 +0.00    +0.285 C  
DOCKED: ENDBRANCH  14  15
DOCKED: ENDBRANCH  13  14
DOCKED: ENDBRANCH  12  13
DOCKED: ENDBRANCH   2  12
DOCKED: BRANCH   2  18
DOCKED: ATOM     18  C   UNL     1     -44.878 -31.370  -2.024 -0.12 +0.00    +0.006 A  
DOCKED: ATOM     19  C   UNL     1     -45.525 -30.298  -1.411 -0.14 +0.00    +0.001 A  
DOCKED: ATOM     20  C   UNL     1     -46.451 -29.540  -2.129 -0.19 +0.00    +0.029 A  
DOCKED: ATOM     21  C   UNL     1     -46.728 -29.855  -3.459 -0.20 +0.00    +0.140 A  
DOCKED: ATOM     22  C   UNL     1     -46.080 -30.927  -4.072 -0.19 +0.00    +0.029 A  
DOCKED: ATOM     23  F   UNL     1     -47.615 -29.127  -4.149 -0.14 -0.00    -0.204 F  
DOCKED: ATOM     24  C   UNL     1     -45.154 -31.686  -3.354 -0.14 +0.00    +0.001 A  
DOCKED: ENDBRANCH   2  18
DOCKED: TORSDOF 5
DOCKED: TER
DOCKED: ENDMDL
________________________________________________________________________________


    FINAL DOCKED STATE:
    ________________________


Run:   169 / 512
Time taken for this run:   0.001s

DOCKED: MODEL        169
DOCKED: USER    Run = 169
DOCKED: USER
DOCKED: USER    Estimated Free Energy of Binding    =  -3.80 kcal/mol  [=(1)+(2)+(3)-(4)]
DOCKED: USER
DOCKED: USER    (1) Final Intermolecular Energy     =  -5.29 kcal/mol
DOCKED: USER        vdW + Hbond + desolv Energy     =  -5.29 kcal/mol
DOCKED: USER        Electrostatic Energy            =  +0.00 kcal/mol
DOCKED: USER        Moving Ligand-Fixed Receptor    =  -5.29 kcal/mol
DOCKED: USER        Moving Ligand-Moving Receptor   =  +0.00 kcal/mol
DOCKED: USER    (2) Final Total Internal Energy     =  -1.38 kcal/mol
DOCKED: USER    (3) Torsional Free Energy           =  +1.49 kcal/mol
DOCKED: USER    (4) Unbound System's Energy         =  -1.38 kcal/mol
DOCKED: USER
DOCKED: USER
DOCKED: REMARK  5 active torsions:
DOCKED: REMARK  status: ('A' for Active; 'I' for Inactive)
DOCKED: REMARK    1  A    between atoms: C_2  and  C_19 
DOCKED: REMARK    2  A    between atoms: C_2  and  C_11 
DOCKED: REMARK    3  A    between atoms: C_19  and  C_20 
DOCKED: REMARK    4  A    between atoms: C_20  and  C_21 
DOCKED: REMARK    5  A    between atoms: C_21  and  N_22 
DOCKED: USER                              x       y       z     vdW  Elec       q    Type
DOCKED: USER                           _______ _______ _______ _____ _____    ______ ____
DOCKED: ROOT
DOCKED: ATOM      1  O   UNL     1     -43.157 -33.930  -1.861 -0.01 -0.00    -0.346 OA 
DOCKED: ATOM      2  C   UNL     1     -43.543 -32.707  -1.156 -0.07 +0.00    +0.130 C  
DOCKED: ATOM      3  C   UNL     1     -44.223 -33.207   0.086 -0.11 +0.00    +0.004 A  
DOCKED: ATOM      4  C   UNL     1     -44.135 -34.591   0.141 -0.15 +0.00    +0.006 A  
DOCKED: ATOM      5  C   UNL     1     -43.391 -35.095  -1.035 -0.07 +0.00    +0.169 C  
DOCKED: ATOM      6  C   UNL     1     -44.858 -32.494   1.092 -0.14 -0.00    -0.001 A  
DOCKED: ATOM      7  C   UNL     1     -44.679 -35.306   1.194 -0.26 +0.00    +0.008 A  
DOCKED: ATOM      8  C   UNL     1     -45.416 -33.201   2.159 -0.25 +0.00    +0.010 A  
DOCKED: ATOM      9  C   UNL     1     -45.326 -34.600   2.209 -0.30 +0.00    +0.068 A  
DOCKED: ATOM     10  N   UNL     1     -46.367 -35.881   4.206 -2.59 -0.00    -0.191 NA 
DOCKED: ATOM     11  C   UNL     1     -45.901 -35.307   3.310 -0.40 +0.00    +0.101 C  
DOCKED: ENDROOT
DOCKED: BRANCH   2  12
DOCKED: ATOM     12  C   UNL     1     -42.284 -31.902  -0.859 -0.02 +0.00    +0.038 C  
DOCKED: BRANCH  12  13
DOCKED: ATOM     13  C   UNL     1     -41.079 -32.453  -1.620 -0.00 +0.00    +0.038 C  
DOCKED: BRANCH  13  14
DOCKED: ATOM     14  C   UNL     1     -40.999 -31.862  -3.026 +0.00 +0.00    +0.251 C  
DOCKED: BRANCH  14  15
DOCKED: ATOM     15  N   UNL     1     -41.546 -30.510  -3.039 -0.00 +0.00    +0.141 N  
DOCKED: ATOM     16  C   UNL     1     -40.491 -29.524  -2.805 +0.00 +0.00    +0.285 C  
DOCKED: ATOM     17  C   UNL     1     -42.220 -30.240  -4.310 +0.00 +0.00    +0.285 C  
DOCKED: ENDBRANCH  14  15
DOCKED: ENDBRANCH  13  14
DOCKED: ENDBRANCH  12  13
DOCKED: ENDBRANCH   2  12
DOCKED: BRANCH   2  18
DOCKED: ATOM     18  C   UNL     1     -44.463 -31.955  -2.059 -0.12 +0.00    +0.006 A  
DOCKED: ATOM     19  C   UNL     1     -44.664 -32.391  -3.368 -0.07 +0.00    +0.001 A  
DOCKED: ATOM     20  C   UNL     1     -45.524 -31.687  -4.212 -0.13 +0.00    +0.029 A  
DOCKED: ATOM     21  C   UNL     1     -46.181 -30.549  -3.746 -0.18 +0.00    +0.140 A  
DOCKED: ATOM     22  C   UNL     1     -45.979 -30.113  -2.437 -0.18 +0.00    +0.029 A  
DOCKED: ATOM     23  F   UNL     1     -47.007 -29.874  -4.556 -0.12 -0.00    -0.204 F  
DOCKED: ATOM     24  C   UNL     1     -45.119 -30.817  -1.592 -0.13 +0.00    +0.001 A  
DOCKED: ENDBRANCH   2  18
DOCKED: TORSDOF 5
DOCKED: TER
DOCKED: ENDMDL
________________________________________________________________________________


    FINAL DOCKED STATE:
    ________________________


Run:   170 / 512
Time taken for this run:   0.001s

DOCKED: MODEL        170
DOCKED: USER    Run = 170
DOCKED: USER
DOCKED: USER    Estimated Free Energy of Binding    =  -6.07 kcal/mol  [=(1)+(2)+(3)-(4)]
DOCKED: USER
DOCKED: USER    (1) Final Intermolecular Energy     =  -7.56 kcal/mol
DOCKED: USER        vdW + Hbond + desolv Energy     =  -7.56 kcal/mol
DOCKED: USER        Electrostatic Energy            =  +0.00 kcal/mol
DOCKED: USER        Moving Ligand-Fixed Receptor    =  -7.56 kcal/mol
DOCKED: USER        Moving Ligand-Moving Receptor   =  +0.00 kcal/mol
DOCKED: USER    (2) Final Total Internal Energy     =  -1.07 kcal/mol
DOCKED: USER    (3) Torsional Free Energy           =  +1.49 kcal/mol
DOCKED: USER    (4) Unbound System's Energy         =  -1.07 kcal/mol
DOCKED: USER
DOCKED: USER
DOCKED: REMARK  5 active torsions:
DOCKED: REMARK  status: ('A' for Active; 'I' for Inactive)
DOCKED: REMARK    1  A    between atoms: C_2  and  C_19 
DOCKED: REMARK    2  A    between atoms: C_2  and  C_11 
DOCKED: REMARK    3  A    between atoms: C_19  and  C_20 
DOCKED: REMARK    4  A    between atoms: C_20  and  C_21 
DOCKED: REMARK    5  A    between atoms: C_21  and  N_22 
DOCKED: USER                              x       y       z     vdW  Elec       q    Type
DOCKED: USER                           _______ _______ _______ _____ _____    ______ ____
DOCKED: ROOT
DOCKED: ATOM      1  O   UNL     1     -51.630 -31.419   7.920 -0.05 -0.00    -0.346 OA 
DOCKED: ATOM      2  C   UNL     1     -51.287 -32.842   7.886 -0.23 +0.00    +0.130 C  
DOCKED: ATOM      3  C   UNL     1     -51.804 -33.305   6.554 -0.35 +0.00    +0.004 A  
DOCKED: ATOM      4  C   UNL     1     -52.299 -32.221   5.843 -0.35 +0.00    +0.006 A  
DOCKED: ATOM      5  C   UNL     1     -52.135 -30.982   6.636 -0.23 +0.00    +0.169 C  
DOCKED: ATOM      6  C   UNL     1     -51.823 -34.581   6.012 -0.35 -0.00    -0.001 A  
DOCKED: ATOM      7  C   UNL     1     -52.832 -32.374   4.575 -0.09 +0.00    +0.008 A  
DOCKED: ATOM      8  C   UNL     1     -52.362 -34.753   4.735 -0.45 +0.00    +0.010 A  
DOCKED: ATOM      9  C   UNL     1     -52.863 -33.655   4.020 -0.42 +0.00    +0.068 A  
DOCKED: ATOM     10  N   UNL     1     -53.850 -34.008   1.651 -2.92 -0.00    -0.191 NA 
DOCKED: ATOM     11  C   UNL     1     -53.408 -33.849   2.714 -0.43 +0.00    +0.101 C  
DOCKED: ENDROOT
DOCKED: BRANCH   2  12
DOCKED: ATOM     12  C   UNL     1     -49.774 -32.977   8.015 -0.21 +0.00    +0.038 C  
DOCKED: BRANCH  12  13
DOCKED: ATOM     13  C   UNL     1     -49.147 -31.702   8.578 -0.18 +0.00    +0.038 C  
DOCKED: BRANCH  13  14
DOCKED: ATOM     14  C   UNL     1     -47.623 -31.753   8.486 -0.11 +0.00    +0.251 C  
DOCKED: BRANCH  14  15
DOCKED: ATOM     15  N   UNL     1     -47.139 -30.755   7.539 -0.09 +0.00    +0.141 N  
DOCKED: ATOM     16  C   UNL     1     -48.104 -29.662   7.402 -0.07 +0.00    +0.285 C  
DOCKED: ATOM     17  C   UNL     1     -45.838 -30.234   7.960 -0.04 +0.00    +0.285 C  
DOCKED: ENDBRANCH  14  15
DOCKED: ENDBRANCH  13  14
DOCKED: ENDBRANCH  12  13
DOCKED: ENDBRANCH   2  12
DOCKED: BRANCH   2  18
DOCKED: ATOM     18  C   UNL     1     -51.985 -33.486   9.037 -0.19 +0.00    +0.006 A  
DOCKED: ATOM     19  C   UNL     1     -51.262 -33.859  10.169 -0.18 +0.00    +0.001 A  
DOCKED: ATOM     20  C   UNL     1     -51.916 -34.462  11.245 -0.21 +0.00    +0.029 A  
DOCKED: ATOM     21  C   UNL     1     -53.290 -34.690  11.186 -0.03 +0.00    +0.140 A  
DOCKED: ATOM     22  C   UNL     1     -54.012 -34.317  10.053 -0.15 +0.00    +0.029 A  
DOCKED: ATOM     23  F   UNL     1     -53.918 -35.267  12.219 -0.03 -0.00    -0.204 F  
DOCKED: ATOM     24  C   UNL     1     -53.359 -33.714   8.976 -0.18 +0.00    +0.001 A  
DOCKED: ENDBRANCH   2  18
DOCKED: TORSDOF 5
DOCKED: TER
DOCKED: ENDMDL
________________________________________________________________________________


    FINAL DOCKED STATE:
    ________________________


Run:   171 / 512
Time taken for this run:   0.001s

DOCKED: MODEL        171
DOCKED: USER    Run = 171
DOCKED: USER
DOCKED: USER    Estimated Free Energy of Binding    =  -4.33 kcal/mol  [=(1)+(2)+(3)-(4)]
DOCKED: USER
DOCKED: USER    (1) Final Intermolecular Energy     =  -5.82 kcal/mol
DOCKED: USER        vdW + Hbond + desolv Energy     =  -5.82 kcal/mol
DOCKED: USER        Electrostatic Energy            =  +0.00 kcal/mol
DOCKED: USER        Moving Ligand-Fixed Receptor    =  -5.82 kcal/mol
DOCKED: USER        Moving Ligand-Moving Receptor   =  +0.00 kcal/mol
DOCKED: USER    (2) Final Total Internal Energy     =  -1.07 kcal/mol
DOCKED: USER    (3) Torsional Free Energy           =  +1.49 kcal/mol
DOCKED: USER    (4) Unbound System's Energy         =  -1.07 kcal/mol
DOCKED: USER
DOCKED: USER
DOCKED: REMARK  5 active torsions:
DOCKED: REMARK  status: ('A' for Active; 'I' for Inactive)
DOCKED: REMARK    1  A    between atoms: C_2  and  C_19 
DOCKED: REMARK    2  A    between atoms: C_2  and  C_11 
DOCKED: REMARK    3  A    between atoms: C_19  and  C_20 
DOCKED: REMARK    4  A    between atoms: C_20  and  C_21 
DOCKED: REMARK    5  A    between atoms: C_21  and  N_22 
DOCKED: USER                              x       y       z     vdW  Elec       q    Type
DOCKED: USER                           _______ _______ _______ _____ _____    ______ ____
DOCKED: ROOT
DOCKED: ATOM      1  O   UNL     1     -49.410 -25.515   1.005 -0.07 -0.00    -0.346 OA 
DOCKED: ATOM      2  C   UNL     1     -48.179 -25.316   0.240 -0.15 +0.00    +0.130 C  
DOCKED: ATOM      3  C   UNL     1     -48.636 -24.597  -0.997 -0.25 +0.00    +0.004 A  
DOCKED: ATOM      4  C   UNL     1     -49.991 -24.312  -0.897 -0.29 +0.00    +0.006 A  
DOCKED: ATOM      5  C   UNL     1     -50.513 -24.803   0.398 -0.24 +0.00    +0.169 C  
DOCKED: ATOM      6  C   UNL     1     -47.910 -24.216  -2.115 -0.21 -0.00    -0.001 A  
DOCKED: ATOM      7  C   UNL     1     -50.663 -23.645  -1.906 -0.26 +0.00    +0.008 A  
DOCKED: ATOM      8  C   UNL     1     -48.574 -23.546  -3.144 -0.27 +0.00    +0.010 A  
DOCKED: ATOM      9  C   UNL     1     -49.944 -23.261  -3.039 -0.19 +0.00    +0.068 A  
DOCKED: ATOM     10  N   UNL     1     -51.146 -22.012  -4.964 -2.43 -0.00    -0.191 NA 
DOCKED: ATOM     11  C   UNL     1     -50.607 -22.573  -4.101 -0.25 +0.00    +0.101 C  
DOCKED: ENDROOT
DOCKED: BRANCH   2  12
DOCKED: ATOM     12  C   UNL     1     -47.214 -24.490   1.083 -0.15 +0.00    +0.038 C  
DOCKED: BRANCH  12  13
DOCKED: ATOM     13  C   UNL     1     -46.126 -23.853   0.221 -0.13 +0.00    +0.038 C  
DOCKED: BRANCH  13  14
DOCKED: ATOM     14  C   UNL     1     -44.757 -23.970   0.889 -0.05 +0.00    +0.251 C  
DOCKED: BRANCH  14  15
DOCKED: ATOM     15  N   UNL     1     -44.418 -25.371   1.109 -0.01 +0.00    +0.141 N  
DOCKED: ATOM     16  C   UNL     1     -43.081 -25.665   0.591 -0.00 +0.00    +0.285 C  
DOCKED: ATOM     17  C   UNL     1     -44.496 -25.703   2.532 -0.01 +0.00    +0.285 C  
DOCKED: ENDBRANCH  14  15
DOCKED: ENDBRANCH  13  14
DOCKED: ENDBRANCH  12  13
DOCKED: ENDBRANCH   2  12
DOCKED: BRANCH   2  18
DOCKED: ATOM     18  C   UNL     1     -47.620 -26.669  -0.048 -0.12 +0.00    +0.006 A  
DOCKED: ATOM     19  C   UNL     1     -46.640 -26.825  -1.028 -0.08 +0.00    +0.001 A  
DOCKED: ATOM     20  C   UNL     1     -46.118 -28.091  -1.296 -0.09 +0.00    +0.029 A  
DOCKED: ATOM     21  C   UNL     1     -46.576 -29.199  -0.584 -0.14 +0.00    +0.140 A  
DOCKED: ATOM     22  C   UNL     1     -47.556 -29.042   0.397 -0.20 +0.00    +0.029 A  
DOCKED: ATOM     23  F   UNL     1     -46.074 -30.413  -0.840 -0.06 -0.00    -0.204 F  
DOCKED: ATOM     24  C   UNL     1     -48.079 -27.776   0.665 -0.17 +0.00    +0.001 A  
DOCKED: ENDBRANCH   2  18
DOCKED: TORSDOF 5
DOCKED: TER
DOCKED: ENDMDL
________________________________________________________________________________


    FINAL DOCKED STATE:
    ________________________


Run:   172 / 512
Time taken for this run:   0.001s

DOCKED: MODEL        172
DOCKED: USER    Run = 172
DOCKED: USER
DOCKED: USER    Estimated Free Energy of Binding    =  -5.92 kcal/mol  [=(1)+(2)+(3)-(4)]
DOCKED: USER
DOCKED: USER    (1) Final Intermolecular Energy     =  -7.41 kcal/mol
DOCKED: USER        vdW + Hbond + desolv Energy     =  -7.41 kcal/mol
DOCKED: USER        Electrostatic Energy            =  +0.00 kcal/mol
DOCKED: USER        Moving Ligand-Fixed Receptor    =  -7.41 kcal/mol
DOCKED: USER        Moving Ligand-Moving Receptor   =  +0.00 kcal/mol
DOCKED: USER    (2) Final Total Internal Energy     =  -1.46 kcal/mol
DOCKED: USER    (3) Torsional Free Energy           =  +1.49 kcal/mol
DOCKED: USER    (4) Unbound System's Energy         =  -1.46 kcal/mol
DOCKED: USER
DOCKED: USER
DOCKED: REMARK  5 active torsions:
DOCKED: REMARK  status: ('A' for Active; 'I' for Inactive)
DOCKED: REMARK    1  A    between atoms: C_2  and  C_19 
DOCKED: REMARK    2  A    between atoms: C_2  and  C_11 
DOCKED: REMARK    3  A    between atoms: C_19  and  C_20 
DOCKED: REMARK    4  A    between atoms: C_20  and  C_21 
DOCKED: REMARK    5  A    between atoms: C_21  and  N_22 
DOCKED: USER                              x       y       z     vdW  Elec       q    Type
DOCKED: USER                           _______ _______ _______ _____ _____    ______ ____
DOCKED: ROOT
DOCKED: ATOM      1  O   UNL     1     -51.352 -31.420   7.848 -0.06 -0.00    -0.346 OA 
DOCKED: ATOM      2  C   UNL     1     -51.166 -32.871   7.826 -0.24 +0.00    +0.130 C  
DOCKED: ATOM      3  C   UNL     1     -51.736 -33.286   6.501 -0.35 +0.00    +0.004 A  
DOCKED: ATOM      4  C   UNL     1     -52.114 -32.161   5.782 -0.33 +0.00    +0.006 A  
DOCKED: ATOM      5  C   UNL     1     -51.812 -30.941   6.563 -0.24 +0.00    +0.169 C  
DOCKED: ATOM      6  C   UNL     1     -51.898 -34.558   5.970 -0.36 -0.00    -0.001 A  
DOCKED: ATOM      7  C   UNL     1     -52.666 -32.267   4.517 -0.07 +0.00    +0.008 A  
DOCKED: ATOM      8  C   UNL     1     -52.458 -34.681   4.697 -0.47 +0.00    +0.010 A  
DOCKED: ATOM      9  C   UNL     1     -52.839 -33.541   3.974 -0.41 +0.00    +0.068 A  
DOCKED: ATOM     10  N   UNL     1     -53.871 -33.804   1.612 -3.06 -0.00    -0.191 NA 
DOCKED: ATOM     11  C   UNL     1     -53.409 -33.686   2.672 -0.42 +0.00    +0.101 C  
DOCKED: ENDROOT
DOCKED: BRANCH   2  12
DOCKED: ATOM     12  C   UNL     1     -49.676 -33.169   7.950 -0.13 +0.00    +0.038 C  
DOCKED: BRANCH  12  13
DOCKED: ATOM     13  C   UNL     1     -48.891 -31.924   8.358 -0.19 +0.00    +0.038 C  
DOCKED: BRANCH  13  14
DOCKED: ATOM     14  C   UNL     1     -48.881 -31.753   9.876 -0.07 +0.00    +0.251 C  
DOCKED: BRANCH  14  15
DOCKED: ATOM     15  N   UNL     1     -49.728 -30.632  10.267 -0.03 +0.00    +0.141 N  
DOCKED: ATOM     16  C   UNL     1     -49.683 -30.431  11.716 -0.01 +0.00    +0.285 C  
DOCKED: ATOM     17  C   UNL     1     -49.318 -29.410   9.572 -0.02 +0.00    +0.285 C  
DOCKED: ENDBRANCH  14  15
DOCKED: ENDBRANCH  13  14
DOCKED: ENDBRANCH  12  13
DOCKED: ENDBRANCH   2  12
DOCKED: BRANCH   2  18
DOCKED: ATOM     18  C   UNL     1     -51.924 -33.426   8.986 -0.19 +0.00    +0.006 A  
DOCKED: ATOM     19  C   UNL     1     -53.313 -33.312   9.028 -0.15 +0.00    +0.001 A  
DOCKED: ATOM     20  C   UNL     1     -54.021 -33.831  10.113 -0.13 +0.00    +0.029 A  
DOCKED: ATOM     21  C   UNL     1     -53.340 -34.462  11.152 -0.09 +0.00    +0.140 A  
DOCKED: ATOM     22  C   UNL     1     -51.950 -34.576  11.109 -0.21 +0.00    +0.029 A  
DOCKED: ATOM     23  F   UNL     1     -54.020 -34.962  12.193 -0.03 -0.00    -0.204 F  
DOCKED: ATOM     24  C   UNL     1     -51.241 -34.057  10.025 -0.16 +0.00    +0.001 A  
DOCKED: ENDBRANCH   2  18
DOCKED: TORSDOF 5
DOCKED: TER
DOCKED: ENDMDL
________________________________________________________________________________


    FINAL DOCKED STATE:
    ________________________


Run:   173 / 512
Time taken for this run:   0.001s

DOCKED: MODEL        173
DOCKED: USER    Run = 173
DOCKED: USER
DOCKED: USER    Estimated Free Energy of Binding    =  -4.08 kcal/mol  [=(1)+(2)+(3)-(4)]
DOCKED: USER
DOCKED: USER    (1) Final Intermolecular Energy     =  -5.57 kcal/mol
DOCKED: USER        vdW + Hbond + desolv Energy     =  -5.57 kcal/mol
DOCKED: USER        Electrostatic Energy            =  +0.00 kcal/mol
DOCKED: USER        Moving Ligand-Fixed Receptor    =  -5.57 kcal/mol
DOCKED: USER        Moving Ligand-Moving Receptor   =  +0.00 kcal/mol
DOCKED: USER    (2) Final Total Internal Energy     =  -1.39 kcal/mol
DOCKED: USER    (3) Torsional Free Energy           =  +1.49 kcal/mol
DOCKED: USER    (4) Unbound System's Energy         =  -1.39 kcal/mol
DOCKED: USER
DOCKED: USER
DOCKED: REMARK  5 active torsions:
DOCKED: REMARK  status: ('A' for Active; 'I' for Inactive)
DOCKED: REMARK    1  A    between atoms: C_2  and  C_19 
DOCKED: REMARK    2  A    between atoms: C_2  and  C_11 
DOCKED: REMARK    3  A    between atoms: C_19  and  C_20 
DOCKED: REMARK    4  A    between atoms: C_20  and  C_21 
DOCKED: REMARK    5  A    between atoms: C_21  and  N_22 
DOCKED: USER                              x       y       z     vdW  Elec       q    Type
DOCKED: USER                           _______ _______ _______ _____ _____    ______ ____
DOCKED: ROOT
DOCKED: ATOM      1  O   UNL     1     -46.769 -29.750   0.398 -0.02 -0.00    -0.346 OA 
DOCKED: ATOM      2  C   UNL     1     -45.484 -30.360   0.054 -0.11 +0.00    +0.130 C  
DOCKED: ATOM      3  C   UNL     1     -45.458 -31.624   0.864 -0.16 +0.00    +0.004 A  
DOCKED: ATOM      4  C   UNL     1     -46.668 -31.779   1.527 -0.30 +0.00    +0.006 A  
DOCKED: ATOM      5  C   UNL     1     -47.569 -30.653   1.196 -0.27 +0.00    +0.169 C  
DOCKED: ATOM      6  C   UNL     1     -44.449 -32.567   0.995 -0.11 -0.00    -0.001 A  
DOCKED: ATOM      7  C   UNL     1     -46.908 -32.872   2.341 -0.26 +0.00    +0.008 A  
DOCKED: ATOM      8  C   UNL     1     -44.675 -33.673   1.817 -0.18 +0.00    +0.010 A  
DOCKED: ATOM      9  C   UNL     1     -45.898 -33.825   2.486 -0.31 +0.00    +0.068 A  
DOCKED: ATOM     10  N   UNL     1     -46.286 -35.892   3.999 -2.60 -0.00    -0.191 NA 
DOCKED: ATOM     11  C   UNL     1     -46.112 -34.964   3.321 -0.35 +0.00    +0.101 C  
DOCKED: ENDROOT
DOCKED: BRANCH   2  12
DOCKED: ATOM     12  C   UNL     1     -45.458 -30.617  -1.448 -0.14 +0.00    +0.038 C  
DOCKED: BRANCH  12  13
DOCKED: ATOM     13  C   UNL     1     -45.515 -29.311  -2.238 -0.13 +0.00    +0.038 C  
DOCKED: BRANCH  13  14
DOCKED: ATOM     14  C   UNL     1     -46.952 -28.809  -2.365 -0.19 +0.00    +0.251 C  
DOCKED: BRANCH  14  15
DOCKED: ATOM     15  N   UNL     1     -47.058 -27.443  -1.866 -0.14 +0.00    +0.141 N  
DOCKED: ATOM     16  C   UNL     1     -47.272 -26.505  -2.969 -0.13 +0.00    +0.285 C  
DOCKED: ATOM     17  C   UNL     1     -48.143 -27.333  -0.889 -0.13 +0.00    +0.285 C  
DOCKED: ENDBRANCH  14  15
DOCKED: ENDBRANCH  13  14
DOCKED: ENDBRANCH  12  13
DOCKED: ENDBRANCH   2  12
DOCKED: BRANCH   2  18
DOCKED: ATOM     18  C   UNL     1     -44.421 -29.392   0.453 -0.03 +0.00    +0.006 A  
DOCKED: ATOM     19  C   UNL     1     -44.772 -28.152   0.987 -0.01 +0.00    +0.001 A  
DOCKED: ATOM     20  C   UNL     1     -43.777 -27.248   1.359 -0.00 +0.00    +0.029 A  
DOCKED: ATOM     21  C   UNL     1     -42.434 -27.584   1.198 +0.00 +0.00    +0.140 A  
DOCKED: ATOM     22  C   UNL     1     -42.083 -28.824   0.665 -0.00 +0.00    +0.029 A  
DOCKED: ATOM     23  F   UNL     1     -41.479 -26.716   1.557 +0.00 -0.00    -0.204 F  
DOCKED: ATOM     24  C   UNL     1     -43.078 -29.729   0.292 -0.01 +0.00    +0.001 A  
DOCKED: ENDBRANCH   2  18
DOCKED: TORSDOF 5
DOCKED: TER
DOCKED: ENDMDL
________________________________________________________________________________


    FINAL DOCKED STATE:
    ________________________


Run:   174 / 512
Time taken for this run:   0.001s

DOCKED: MODEL        174
DOCKED: USER    Run = 174
DOCKED: USER
DOCKED: USER    Estimated Free Energy of Binding    =  -4.18 kcal/mol  [=(1)+(2)+(3)-(4)]
DOCKED: USER
DOCKED: USER    (1) Final Intermolecular Energy     =  -5.67 kcal/mol
DOCKED: USER        vdW + Hbond + desolv Energy     =  -5.67 kcal/mol
DOCKED: USER        Electrostatic Energy            =  +0.00 kcal/mol
DOCKED: USER        Moving Ligand-Fixed Receptor    =  -5.67 kcal/mol
DOCKED: USER        Moving Ligand-Moving Receptor   =  +0.00 kcal/mol
DOCKED: USER    (2) Final Total Internal Energy     =  -1.51 kcal/mol
DOCKED: USER    (3) Torsional Free Energy           =  +1.49 kcal/mol
DOCKED: USER    (4) Unbound System's Energy         =  -1.51 kcal/mol
DOCKED: USER
DOCKED: USER
DOCKED: REMARK  5 active torsions:
DOCKED: REMARK  status: ('A' for Active; 'I' for Inactive)
DOCKED: REMARK    1  A    between atoms: C_2  and  C_19 
DOCKED: REMARK    2  A    between atoms: C_2  and  C_11 
DOCKED: REMARK    3  A    between atoms: C_19  and  C_20 
DOCKED: REMARK    4  A    between atoms: C_20  and  C_21 
DOCKED: REMARK    5  A    between atoms: C_21  and  N_22 
DOCKED: USER                              x       y       z     vdW  Elec       q    Type
DOCKED: USER                           _______ _______ _______ _____ _____    ______ ____
DOCKED: ROOT
DOCKED: ATOM      1  O   UNL     1     -52.478 -28.575   7.807 -0.03 -0.00    -0.346 OA 
DOCKED: ATOM      2  C   UNL     1     -53.929 -28.768   7.814 -0.13 +0.00    +0.130 C  
DOCKED: ATOM      3  C   UNL     1     -54.109 -30.155   7.267 -0.21 +0.00    +0.004 A  
DOCKED: ATOM      4  C   UNL     1     -52.869 -30.744   7.069 -0.22 +0.00    +0.006 A  
DOCKED: ATOM      5  C   UNL     1     -51.797 -29.808   7.477 -0.14 +0.00    +0.169 C  
DOCKED: ATOM      6  C   UNL     1     -55.278 -30.843   6.978 -0.22 -0.00    -0.001 A  
DOCKED: ATOM      7  C   UNL     1     -52.753 -32.032   6.574 -0.28 +0.00    +0.008 A  
DOCKED: ATOM      8  C   UNL     1     -55.179 -32.141   6.475 -0.24 +0.00    +0.010 A  
DOCKED: ATOM      9  C   UNL     1     -53.922 -32.733   6.275 -0.23 +0.00    +0.068 A  
DOCKED: ATOM     10  N   UNL     1     -53.773 -35.146   5.344 -2.56 -0.00    -0.191 NA 
DOCKED: ATOM     11  C   UNL     1     -53.840 -34.063   5.760 -0.34 +0.00    +0.101 C  
DOCKED: ENDROOT
DOCKED: BRANCH   2  12
DOCKED: ATOM     12  C   UNL     1     -54.428 -28.626   9.247 -0.04 +0.00    +0.038 C  
DOCKED: BRANCH  12  13
DOCKED: ATOM     13  C   UNL     1     -53.271 -28.649  10.245 -0.02 +0.00    +0.038 C  
DOCKED: BRANCH  13  14
DOCKED: ATOM     14  C   UNL     1     -52.911 -27.237  10.701 -0.00 +0.00    +0.251 C  
DOCKED: BRANCH  14  15
DOCKED: ATOM     15  N   UNL     1     -52.669 -26.377   9.548 -0.01 +0.00    +0.141 N  
DOCKED: ATOM     16  C   UNL     1     -53.649 -25.291   9.500 -0.00 +0.00    +0.285 C  
DOCKED: ATOM     17  C   UNL     1     -51.310 -25.834   9.586 -0.00 +0.00    +0.285 C  
DOCKED: ENDBRANCH  14  15
DOCKED: ENDBRANCH  13  14
DOCKED: ENDBRANCH  12  13
DOCKED: ENDBRANCH   2  12
DOCKED: BRANCH   2  18
DOCKED: ATOM     18  C   UNL     1     -54.513 -27.715   6.934 -0.20 +0.00    +0.006 A  
DOCKED: ATOM     19  C   UNL     1     -55.893 -27.521   6.901 -0.20 +0.00    +0.001 A  
DOCKED: ATOM     20  C   UNL     1     -56.439 -26.536   6.077 -0.18 +0.00    +0.029 A  
DOCKED: ATOM     21  C   UNL     1     -55.604 -25.746   5.288 -0.07 +0.00    +0.140 A  
DOCKED: ATOM     22  C   UNL     1     -54.223 -25.940   5.322 -0.12 +0.00    +0.029 A  
DOCKED: ATOM     23  F   UNL     1     -56.127 -24.799   4.499 -0.03 -0.00    -0.204 F  
DOCKED: ATOM     24  C   UNL     1     -53.677 -26.926   6.145 -0.19 +0.00    +0.001 A  
DOCKED: ENDBRANCH   2  18
DOCKED: TORSDOF 5
DOCKED: TER
DOCKED: ENDMDL
________________________________________________________________________________


    FINAL DOCKED STATE:
    ________________________


Run:   175 / 512
Time taken for this run:   0.001s

DOCKED: MODEL        175
DOCKED: USER    Run = 175
DOCKED: USER
DOCKED: USER    Estimated Free Energy of Binding    =  -4.12 kcal/mol  [=(1)+(2)+(3)-(4)]
DOCKED: USER
DOCKED: USER    (1) Final Intermolecular Energy     =  -5.62 kcal/mol
DOCKED: USER        vdW + Hbond + desolv Energy     =  -5.62 kcal/mol
DOCKED: USER        Electrostatic Energy            =  +0.00 kcal/mol
DOCKED: USER        Moving Ligand-Fixed Receptor    =  -5.62 kcal/mol
DOCKED: USER        Moving Ligand-Moving Receptor   =  +0.00 kcal/mol
DOCKED: USER    (2) Final Total Internal Energy     =  -1.32 kcal/mol
DOCKED: USER    (3) Torsional Free Energy           =  +1.49 kcal/mol
DOCKED: USER    (4) Unbound System's Energy         =  -1.32 kcal/mol
DOCKED: USER
DOCKED: USER
DOCKED: REMARK  5 active torsions:
DOCKED: REMARK  status: ('A' for Active; 'I' for Inactive)
DOCKED: REMARK    1  A    between atoms: C_2  and  C_19 
DOCKED: REMARK    2  A    between atoms: C_2  and  C_11 
DOCKED: REMARK    3  A    between atoms: C_19  and  C_20 
DOCKED: REMARK    4  A    between atoms: C_20  and  C_21 
DOCKED: REMARK    5  A    between atoms: C_21  and  N_22 
DOCKED: USER                              x       y       z     vdW  Elec       q    Type
DOCKED: USER                           _______ _______ _______ _____ _____    ______ ____
DOCKED: ROOT
DOCKED: ATOM      1  O   UNL     1     -43.819 -30.103   0.472 +0.01 -0.00    -0.346 OA 
DOCKED: ATOM      2  C   UNL     1     -45.281 -30.048   0.432 -0.08 +0.00    +0.130 C  
DOCKED: ATOM      3  C   UNL     1     -45.708 -31.297   1.146 -0.17 +0.00    +0.004 A  
DOCKED: ATOM      4  C   UNL     1     -44.593 -31.953   1.647 -0.10 +0.00    +0.006 A  
DOCKED: ATOM      5  C   UNL     1     -43.369 -31.188   1.317 -0.02 +0.00    +0.169 C  
DOCKED: ATOM      6  C   UNL     1     -46.983 -31.807   1.345 -0.29 -0.00    -0.001 A  
DOCKED: ATOM      7  C   UNL     1     -44.711 -33.135   2.358 -0.17 +0.00    +0.008 A  
DOCKED: ATOM      8  C   UNL     1     -47.118 -33.001   2.056 -0.18 +0.00    +0.010 A  
DOCKED: ATOM      9  C   UNL     1     -45.988 -33.661   2.560 -0.30 +0.00    +0.068 A  
DOCKED: ATOM     10  N   UNL     1     -46.275 -35.873   3.879 -2.54 -0.00    -0.191 NA 
DOCKED: ATOM     11  C   UNL     1     -46.146 -34.881   3.286 -0.33 +0.00    +0.101 C  
DOCKED: ENDROOT
DOCKED: BRANCH   2  12
DOCKED: ATOM     12  C   UNL     1     -45.735 -28.776   1.138 -0.06 +0.00    +0.038 C  
DOCKED: BRANCH  12  13
DOCKED: ATOM     13  C   UNL     1     -45.111 -28.656   2.526 -0.04 +0.00    +0.038 C  
DOCKED: BRANCH  13  14
DOCKED: ATOM     14  C   UNL     1     -46.186 -28.608   3.610 -0.05 +0.00    +0.251 C  
DOCKED: BRANCH  14  15
DOCKED: ATOM     15  N   UNL     1     -45.891 -29.575   4.661 -0.09 +0.00    +0.141 N  
DOCKED: ATOM     16  C   UNL     1     -44.581 -29.308   5.255 -0.02 +0.00    +0.285 C  
DOCKED: ATOM     17  C   UNL     1     -46.930 -29.550   5.691 -0.03 +0.00    +0.285 C  
DOCKED: ENDBRANCH  14  15
DOCKED: ENDBRANCH  13  14
DOCKED: ENDBRANCH  12  13
DOCKED: ENDBRANCH   2  12
DOCKED: BRANCH   2  18
DOCKED: ATOM     18  C   UNL     1     -45.677 -30.036  -1.007 -0.14 +0.00    +0.006 A  
DOCKED: ATOM     19  C   UNL     1     -46.554 -29.060  -1.480 -0.19 +0.00    +0.001 A  
DOCKED: ATOM     20  C   UNL     1     -46.924 -29.050  -2.826 -0.23 +0.00    +0.029 A  
DOCKED: ATOM     21  C   UNL     1     -46.416 -30.014  -3.695 -0.21 +0.00    +0.140 A  
DOCKED: ATOM     22  C   UNL     1     -45.539 -30.990  -3.221 -0.17 +0.00    +0.029 A  
DOCKED: ATOM     23  F   UNL     1     -46.770 -30.004  -4.987 -0.10 -0.00    -0.204 F  
DOCKED: ATOM     24  C   UNL     1     -45.169 -31.001  -1.876 -0.13 +0.00    +0.001 A  
DOCKED: ENDBRANCH   2  18
DOCKED: TORSDOF 5
DOCKED: TER
DOCKED: ENDMDL
________________________________________________________________________________


    FINAL DOCKED STATE:
    ________________________


Run:   176 / 512
Time taken for this run:   0.001s

DOCKED: MODEL        176
DOCKED: USER    Run = 176
DOCKED: USER
DOCKED: USER    Estimated Free Energy of Binding    =  -5.01 kcal/mol  [=(1)+(2)+(3)-(4)]
DOCKED: USER
DOCKED: USER    (1) Final Intermolecular Energy     =  -6.51 kcal/mol
DOCKED: USER        vdW + Hbond + desolv Energy     =  -6.51 kcal/mol
DOCKED: USER        Electrostatic Energy            =  +0.00 kcal/mol
DOCKED: USER        Moving Ligand-Fixed Receptor    =  -6.51 kcal/mol
DOCKED: USER        Moving Ligand-Moving Receptor   =  +0.00 kcal/mol
DOCKED: USER    (2) Final Total Internal Energy     =  -0.84 kcal/mol
DOCKED: USER    (3) Torsional Free Energy           =  +1.49 kcal/mol
DOCKED: USER    (4) Unbound System's Energy         =  -0.84 kcal/mol
DOCKED: USER
DOCKED: USER
DOCKED: REMARK  5 active torsions:
DOCKED: REMARK  status: ('A' for Active; 'I' for Inactive)
DOCKED: REMARK    1  A    between atoms: C_2  and  C_19 
DOCKED: REMARK    2  A    between atoms: C_2  and  C_11 
DOCKED: REMARK    3  A    between atoms: C_19  and  C_20 
DOCKED: REMARK    4  A    between atoms: C_20  and  C_21 
DOCKED: REMARK    5  A    between atoms: C_21  and  N_22 
DOCKED: USER                              x       y       z     vdW  Elec       q    Type
DOCKED: USER                           _______ _______ _______ _____ _____    ______ ____
DOCKED: ROOT
DOCKED: ATOM      1  O   UNL     1     -54.011 -32.708   8.517 -0.01 -0.00    -0.346 OA 
DOCKED: ATOM      2  C   UNL     1     -53.001 -31.879   7.858 -0.13 +0.00    +0.130 C  
DOCKED: ATOM      3  C   UNL     1     -53.049 -32.324   6.425 -0.29 +0.00    +0.004 A  
DOCKED: ATOM      4  C   UNL     1     -54.071 -33.247   6.257 -0.28 +0.00    +0.006 A  
DOCKED: ATOM      5  C   UNL     1     -54.770 -33.463   7.544 -0.15 +0.00    +0.169 C  
DOCKED: ATOM      6  C   UNL     1     -52.257 -31.936   5.354 -0.27 -0.00    -0.001 A  
DOCKED: ATOM      7  C   UNL     1     -54.335 -33.813   5.021 -0.38 +0.00    +0.008 A  
DOCKED: ATOM      8  C   UNL     1     -52.508 -32.501   4.102 +0.08 +0.00    +0.010 A  
DOCKED: ATOM      9  C   UNL     1     -53.542 -33.434   3.937 -0.38 +0.00    +0.068 A  
DOCKED: ATOM     10  N   UNL     1     -53.983 -34.461   1.599 -2.64 -0.00    -0.191 NA 
DOCKED: ATOM     11  C   UNL     1     -53.785 -34.001   2.648 -0.29 +0.00    +0.101 C  
DOCKED: ENDROOT
DOCKED: BRANCH   2  12
DOCKED: ATOM     12  C   UNL     1     -53.386 -30.415   8.037 -0.14 +0.00    +0.038 C  
DOCKED: BRANCH  12  13
DOCKED: ATOM     13  C   UNL     1     -53.947 -29.824   6.745 -0.23 +0.00    +0.038 C  
DOCKED: BRANCH  13  14
DOCKED: ATOM     14  C   UNL     1     -55.387 -29.353   6.936 -0.16 +0.00    +0.251 C  
DOCKED: BRANCH  14  15
DOCKED: ATOM     15  N   UNL     1     -55.422 -27.919   7.197 -0.15 +0.00    +0.141 N  
DOCKED: ATOM     16  C   UNL     1     -54.375 -27.231   6.439 -0.15 +0.00    +0.285 C  
DOCKED: ATOM     17  C   UNL     1     -56.736 -27.366   6.864 -0.11 +0.00    +0.285 C  
DOCKED: ENDBRANCH  14  15
DOCKED: ENDBRANCH  13  14
DOCKED: ENDBRANCH  12  13
DOCKED: ENDBRANCH   2  12
DOCKED: BRANCH   2  18
DOCKED: ATOM     18  C   UNL     1     -51.695 -32.176   8.517 -0.15 +0.00    +0.006 A  
DOCKED: ATOM     19  C   UNL     1     -50.515 -32.134   7.775 -0.23 +0.00    +0.001 A  
DOCKED: ATOM     20  C   UNL     1     -49.295 -32.413   8.392 -0.20 +0.00    +0.029 A  
DOCKED: ATOM     21  C   UNL     1     -49.257 -32.733   9.748 -0.03 +0.00    +0.140 A  
DOCKED: ATOM     22  C   UNL     1     -50.437 -32.774  10.490 -0.11 +0.00    +0.029 A  
DOCKED: ATOM     23  F   UNL     1     -48.085 -32.998  10.341 -0.02 -0.00    -0.204 F  
DOCKED: ATOM     24  C   UNL     1     -51.658 -32.496   9.873 -0.10 +0.00    +0.001 A  
DOCKED: ENDBRANCH   2  18
DOCKED: TORSDOF 5
DOCKED: TER
DOCKED: ENDMDL
________________________________________________________________________________


    FINAL DOCKED STATE:
    ________________________


Run:   177 / 512
Time taken for this run:   0.001s

DOCKED: MODEL        177
DOCKED: USER    Run = 177
DOCKED: USER
DOCKED: USER    Estimated Free Energy of Binding    =  -3.91 kcal/mol  [=(1)+(2)+(3)-(4)]
DOCKED: USER
DOCKED: USER    (1) Final Intermolecular Energy     =  -5.40 kcal/mol
DOCKED: USER        vdW + Hbond + desolv Energy     =  -5.40 kcal/mol
DOCKED: USER        Electrostatic Energy            =  +0.00 kcal/mol
DOCKED: USER        Moving Ligand-Fixed Receptor    =  -5.40 kcal/mol
DOCKED: USER        Moving Ligand-Moving Receptor   =  +0.00 kcal/mol
DOCKED: USER    (2) Final Total Internal Energy     =  -1.37 kcal/mol
DOCKED: USER    (3) Torsional Free Energy           =  +1.49 kcal/mol
DOCKED: USER    (4) Unbound System's Energy         =  -1.37 kcal/mol
DOCKED: USER
DOCKED: USER
DOCKED: REMARK  5 active torsions:
DOCKED: REMARK  status: ('A' for Active; 'I' for Inactive)
DOCKED: REMARK    1  A    between atoms: C_2  and  C_19 
DOCKED: REMARK    2  A    between atoms: C_2  and  C_11 
DOCKED: REMARK    3  A    between atoms: C_19  and  C_20 
DOCKED: REMARK    4  A    between atoms: C_20  and  C_21 
DOCKED: REMARK    5  A    between atoms: C_21  and  N_22 
DOCKED: USER                              x       y       z     vdW  Elec       q    Type
DOCKED: USER                           _______ _______ _______ _____ _____    ______ ____
DOCKED: ROOT
DOCKED: ATOM      1  O   UNL     1     -51.388 -28.815   6.881 -0.07 -0.00    -0.346 OA 
DOCKED: ATOM      2  C   UNL     1     -52.478 -29.163   7.795 -0.12 +0.00    +0.130 C  
DOCKED: ATOM      3  C   UNL     1     -52.853 -30.559   7.392 -0.19 +0.00    +0.004 A  
DOCKED: ATOM      4  C   UNL     1     -51.983 -31.012   6.410 -0.28 +0.00    +0.006 A  
DOCKED: ATOM      5  C   UNL     1     -50.978 -29.968   6.109 -0.11 +0.00    +0.169 C  
DOCKED: ATOM      6  C   UNL     1     -53.876 -31.368   7.864 -0.14 -0.00    -0.001 A  
DOCKED: ATOM      7  C   UNL     1     -52.106 -32.279   5.867 -0.33 +0.00    +0.008 A  
DOCKED: ATOM      8  C   UNL     1     -54.016 -32.648   7.323 -0.18 +0.00    +0.010 A  
DOCKED: ATOM      9  C   UNL     1     -53.135 -33.101   6.330 -0.26 +0.00    +0.068 A  
DOCKED: ATOM     10  N   UNL     1     -53.420 -35.482   5.351 -2.60 -0.00    -0.191 NA 
DOCKED: ATOM     11  C   UNL     1     -53.293 -34.414   5.789 -0.34 +0.00    +0.101 C  
DOCKED: ENDROOT
DOCKED: BRANCH   2  12
DOCKED: ATOM     12  C   UNL     1     -51.955 -29.077   9.224 -0.04 +0.00    +0.038 C  
DOCKED: BRANCH  12  13
DOCKED: ATOM     13  C   UNL     1     -51.578 -27.644   9.594 -0.02 +0.00    +0.038 C  
DOCKED: BRANCH  13  14
DOCKED: ATOM     14  C   UNL     1     -52.394 -27.152  10.788 -0.00 +0.00    +0.251 C  
DOCKED: BRANCH  14  15
DOCKED: ATOM     15  N   UNL     1     -53.286 -26.073  10.382 -0.00 +0.00    +0.141 N  
DOCKED: ATOM     16  C   UNL     1     -54.351 -25.884  11.368 +0.00 +0.00    +0.285 C  
DOCKED: ATOM     17  C   UNL     1     -52.538 -24.828  10.198 +0.00 +0.00    +0.285 C  
DOCKED: ENDBRANCH  14  15
DOCKED: ENDBRANCH  13  14
DOCKED: ENDBRANCH  12  13
DOCKED: ENDBRANCH   2  12
DOCKED: BRANCH   2  18
DOCKED: ATOM     18  C   UNL     1     -53.573 -28.176   7.562 -0.14 +0.00    +0.006 A  
DOCKED: ATOM     19  C   UNL     1     -53.425 -27.187   6.590 -0.18 +0.00    +0.001 A  
DOCKED: ATOM     20  C   UNL     1     -54.450 -26.265   6.373 -0.15 +0.00    +0.029 A  
DOCKED: ATOM     21  C   UNL     1     -55.620 -26.333   7.129 -0.08 +0.00    +0.140 A  
DOCKED: ATOM     22  C   UNL     1     -55.767 -27.322   8.101 -0.08 +0.00    +0.029 A  
DOCKED: ATOM     23  F   UNL     1     -56.604 -25.449   6.919 +0.01 -0.00    -0.204 F  
DOCKED: ATOM     24  C   UNL     1     -54.742 -28.245   8.318 -0.08 +0.00    +0.001 A  
DOCKED: ENDBRANCH   2  18
DOCKED: TORSDOF 5
DOCKED: TER
DOCKED: ENDMDL
________________________________________________________________________________


    FINAL DOCKED STATE:
    ________________________


Run:   178 / 512
Time taken for this run:   0.001s

DOCKED: MODEL        178
DOCKED: USER    Run = 178
DOCKED: USER
DOCKED: USER    Estimated Free Energy of Binding    =  -3.81 kcal/mol  [=(1)+(2)+(3)-(4)]
DOCKED: USER
DOCKED: USER    (1) Final Intermolecular Energy     =  -5.30 kcal/mol
DOCKED: USER        vdW + Hbond + desolv Energy     =  -5.30 kcal/mol
DOCKED: USER        Electrostatic Energy            =  +0.00 kcal/mol
DOCKED: USER        Moving Ligand-Fixed Receptor    =  -5.30 kcal/mol
DOCKED: USER        Moving Ligand-Moving Receptor   =  +0.00 kcal/mol
DOCKED: USER    (2) Final Total Internal Energy     =  -1.34 kcal/mol
DOCKED: USER    (3) Torsional Free Energy           =  +1.49 kcal/mol
DOCKED: USER    (4) Unbound System's Energy         =  -1.34 kcal/mol
DOCKED: USER
DOCKED: USER
DOCKED: REMARK  5 active torsions:
DOCKED: REMARK  status: ('A' for Active; 'I' for Inactive)
DOCKED: REMARK    1  A    between atoms: C_2  and  C_19 
DOCKED: REMARK    2  A    between atoms: C_2  and  C_11 
DOCKED: REMARK    3  A    between atoms: C_19  and  C_20 
DOCKED: REMARK    4  A    between atoms: C_20  and  C_21 
DOCKED: REMARK    5  A    between atoms: C_21  and  N_22 
DOCKED: USER                              x       y       z     vdW  Elec       q    Type
DOCKED: USER                           _______ _______ _______ _____ _____    ______ ____
DOCKED: ROOT
DOCKED: ATOM      1  O   UNL     1     -51.233 -29.182   7.470 -0.05 -0.00    -0.346 OA 
DOCKED: ATOM      2  C   UNL     1     -50.473 -30.215   8.176 -0.11 +0.00    +0.130 C  
DOCKED: ATOM      3  C   UNL     1     -51.014 -31.501   7.620 -0.21 +0.00    +0.004 A  
DOCKED: ATOM      4  C   UNL     1     -51.922 -31.227   6.608 -0.28 +0.00    +0.006 A  
DOCKED: ATOM      5  C   UNL     1     -52.035 -29.764   6.417 -0.14 +0.00    +0.169 C  
DOCKED: ATOM      6  C   UNL     1     -50.716 -32.809   7.975 -0.26 -0.00    -0.001 A  
DOCKED: ATOM      7  C   UNL     1     -52.565 -32.244   5.922 -0.34 +0.00    +0.008 A  
DOCKED: ATOM      8  C   UNL     1     -51.359 -33.845   7.296 -0.35 +0.00    +0.010 A  
DOCKED: ATOM      9  C   UNL     1     -52.279 -33.564   6.274 -0.32 +0.00    +0.068 A  
DOCKED: ATOM     10  N   UNL     1     -53.451 -35.511   5.030 -2.41 -0.00    -0.191 NA 
DOCKED: ATOM     11  C   UNL     1     -52.925 -34.637   5.588 -0.31 +0.00    +0.101 C  
DOCKED: ENDROOT
DOCKED: BRANCH   2  12
DOCKED: ATOM     12  C   UNL     1     -48.992 -30.015   7.875 -0.13 +0.00    +0.038 C  
DOCKED: BRANCH  12  13
DOCKED: ATOM     13  C   UNL     1     -48.788 -29.202   6.599 -0.14 +0.00    +0.038 C  
DOCKED: BRANCH  13  14
DOCKED: ATOM     14  C   UNL     1     -48.216 -27.821   6.913 -0.04 +0.00    +0.251 C  
DOCKED: BRANCH  14  15
DOCKED: ATOM     15  N   UNL     1     -48.898 -26.798   6.129 -0.04 +0.00    +0.141 N  
DOCKED: ATOM     16  C   UNL     1     -49.536 -27.391   4.953 -0.05 +0.00    +0.285 C  
DOCKED: ATOM     17  C   UNL     1     -49.891 -26.098   6.946 -0.02 +0.00    +0.285 C  
DOCKED: ENDBRANCH  14  15
DOCKED: ENDBRANCH  13  14
DOCKED: ENDBRANCH  12  13
DOCKED: ENDBRANCH   2  12
DOCKED: BRANCH   2  18
DOCKED: ATOM     18  C   UNL     1     -50.755 -30.046   9.631 -0.04 +0.00    +0.006 A  
DOCKED: ATOM     19  C   UNL     1     -49.708 -29.802  10.520 -0.02 +0.00    +0.001 A  
DOCKED: ATOM     20  C   UNL     1     -49.973 -29.644  11.881 -0.00 +0.00    +0.029 A  
DOCKED: ATOM     21  C   UNL     1     -51.283 -29.731  12.351 -0.00 +0.00    +0.140 A  
DOCKED: ATOM     22  C   UNL     1     -52.329 -29.975  11.462 -0.00 +0.00    +0.029 A  
DOCKED: ATOM     23  F   UNL     1     -51.537 -29.578  13.657 +0.00 -0.00    -0.204 F  
DOCKED: ATOM     24  C   UNL     1     -52.065 -30.134  10.100 -0.03 +0.00    +0.001 A  
DOCKED: ENDBRANCH   2  18
DOCKED: TORSDOF 5
DOCKED: TER
DOCKED: ENDMDL
________________________________________________________________________________


    FINAL DOCKED STATE:
    ________________________


Run:   179 / 512
Time taken for this run:   0.001s

DOCKED: MODEL        179
DOCKED: USER    Run = 179
DOCKED: USER
DOCKED: USER    Estimated Free Energy of Binding    =  -3.10 kcal/mol  [=(1)+(2)+(3)-(4)]
DOCKED: USER
DOCKED: USER    (1) Final Intermolecular Energy     =  -4.59 kcal/mol
DOCKED: USER        vdW + Hbond + desolv Energy     =  -4.59 kcal/mol
DOCKED: USER        Electrostatic Energy            =  +0.00 kcal/mol
DOCKED: USER        Moving Ligand-Fixed Receptor    =  -4.59 kcal/mol
DOCKED: USER        Moving Ligand-Moving Receptor   =  +0.00 kcal/mol
DOCKED: USER    (2) Final Total Internal Energy     =  -1.36 kcal/mol
DOCKED: USER    (3) Torsional Free Energy           =  +1.49 kcal/mol
DOCKED: USER    (4) Unbound System's Energy         =  -1.36 kcal/mol
DOCKED: USER
DOCKED: USER
DOCKED: REMARK  5 active torsions:
DOCKED: REMARK  status: ('A' for Active; 'I' for Inactive)
DOCKED: REMARK    1  A    between atoms: C_2  and  C_19 
DOCKED: REMARK    2  A    between atoms: C_2  and  C_11 
DOCKED: REMARK    3  A    between atoms: C_19  and  C_20 
DOCKED: REMARK    4  A    between atoms: C_20  and  C_21 
DOCKED: REMARK    5  A    between atoms: C_21  and  N_22 
DOCKED: USER                              x       y       z     vdW  Elec       q    Type
DOCKED: USER                           _______ _______ _______ _____ _____    ______ ____
DOCKED: ROOT
DOCKED: ATOM      1  O   UNL     1     -49.753 -32.974  11.264 -0.05 -0.00    -0.346 OA 
DOCKED: ATOM      2  C   UNL     1     -49.228 -32.337  10.055 -0.11 +0.00    +0.130 C  
DOCKED: ATOM      3  C   UNL     1     -50.164 -32.793   8.973 -0.18 +0.00    +0.004 A  
DOCKED: ATOM      4  C   UNL     1     -51.197 -33.533   9.531 -0.17 +0.00    +0.006 A  
DOCKED: ATOM      5  C   UNL     1     -51.026 -33.608  10.999 -0.13 +0.00    +0.169 C  
DOCKED: ATOM      6  C   UNL     1     -50.112 -32.560   7.607 -0.17 -0.00    -0.001 A  
DOCKED: ATOM      7  C   UNL     1     -52.205 -34.068   8.747 -0.25 +0.00    +0.008 A  
DOCKED: ATOM      8  C   UNL     1     -51.119 -33.096   6.802 -0.30 +0.00    +0.010 A  
DOCKED: ATOM      9  C   UNL     1     -52.160 -33.846   7.370 -0.26 +0.00    +0.068 A  
DOCKED: ATOM     10  N   UNL     1     -54.016 -34.822   5.848 -1.91 -0.00    -0.191 NA 
DOCKED: ATOM     11  C   UNL     1     -53.183 -34.385   6.530 -0.20 +0.00    +0.101 C  
DOCKED: ENDROOT
DOCKED: BRANCH   2  12
DOCKED: ATOM     12  C   UNL     1     -49.246 -30.827  10.259 -0.05 +0.00    +0.038 C  
DOCKED: BRANCH  12  13
DOCKED: ATOM     13  C   UNL     1     -49.771 -30.458  11.644 -0.02 +0.00    +0.038 C  
DOCKED: BRANCH  13  14
DOCKED: ATOM     14  C   UNL     1     -48.678 -30.596  12.702 -0.00 +0.00    +0.251 C  
DOCKED: BRANCH  14  15
DOCKED: ATOM     15  N   UNL     1     -49.001 -31.675  13.628 -0.01 +0.00    +0.141 N  
DOCKED: ATOM     16  C   UNL     1     -47.804 -32.115  14.346 -0.00 +0.00    +0.285 C  
DOCKED: ATOM     17  C   UNL     1     -50.033 -31.251  14.574 -0.00 +0.00    +0.285 C  
DOCKED: ENDBRANCH  14  15
DOCKED: ENDBRANCH  13  14
DOCKED: ENDBRANCH  12  13
DOCKED: ENDBRANCH   2  12
DOCKED: BRANCH   2  18
DOCKED: ATOM     18  C   UNL     1     -47.835 -32.839   9.868 -0.08 +0.00    +0.006 A  
DOCKED: ATOM     19  C   UNL     1     -47.205 -32.701   8.632 -0.18 +0.00    +0.001 A  
DOCKED: ATOM     20  C   UNL     1     -45.903 -33.171   8.458 -0.18 +0.00    +0.029 A  
DOCKED: ATOM     21  C   UNL     1     -45.232 -33.777   9.519 -0.11 +0.00    +0.140 A  
DOCKED: ATOM     22  C   UNL     1     -45.863 -33.914  10.756 -0.14 +0.00    +0.029 A  
DOCKED: ATOM     23  F   UNL     1     -43.982 -34.226   9.353 -0.01 -0.00    -0.204 F  
DOCKED: ATOM     24  C   UNL     1     -47.166 -33.445  10.931 -0.09 +0.00    +0.001 A  
DOCKED: ENDBRANCH   2  18
DOCKED: TORSDOF 5
DOCKED: TER
DOCKED: ENDMDL
________________________________________________________________________________


    FINAL DOCKED STATE:
    ________________________


Run:   180 / 512
Time taken for this run:   0.001s

DOCKED: MODEL        180
DOCKED: USER    Run = 180
DOCKED: USER
DOCKED: USER    Estimated Free Energy of Binding    =  -3.68 kcal/mol  [=(1)+(2)+(3)-(4)]
DOCKED: USER
DOCKED: USER    (1) Final Intermolecular Energy     =  -5.17 kcal/mol
DOCKED: USER        vdW + Hbond + desolv Energy     =  -5.17 kcal/mol
DOCKED: USER        Electrostatic Energy            =  +0.00 kcal/mol
DOCKED: USER        Moving Ligand-Fixed Receptor    =  -5.17 kcal/mol
DOCKED: USER        Moving Ligand-Moving Receptor   =  +0.00 kcal/mol
DOCKED: USER    (2) Final Total Internal Energy     =  -1.49 kcal/mol
DOCKED: USER    (3) Torsional Free Energy           =  +1.49 kcal/mol
DOCKED: USER    (4) Unbound System's Energy         =  -1.49 kcal/mol
DOCKED: USER
DOCKED: USER
DOCKED: REMARK  5 active torsions:
DOCKED: REMARK  status: ('A' for Active; 'I' for Inactive)
DOCKED: REMARK    1  A    between atoms: C_2  and  C_19 
DOCKED: REMARK    2  A    between atoms: C_2  and  C_11 
DOCKED: REMARK    3  A    between atoms: C_19  and  C_20 
DOCKED: REMARK    4  A    between atoms: C_20  and  C_21 
DOCKED: REMARK    5  A    between atoms: C_21  and  N_22 
DOCKED: USER                              x       y       z     vdW  Elec       q    Type
DOCKED: USER                           _______ _______ _______ _____ _____    ______ ____
DOCKED: ROOT
DOCKED: ATOM      1  O   UNL     1     -51.136 -28.778   7.155 -0.05 -0.00    -0.346 OA 
DOCKED: ATOM      2  C   UNL     1     -50.122 -29.763   7.533 -0.14 +0.00    +0.130 C  
DOCKED: ATOM      3  C   UNL     1     -50.765 -31.082   7.215 -0.22 +0.00    +0.004 A  
DOCKED: ATOM      4  C   UNL     1     -51.994 -30.868   6.607 -0.27 +0.00    +0.006 A  
DOCKED: ATOM      5  C   UNL     1     -52.240 -29.415   6.470 -0.16 +0.00    +0.169 C  
DOCKED: ATOM      6  C   UNL     1     -50.295 -32.368   7.436 -0.10 -0.00    -0.001 A  
DOCKED: ATOM      7  C   UNL     1     -52.793 -31.924   6.205 -0.31 +0.00    +0.008 A  
DOCKED: ATOM      8  C   UNL     1     -51.092 -33.445   7.041 -0.33 +0.00    +0.010 A  
DOCKED: ATOM      9  C   UNL     1     -52.334 -33.223   6.428 -0.30 +0.00    +0.068 A  
DOCKED: ATOM     10  N   UNL     1     -53.785 -35.243   5.701 -2.46 -0.00    -0.191 NA 
DOCKED: ATOM     11  C   UNL     1     -53.134 -34.337   6.027 -0.32 +0.00    +0.101 C  
DOCKED: ENDROOT
DOCKED: BRANCH   2  12
DOCKED: ATOM     12  C   UNL     1     -48.866 -29.502   6.710 -0.12 +0.00    +0.038 C  
DOCKED: BRANCH  12  13
DOCKED: ATOM     13  C   UNL     1     -49.192 -28.761   5.415 -0.16 +0.00    +0.038 C  
DOCKED: BRANCH  13  14
DOCKED: ATOM     14  C   UNL     1     -48.910 -27.266   5.552 -0.07 +0.00    +0.251 C  
DOCKED: BRANCH  14  15
DOCKED: ATOM     15  N   UNL     1     -48.952 -26.868   6.955 -0.03 +0.00    +0.141 N  
DOCKED: ATOM     16  C   UNL     1     -47.647 -26.367   7.388 -0.00 +0.00    +0.285 C  
DOCKED: ATOM     17  C   UNL     1     -49.983 -25.852   7.172 -0.01 +0.00    +0.285 C  
DOCKED: ENDBRANCH  14  15
DOCKED: ENDBRANCH  13  14
DOCKED: ENDBRANCH  12  13
DOCKED: ENDBRANCH   2  12
DOCKED: BRANCH   2  18
DOCKED: ATOM     18  C   UNL     1     -49.858 -29.581   8.990 -0.05 +0.00    +0.006 A  
DOCKED: ATOM     19  C   UNL     1     -50.753 -28.855   9.775 -0.02 +0.00    +0.001 A  
DOCKED: ATOM     20  C   UNL     1     -50.505 -28.685  11.137 -0.00 +0.00    +0.029 A  
DOCKED: ATOM     21  C   UNL     1     -49.364 -29.241  11.713 -0.00 +0.00    +0.140 A  
DOCKED: ATOM     22  C   UNL     1     -48.469 -29.967  10.928 -0.02 +0.00    +0.029 A  
DOCKED: ATOM     23  F   UNL     1     -49.127 -29.079  13.021 +0.00 -0.00    -0.204 F  
DOCKED: ATOM     24  C   UNL     1     -48.716 -30.137   9.564 -0.05 +0.00    +0.001 A  
DOCKED: ENDBRANCH   2  18
DOCKED: TORSDOF 5
DOCKED: TER
DOCKED: ENDMDL
________________________________________________________________________________


    FINAL DOCKED STATE:
    ________________________


Run:   181 / 512
Time taken for this run:   0.001s

DOCKED: MODEL        181
DOCKED: USER    Run = 181
DOCKED: USER
DOCKED: USER    Estimated Free Energy of Binding    =  -3.95 kcal/mol  [=(1)+(2)+(3)-(4)]
DOCKED: USER
DOCKED: USER    (1) Final Intermolecular Energy     =  -5.44 kcal/mol
DOCKED: USER        vdW + Hbond + desolv Energy     =  -5.44 kcal/mol
DOCKED: USER        Electrostatic Energy            =  +0.00 kcal/mol
DOCKED: USER        Moving Ligand-Fixed Receptor    =  -5.44 kcal/mol
DOCKED: USER        Moving Ligand-Moving Receptor   =  +0.00 kcal/mol
DOCKED: USER    (2) Final Total Internal Energy     =  -1.07 kcal/mol
DOCKED: USER    (3) Torsional Free Energy           =  +1.49 kcal/mol
DOCKED: USER    (4) Unbound System's Energy         =  -1.07 kcal/mol
DOCKED: USER
DOCKED: USER
DOCKED: REMARK  5 active torsions:
DOCKED: REMARK  status: ('A' for Active; 'I' for Inactive)
DOCKED: REMARK    1  A    between atoms: C_2  and  C_19 
DOCKED: REMARK    2  A    between atoms: C_2  and  C_11 
DOCKED: REMARK    3  A    between atoms: C_19  and  C_20 
DOCKED: REMARK    4  A    between atoms: C_20  and  C_21 
DOCKED: REMARK    5  A    between atoms: C_21  and  N_22 
DOCKED: USER                              x       y       z     vdW  Elec       q    Type
DOCKED: USER                           _______ _______ _______ _____ _____    ______ ____
DOCKED: ROOT
DOCKED: ATOM      1  O   UNL     1     -45.042 -28.667   0.846 +0.01 -0.00    -0.346 OA 
DOCKED: ATOM      2  C   UNL     1     -46.338 -29.290   0.574 -0.12 +0.00    +0.130 C  
DOCKED: ATOM      3  C   UNL     1     -46.302 -30.560   1.374 -0.19 +0.00    +0.004 A  
DOCKED: ATOM      4  C   UNL     1     -45.135 -30.607   2.124 -0.09 +0.00    +0.006 A  
DOCKED: ATOM      5  C   UNL     1     -44.336 -29.384   1.886 -0.02 +0.00    +0.169 C  
DOCKED: ATOM      6  C   UNL     1     -47.232 -31.587   1.441 -0.31 -0.00    -0.001 A  
DOCKED: ATOM      7  C   UNL     1     -44.856 -31.676   2.958 -0.13 +0.00    +0.008 A  
DOCKED: ATOM      8  C   UNL     1     -46.964 -32.674   2.274 -0.26 +0.00    +0.010 A  
DOCKED: ATOM      9  C   UNL     1     -45.782 -32.718   3.029 -0.22 +0.00    +0.068 A  
DOCKED: ATOM     10  N   UNL     1     -45.318 -34.749   4.570 -2.00 -0.00    -0.191 NA 
DOCKED: ATOM     11  C   UNL     1     -45.526 -33.838   3.879 -0.28 +0.00    +0.101 C  
DOCKED: ENDROOT
DOCKED: BRANCH   2  12
DOCKED: ATOM     12  C   UNL     1     -47.437 -28.335   1.027 -0.15 +0.00    +0.038 C  
DOCKED: BRANCH  12  13
DOCKED: ATOM     13  C   UNL     1     -46.885 -26.935   1.287 -0.06 +0.00    +0.038 C  
DOCKED: BRANCH  13  14
DOCKED: ATOM     14  C   UNL     1     -47.253 -25.980   0.153 -0.06 +0.00    +0.251 C  
DOCKED: BRANCH  14  15
DOCKED: ATOM     15  N   UNL     1     -48.571 -25.401   0.384 -0.14 +0.00    +0.141 N  
DOCKED: ATOM     16  C   UNL     1     -49.622 -26.378   0.095 -0.15 +0.00    +0.285 C  
DOCKED: ATOM     17  C   UNL     1     -48.689 -24.922   1.763 -0.12 +0.00    +0.285 C  
DOCKED: ENDBRANCH  14  15
DOCKED: ENDBRANCH  13  14
DOCKED: ENDBRANCH  12  13
DOCKED: ENDBRANCH   2  12
DOCKED: BRANCH   2  18
DOCKED: ATOM     18  C   UNL     1     -46.406 -29.531  -0.897 -0.18 +0.00    +0.006 A  
DOCKED: ATOM     19  C   UNL     1     -47.343 -28.847  -1.672 -0.17 +0.00    +0.001 A  
DOCKED: ATOM     20  C   UNL     1     -47.406 -29.074  -3.047 -0.21 +0.00    +0.029 A  
DOCKED: ATOM     21  C   UNL     1     -46.533 -29.981  -3.645 -0.21 +0.00    +0.140 A  
DOCKED: ATOM     22  C   UNL     1     -45.597 -30.664  -2.870 -0.17 +0.00    +0.029 A  
DOCKED: ATOM     23  F   UNL     1     -46.593 -30.197  -4.966 -0.09 -0.00    -0.204 F  
DOCKED: ATOM     24  C   UNL     1     -45.533 -30.439  -1.494 -0.14 +0.00    +0.001 A  
DOCKED: ENDBRANCH   2  18
DOCKED: TORSDOF 5
DOCKED: TER
DOCKED: ENDMDL
________________________________________________________________________________


    FINAL DOCKED STATE:
    ________________________


Run:   182 / 512
Time taken for this run:   0.001s

DOCKED: MODEL        182
DOCKED: USER    Run = 182
DOCKED: USER
DOCKED: USER    Estimated Free Energy of Binding    =  -5.69 kcal/mol  [=(1)+(2)+(3)-(4)]
DOCKED: USER
DOCKED: USER    (1) Final Intermolecular Energy     =  -7.18 kcal/mol
DOCKED: USER        vdW + Hbond + desolv Energy     =  -7.18 kcal/mol
DOCKED: USER        Electrostatic Energy            =  +0.00 kcal/mol
DOCKED: USER        Moving Ligand-Fixed Receptor    =  -7.18 kcal/mol
DOCKED: USER        Moving Ligand-Moving Receptor   =  +0.00 kcal/mol
DOCKED: USER    (2) Final Total Internal Energy     =  -1.34 kcal/mol
DOCKED: USER    (3) Torsional Free Energy           =  +1.49 kcal/mol
DOCKED: USER    (4) Unbound System's Energy         =  -1.34 kcal/mol
DOCKED: USER
DOCKED: USER
DOCKED: REMARK  5 active torsions:
DOCKED: REMARK  status: ('A' for Active; 'I' for Inactive)
DOCKED: REMARK    1  A    between atoms: C_2  and  C_19 
DOCKED: REMARK    2  A    between atoms: C_2  and  C_11 
DOCKED: REMARK    3  A    between atoms: C_19  and  C_20 
DOCKED: REMARK    4  A    between atoms: C_20  and  C_21 
DOCKED: REMARK    5  A    between atoms: C_21  and  N_22 
DOCKED: USER                              x       y       z     vdW  Elec       q    Type
DOCKED: USER                           _______ _______ _______ _____ _____    ______ ____
DOCKED: ROOT
DOCKED: ATOM      1  O   UNL     1     -51.781 -31.463   7.511 -0.07 -0.00    -0.346 OA 
DOCKED: ATOM      2  C   UNL     1     -52.449 -32.740   7.767 -0.17 +0.00    +0.130 C  
DOCKED: ATOM      3  C   UNL     1     -52.899 -33.189   6.407 -0.31 +0.00    +0.004 A  
DOCKED: ATOM      4  C   UNL     1     -52.433 -32.304   5.445 -0.34 +0.00    +0.006 A  
DOCKED: ATOM      5  C   UNL     1     -51.644 -31.231   6.090 -0.20 +0.00    +0.169 C  
DOCKED: ATOM      6  C   UNL     1     -53.651 -34.298   6.049 -0.33 -0.00    -0.001 A  
DOCKED: ATOM      7  C   UNL     1     -52.704 -32.493   4.100 -0.15 +0.00    +0.008 A  
DOCKED: ATOM      8  C   UNL     1     -53.936 -34.500   4.697 -0.44 +0.00    +0.010 A  
DOCKED: ATOM      9  C   UNL     1     -53.465 -33.602   3.728 -0.42 +0.00    +0.068 A  
DOCKED: ATOM     10  N   UNL     1     -54.009 -34.009   1.228 -3.22 -0.00    -0.191 NA 
DOCKED: ATOM     11  C   UNL     1     -53.765 -33.826   2.349 -0.28 +0.00    +0.101 C  
DOCKED: ENDROOT
DOCKED: BRANCH   2  12
DOCKED: ATOM     12  C   UNL     1     -51.443 -33.692   8.403 -0.28 +0.00    +0.038 C  
DOCKED: BRANCH  12  13
DOCKED: ATOM     13  C   UNL     1     -50.381 -32.932   9.196 -0.18 +0.00    +0.038 C  
DOCKED: BRANCH  13  14
DOCKED: ATOM     14  C   UNL     1     -49.181 -32.586   8.316 -0.11 +0.00    +0.251 C  
DOCKED: BRANCH  14  15
DOCKED: ATOM     15  N   UNL     1     -48.977 -31.143   8.280 -0.12 +0.00    +0.141 N  
DOCKED: ATOM     16  C   UNL     1     -49.555 -30.511   9.468 -0.04 +0.00    +0.285 C  
DOCKED: ATOM     17  C   UNL     1     -47.552 -30.826   8.179 -0.07 +0.00    +0.285 C  
DOCKED: ENDBRANCH  14  15
DOCKED: ENDBRANCH  13  14
DOCKED: ENDBRANCH  12  13
DOCKED: ENDBRANCH   2  12
DOCKED: BRANCH   2  18
DOCKED: ATOM     18  C   UNL     1     -53.585 -32.460   8.692 -0.10 +0.00    +0.006 A  
DOCKED: ATOM     19  C   UNL     1     -54.627 -31.627   8.285 -0.11 +0.00    +0.001 A  
DOCKED: ATOM     20  C   UNL     1     -55.689 -31.366   9.151 -0.06 +0.00    +0.029 A  
DOCKED: ATOM     21  C   UNL     1     -55.708 -31.937  10.423 -0.01 +0.00    +0.140 A  
DOCKED: ATOM     22  C   UNL     1     -54.666 -32.770  10.830 -0.05 +0.00    +0.029 A  
DOCKED: ATOM     23  F   UNL     1     -56.728 -31.687  11.254 +0.01 -0.00    -0.204 F  
DOCKED: ATOM     24  C   UNL     1     -53.603 -33.031   9.964 -0.10 +0.00    +0.001 A  
DOCKED: ENDBRANCH   2  18
DOCKED: TORSDOF 5
DOCKED: TER
DOCKED: ENDMDL
________________________________________________________________________________


    FINAL DOCKED STATE:
    ________________________


Run:   183 / 512
Time taken for this run:   0.001s

DOCKED: MODEL        183
DOCKED: USER    Run = 183
DOCKED: USER
DOCKED: USER    Estimated Free Energy of Binding    =  -4.59 kcal/mol  [=(1)+(2)+(3)-(4)]
DOCKED: USER
DOCKED: USER    (1) Final Intermolecular Energy     =  -6.08 kcal/mol
DOCKED: USER        vdW + Hbond + desolv Energy     =  -6.08 kcal/mol
DOCKED: USER        Electrostatic Energy            =  +0.00 kcal/mol
DOCKED: USER        Moving Ligand-Fixed Receptor    =  -6.08 kcal/mol
DOCKED: USER        Moving Ligand-Moving Receptor   =  +0.00 kcal/mol
DOCKED: USER    (2) Final Total Internal Energy     =  -1.41 kcal/mol
DOCKED: USER    (3) Torsional Free Energy           =  +1.49 kcal/mol
DOCKED: USER    (4) Unbound System's Energy         =  -1.41 kcal/mol
DOCKED: USER
DOCKED: USER
DOCKED: REMARK  5 active torsions:
DOCKED: REMARK  status: ('A' for Active; 'I' for Inactive)
DOCKED: REMARK    1  A    between atoms: C_2  and  C_19 
DOCKED: REMARK    2  A    between atoms: C_2  and  C_11 
DOCKED: REMARK    3  A    between atoms: C_19  and  C_20 
DOCKED: REMARK    4  A    between atoms: C_20  and  C_21 
DOCKED: REMARK    5  A    between atoms: C_21  and  N_22 
DOCKED: USER                              x       y       z     vdW  Elec       q    Type
DOCKED: USER                           _______ _______ _______ _____ _____    ______ ____
DOCKED: ROOT
DOCKED: ATOM      1  O   UNL     1     -54.867 -33.938   9.169 -0.04 -0.00    -0.346 OA 
DOCKED: ATOM      2  C   UNL     1     -53.851 -32.903   8.975 -0.10 +0.00    +0.130 C  
DOCKED: ATOM      3  C   UNL     1     -53.594 -32.924   7.496 -0.19 +0.00    +0.004 A  
DOCKED: ATOM      4  C   UNL     1     -54.465 -33.814   6.884 -0.24 +0.00    +0.006 A  
DOCKED: ATOM      5  C   UNL     1     -55.354 -34.425   7.897 -0.14 +0.00    +0.169 C  
DOCKED: ATOM      6  C   UNL     1     -52.672 -32.204   6.751 -0.28 -0.00    -0.001 A  
DOCKED: ATOM      7  C   UNL     1     -54.441 -34.018   5.515 -0.35 +0.00    +0.008 A  
DOCKED: ATOM      8  C   UNL     1     -52.632 -32.402   5.370 -0.36 +0.00    +0.010 A  
DOCKED: ATOM      9  C   UNL     1     -53.513 -33.304   4.755 -0.35 +0.00    +0.068 A  
DOCKED: ATOM     10  N   UNL     1     -53.417 -33.644   2.188 -2.06 -0.00    -0.191 NA 
DOCKED: ATOM     11  C   UNL     1     -53.460 -33.492   3.340 -0.47 +0.00    +0.101 C  
DOCKED: ENDROOT
DOCKED: BRANCH   2  12
DOCKED: ATOM     12  C   UNL     1     -54.418 -31.574   9.460 -0.07 +0.00    +0.038 C  
DOCKED: BRANCH  12  13
DOCKED: ATOM     13  C   UNL     1     -55.943 -31.617   9.546 -0.08 +0.00    +0.038 C  
DOCKED: BRANCH  13  14
DOCKED: ATOM     14  C   UNL     1     -56.572 -30.513   8.697 -0.04 +0.00    +0.251 C  
DOCKED: BRANCH  14  15
DOCKED: ATOM     15  N   UNL     1     -55.979 -30.498   7.365 -0.16 +0.00    +0.141 N  
DOCKED: ATOM     16  C   UNL     1     -56.695 -31.410   6.471 -0.14 +0.00    +0.285 C  
DOCKED: ATOM     17  C   UNL     1     -55.982 -29.142   6.815 -0.14 +0.00    +0.285 C  
DOCKED: ENDBRANCH  14  15
DOCKED: ENDBRANCH  13  14
DOCKED: ENDBRANCH  12  13
DOCKED: ENDBRANCH   2  12
DOCKED: BRANCH   2  18
DOCKED: ATOM     18  C   UNL     1     -52.660 -33.305   9.779 -0.14 +0.00    +0.006 A  
DOCKED: ATOM     19  C   UNL     1     -51.580 -32.433   9.909 -0.10 +0.00    +0.001 A  
DOCKED: ATOM     20  C   UNL     1     -50.466 -32.810  10.660 -0.11 +0.00    +0.029 A  
DOCKED: ATOM     21  C   UNL     1     -50.434 -34.059  11.279 -0.08 +0.00    +0.140 A  
DOCKED: ATOM     22  C   UNL     1     -51.514 -34.931  11.149 -0.24 +0.00    +0.029 A  
DOCKED: ATOM     23  F   UNL     1     -49.365 -34.420  12.002 -0.06 -0.00    -0.204 F  
DOCKED: ATOM     24  C   UNL     1     -52.629 -34.554  10.397 -0.17 +0.00    +0.001 A  
DOCKED: ENDBRANCH   2  18
DOCKED: TORSDOF 5
DOCKED: TER
DOCKED: ENDMDL
________________________________________________________________________________


    FINAL DOCKED STATE:
    ________________________


Run:   184 / 512
Time taken for this run:   0.001s

DOCKED: MODEL        184
DOCKED: USER    Run = 184
DOCKED: USER
DOCKED: USER    Estimated Free Energy of Binding    =  -2.87 kcal/mol  [=(1)+(2)+(3)-(4)]
DOCKED: USER
DOCKED: USER    (1) Final Intermolecular Energy     =  -4.36 kcal/mol
DOCKED: USER        vdW + Hbond + desolv Energy     =  -4.36 kcal/mol
DOCKED: USER        Electrostatic Energy            =  +0.00 kcal/mol
DOCKED: USER        Moving Ligand-Fixed Receptor    =  -4.36 kcal/mol
DOCKED: USER        Moving Ligand-Moving Receptor   =  +0.00 kcal/mol
DOCKED: USER    (2) Final Total Internal Energy     =  -1.56 kcal/mol
DOCKED: USER    (3) Torsional Free Energy           =  +1.49 kcal/mol
DOCKED: USER    (4) Unbound System's Energy         =  -1.56 kcal/mol
DOCKED: USER
DOCKED: USER
DOCKED: REMARK  5 active torsions:
DOCKED: REMARK  status: ('A' for Active; 'I' for Inactive)
DOCKED: REMARK    1  A    between atoms: C_2  and  C_19 
DOCKED: REMARK    2  A    between atoms: C_2  and  C_11 
DOCKED: REMARK    3  A    between atoms: C_19  and  C_20 
DOCKED: REMARK    4  A    between atoms: C_20  and  C_21 
DOCKED: REMARK    5  A    between atoms: C_21  and  N_22 
DOCKED: USER                              x       y       z     vdW  Elec       q    Type
DOCKED: USER                           _______ _______ _______ _____ _____    ______ ____
DOCKED: ROOT
DOCKED: ATOM      1  O   UNL     1     -49.936 -15.527   2.696 -0.02 -0.00    -0.346 OA 
DOCKED: ATOM      2  C   UNL     1     -50.451 -15.108   1.392 -0.09 +0.00    +0.130 C  
DOCKED: ATOM      3  C   UNL     1     -51.875 -15.584   1.399 -0.15 +0.00    +0.004 A  
DOCKED: ATOM      4  C   UNL     1     -52.180 -16.127   2.638 -0.12 +0.00    +0.006 A  
DOCKED: ATOM      5  C   UNL     1     -51.002 -16.039   3.529 -0.07 +0.00    +0.169 C  
DOCKED: ATOM      6  C   UNL     1     -52.828 -15.529   0.392 -0.20 -0.00    -0.001 A  
DOCKED: ATOM      7  C   UNL     1     -53.438 -16.636   2.912 -0.13 +0.00    +0.008 A  
DOCKED: ATOM      8  C   UNL     1     -54.100 -16.042   0.651 -0.22 +0.00    +0.010 A  
DOCKED: ATOM      9  C   UNL     1     -54.403 -16.592   1.905 -0.16 +0.00    +0.068 A  
DOCKED: ATOM     10  N   UNL     1     -56.776 -17.531   2.355 -1.83 -0.00    -0.191 NA 
DOCKED: ATOM     11  C   UNL     1     -55.712 -17.111   2.153 -0.09 +0.00    +0.101 C  
DOCKED: ENDROOT
DOCKED: BRANCH   2  12
DOCKED: ATOM     12  C   UNL     1     -50.332 -13.592   1.290 -0.04 +0.00    +0.038 C  
DOCKED: BRANCH  12  13
DOCKED: ATOM     13  C   UNL     1     -49.352 -13.040   2.323 -0.01 +0.00    +0.038 C  
DOCKED: BRANCH  13  14
DOCKED: ATOM     14  C   UNL     1     -47.916 -13.099   1.804 -0.00 +0.00    +0.251 C  
DOCKED: BRANCH  14  15
DOCKED: ATOM     15  N   UNL     1     -47.072 -13.846   2.729 -0.01 +0.00    +0.141 N  
DOCKED: ATOM     16  C   UNL     1     -47.778 -14.090   3.988 -0.00 +0.00    +0.285 C  
DOCKED: ATOM     17  C   UNL     1     -46.647 -15.112   2.132 -0.01 +0.00    +0.285 C  
DOCKED: ENDBRANCH  14  15
DOCKED: ENDBRANCH  13  14
DOCKED: ENDBRANCH  12  13
DOCKED: ENDBRANCH   2  12
DOCKED: BRANCH   2  18
DOCKED: ATOM     18  C   UNL     1     -49.617 -15.784   0.356 -0.18 +0.00    +0.006 A  
DOCKED: ATOM     19  C   UNL     1     -49.181 -15.072  -0.761 -0.18 +0.00    +0.001 A  
DOCKED: ATOM     20  C   UNL     1     -48.401 -15.706  -1.729 -0.15 +0.00    +0.029 A  
DOCKED: ATOM     21  C   UNL     1     -48.059 -17.049  -1.580 -0.18 +0.00    +0.140 A  
DOCKED: ATOM     22  C   UNL     1     -48.496 -17.760  -0.463 -0.31 +0.00    +0.029 A  
DOCKED: ATOM     23  F   UNL     1     -47.309 -17.656  -2.509 -0.04 -0.00    -0.204 F  
DOCKED: ATOM     24  C   UNL     1     -49.276 -17.128   0.506 -0.16 +0.00    +0.001 A  
DOCKED: ENDBRANCH   2  18
DOCKED: TORSDOF 5
DOCKED: TER
DOCKED: ENDMDL
________________________________________________________________________________


    FINAL DOCKED STATE:
    ________________________


Run:   185 / 512
Time taken for this run:   0.001s

DOCKED: MODEL        185
DOCKED: USER    Run = 185
DOCKED: USER
DOCKED: USER    Estimated Free Energy of Binding    =  -3.59 kcal/mol  [=(1)+(2)+(3)-(4)]
DOCKED: USER
DOCKED: USER    (1) Final Intermolecular Energy     =  -5.08 kcal/mol
DOCKED: USER        vdW + Hbond + desolv Energy     =  -5.08 kcal/mol
DOCKED: USER        Electrostatic Energy            =  +0.00 kcal/mol
DOCKED: USER        Moving Ligand-Fixed Receptor    =  -5.08 kcal/mol
DOCKED: USER        Moving Ligand-Moving Receptor   =  +0.00 kcal/mol
DOCKED: USER    (2) Final Total Internal Energy     =  -1.35 kcal/mol
DOCKED: USER    (3) Torsional Free Energy           =  +1.49 kcal/mol
DOCKED: USER    (4) Unbound System's Energy         =  -1.35 kcal/mol
DOCKED: USER
DOCKED: USER
DOCKED: REMARK  5 active torsions:
DOCKED: REMARK  status: ('A' for Active; 'I' for Inactive)
DOCKED: REMARK    1  A    between atoms: C_2  and  C_19 
DOCKED: REMARK    2  A    between atoms: C_2  and  C_11 
DOCKED: REMARK    3  A    between atoms: C_19  and  C_20 
DOCKED: REMARK    4  A    between atoms: C_20  and  C_21 
DOCKED: REMARK    5  A    between atoms: C_21  and  N_22 
DOCKED: USER                              x       y       z     vdW  Elec       q    Type
DOCKED: USER                           _______ _______ _______ _____ _____    ______ ____
DOCKED: ROOT
DOCKED: ATOM      1  O   UNL     1     -43.087 -31.765  -0.957 +0.01 -0.00    -0.346 OA 
DOCKED: ATOM      2  C   UNL     1     -44.315 -31.058  -0.592 -0.07 +0.00    +0.130 C  
DOCKED: ATOM      3  C   UNL     1     -45.001 -31.997   0.358 -0.13 +0.00    +0.004 A  
DOCKED: ATOM      4  C   UNL     1     -44.186 -33.093   0.601 -0.11 +0.00    +0.006 A  
DOCKED: ATOM      5  C   UNL     1     -42.918 -32.953  -0.149 -0.03 +0.00    +0.169 C  
DOCKED: ATOM      6  C   UNL     1     -46.242 -31.884   0.967 -0.20 -0.00    -0.001 A  
DOCKED: ATOM      7  C   UNL     1     -44.582 -34.111   1.452 -0.19 +0.00    +0.008 A  
DOCKED: ATOM      8  C   UNL     1     -46.658 -32.904   1.825 -0.33 +0.00    +0.010 A  
DOCKED: ATOM      9  C   UNL     1     -45.831 -34.012   2.066 -0.30 +0.00    +0.068 A  
DOCKED: ATOM     10  N   UNL     1     -46.630 -35.885   3.668 -2.19 -0.00    -0.191 NA 
DOCKED: ATOM     11  C   UNL     1     -46.272 -35.045   2.949 -0.39 +0.00    +0.101 C  
DOCKED: ENDROOT
DOCKED: BRANCH   2  12
DOCKED: ATOM     12  C   UNL     1     -43.935 -29.732   0.056 -0.03 +0.00    +0.038 C  
DOCKED: BRANCH  12  13
DOCKED: ATOM     13  C   UNL     1     -43.473 -28.715  -0.986 -0.01 +0.00    +0.038 C  
DOCKED: BRANCH  13  14
DOCKED: ATOM     14  C   UNL     1     -42.051 -28.238  -0.696 -0.00 +0.00    +0.251 C  
DOCKED: BRANCH  14  15
DOCKED: ATOM     15  N   UNL     1     -41.081 -29.092  -1.372 -0.00 +0.00    +0.141 N  
DOCKED: ATOM     16  C   UNL     1     -40.654 -30.183  -0.496 +0.00 +0.00    +0.285 C  
DOCKED: ATOM     17  C   UNL     1     -41.643 -29.627  -2.613 +0.00 +0.00    +0.285 C  
DOCKED: ENDBRANCH  14  15
DOCKED: ENDBRANCH  13  14
DOCKED: ENDBRANCH  12  13
DOCKED: ENDBRANCH   2  12
DOCKED: BRANCH   2  18
DOCKED: ATOM     18  C   UNL     1     -45.084 -30.841  -1.852 -0.13 +0.00    +0.006 A  
DOCKED: ATOM     19  C   UNL     1     -44.746 -31.548  -3.005 -0.14 +0.00    +0.001 A  
DOCKED: ATOM     20  C   UNL     1     -45.466 -31.343  -4.183 -0.17 +0.00    +0.029 A  
DOCKED: ATOM     21  C   UNL     1     -46.522 -30.434  -4.206 -0.20 +0.00    +0.140 A  
DOCKED: ATOM     22  C   UNL     1     -46.860 -29.727  -3.052 -0.17 +0.00    +0.029 A  
DOCKED: ATOM     23  F   UNL     1     -47.214 -30.239  -5.336 -0.12 -0.00    -0.204 F  
DOCKED: ATOM     24  C   UNL     1     -46.140 -29.930  -1.873 -0.18 +0.00    +0.001 A  
DOCKED: ENDBRANCH   2  18
DOCKED: TORSDOF 5
DOCKED: TER
DOCKED: ENDMDL
________________________________________________________________________________


    FINAL DOCKED STATE:
    ________________________


Run:   186 / 512
Time taken for this run:   0.001s

DOCKED: MODEL        186
DOCKED: USER    Run = 186
DOCKED: USER
DOCKED: USER    Estimated Free Energy of Binding    =  -4.28 kcal/mol  [=(1)+(2)+(3)-(4)]
DOCKED: USER
DOCKED: USER    (1) Final Intermolecular Energy     =  -5.78 kcal/mol
DOCKED: USER        vdW + Hbond + desolv Energy     =  -5.78 kcal/mol
DOCKED: USER        Electrostatic Energy            =  +0.00 kcal/mol
DOCKED: USER        Moving Ligand-Fixed Receptor    =  -5.78 kcal/mol
DOCKED: USER        Moving Ligand-Moving Receptor   =  +0.00 kcal/mol
DOCKED: USER    (2) Final Total Internal Energy     =  -1.39 kcal/mol
DOCKED: USER    (3) Torsional Free Energy           =  +1.49 kcal/mol
DOCKED: USER    (4) Unbound System's Energy         =  -1.39 kcal/mol
DOCKED: USER
DOCKED: USER
DOCKED: REMARK  5 active torsions:
DOCKED: REMARK  status: ('A' for Active; 'I' for Inactive)
DOCKED: REMARK    1  A    between atoms: C_2  and  C_19 
DOCKED: REMARK    2  A    between atoms: C_2  and  C_11 
DOCKED: REMARK    3  A    between atoms: C_19  and  C_20 
DOCKED: REMARK    4  A    between atoms: C_20  and  C_21 
DOCKED: REMARK    5  A    between atoms: C_21  and  N_22 
DOCKED: USER                              x       y       z     vdW  Elec       q    Type
DOCKED: USER                           _______ _______ _______ _____ _____    ______ ____
DOCKED: ROOT
DOCKED: ATOM      1  O   UNL     1     -48.875 -25.146   0.779 -0.07 -0.00    -0.346 OA 
DOCKED: ATOM      2  C   UNL     1     -47.689 -25.081  -0.076 -0.13 +0.00    +0.130 C  
DOCKED: ATOM      3  C   UNL     1     -48.182 -24.406  -1.323 -0.22 +0.00    +0.004 A  
DOCKED: ATOM      4  C   UNL     1     -49.503 -24.019  -1.154 -0.23 +0.00    +0.006 A  
DOCKED: ATOM      5  C   UNL     1     -49.967 -24.393   0.201 -0.23 +0.00    +0.169 C  
DOCKED: ATOM      6  C   UNL     1     -47.510 -24.144  -2.508 -0.18 -0.00    -0.001 A  
DOCKED: ATOM      7  C   UNL     1     -50.197 -23.365  -2.158 -0.31 +0.00    +0.008 A  
DOCKED: ATOM      8  C   UNL     1     -48.197 -23.490  -3.532 -0.24 +0.00    +0.010 A  
DOCKED: ATOM      9  C   UNL     1     -49.534 -23.103  -3.357 -0.28 +0.00    +0.068 A  
DOCKED: ATOM     10  N   UNL     1     -50.779 -21.886  -5.276 -2.49 -0.00    -0.191 NA 
DOCKED: ATOM     11  C   UNL     1     -50.221 -22.432  -4.416 -0.37 +0.00    +0.101 C  
DOCKED: ENDROOT
DOCKED: BRANCH   2  12
DOCKED: ATOM     12  C   UNL     1     -46.615 -24.278   0.649 -0.14 +0.00    +0.038 C  
DOCKED: BRANCH  12  13
DOCKED: ATOM     13  C   UNL     1     -47.066 -23.886   2.054 -0.12 +0.00    +0.038 C  
DOCKED: BRANCH  13  14
DOCKED: ATOM     14  C   UNL     1     -46.233 -24.600   3.118 -0.06 +0.00    +0.251 C  
DOCKED: BRANCH  14  15
DOCKED: ATOM     15  N   UNL     1     -45.354 -25.584   2.497 -0.02 +0.00    +0.141 N  
DOCKED: ATOM     16  C   UNL     1     -43.953 -25.182   2.631 -0.01 +0.00    +0.285 C  
DOCKED: ATOM     17  C   UNL     1     -45.562 -26.906   3.090 -0.01 +0.00    +0.285 C  
DOCKED: ENDBRANCH  14  15
DOCKED: ENDBRANCH  13  14
DOCKED: ENDBRANCH  12  13
DOCKED: ENDBRANCH   2  12
DOCKED: BRANCH   2  18
DOCKED: ATOM     18  C   UNL     1     -47.244 -26.486  -0.312 -0.09 +0.00    +0.006 A  
DOCKED: ATOM     19  C   UNL     1     -48.177 -27.522  -0.309 -0.18 +0.00    +0.001 A  
DOCKED: ATOM     20  C   UNL     1     -47.760 -28.835  -0.530 -0.12 +0.00    +0.029 A  
DOCKED: ATOM     21  C   UNL     1     -46.412 -29.110  -0.753 -0.13 +0.00    +0.140 A  
DOCKED: ATOM     22  C   UNL     1     -45.479 -28.073  -0.756 -0.04 +0.00    +0.029 A  
DOCKED: ATOM     23  F   UNL     1     -46.012 -30.370  -0.967 -0.06 -0.00    -0.204 F  
DOCKED: ATOM     24  C   UNL     1     -45.895 -26.759  -0.535 -0.03 +0.00    +0.001 A  
DOCKED: ENDBRANCH   2  18
DOCKED: TORSDOF 5
DOCKED: TER
DOCKED: ENDMDL
________________________________________________________________________________


    FINAL DOCKED STATE:
    ________________________


Run:   187 / 512
Time taken for this run:   0.001s

DOCKED: MODEL        187
DOCKED: USER    Run = 187
DOCKED: USER
DOCKED: USER    Estimated Free Energy of Binding    =  -3.63 kcal/mol  [=(1)+(2)+(3)-(4)]
DOCKED: USER
DOCKED: USER    (1) Final Intermolecular Energy     =  -5.12 kcal/mol
DOCKED: USER        vdW + Hbond + desolv Energy     =  -5.12 kcal/mol
DOCKED: USER        Electrostatic Energy            =  +0.00 kcal/mol
DOCKED: USER        Moving Ligand-Fixed Receptor    =  -5.12 kcal/mol
DOCKED: USER        Moving Ligand-Moving Receptor   =  +0.00 kcal/mol
DOCKED: USER    (2) Final Total Internal Energy     =  -1.23 kcal/mol
DOCKED: USER    (3) Torsional Free Energy           =  +1.49 kcal/mol
DOCKED: USER    (4) Unbound System's Energy         =  -1.23 kcal/mol
DOCKED: USER
DOCKED: USER
DOCKED: REMARK  5 active torsions:
DOCKED: REMARK  status: ('A' for Active; 'I' for Inactive)
DOCKED: REMARK    1  A    between atoms: C_2  and  C_19 
DOCKED: REMARK    2  A    between atoms: C_2  and  C_11 
DOCKED: REMARK    3  A    between atoms: C_19  and  C_20 
DOCKED: REMARK    4  A    between atoms: C_20  and  C_21 
DOCKED: REMARK    5  A    between atoms: C_21  and  N_22 
DOCKED: USER                              x       y       z     vdW  Elec       q    Type
DOCKED: USER                           _______ _______ _______ _____ _____    ______ ____
DOCKED: ROOT
DOCKED: ATOM      1  O   UNL     1     -47.911 -29.604   1.260 -0.07 -0.00    -0.346 OA 
DOCKED: ATOM      2  C   UNL     1     -46.862 -29.397   2.260 -0.14 +0.00    +0.130 C  
DOCKED: ATOM      3  C   UNL     1     -46.492 -30.788   2.686 -0.20 +0.00    +0.004 A  
DOCKED: ATOM      4  C   UNL     1     -47.188 -31.712   1.919 -0.28 +0.00    +0.006 A  
DOCKED: ATOM      5  C   UNL     1     -48.044 -31.008   0.938 -0.15 +0.00    +0.169 C  
DOCKED: ATOM      6  C   UNL     1     -45.603 -31.204   3.666 -0.16 -0.00    -0.001 A  
DOCKED: ATOM      7  C   UNL     1     -47.023 -33.074   2.105 -0.24 +0.00    +0.008 A  
DOCKED: ATOM      8  C   UNL     1     -45.429 -32.574   3.870 -0.20 +0.00    +0.010 A  
DOCKED: ATOM      9  C   UNL     1     -46.136 -33.504   3.093 -0.22 +0.00    +0.068 A  
DOCKED: ATOM     10  N   UNL     1     -45.786 -36.040   3.493 -1.92 -0.00    -0.191 NA 
DOCKED: ATOM     11  C   UNL     1     -45.943 -34.902   3.314 -0.40 +0.00    +0.101 C  
DOCKED: ENDROOT
DOCKED: BRANCH   2  12
DOCKED: ATOM     12  C   UNL     1     -45.708 -28.651   1.602 -0.05 +0.00    +0.038 C  
DOCKED: BRANCH  12  13
DOCKED: ATOM     13  C   UNL     1     -44.923 -29.560   0.658 -0.05 +0.00    +0.038 C  
DOCKED: BRANCH  13  14
DOCKED: ATOM     14  C   UNL     1     -44.997 -29.052  -0.781 -0.04 +0.00    +0.251 C  
DOCKED: BRANCH  14  15
DOCKED: ATOM     15  N   UNL     1     -45.901 -29.883  -1.567 -0.15 +0.00    +0.141 N  
DOCKED: ATOM     16  C   UNL     1     -46.543 -29.094  -2.620 -0.17 +0.00    +0.285 C  
DOCKED: ATOM     17  C   UNL     1     -45.184 -31.019  -2.149 -0.10 +0.00    +0.285 C  
DOCKED: ENDBRANCH  14  15
DOCKED: ENDBRANCH  13  14
DOCKED: ENDBRANCH  12  13
DOCKED: ENDBRANCH   2  12
DOCKED: BRANCH   2  18
DOCKED: ATOM     18  C   UNL     1     -47.464 -28.592   3.363 -0.13 +0.00    +0.006 A  
DOCKED: ATOM     19  C   UNL     1     -48.667 -27.919   3.158 -0.13 +0.00    +0.001 A  
DOCKED: ATOM     20  C   UNL     1     -49.229 -27.166   4.190 -0.09 +0.00    +0.029 A  
DOCKED: ATOM     21  C   UNL     1     -48.587 -27.088   5.425 -0.06 +0.00    +0.140 A  
DOCKED: ATOM     22  C   UNL     1     -47.384 -27.762   5.630 -0.07 +0.00    +0.029 A  
DOCKED: ATOM     23  F   UNL     1     -49.127 -26.367   6.416 -0.00 -0.00    -0.204 F  
DOCKED: ATOM     24  C   UNL     1     -46.821 -28.515   4.598 -0.10 +0.00    +0.001 A  
DOCKED: ENDBRANCH   2  18
DOCKED: TORSDOF 5
DOCKED: TER
DOCKED: ENDMDL
________________________________________________________________________________


    FINAL DOCKED STATE:
    ________________________


Run:   188 / 512
Time taken for this run:   0.001s

DOCKED: MODEL        188
DOCKED: USER    Run = 188
DOCKED: USER
DOCKED: USER    Estimated Free Energy of Binding    =  -4.82 kcal/mol  [=(1)+(2)+(3)-(4)]
DOCKED: USER
DOCKED: USER    (1) Final Intermolecular Energy     =  -6.31 kcal/mol
DOCKED: USER        vdW + Hbond + desolv Energy     =  -6.31 kcal/mol
DOCKED: USER        Electrostatic Energy            =  +0.00 kcal/mol
DOCKED: USER        Moving Ligand-Fixed Receptor    =  -6.31 kcal/mol
DOCKED: USER        Moving Ligand-Moving Receptor   =  +0.00 kcal/mol
DOCKED: USER    (2) Final Total Internal Energy     =  -1.52 kcal/mol
DOCKED: USER    (3) Torsional Free Energy           =  +1.49 kcal/mol
DOCKED: USER    (4) Unbound System's Energy         =  -1.52 kcal/mol
DOCKED: USER
DOCKED: USER
DOCKED: REMARK  5 active torsions:
DOCKED: REMARK  status: ('A' for Active; 'I' for Inactive)
DOCKED: REMARK    1  A    between atoms: C_2  and  C_19 
DOCKED: REMARK    2  A    between atoms: C_2  and  C_11 
DOCKED: REMARK    3  A    between atoms: C_19  and  C_20 
DOCKED: REMARK    4  A    between atoms: C_20  and  C_21 
DOCKED: REMARK    5  A    between atoms: C_21  and  N_22 
DOCKED: USER                              x       y       z     vdW  Elec       q    Type
DOCKED: USER                           _______ _______ _______ _____ _____    ______ ____
DOCKED: ROOT
DOCKED: ATOM      1  O   UNL     1     -51.004 -34.070   8.856 -0.08 -0.00    -0.346 OA 
DOCKED: ATOM      2  C   UNL     1     -51.268 -32.681   8.480 -0.18 +0.00    +0.130 C  
DOCKED: ATOM      3  C   UNL     1     -51.785 -32.782   7.073 -0.29 +0.00    +0.004 A  
DOCKED: ATOM      4  C   UNL     1     -51.910 -34.117   6.716 -0.38 +0.00    +0.006 A  
DOCKED: ATOM      5  C   UNL     1     -51.504 -34.980   7.848 -0.16 +0.00    +0.169 C  
DOCKED: ATOM      6  C   UNL     1     -52.127 -31.773   6.185 -0.32 -0.00    -0.001 A  
DOCKED: ATOM      7  C   UNL     1     -52.375 -34.488   5.466 -0.44 +0.00    +0.008 A  
DOCKED: ATOM      8  C   UNL     1     -52.593 -32.131   4.919 -0.20 +0.00    +0.010 A  
DOCKED: ATOM      9  C   UNL     1     -52.717 -33.482   4.562 -0.39 +0.00    +0.068 A  
DOCKED: ATOM     10  N   UNL     1     -53.590 -34.112   2.205 -2.10 -0.00    -0.191 NA 
DOCKED: ATOM     11  C   UNL     1     -53.198 -33.829   3.262 -0.51 +0.00    +0.101 C  
DOCKED: ENDROOT
DOCKED: BRANCH   2  12
DOCKED: ATOM     12  C   UNL     1     -52.294 -32.105   9.449 -0.10 +0.00    +0.038 C  
DOCKED: BRANCH  12  13
DOCKED: ATOM     13  C   UNL     1     -52.362 -32.921  10.738 -0.10 +0.00    +0.038 C  
DOCKED: BRANCH  13  14
DOCKED: ATOM     14  C   UNL     1     -51.228 -32.543  11.688 -0.04 +0.00    +0.251 C  
DOCKED: BRANCH  14  15
DOCKED: ATOM     15  N   UNL     1     -50.694 -33.733  12.340 -0.09 +0.00    +0.141 N  
DOCKED: ATOM     16  C   UNL     1     -51.564 -34.886  12.103 -0.15 +0.00    +0.285 C  
DOCKED: ATOM     17  C   UNL     1     -49.338 -34.014  11.868 -0.06 +0.00    +0.285 C  
DOCKED: ENDBRANCH  14  15
DOCKED: ENDBRANCH  13  14
DOCKED: ENDBRANCH  12  13
DOCKED: ENDBRANCH   2  12
DOCKED: BRANCH   2  18
DOCKED: ATOM     18  C   UNL     1     -49.971 -31.950   8.571 -0.18 +0.00    +0.006 A  
DOCKED: ATOM     19  C   UNL     1     -49.956 -30.597   8.910 -0.09 +0.00    +0.001 A  
DOCKED: ATOM     20  C   UNL     1     -48.742 -29.914   8.995 -0.06 +0.00    +0.029 A  
DOCKED: ATOM     21  C   UNL     1     -47.546 -30.585   8.743 -0.07 +0.00    +0.140 A  
DOCKED: ATOM     22  C   UNL     1     -47.562 -31.937   8.405 -0.15 +0.00    +0.029 A  
DOCKED: ATOM     23  F   UNL     1     -46.381 -29.929   8.826 -0.00 -0.00    -0.204 F  
DOCKED: ATOM     24  C   UNL     1     -48.775 -32.621   8.318 -0.15 +0.00    +0.001 A  
DOCKED: ENDBRANCH   2  18
DOCKED: TORSDOF 5
DOCKED: TER
DOCKED: ENDMDL
________________________________________________________________________________


    FINAL DOCKED STATE:
    ________________________


Run:   189 / 512
Time taken for this run:   0.001s

DOCKED: MODEL        189
DOCKED: USER    Run = 189
DOCKED: USER
DOCKED: USER    Estimated Free Energy of Binding    =  -5.57 kcal/mol  [=(1)+(2)+(3)-(4)]
DOCKED: USER
DOCKED: USER    (1) Final Intermolecular Energy     =  -7.06 kcal/mol
DOCKED: USER        vdW + Hbond + desolv Energy     =  -7.06 kcal/mol
DOCKED: USER        Electrostatic Energy            =  +0.00 kcal/mol
DOCKED: USER        Moving Ligand-Fixed Receptor    =  -7.06 kcal/mol
DOCKED: USER        Moving Ligand-Moving Receptor   =  +0.00 kcal/mol
DOCKED: USER    (2) Final Total Internal Energy     =  -1.05 kcal/mol
DOCKED: USER    (3) Torsional Free Energy           =  +1.49 kcal/mol
DOCKED: USER    (4) Unbound System's Energy         =  -1.05 kcal/mol
DOCKED: USER
DOCKED: USER
DOCKED: REMARK  5 active torsions:
DOCKED: REMARK  status: ('A' for Active; 'I' for Inactive)
DOCKED: REMARK    1  A    between atoms: C_2  and  C_19 
DOCKED: REMARK    2  A    between atoms: C_2  and  C_11 
DOCKED: REMARK    3  A    between atoms: C_19  and  C_20 
DOCKED: REMARK    4  A    between atoms: C_20  and  C_21 
DOCKED: REMARK    5  A    between atoms: C_21  and  N_22 
DOCKED: USER                              x       y       z     vdW  Elec       q    Type
DOCKED: USER                           _______ _______ _______ _____ _____    ______ ____
DOCKED: ROOT
DOCKED: ATOM      1  O   UNL     1     -51.976 -31.275   8.110 -0.03 -0.00    -0.346 OA 
DOCKED: ATOM      2  C   UNL     1     -51.495 -32.657   8.065 -0.20 +0.00    +0.130 C  
DOCKED: ATOM      3  C   UNL     1     -51.933 -33.147   6.715 -0.33 +0.00    +0.004 A  
DOCKED: ATOM      4  C   UNL     1     -52.514 -32.105   6.007 -0.33 +0.00    +0.006 A  
DOCKED: ATOM      5  C   UNL     1     -52.491 -30.869   6.820 -0.22 +0.00    +0.169 C  
DOCKED: ATOM      6  C   UNL     1     -51.815 -34.411   6.155 -0.41 -0.00    -0.001 A  
DOCKED: ATOM      7  C   UNL     1     -53.000 -32.290   4.723 +0.03 +0.00    +0.008 A  
DOCKED: ATOM      8  C   UNL     1     -52.304 -34.614   4.863 -0.46 +0.00    +0.010 A  
DOCKED: ATOM      9  C   UNL     1     -52.893 -33.558   4.151 -0.42 +0.00    +0.068 A  
DOCKED: ATOM     10  N   UNL     1     -53.785 -33.968   1.754 -2.81 -0.00    -0.191 NA 
DOCKED: ATOM     11  C   UNL     1     -53.386 -33.784   2.829 -0.45 +0.00    +0.101 C  
DOCKED: ENDROOT
DOCKED: BRANCH   2  12
DOCKED: ATOM     12  C   UNL     1     -49.980 -32.646   8.230 -0.25 +0.00    +0.038 C  
DOCKED: BRANCH  12  13
DOCKED: ATOM     13  C   UNL     1     -49.400 -31.258   7.962 -0.15 +0.00    +0.038 C  
DOCKED: BRANCH  13  14
DOCKED: ATOM     14  C   UNL     1     -47.902 -31.222   8.257 -0.08 +0.00    +0.251 C  
DOCKED: BRANCH  14  15
DOCKED: ATOM     15  N   UNL     1     -47.668 -31.229   9.696 -0.06 +0.00    +0.141 N  
DOCKED: ATOM     16  C   UNL     1     -48.764 -30.563  10.401 -0.02 +0.00    +0.285 C  
DOCKED: ATOM     17  C   UNL     1     -47.508 -32.599  10.186 -0.06 +0.00    +0.285 C  
DOCKED: ENDBRANCH  14  15
DOCKED: ENDBRANCH  13  14
DOCKED: ENDBRANCH  12  13
DOCKED: ENDBRANCH   2  12
DOCKED: BRANCH   2  18
DOCKED: ATOM     18  C   UNL     1     -52.153 -33.384   9.190 -0.17 +0.00    +0.006 A  
DOCKED: ATOM     19  C   UNL     1     -51.538 -33.438  10.440 -0.16 +0.00    +0.001 A  
DOCKED: ATOM     20  C   UNL     1     -52.155 -34.119  11.490 -0.16 +0.00    +0.029 A  
DOCKED: ATOM     21  C   UNL     1     -53.384 -34.744  11.290 -0.03 +0.00    +0.140 A  
DOCKED: ATOM     22  C   UNL     1     -53.999 -34.690  10.039 -0.07 +0.00    +0.029 A  
DOCKED: ATOM     23  F   UNL     1     -53.977 -35.396  12.299 -0.04 -0.00    -0.204 F  
DOCKED: ATOM     24  C   UNL     1     -53.383 -34.010   8.987 -0.20 +0.00    +0.001 A  
DOCKED: ENDBRANCH   2  18
DOCKED: TORSDOF 5
DOCKED: TER
DOCKED: ENDMDL
________________________________________________________________________________


    FINAL DOCKED STATE:
    ________________________


Run:   190 / 512
Time taken for this run:   0.001s

DOCKED: MODEL        190
DOCKED: USER    Run = 190
DOCKED: USER
DOCKED: USER    Estimated Free Energy of Binding    =  -4.31 kcal/mol  [=(1)+(2)+(3)-(4)]
DOCKED: USER
DOCKED: USER    (1) Final Intermolecular Energy     =  -5.80 kcal/mol
DOCKED: USER        vdW + Hbond + desolv Energy     =  -5.80 kcal/mol
DOCKED: USER        Electrostatic Energy            =  +0.00 kcal/mol
DOCKED: USER        Moving Ligand-Fixed Receptor    =  -5.80 kcal/mol
DOCKED: USER        Moving Ligand-Moving Receptor   =  +0.00 kcal/mol
DOCKED: USER    (2) Final Total Internal Energy     =  -1.48 kcal/mol
DOCKED: USER    (3) Torsional Free Energy           =  +1.49 kcal/mol
DOCKED: USER    (4) Unbound System's Energy         =  -1.48 kcal/mol
DOCKED: USER
DOCKED: USER
DOCKED: REMARK  5 active torsions:
DOCKED: REMARK  status: ('A' for Active; 'I' for Inactive)
DOCKED: REMARK    1  A    between atoms: C_2  and  C_19 
DOCKED: REMARK    2  A    between atoms: C_2  and  C_11 
DOCKED: REMARK    3  A    between atoms: C_19  and  C_20 
DOCKED: REMARK    4  A    between atoms: C_20  and  C_21 
DOCKED: REMARK    5  A    between atoms: C_21  and  N_22 
DOCKED: USER                              x       y       z     vdW  Elec       q    Type
DOCKED: USER                           _______ _______ _______ _____ _____    ______ ____
DOCKED: ROOT
DOCKED: ATOM      1  O   UNL     1     -49.399 -30.642   8.182 -0.07 -0.00    -0.346 OA 
DOCKED: ATOM      2  C   UNL     1     -50.654 -29.967   7.848 -0.13 +0.00    +0.130 C  
DOCKED: ATOM      3  C   UNL     1     -51.492 -31.050   7.232 -0.23 +0.00    +0.004 A  
DOCKED: ATOM      4  C   UNL     1     -50.819 -32.261   7.308 -0.25 +0.00    +0.006 A  
DOCKED: ATOM      5  C   UNL     1     -49.514 -32.070   7.981 -0.12 +0.00    +0.169 C  
DOCKED: ATOM      6  C   UNL     1     -52.753 -30.972   6.660 -0.26 -0.00    -0.001 A  
DOCKED: ATOM      7  C   UNL     1     -51.377 -33.428   6.815 -0.34 +0.00    +0.008 A  
DOCKED: ATOM      8  C   UNL     1     -53.328 -32.139   6.154 -0.29 +0.00    +0.010 A  
DOCKED: ATOM      9  C   UNL     1     -52.643 -33.361   6.232 -0.30 +0.00    +0.068 A  
DOCKED: ATOM     10  N   UNL     1     -53.741 -35.510   5.288 -2.53 -0.00    -0.191 NA 
DOCKED: ATOM     11  C   UNL     1     -53.248 -34.546   5.711 -0.31 +0.00    +0.101 C  
DOCKED: ENDROOT
DOCKED: BRANCH   2  12
DOCKED: ATOM     12  C   UNL     1     -51.258 -29.407   9.130 -0.05 +0.00    +0.038 C  
DOCKED: BRANCH  12  13
DOCKED: ATOM     13  C   UNL     1     -51.380 -30.484  10.205 -0.04 +0.00    +0.038 C  
DOCKED: BRANCH  13  14
DOCKED: ATOM     14  C   UNL     1     -52.829 -30.941  10.365 -0.01 +0.00    +0.251 C  
DOCKED: BRANCH  14  15
DOCKED: ATOM     15  N   UNL     1     -52.884 -32.376  10.616 -0.04 +0.00    +0.141 N  
DOCKED: ATOM     16  C   UNL     1     -53.662 -33.052   9.577 -0.04 +0.00    +0.285 C  
DOCKED: ATOM     17  C   UNL     1     -51.534 -32.939  10.686 -0.06 +0.00    +0.285 C  
DOCKED: ENDBRANCH  14  15
DOCKED: ENDBRANCH  13  14
DOCKED: ENDBRANCH  12  13
DOCKED: ENDBRANCH   2  12
DOCKED: BRANCH   2  18
DOCKED: ATOM     18  C   UNL     1     -50.319 -28.874   6.888 -0.16 +0.00    +0.006 A  
DOCKED: ATOM     19  C   UNL     1     -49.114 -28.907   6.188 -0.15 +0.00    +0.001 A  
DOCKED: ATOM     20  C   UNL     1     -48.802 -27.884   5.292 -0.12 +0.00    +0.029 A  
DOCKED: ATOM     21  C   UNL     1     -49.695 -26.832   5.096 -0.07 +0.00    +0.140 A  
DOCKED: ATOM     22  C   UNL     1     -50.901 -26.800   5.796 -0.10 +0.00    +0.029 A  
DOCKED: ATOM     23  F   UNL     1     -49.396 -25.851   4.234 -0.01 -0.00    -0.204 F  
DOCKED: ATOM     24  C   UNL     1     -51.213 -27.822   6.693 -0.13 +0.00    +0.001 A  
DOCKED: ENDBRANCH   2  18
DOCKED: TORSDOF 5
DOCKED: TER
DOCKED: ENDMDL
________________________________________________________________________________


    FINAL DOCKED STATE:
    ________________________


Run:   191 / 512
Time taken for this run:   0.001s

DOCKED: MODEL        191
DOCKED: USER    Run = 191
DOCKED: USER
DOCKED: USER    Estimated Free Energy of Binding    =  -3.77 kcal/mol  [=(1)+(2)+(3)-(4)]
DOCKED: USER
DOCKED: USER    (1) Final Intermolecular Energy     =  -5.26 kcal/mol
DOCKED: USER        vdW + Hbond + desolv Energy     =  -5.26 kcal/mol
DOCKED: USER        Electrostatic Energy            =  +0.00 kcal/mol
DOCKED: USER        Moving Ligand-Fixed Receptor    =  -5.26 kcal/mol
DOCKED: USER        Moving Ligand-Moving Receptor   =  +0.00 kcal/mol
DOCKED: USER    (2) Final Total Internal Energy     =  -1.44 kcal/mol
DOCKED: USER    (3) Torsional Free Energy           =  +1.49 kcal/mol
DOCKED: USER    (4) Unbound System's Energy         =  -1.44 kcal/mol
DOCKED: USER
DOCKED: USER
DOCKED: REMARK  5 active torsions:
DOCKED: REMARK  status: ('A' for Active; 'I' for Inactive)
DOCKED: REMARK    1  A    between atoms: C_2  and  C_19 
DOCKED: REMARK    2  A    between atoms: C_2  and  C_11 
DOCKED: REMARK    3  A    between atoms: C_19  and  C_20 
DOCKED: REMARK    4  A    between atoms: C_20  and  C_21 
DOCKED: REMARK    5  A    between atoms: C_21  and  N_22 
DOCKED: USER                              x       y       z     vdW  Elec       q    Type
DOCKED: USER                           _______ _______ _______ _____ _____    ______ ____
DOCKED: ROOT
DOCKED: ATOM      1  O   UNL     1     -46.739 -24.805  -0.362 -0.03 -0.00    -0.346 OA 
DOCKED: ATOM      2  C   UNL     1     -46.114 -25.092  -1.654 -0.05 +0.00    +0.130 C  
DOCKED: ATOM      3  C   UNL     1     -47.033 -24.445  -2.649 -0.13 +0.00    +0.004 A  
DOCKED: ATOM      4  C   UNL     1     -48.035 -23.755  -1.980 -0.22 +0.00    +0.006 A  
DOCKED: ATOM      5  C   UNL     1     -47.844 -23.884  -0.518 -0.06 +0.00    +0.169 C  
DOCKED: ATOM      6  C   UNL     1     -46.981 -24.456  -4.035 -0.15 -0.00    -0.001 A  
DOCKED: ATOM      7  C   UNL     1     -49.015 -23.061  -2.669 -0.33 +0.00    +0.008 A  
DOCKED: ATOM      8  C   UNL     1     -47.965 -23.765  -4.744 -0.20 +0.00    +0.010 A  
DOCKED: ATOM      9  C   UNL     1     -48.977 -23.070  -4.064 -0.25 +0.00    +0.068 A  
DOCKED: ATOM     10  N   UNL     1     -50.785 -21.793  -5.409 -2.52 -0.00    -0.191 NA 
DOCKED: ATOM     11  C   UNL     1     -49.974 -22.366  -4.806 -0.36 +0.00    +0.101 C  
DOCKED: ENDROOT
DOCKED: BRANCH   2  12
DOCKED: ATOM     12  C   UNL     1     -44.715 -24.487  -1.658 -0.02 +0.00    +0.038 C  
DOCKED: BRANCH  12  13
DOCKED: ATOM     13  C   UNL     1     -44.765 -22.966  -1.529 -0.06 +0.00    +0.038 C  
DOCKED: BRANCH  13  14
DOCKED: ATOM     14  C   UNL     1     -44.597 -22.293  -2.891 -0.01 +0.00    +0.251 C  
DOCKED: BRANCH  14  15
DOCKED: ATOM     15  N   UNL     1     -45.231 -20.980  -2.889 -0.06 +0.00    +0.141 N  
DOCKED: ATOM     16  C   UNL     1     -46.342 -20.941  -3.841 -0.04 +0.00    +0.285 C  
DOCKED: ATOM     17  C   UNL     1     -45.701 -20.636  -1.546 -0.10 +0.00    +0.285 C  
DOCKED: ENDBRANCH  14  15
DOCKED: ENDBRANCH  13  14
DOCKED: ENDBRANCH  12  13
DOCKED: ENDBRANCH   2  12
DOCKED: BRANCH   2  18
DOCKED: ATOM     18  C   UNL     1     -46.059 -26.576  -1.792 -0.05 +0.00    +0.006 A  
DOCKED: ATOM     19  C   UNL     1     -47.153 -27.352  -1.412 -0.15 +0.00    +0.001 A  
DOCKED: ATOM     20  C   UNL     1     -47.100 -28.741  -1.541 -0.19 +0.00    +0.029 A  
DOCKED: ATOM     21  C   UNL     1     -45.955 -29.351  -2.051 -0.14 +0.00    +0.140 A  
DOCKED: ATOM     22  C   UNL     1     -44.861 -28.574  -2.432 -0.04 +0.00    +0.029 A  
DOCKED: ATOM     23  F   UNL     1     -45.906 -30.683  -2.177 -0.08 -0.00    -0.204 F  
DOCKED: ATOM     24  C   UNL     1     -44.913 -27.185  -2.302 -0.02 +0.00    +0.001 A  
DOCKED: ENDBRANCH   2  18
DOCKED: TORSDOF 5
DOCKED: TER
DOCKED: ENDMDL
________________________________________________________________________________


    FINAL DOCKED STATE:
    ________________________


Run:   192 / 512
Time taken for this run:   0.001s

DOCKED: MODEL        192
DOCKED: USER    Run = 192
DOCKED: USER
DOCKED: USER    Estimated Free Energy of Binding    =  -3.60 kcal/mol  [=(1)+(2)+(3)-(4)]
DOCKED: USER
DOCKED: USER    (1) Final Intermolecular Energy     =  -5.09 kcal/mol
DOCKED: USER        vdW + Hbond + desolv Energy     =  -5.09 kcal/mol
DOCKED: USER        Electrostatic Energy            =  +0.00 kcal/mol
DOCKED: USER        Moving Ligand-Fixed Receptor    =  -5.09 kcal/mol
DOCKED: USER        Moving Ligand-Moving Receptor   =  +0.00 kcal/mol
DOCKED: USER    (2) Final Total Internal Energy     =  -1.47 kcal/mol
DOCKED: USER    (3) Torsional Free Energy           =  +1.49 kcal/mol
DOCKED: USER    (4) Unbound System's Energy         =  -1.47 kcal/mol
DOCKED: USER
DOCKED: USER
DOCKED: REMARK  5 active torsions:
DOCKED: REMARK  status: ('A' for Active; 'I' for Inactive)
DOCKED: REMARK    1  A    between atoms: C_2  and  C_19 
DOCKED: REMARK    2  A    between atoms: C_2  and  C_11 
DOCKED: REMARK    3  A    between atoms: C_19  and  C_20 
DOCKED: REMARK    4  A    between atoms: C_20  and  C_21 
DOCKED: REMARK    5  A    between atoms: C_21  and  N_22 
DOCKED: USER                              x       y       z     vdW  Elec       q    Type
DOCKED: USER                           _______ _______ _______ _____ _____    ______ ____
DOCKED: ROOT
DOCKED: ATOM      1  O   UNL     1     -48.483 -25.238   1.393 -0.05 -0.00    -0.346 OA 
DOCKED: ATOM      2  C   UNL     1     -49.626 -25.360   0.487 -0.24 +0.00    +0.130 C  
DOCKED: ATOM      3  C   UNL     1     -49.269 -24.466  -0.665 -0.28 +0.00    +0.004 A  
DOCKED: ATOM      4  C   UNL     1     -47.987 -23.965  -0.487 -0.08 +0.00    +0.006 A  
DOCKED: ATOM      5  C   UNL     1     -47.411 -24.493   0.770 -0.13 +0.00    +0.169 C  
DOCKED: ATOM      6  C   UNL     1     -50.014 -24.133  -1.787 -0.22 -0.00    -0.001 A  
DOCKED: ATOM      7  C   UNL     1     -47.411 -23.114  -1.415 -0.12 +0.00    +0.008 A  
DOCKED: ATOM      8  C   UNL     1     -49.448 -23.274  -2.730 -0.34 +0.00    +0.010 A  
DOCKED: ATOM      9  C   UNL     1     -48.153 -22.767  -2.545 -0.22 +0.00    +0.068 A  
DOCKED: ATOM     10  N   UNL     1     -47.130 -21.178  -4.317 -0.70 -0.00    -0.191 NA 
DOCKED: ATOM     11  C   UNL     1     -47.589 -21.890  -3.522 -0.24 +0.00    +0.101 C  
DOCKED: ENDROOT
DOCKED: BRANCH   2  12
DOCKED: ATOM     12  C   UNL     1     -49.767 -26.823   0.082 -0.21 +0.00    +0.038 C  
DOCKED: BRANCH  12  13
DOCKED: ATOM     13  C   UNL     1     -48.713 -27.693   0.764 -0.22 +0.00    +0.038 C  
DOCKED: BRANCH  13  14
DOCKED: ATOM     14  C   UNL     1     -47.664 -28.172  -0.239 -0.14 +0.00    +0.251 C  
DOCKED: BRANCH  14  15
DOCKED: ATOM     15  N   UNL     1     -47.375 -27.123  -1.210 -0.12 +0.00    +0.141 N  
DOCKED: ATOM     16  C   UNL     1     -45.948 -26.798  -1.209 -0.02 +0.00    +0.285 C  
DOCKED: ATOM     17  C   UNL     1     -47.803 -27.529  -2.550 -0.17 +0.00    +0.285 C  
DOCKED: ENDBRANCH  14  15
DOCKED: ENDBRANCH  13  14
DOCKED: ENDBRANCH  12  13
DOCKED: ENDBRANCH   2  12
DOCKED: BRANCH   2  18
DOCKED: ATOM     18  C   UNL     1     -50.829 -24.890   1.236 -0.30 +0.00    +0.006 A  
DOCKED: ATOM     19  C   UNL     1     -51.718 -25.818   1.778 -0.27 +0.00    +0.001 A  
DOCKED: ATOM     20  C   UNL     1     -52.842 -25.377   2.478 -0.27 +0.00    +0.029 A  
DOCKED: ATOM     21  C   UNL     1     -53.075 -24.012   2.635 -0.19 +0.00    +0.140 A  
DOCKED: ATOM     22  C   UNL     1     -52.185 -23.085   2.093 -0.31 +0.00    +0.029 A  
DOCKED: ATOM     23  F   UNL     1     -54.153 -23.589   3.308 -0.02 -0.00    -0.204 F  
DOCKED: ATOM     24  C   UNL     1     -51.060 -23.524   1.392 -0.21 +0.00    +0.001 A  
DOCKED: ENDBRANCH   2  18
DOCKED: TORSDOF 5
DOCKED: TER
DOCKED: ENDMDL
________________________________________________________________________________


    FINAL DOCKED STATE:
    ________________________


Run:   193 / 512
Time taken for this run:   0.001s

DOCKED: MODEL        193
DOCKED: USER    Run = 193
DOCKED: USER
DOCKED: USER    Estimated Free Energy of Binding    =  -4.02 kcal/mol  [=(1)+(2)+(3)-(4)]
DOCKED: USER
DOCKED: USER    (1) Final Intermolecular Energy     =  -5.52 kcal/mol
DOCKED: USER        vdW + Hbond + desolv Energy     =  -5.52 kcal/mol
DOCKED: USER        Electrostatic Energy            =  +0.00 kcal/mol
DOCKED: USER        Moving Ligand-Fixed Receptor    =  -5.52 kcal/mol
DOCKED: USER        Moving Ligand-Moving Receptor   =  +0.00 kcal/mol
DOCKED: USER    (2) Final Total Internal Energy     =  -1.46 kcal/mol
DOCKED: USER    (3) Torsional Free Energy           =  +1.49 kcal/mol
DOCKED: USER    (4) Unbound System's Energy         =  -1.46 kcal/mol
DOCKED: USER
DOCKED: USER
DOCKED: REMARK  5 active torsions:
DOCKED: REMARK  status: ('A' for Active; 'I' for Inactive)
DOCKED: REMARK    1  A    between atoms: C_2  and  C_19 
DOCKED: REMARK    2  A    between atoms: C_2  and  C_11 
DOCKED: REMARK    3  A    between atoms: C_19  and  C_20 
DOCKED: REMARK    4  A    between atoms: C_20  and  C_21 
DOCKED: REMARK    5  A    between atoms: C_21  and  N_22 
DOCKED: USER                              x       y       z     vdW  Elec       q    Type
DOCKED: USER                           _______ _______ _______ _____ _____    ______ ____
DOCKED: ROOT
DOCKED: ATOM      1  O   UNL     1     -52.470 -28.794   7.335 -0.06 -0.00    -0.346 OA 
DOCKED: ATOM      2  C   UNL     1     -51.205 -29.530   7.385 -0.15 +0.00    +0.130 C  
DOCKED: ATOM      3  C   UNL     1     -51.584 -30.923   6.972 -0.25 +0.00    +0.004 A  
DOCKED: ATOM      4  C   UNL     1     -52.923 -30.956   6.611 -0.26 +0.00    +0.006 A  
DOCKED: ATOM      5  C   UNL     1     -53.513 -29.605   6.745 -0.19 +0.00    +0.169 C  
DOCKED: ATOM      6  C   UNL     1     -50.802 -32.068   6.910 -0.15 -0.00    -0.001 A  
DOCKED: ATOM      7  C   UNL     1     -53.526 -32.126   6.183 -0.27 +0.00    +0.008 A  
DOCKED: ATOM      8  C   UNL     1     -51.396 -33.257   6.484 -0.33 +0.00    +0.010 A  
DOCKED: ATOM      9  C   UNL     1     -52.751 -33.285   6.122 -0.30 +0.00    +0.068 A  
DOCKED: ATOM     10  N   UNL     1     -53.822 -35.508   5.331 -2.52 -0.00    -0.191 NA 
DOCKED: ATOM     11  C   UNL     1     -53.342 -34.511   5.686 -0.33 +0.00    +0.101 C  
DOCKED: ENDROOT
DOCKED: BRANCH   2  12
DOCKED: ATOM     12  C   UNL     1     -50.225 -28.871   6.422 -0.18 +0.00    +0.038 C  
DOCKED: BRANCH  12  13
DOCKED: ATOM     13  C   UNL     1     -50.168 -27.360   6.633 -0.10 +0.00    +0.038 C  
DOCKED: BRANCH  13  14
DOCKED: ATOM     14  C   UNL     1     -51.139 -26.638   5.701 -0.08 +0.00    +0.251 C  
DOCKED: BRANCH  14  15
DOCKED: ATOM     15  N   UNL     1     -51.982 -25.721   6.460 -0.06 +0.00    +0.141 N  
DOCKED: ATOM     16  C   UNL     1     -53.397 -26.037   6.261 -0.10 +0.00    +0.285 C  
DOCKED: ATOM     17  C   UNL     1     -51.646 -25.770   7.883 -0.01 +0.00    +0.285 C  
DOCKED: ENDBRANCH  14  15
DOCKED: ENDBRANCH  13  14
DOCKED: ENDBRANCH  12  13
DOCKED: ENDBRANCH   2  12
DOCKED: BRANCH   2  18
DOCKED: ATOM     18  C   UNL     1     -50.712 -29.454   8.791 -0.06 +0.00    +0.006 A  
DOCKED: ATOM     19  C   UNL     1     -49.553 -30.136   9.161 -0.07 +0.00    +0.001 A  
DOCKED: ATOM     20  C   UNL     1     -49.093 -30.065  10.476 -0.02 +0.00    +0.029 A  
DOCKED: ATOM     21  C   UNL     1     -49.790 -29.311  11.419 -0.00 +0.00    +0.140 A  
DOCKED: ATOM     22  C   UNL     1     -50.949 -28.629  11.048 -0.00 +0.00    +0.029 A  
DOCKED: ATOM     23  F   UNL     1     -49.347 -29.241  12.681 -0.00 -0.00    -0.204 F  
DOCKED: ATOM     24  C   UNL     1     -51.411 -28.700   9.733 -0.02 +0.00    +0.001 A  
DOCKED: ENDBRANCH   2  18
DOCKED: TORSDOF 5
DOCKED: TER
DOCKED: ENDMDL
________________________________________________________________________________


    FINAL DOCKED STATE:
    ________________________


Run:   194 / 512
Time taken for this run:   0.001s

DOCKED: MODEL        194
DOCKED: USER    Run = 194
DOCKED: USER
DOCKED: USER    Estimated Free Energy of Binding    =  -4.23 kcal/mol  [=(1)+(2)+(3)-(4)]
DOCKED: USER
DOCKED: USER    (1) Final Intermolecular Energy     =  -5.72 kcal/mol
DOCKED: USER        vdW + Hbond + desolv Energy     =  -5.72 kcal/mol
DOCKED: USER        Electrostatic Energy            =  +0.00 kcal/mol
DOCKED: USER        Moving Ligand-Fixed Receptor    =  -5.72 kcal/mol
DOCKED: USER        Moving Ligand-Moving Receptor   =  +0.00 kcal/mol
DOCKED: USER    (2) Final Total Internal Energy     =  -1.16 kcal/mol
DOCKED: USER    (3) Torsional Free Energy           =  +1.49 kcal/mol
DOCKED: USER    (4) Unbound System's Energy         =  -1.16 kcal/mol
DOCKED: USER
DOCKED: USER
DOCKED: REMARK  5 active torsions:
DOCKED: REMARK  status: ('A' for Active; 'I' for Inactive)
DOCKED: REMARK    1  A    between atoms: C_2  and  C_19 
DOCKED: REMARK    2  A    between atoms: C_2  and  C_11 
DOCKED: REMARK    3  A    between atoms: C_19  and  C_20 
DOCKED: REMARK    4  A    between atoms: C_20  and  C_21 
DOCKED: REMARK    5  A    between atoms: C_21  and  N_22 
DOCKED: USER                              x       y       z     vdW  Elec       q    Type
DOCKED: USER                           _______ _______ _______ _____ _____    ______ ____
DOCKED: ROOT
DOCKED: ATOM      1  O   UNL     1     -51.396 -33.954   9.134 -0.09 -0.00    -0.346 OA 
DOCKED: ATOM      2  C   UNL     1     -51.389 -32.573   8.650 -0.15 +0.00    +0.130 C  
DOCKED: ATOM      3  C   UNL     1     -51.845 -32.690   7.224 -0.28 +0.00    +0.004 A  
DOCKED: ATOM      4  C   UNL     1     -52.189 -34.006   6.951 -0.35 +0.00    +0.006 A  
DOCKED: ATOM      5  C   UNL     1     -51.999 -34.837   8.161 -0.18 +0.00    +0.169 C  
DOCKED: ATOM      6  C   UNL     1     -51.957 -31.708   6.251 -0.32 -0.00    -0.001 A  
DOCKED: ATOM      7  C   UNL     1     -52.650 -34.386   5.702 -0.41 +0.00    +0.008 A  
DOCKED: ATOM      8  C   UNL     1     -52.417 -32.076   4.985 -0.17 +0.00    +0.010 A  
DOCKED: ATOM      9  C   UNL     1     -52.762 -33.408   4.712 -0.39 +0.00    +0.068 A  
DOCKED: ATOM     10  N   UNL     1     -53.617 -34.055   2.354 -2.04 -0.00    -0.191 NA 
DOCKED: ATOM     11  C   UNL     1     -53.233 -33.765   3.411 -0.52 +0.00    +0.101 C  
DOCKED: ENDROOT
DOCKED: BRANCH   2  12
DOCKED: ATOM     12  C   UNL     1     -52.341 -31.754   9.512 -0.08 +0.00    +0.038 C  
DOCKED: BRANCH  12  13
DOCKED: ATOM     13  C   UNL     1     -52.927 -32.593  10.646 -0.08 +0.00    +0.038 C  
DOCKED: BRANCH  13  14
DOCKED: ATOM     14  C   UNL     1     -52.466 -32.076  12.007 -0.01 +0.00    +0.251 C  
DOCKED: BRANCH  14  15
DOCKED: ATOM     15  N   UNL     1     -52.724 -30.645  12.120 -0.00 +0.00    +0.141 N  
DOCKED: ATOM     16  C   UNL     1     -53.907 -30.397  12.945 +0.00 +0.00    +0.285 C  
DOCKED: ATOM     17  C   UNL     1     -51.561 -29.954  12.681 -0.00 +0.00    +0.285 C  
DOCKED: ENDBRANCH  14  15
DOCKED: ENDBRANCH  13  14
DOCKED: ENDBRANCH  12  13
DOCKED: ENDBRANCH   2  12
DOCKED: BRANCH   2  18
DOCKED: ATOM     18  C   UNL     1     -49.987 -32.075   8.773 -0.18 +0.00    +0.006 A  
DOCKED: ATOM     19  C   UNL     1     -49.733 -30.859   9.406 -0.08 +0.00    +0.001 A  
DOCKED: ATOM     20  C   UNL     1     -48.422 -30.394   9.520 -0.06 +0.00    +0.029 A  
DOCKED: ATOM     21  C   UNL     1     -47.369 -31.145   9.002 -0.08 +0.00    +0.140 A  
DOCKED: ATOM     22  C   UNL     1     -47.623 -32.362   8.369 -0.17 +0.00    +0.029 A  
DOCKED: ATOM     23  F   UNL     1     -46.110 -30.699   9.113 -0.00 -0.00    -0.204 F  
DOCKED: ATOM     24  C   UNL     1     -48.934 -32.827   8.254 -0.09 +0.00    +0.001 A  
DOCKED: ENDBRANCH   2  18
DOCKED: TORSDOF 5
DOCKED: TER
DOCKED: ENDMDL
________________________________________________________________________________


    FINAL DOCKED STATE:
    ________________________


Run:   195 / 512
Time taken for this run:   0.001s

DOCKED: MODEL        195
DOCKED: USER    Run = 195
DOCKED: USER
DOCKED: USER    Estimated Free Energy of Binding    =  -4.41 kcal/mol  [=(1)+(2)+(3)-(4)]
DOCKED: USER
DOCKED: USER    (1) Final Intermolecular Energy     =  -5.90 kcal/mol
DOCKED: USER        vdW + Hbond + desolv Energy     =  -5.90 kcal/mol
DOCKED: USER        Electrostatic Energy            =  +0.00 kcal/mol
DOCKED: USER        Moving Ligand-Fixed Receptor    =  -5.90 kcal/mol
DOCKED: USER        Moving Ligand-Moving Receptor   =  +0.00 kcal/mol
DOCKED: USER    (2) Final Total Internal Energy     =  -1.51 kcal/mol
DOCKED: USER    (3) Torsional Free Energy           =  +1.49 kcal/mol
DOCKED: USER    (4) Unbound System's Energy         =  -1.51 kcal/mol
DOCKED: USER
DOCKED: USER
DOCKED: REMARK  5 active torsions:
DOCKED: REMARK  status: ('A' for Active; 'I' for Inactive)
DOCKED: REMARK    1  A    between atoms: C_2  and  C_19 
DOCKED: REMARK    2  A    between atoms: C_2  and  C_11 
DOCKED: REMARK    3  A    between atoms: C_19  and  C_20 
DOCKED: REMARK    4  A    between atoms: C_20  and  C_21 
DOCKED: REMARK    5  A    between atoms: C_21  and  N_22 
DOCKED: USER                              x       y       z     vdW  Elec       q    Type
DOCKED: USER                           _______ _______ _______ _____ _____    ______ ____
DOCKED: ROOT
DOCKED: ATOM      1  O   UNL     1     -49.218 -25.329   0.848 -0.08 -0.00    -0.346 OA 
DOCKED: ATOM      2  C   UNL     1     -47.957 -24.869   0.264 -0.15 +0.00    +0.130 C  
DOCKED: ATOM      3  C   UNL     1     -48.377 -24.189  -1.007 -0.21 +0.00    +0.004 A  
DOCKED: ATOM      4  C   UNL     1     -49.762 -24.164  -1.088 -0.27 +0.00    +0.006 A  
DOCKED: ATOM      5  C   UNL     1     -50.347 -24.804   0.111 -0.25 +0.00    +0.169 C  
DOCKED: ATOM      6  C   UNL     1     -47.595 -23.627  -2.006 -0.19 -0.00    -0.001 A  
DOCKED: ATOM      7  C   UNL     1     -50.410 -23.584  -2.166 -0.34 +0.00    +0.008 A  
DOCKED: ATOM      8  C   UNL     1     -48.234 -23.043  -3.101 -0.26 +0.00    +0.010 A  
DOCKED: ATOM      9  C   UNL     1     -49.634 -23.021  -3.180 -0.32 +0.00    +0.068 A  
DOCKED: ATOM     10  N   UNL     1     -50.788 -21.924  -5.224 -2.51 -0.00    -0.191 NA 
DOCKED: ATOM     11  C   UNL     1     -50.271 -22.417  -4.307 -0.39 +0.00    +0.101 C  
DOCKED: ENDROOT
DOCKED: BRANCH   2  12
DOCKED: ATOM     12  C   UNL     1     -47.285 -23.921   1.250 -0.14 +0.00    +0.038 C  
DOCKED: BRANCH  12  13
DOCKED: ATOM     13  C   UNL     1     -47.674 -24.250   2.691 -0.15 +0.00    +0.038 C  
DOCKED: BRANCH  13  14
DOCKED: ATOM     14  C   UNL     1     -46.800 -25.369   3.253 -0.04 +0.00    +0.251 C  
DOCKED: BRANCH  14  15
DOCKED: ATOM     15  N   UNL     1     -47.630 -26.463   3.743 -0.04 +0.00    +0.141 N  
DOCKED: ATOM     16  C   UNL     1     -49.045 -26.090   3.715 -0.05 +0.00    +0.285 C  
DOCKED: ATOM     17  C   UNL     1     -47.409 -27.673   2.949 -0.05 +0.00    +0.285 C  
DOCKED: ENDBRANCH  14  15
DOCKED: ENDBRANCH  13  14
DOCKED: ENDBRANCH  12  13
DOCKED: ENDBRANCH   2  12
DOCKED: BRANCH   2  18
DOCKED: ATOM     18  C   UNL     1     -47.119 -26.081   0.026 -0.08 +0.00    +0.006 A  
DOCKED: ATOM     19  C   UNL     1     -47.726 -27.297  -0.286 -0.15 +0.00    +0.001 A  
DOCKED: ATOM     20  C   UNL     1     -46.941 -28.430  -0.508 -0.15 +0.00    +0.029 A  
DOCKED: ATOM     21  C   UNL     1     -45.553 -28.344  -0.419 -0.04 +0.00    +0.140 A  
DOCKED: ATOM     22  C   UNL     1     -44.947 -27.127  -0.107 -0.01 +0.00    +0.029 A  
DOCKED: ATOM     23  F   UNL     1     -44.800 -29.431  -0.634 -0.01 -0.00    -0.204 F  
DOCKED: ATOM     24  C   UNL     1     -45.731 -25.994   0.115 -0.03 +0.00    +0.001 A  
DOCKED: ENDBRANCH   2  18
DOCKED: TORSDOF 5
DOCKED: TER
DOCKED: ENDMDL
________________________________________________________________________________


    FINAL DOCKED STATE:
    ________________________


Run:   196 / 512
Time taken for this run:   0.001s

DOCKED: MODEL        196
DOCKED: USER    Run = 196
DOCKED: USER
DOCKED: USER    Estimated Free Energy of Binding    =  -4.17 kcal/mol  [=(1)+(2)+(3)-(4)]
DOCKED: USER
DOCKED: USER    (1) Final Intermolecular Energy     =  -5.66 kcal/mol
DOCKED: USER        vdW + Hbond + desolv Energy     =  -5.66 kcal/mol
DOCKED: USER        Electrostatic Energy            =  +0.00 kcal/mol
DOCKED: USER        Moving Ligand-Fixed Receptor    =  -5.66 kcal/mol
DOCKED: USER        Moving Ligand-Moving Receptor   =  +0.00 kcal/mol
DOCKED: USER    (2) Final Total Internal Energy     =  -1.44 kcal/mol
DOCKED: USER    (3) Torsional Free Energy           =  +1.49 kcal/mol
DOCKED: USER    (4) Unbound System's Energy         =  -1.44 kcal/mol
DOCKED: USER
DOCKED: USER
DOCKED: REMARK  5 active torsions:
DOCKED: REMARK  status: ('A' for Active; 'I' for Inactive)
DOCKED: REMARK    1  A    between atoms: C_2  and  C_19 
DOCKED: REMARK    2  A    between atoms: C_2  and  C_11 
DOCKED: REMARK    3  A    between atoms: C_19  and  C_20 
DOCKED: REMARK    4  A    between atoms: C_20  and  C_21 
DOCKED: REMARK    5  A    between atoms: C_21  and  N_22 
DOCKED: USER                              x       y       z     vdW  Elec       q    Type
DOCKED: USER                           _______ _______ _______ _____ _____    ______ ____
DOCKED: ROOT
DOCKED: ATOM      1  O   UNL     1     -49.461 -31.188   9.295 -0.04 -0.00    -0.346 OA 
DOCKED: ATOM      2  C   UNL     1     -49.993 -30.350   8.219 -0.12 +0.00    +0.130 C  
DOCKED: ATOM      3  C   UNL     1     -50.866 -31.286   7.434 -0.21 +0.00    +0.004 A  
DOCKED: ATOM      4  C   UNL     1     -50.917 -32.519   8.067 -0.23 +0.00    +0.006 A  
DOCKED: ATOM      5  C   UNL     1     -50.105 -32.483   9.304 -0.13 +0.00    +0.169 C  
DOCKED: ATOM      6  C   UNL     1     -51.567 -31.059   6.259 -0.26 -0.00    -0.001 A  
DOCKED: ATOM      7  C   UNL     1     -51.663 -33.564   7.549 -0.31 +0.00    +0.008 A  
DOCKED: ATOM      8  C   UNL     1     -52.321 -32.104   5.722 -0.34 +0.00    +0.010 A  
DOCKED: ATOM      9  C   UNL     1     -52.368 -33.351   6.364 -0.31 +0.00    +0.068 A  
DOCKED: ATOM     10  N   UNL     1     -53.780 -35.268   5.343 -2.56 -0.00    -0.191 NA 
DOCKED: ATOM     11  C   UNL     1     -53.147 -34.408   5.801 -0.34 +0.00    +0.101 C  
DOCKED: ENDROOT
DOCKED: BRANCH   2  12
DOCKED: ATOM     12  C   UNL     1     -50.770 -29.198   8.844 -0.06 +0.00    +0.038 C  
DOCKED: BRANCH  12  13
DOCKED: ATOM     13  C   UNL     1     -52.254 -29.532   8.973 -0.06 +0.00    +0.038 C  
DOCKED: BRANCH  13  14
DOCKED: ATOM     14  C   UNL     1     -52.557 -30.176  10.325 -0.01 +0.00    +0.251 C  
DOCKED: BRANCH  14  15
DOCKED: ATOM     15  N   UNL     1     -53.160 -31.490  10.136 -0.03 +0.00    +0.141 N  
DOCKED: ATOM     16  C   UNL     1     -53.678 -32.007  11.404 -0.01 +0.00    +0.285 C  
DOCKED: ATOM     17  C   UNL     1     -54.228 -31.429   9.138 -0.01 +0.00    +0.285 C  
DOCKED: ENDBRANCH  14  15
DOCKED: ENDBRANCH  13  14
DOCKED: ENDBRANCH  12  13
DOCKED: ENDBRANCH   2  12
DOCKED: BRANCH   2  18
DOCKED: ATOM     18  C   UNL     1     -48.824 -29.851   7.437 -0.12 +0.00    +0.006 A  
DOCKED: ATOM     19  C   UNL     1     -47.539 -30.295   7.745 -0.11 +0.00    +0.001 A  
DOCKED: ATOM     20  C   UNL     1     -46.447 -29.827   7.013 -0.09 +0.00    +0.029 A  
DOCKED: ATOM     21  C   UNL     1     -46.641 -28.916   5.976 -0.07 +0.00    +0.140 A  
DOCKED: ATOM     22  C   UNL     1     -47.927 -28.472   5.669 -0.11 +0.00    +0.029 A  
DOCKED: ATOM     23  F   UNL     1     -45.593 -28.468   5.272 -0.01 -0.00    -0.204 F  
DOCKED: ATOM     24  C   UNL     1     -49.020 -28.940   6.400 -0.14 +0.00    +0.001 A  
DOCKED: ENDBRANCH   2  18
DOCKED: TORSDOF 5
DOCKED: TER
DOCKED: ENDMDL
________________________________________________________________________________


    FINAL DOCKED STATE:
    ________________________


Run:   197 / 512
Time taken for this run:   0.001s

DOCKED: MODEL        197
DOCKED: USER    Run = 197
DOCKED: USER
DOCKED: USER    Estimated Free Energy of Binding    =  -3.70 kcal/mol  [=(1)+(2)+(3)-(4)]
DOCKED: USER
DOCKED: USER    (1) Final Intermolecular Energy     =  -5.19 kcal/mol
DOCKED: USER        vdW + Hbond + desolv Energy     =  -5.19 kcal/mol
DOCKED: USER        Electrostatic Energy            =  +0.00 kcal/mol
DOCKED: USER        Moving Ligand-Fixed Receptor    =  -5.19 kcal/mol
DOCKED: USER        Moving Ligand-Moving Receptor   =  +0.00 kcal/mol
DOCKED: USER    (2) Final Total Internal Energy     =  -1.35 kcal/mol
DOCKED: USER    (3) Torsional Free Energy           =  +1.49 kcal/mol
DOCKED: USER    (4) Unbound System's Energy         =  -1.35 kcal/mol
DOCKED: USER
DOCKED: USER
DOCKED: REMARK  5 active torsions:
DOCKED: REMARK  status: ('A' for Active; 'I' for Inactive)
DOCKED: REMARK    1  A    between atoms: C_2  and  C_19 
DOCKED: REMARK    2  A    between atoms: C_2  and  C_11 
DOCKED: REMARK    3  A    between atoms: C_19  and  C_20 
DOCKED: REMARK    4  A    between atoms: C_20  and  C_21 
DOCKED: REMARK    5  A    between atoms: C_21  and  N_22 
DOCKED: USER                              x       y       z     vdW  Elec       q    Type
DOCKED: USER                           _______ _______ _______ _____ _____    ______ ____
DOCKED: ROOT
DOCKED: ATOM      1  O   UNL     1     -45.653 -24.315  -1.440 -0.00 -0.00    -0.346 OA 
DOCKED: ATOM      2  C   UNL     1     -45.695 -22.857  -1.323 -0.10 +0.00    +0.130 C  
DOCKED: ATOM      3  C   UNL     1     -46.852 -22.460  -2.194 -0.16 +0.00    +0.004 A  
DOCKED: ATOM      4  C   UNL     1     -47.484 -23.597  -2.678 -0.18 +0.00    +0.006 A  
DOCKED: ATOM      5  C   UNL     1     -46.808 -24.807  -2.158 -0.09 +0.00    +0.169 C  
DOCKED: ATOM      6  C   UNL     1     -47.314 -21.195  -2.523 -0.26 -0.00    -0.001 A  
DOCKED: ATOM      7  C   UNL     1     -48.590 -23.510  -3.505 -0.25 +0.00    +0.008 A  
DOCKED: ATOM      8  C   UNL     1     -48.427 -21.089  -3.360 -0.19 +0.00    +0.010 A  
DOCKED: ATOM      9  C   UNL     1     -49.062 -22.241  -3.848 -0.36 +0.00    +0.068 A  
DOCKED: ATOM     10  N   UNL     1     -51.127 -22.011  -5.395 -2.57 -0.00    -0.191 NA 
DOCKED: ATOM     11  C   UNL     1     -50.200 -22.114  -4.702 -0.35 +0.00    +0.101 C  
DOCKED: ENDROOT
DOCKED: BRANCH   2  12
DOCKED: ATOM     12  C   UNL     1     -45.905 -22.496   0.143 -0.09 +0.00    +0.038 C  
DOCKED: BRANCH  12  13
DOCKED: ATOM     13  C   UNL     1     -45.730 -23.715   1.047 -0.12 +0.00    +0.038 C  
DOCKED: BRANCH  13  14
DOCKED: ATOM     14  C   UNL     1     -46.931 -23.888   1.974 -0.08 +0.00    +0.251 C  
DOCKED: BRANCH  14  15
DOCKED: ATOM     15  N   UNL     1     -47.701 -25.065   1.590 -0.10 +0.00    +0.141 N  
DOCKED: ATOM     16  C   UNL     1     -48.755 -24.706   0.640 -0.14 +0.00    +0.285 C  
DOCKED: ATOM     17  C   UNL     1     -46.827 -26.089   1.015 -0.03 +0.00    +0.285 C  
DOCKED: ENDBRANCH  14  15
DOCKED: ENDBRANCH  13  14
DOCKED: ENDBRANCH  12  13
DOCKED: ENDBRANCH   2  12
DOCKED: BRANCH   2  18
DOCKED: ATOM     18  C   UNL     1     -44.387 -22.341  -1.823 -0.04 +0.00    +0.006 A  
DOCKED: ATOM     19  C   UNL     1     -44.045 -21.004  -1.628 -0.05 +0.00    +0.001 A  
DOCKED: ATOM     20  C   UNL     1     -42.822 -20.522  -2.096 -0.01 +0.00    +0.029 A  
DOCKED: ATOM     21  C   UNL     1     -41.942 -21.379  -2.757 +0.00 +0.00    +0.140 A  
DOCKED: ATOM     22  C   UNL     1     -42.285 -22.717  -2.951 -0.00 +0.00    +0.029 A  
DOCKED: ATOM     23  F   UNL     1     -40.767 -20.917  -3.204 +0.00 -0.00    -0.204 F  
DOCKED: ATOM     24  C   UNL     1     -43.509 -23.199  -2.484 -0.01 +0.00    +0.001 A  
DOCKED: ENDBRANCH   2  18
DOCKED: TORSDOF 5
DOCKED: TER
DOCKED: ENDMDL
________________________________________________________________________________


    FINAL DOCKED STATE:
    ________________________


Run:   198 / 512
Time taken for this run:   0.001s

DOCKED: MODEL        198
DOCKED: USER    Run = 198
DOCKED: USER
DOCKED: USER    Estimated Free Energy of Binding    =  -4.02 kcal/mol  [=(1)+(2)+(3)-(4)]
DOCKED: USER
DOCKED: USER    (1) Final Intermolecular Energy     =  -5.51 kcal/mol
DOCKED: USER        vdW + Hbond + desolv Energy     =  -5.51 kcal/mol
DOCKED: USER        Electrostatic Energy            =  +0.00 kcal/mol
DOCKED: USER        Moving Ligand-Fixed Receptor    =  -5.51 kcal/mol
DOCKED: USER        Moving Ligand-Moving Receptor   =  +0.00 kcal/mol
DOCKED: USER    (2) Final Total Internal Energy     =  -1.23 kcal/mol
DOCKED: USER    (3) Torsional Free Energy           =  +1.49 kcal/mol
DOCKED: USER    (4) Unbound System's Energy         =  -1.23 kcal/mol
DOCKED: USER
DOCKED: USER
DOCKED: REMARK  5 active torsions:
DOCKED: REMARK  status: ('A' for Active; 'I' for Inactive)
DOCKED: REMARK    1  A    between atoms: C_2  and  C_19 
DOCKED: REMARK    2  A    between atoms: C_2  and  C_11 
DOCKED: REMARK    3  A    between atoms: C_19  and  C_20 
DOCKED: REMARK    4  A    between atoms: C_20  and  C_21 
DOCKED: REMARK    5  A    between atoms: C_21  and  N_22 
DOCKED: USER                              x       y       z     vdW  Elec       q    Type
DOCKED: USER                           _______ _______ _______ _____ _____    ______ ____
DOCKED: ROOT
DOCKED: ATOM      1  O   UNL     1     -49.303 -26.167   0.877 -0.06 -0.00    -0.346 OA 
DOCKED: ATOM      2  C   UNL     1     -48.036 -25.870   0.207 -0.13 +0.00    +0.130 C  
DOCKED: ATOM      3  C   UNL     1     -48.438 -25.014  -0.958 -0.23 +0.00    +0.004 A  
DOCKED: ATOM      4  C   UNL     1     -49.800 -24.752  -0.898 -0.18 +0.00    +0.006 A  
DOCKED: ATOM      5  C   UNL     1     -50.382 -25.396   0.300 -0.22 +0.00    +0.169 C  
DOCKED: ATOM      6  C   UNL     1     -47.659 -24.498  -1.984 -0.19 -0.00    -0.001 A  
DOCKED: ATOM      7  C   UNL     1     -50.427 -23.975  -1.857 -0.14 +0.00    +0.008 A  
DOCKED: ATOM      8  C   UNL     1     -48.278 -23.716  -2.961 -0.25 +0.00    +0.010 A  
DOCKED: ATOM      9  C   UNL     1     -49.655 -23.455  -2.897 -0.23 +0.00    +0.068 A  
DOCKED: ATOM     10  N   UNL     1     -50.771 -21.995  -4.723 -2.00 -0.00    -0.191 NA 
DOCKED: ATOM     11  C   UNL     1     -50.270 -22.651  -3.904 -0.37 +0.00    +0.101 C  
DOCKED: ENDROOT
DOCKED: BRANCH   2  12
DOCKED: ATOM     12  C   UNL     1     -47.128 -25.144   1.192 -0.11 +0.00    +0.038 C  
DOCKED: BRANCH  12  13
DOCKED: ATOM     13  C   UNL     1     -47.791 -23.877   1.730 -0.11 +0.00    +0.038 C  
DOCKED: BRANCH  13  14
DOCKED: ATOM     14  C   UNL     1     -47.827 -23.881   3.257 -0.10 +0.00    +0.251 C  
DOCKED: BRANCH  14  15
DOCKED: ATOM     15  N   UNL     1     -49.180 -23.620   3.733 -0.15 +0.00    +0.141 N  
DOCKED: ATOM     16  C   UNL     1     -50.046 -23.209   2.627 -0.08 +0.00    +0.285 C  
DOCKED: ATOM     17  C   UNL     1     -49.731 -24.804   4.395 -0.06 +0.00    +0.285 C  
DOCKED: ENDBRANCH  14  15
DOCKED: ENDBRANCH  13  14
DOCKED: ENDBRANCH  12  13
DOCKED: ENDBRANCH   2  12
DOCKED: BRANCH   2  18
DOCKED: ATOM     18  C   UNL     1     -47.445 -27.176  -0.207 -0.12 +0.00    +0.006 A  
DOCKED: ATOM     19  C   UNL     1     -47.585 -27.619  -1.522 -0.20 +0.00    +0.001 A  
DOCKED: ATOM     20  C   UNL     1     -47.032 -28.840  -1.908 -0.21 +0.00    +0.029 A  
DOCKED: ATOM     21  C   UNL     1     -46.340 -29.617  -0.980 -0.15 +0.00    +0.140 A  
DOCKED: ATOM     22  C   UNL     1     -46.200 -29.174   0.335 -0.11 +0.00    +0.029 A  
DOCKED: ATOM     23  F   UNL     1     -45.808 -30.789  -1.351 -0.05 -0.00    -0.204 F  
DOCKED: ATOM     24  C   UNL     1     -46.753 -27.952   0.723 -0.08 +0.00    +0.001 A  
DOCKED: ENDBRANCH   2  18
DOCKED: TORSDOF 5
DOCKED: TER
DOCKED: ENDMDL
________________________________________________________________________________


    FINAL DOCKED STATE:
    ________________________


Run:   199 / 512
Time taken for this run:   0.001s

DOCKED: MODEL        199
DOCKED: USER    Run = 199
DOCKED: USER
DOCKED: USER    Estimated Free Energy of Binding    =  -4.32 kcal/mol  [=(1)+(2)+(3)-(4)]
DOCKED: USER
DOCKED: USER    (1) Final Intermolecular Energy     =  -5.82 kcal/mol
DOCKED: USER        vdW + Hbond + desolv Energy     =  -5.82 kcal/mol
DOCKED: USER        Electrostatic Energy            =  +0.00 kcal/mol
DOCKED: USER        Moving Ligand-Fixed Receptor    =  -5.82 kcal/mol
DOCKED: USER        Moving Ligand-Moving Receptor   =  +0.00 kcal/mol
DOCKED: USER    (2) Final Total Internal Energy     =  -1.30 kcal/mol
DOCKED: USER    (3) Torsional Free Energy           =  +1.49 kcal/mol
DOCKED: USER    (4) Unbound System's Energy         =  -1.30 kcal/mol
DOCKED: USER
DOCKED: USER
DOCKED: REMARK  5 active torsions:
DOCKED: REMARK  status: ('A' for Active; 'I' for Inactive)
DOCKED: REMARK    1  A    between atoms: C_2  and  C_19 
DOCKED: REMARK    2  A    between atoms: C_2  and  C_11 
DOCKED: REMARK    3  A    between atoms: C_19  and  C_20 
DOCKED: REMARK    4  A    between atoms: C_20  and  C_21 
DOCKED: REMARK    5  A    between atoms: C_21  and  N_22 
DOCKED: USER                              x       y       z     vdW  Elec       q    Type
DOCKED: USER                           _______ _______ _______ _____ _____    ______ ____
DOCKED: ROOT
DOCKED: ATOM      1  O   UNL     1     -49.245 -30.811   8.655 -0.06 -0.00    -0.346 OA 
DOCKED: ATOM      2  C   UNL     1     -50.121 -30.054   7.760 -0.13 +0.00    +0.130 C  
DOCKED: ATOM      3  C   UNL     1     -50.950 -31.111   7.089 -0.22 +0.00    +0.004 A  
DOCKED: ATOM      4  C   UNL     1     -50.652 -32.353   7.633 -0.24 +0.00    +0.006 A  
DOCKED: ATOM      5  C   UNL     1     -49.631 -32.205   8.694 -0.16 +0.00    +0.169 C  
DOCKED: ATOM      6  C   UNL     1     -51.899 -30.982   6.086 -0.26 -0.00    -0.001 A  
DOCKED: ATOM      7  C   UNL     1     -51.286 -33.502   7.193 -0.34 +0.00    +0.008 A  
DOCKED: ATOM      8  C   UNL     1     -52.543 -32.133   5.628 -0.34 +0.00    +0.010 A  
DOCKED: ATOM      9  C   UNL     1     -52.239 -33.386   6.179 -0.32 +0.00    +0.068 A  
DOCKED: ATOM     10  N   UNL     1     -53.457 -35.501   5.311 -2.58 -0.00    -0.191 NA 
DOCKED: ATOM     11  C   UNL     1     -52.910 -34.553   5.700 -0.30 +0.00    +0.101 C  
DOCKED: ENDROOT
DOCKED: BRANCH   2  12
DOCKED: ATOM     12  C   UNL     1     -50.953 -29.091   8.599 -0.07 +0.00    +0.038 C  
DOCKED: BRANCH  12  13
DOCKED: ATOM     13  C   UNL     1     -51.111 -29.595  10.032 -0.03 +0.00    +0.038 C  
DOCKED: BRANCH  13  14
DOCKED: ATOM     14  C   UNL     1     -52.275 -30.579  10.143 -0.01 +0.00    +0.251 C  
DOCKED: BRANCH  14  15
DOCKED: ATOM     15  N   UNL     1     -51.947 -31.649  11.078 -0.02 +0.00    +0.141 N  
DOCKED: ATOM     16  C   UNL     1     -52.411 -31.317  12.426 -0.00 +0.00    +0.285 C  
DOCKED: ATOM     17  C   UNL     1     -52.533 -32.916  10.638 -0.04 +0.00    +0.285 C  
DOCKED: ENDBRANCH  14  15
DOCKED: ENDBRANCH  13  14
DOCKED: ENDBRANCH  12  13
DOCKED: ENDBRANCH   2  12
DOCKED: BRANCH   2  18
DOCKED: ATOM     18  C   UNL     1     -49.239 -29.316   6.809 -0.14 +0.00    +0.006 A  
DOCKED: ATOM     19  C   UNL     1     -49.795 -28.423   5.894 -0.15 +0.00    +0.001 A  
DOCKED: ATOM     20  C   UNL     1     -48.969 -27.733   5.005 -0.12 +0.00    +0.029 A  
DOCKED: ATOM     21  C   UNL     1     -47.590 -27.937   5.033 -0.08 +0.00    +0.140 A  
DOCKED: ATOM     22  C   UNL     1     -47.035 -28.830   5.949 -0.10 +0.00    +0.029 A  
DOCKED: ATOM     23  F   UNL     1     -46.798 -27.274   4.181 -0.00 -0.00    -0.204 F  
DOCKED: ATOM     24  C   UNL     1     -47.860 -29.521   6.838 -0.10 +0.00    +0.001 A  
DOCKED: ENDBRANCH   2  18
DOCKED: TORSDOF 5
DOCKED: TER
DOCKED: ENDMDL
________________________________________________________________________________


    FINAL DOCKED STATE:
    ________________________


Run:   200 / 512
Time taken for this run:   0.001s

DOCKED: MODEL        200
DOCKED: USER    Run = 200
DOCKED: USER
DOCKED: USER    Estimated Free Energy of Binding    =  -4.91 kcal/mol  [=(1)+(2)+(3)-(4)]
DOCKED: USER
DOCKED: USER    (1) Final Intermolecular Energy     =  -6.40 kcal/mol
DOCKED: USER        vdW + Hbond + desolv Energy     =  -6.40 kcal/mol
DOCKED: USER        Electrostatic Energy            =  +0.00 kcal/mol
DOCKED: USER        Moving Ligand-Fixed Receptor    =  -6.40 kcal/mol
DOCKED: USER        Moving Ligand-Moving Receptor   =  +0.00 kcal/mol
DOCKED: USER    (2) Final Total Internal Energy     =  -1.04 kcal/mol
DOCKED: USER    (3) Torsional Free Energy           =  +1.49 kcal/mol
DOCKED: USER    (4) Unbound System's Energy         =  -1.04 kcal/mol
DOCKED: USER
DOCKED: USER
DOCKED: REMARK  5 active torsions:
DOCKED: REMARK  status: ('A' for Active; 'I' for Inactive)
DOCKED: REMARK    1  A    between atoms: C_2  and  C_19 
DOCKED: REMARK    2  A    between atoms: C_2  and  C_11 
DOCKED: REMARK    3  A    between atoms: C_19  and  C_20 
DOCKED: REMARK    4  A    between atoms: C_20  and  C_21 
DOCKED: REMARK    5  A    between atoms: C_21  and  N_22 
DOCKED: USER                              x       y       z     vdW  Elec       q    Type
DOCKED: USER                           _______ _______ _______ _____ _____    ______ ____
DOCKED: ROOT
DOCKED: ATOM      1  O   UNL     1     -50.201 -25.041   1.257 -0.11 -0.00    -0.346 OA 
DOCKED: ATOM      2  C   UNL     1     -48.858 -24.973   0.679 -0.20 +0.00    +0.130 C  
DOCKED: ATOM      3  C   UNL     1     -49.077 -24.344  -0.667 -0.25 +0.00    +0.004 A  
DOCKED: ATOM      4  C   UNL     1     -50.410 -23.982  -0.802 -0.14 +0.00    +0.006 A  
DOCKED: ATOM      5  C   UNL     1     -51.152 -24.329   0.431 -0.04 +0.00    +0.169 C  
DOCKED: ATOM      6  C   UNL     1     -48.167 -24.101  -1.685 -0.23 -0.00    -0.001 A  
DOCKED: ATOM      7  C   UNL     1     -50.878 -23.373  -1.953 -0.24 +0.00    +0.008 A  
DOCKED: ATOM      8  C   UNL     1     -48.624 -23.491  -2.855 -0.28 +0.00    +0.010 A  
DOCKED: ATOM      9  C   UNL     1     -49.973 -23.129  -2.987 -0.33 +0.00    +0.068 A  
DOCKED: ATOM     10  N   UNL     1     -50.788 -21.994  -5.169 -2.54 -0.00    -0.191 NA 
DOCKED: ATOM     11  C   UNL     1     -50.423 -22.503  -4.191 -0.33 +0.00    +0.101 C  
DOCKED: ENDROOT
DOCKED: BRANCH   2  12
DOCKED: ATOM     12  C   UNL     1     -47.980 -24.127   1.594 -0.15 +0.00    +0.038 C  
DOCKED: BRANCH  12  13
DOCKED: ATOM     13  C   UNL     1     -48.247 -24.439   3.065 -0.15 +0.00    +0.038 C  
DOCKED: BRANCH  13  14
DOCKED: ATOM     14  C   UNL     1     -49.432 -23.632   3.592 -0.14 +0.00    +0.251 C  
DOCKED: BRANCH  14  15
DOCKED: ATOM     15  N   UNL     1     -48.964 -22.527   4.421 -0.12 +0.00    +0.141 N  
DOCKED: ATOM     16  C   UNL     1     -50.000 -22.121   5.372 -0.10 +0.00    +0.285 C  
DOCKED: ATOM     17  C   UNL     1     -47.740 -22.898   5.132 -0.06 +0.00    +0.285 C  
DOCKED: ENDBRANCH  14  15
DOCKED: ENDBRANCH  13  14
DOCKED: ENDBRANCH  12  13
DOCKED: ENDBRANCH   2  12
DOCKED: BRANCH   2  18
DOCKED: ATOM     18  C   UNL     1     -48.350 -26.374   0.590 -0.14 +0.00    +0.006 A  
DOCKED: ATOM     19  C   UNL     1     -47.121 -26.632  -0.015 -0.08 +0.00    +0.001 A  
DOCKED: ATOM     20  C   UNL     1     -46.648 -27.943  -0.098 -0.09 +0.00    +0.029 A  
DOCKED: ATOM     21  C   UNL     1     -47.403 -28.991   0.425 -0.16 +0.00    +0.140 A  
DOCKED: ATOM     22  C   UNL     1     -48.632 -28.732   1.031 -0.24 +0.00    +0.029 A  
DOCKED: ATOM     23  F   UNL     1     -46.948 -30.248   0.348 -0.08 -0.00    -0.204 F  
DOCKED: ATOM     24  C   UNL     1     -49.107 -27.421   1.114 -0.21 +0.00    +0.001 A  
DOCKED: ENDBRANCH   2  18
DOCKED: TORSDOF 5
DOCKED: TER
DOCKED: ENDMDL
________________________________________________________________________________


    FINAL DOCKED STATE:
    ________________________


Run:   201 / 512
Time taken for this run:   0.001s

DOCKED: MODEL        201
DOCKED: USER    Run = 201
DOCKED: USER
DOCKED: USER    Estimated Free Energy of Binding    =  -4.21 kcal/mol  [=(1)+(2)+(3)-(4)]
DOCKED: USER
DOCKED: USER    (1) Final Intermolecular Energy     =  -5.70 kcal/mol
DOCKED: USER        vdW + Hbond + desolv Energy     =  -5.70 kcal/mol
DOCKED: USER        Electrostatic Energy            =  +0.00 kcal/mol
DOCKED: USER        Moving Ligand-Fixed Receptor    =  -5.70 kcal/mol
DOCKED: USER        Moving Ligand-Moving Receptor   =  +0.00 kcal/mol
DOCKED: USER    (2) Final Total Internal Energy     =  -1.13 kcal/mol
DOCKED: USER    (3) Torsional Free Energy           =  +1.49 kcal/mol
DOCKED: USER    (4) Unbound System's Energy         =  -1.13 kcal/mol
DOCKED: USER
DOCKED: USER
DOCKED: REMARK  5 active torsions:
DOCKED: REMARK  status: ('A' for Active; 'I' for Inactive)
DOCKED: REMARK    1  A    between atoms: C_2  and  C_19 
DOCKED: REMARK    2  A    between atoms: C_2  and  C_11 
DOCKED: REMARK    3  A    between atoms: C_19  and  C_20 
DOCKED: REMARK    4  A    between atoms: C_20  and  C_21 
DOCKED: REMARK    5  A    between atoms: C_21  and  N_22 
DOCKED: USER                              x       y       z     vdW  Elec       q    Type
DOCKED: USER                           _______ _______ _______ _____ _____    ______ ____
DOCKED: ROOT
DOCKED: ATOM      1  O   UNL     1     -50.524 -29.505   7.923 -0.04 -0.00    -0.346 OA 
DOCKED: ATOM      2  C   UNL     1     -51.968 -29.287   7.818 -0.11 +0.00    +0.130 C  
DOCKED: ATOM      3  C   UNL     1     -52.487 -30.578   7.254 -0.21 +0.00    +0.004 A  
DOCKED: ATOM      4  C   UNL     1     -51.448 -31.492   7.149 -0.25 +0.00    +0.006 A  
DOCKED: ATOM      5  C   UNL     1     -50.192 -30.884   7.641 -0.14 +0.00    +0.169 C  
DOCKED: ATOM      6  C   UNL     1     -53.777 -30.919   6.875 -0.23 -0.00    -0.001 A  
DOCKED: ATOM      7  C   UNL     1     -51.660 -32.770   6.660 -0.32 +0.00    +0.008 A  
DOCKED: ATOM      8  C   UNL     1     -54.006 -32.202   6.376 -0.24 +0.00    +0.010 A  
DOCKED: ATOM      9  C   UNL     1     -52.953 -33.123   6.270 -0.28 +0.00    +0.068 A  
DOCKED: ATOM     10  N   UNL     1     -53.414 -35.499   5.344 -2.61 -0.00    -0.191 NA 
DOCKED: ATOM     11  C   UNL     1     -53.207 -34.433   5.759 -0.34 +0.00    +0.101 C  
DOCKED: ENDROOT
DOCKED: BRANCH   2  12
DOCKED: ATOM     12  C   UNL     1     -52.512 -28.986   9.210 -0.04 +0.00    +0.038 C  
DOCKED: BRANCH  12  13
DOCKED: ATOM     13  C   UNL     1     -51.384 -28.724  10.205 -0.01 +0.00    +0.038 C  
DOCKED: BRANCH  13  14
DOCKED: ATOM     14  C   UNL     1     -51.512 -27.336  10.829 -0.00 +0.00    +0.251 C  
DOCKED: BRANCH  14  15
DOCKED: ATOM     15  N   UNL     1     -52.870 -27.122  11.316 -0.00 +0.00    +0.141 N  
DOCKED: ATOM     16  C   UNL     1     -52.882 -27.001  12.774 +0.00 +0.00    +0.285 C  
DOCKED: ATOM     17  C   UNL     1     -53.457 -25.930  10.703 -0.00 +0.00    +0.285 C  
DOCKED: ENDBRANCH  14  15
DOCKED: ENDBRANCH  13  14
DOCKED: ENDBRANCH  12  13
DOCKED: ENDBRANCH   2  12
DOCKED: BRANCH   2  18
DOCKED: ATOM     18  C   UNL     1     -52.169 -28.128   6.899 -0.16 +0.00    +0.006 A  
DOCKED: ATOM     19  C   UNL     1     -53.441 -27.584   6.732 -0.19 +0.00    +0.001 A  
DOCKED: ATOM     20  C   UNL     1     -53.628 -26.501   5.872 -0.16 +0.00    +0.029 A  
DOCKED: ATOM     21  C   UNL     1     -52.542 -25.963   5.183 -0.12 +0.00    +0.140 A  
DOCKED: ATOM     22  C   UNL     1     -51.269 -26.507   5.351 -0.10 +0.00    +0.029 A  
DOCKED: ATOM     23  F   UNL     1     -52.721 -24.922   4.359 -0.03 -0.00    -0.204 F  
DOCKED: ATOM     24  C   UNL     1     -51.082 -27.591   6.210 -0.12 +0.00    +0.001 A  
DOCKED: ENDBRANCH   2  18
DOCKED: TORSDOF 5
DOCKED: TER
DOCKED: ENDMDL
________________________________________________________________________________


    FINAL DOCKED STATE:
    ________________________


Run:   202 / 512
Time taken for this run:   0.001s

DOCKED: MODEL        202
DOCKED: USER    Run = 202
DOCKED: USER
DOCKED: USER    Estimated Free Energy of Binding    =  -4.38 kcal/mol  [=(1)+(2)+(3)-(4)]
DOCKED: USER
DOCKED: USER    (1) Final Intermolecular Energy     =  -5.87 kcal/mol
DOCKED: USER        vdW + Hbond + desolv Energy     =  -5.87 kcal/mol
DOCKED: USER        Electrostatic Energy            =  +0.00 kcal/mol
DOCKED: USER        Moving Ligand-Fixed Receptor    =  -5.87 kcal/mol
DOCKED: USER        Moving Ligand-Moving Receptor   =  +0.00 kcal/mol
DOCKED: USER    (2) Final Total Internal Energy     =  -1.61 kcal/mol
DOCKED: USER    (3) Torsional Free Energy           =  +1.49 kcal/mol
DOCKED: USER    (4) Unbound System's Energy         =  -1.61 kcal/mol
DOCKED: USER
DOCKED: USER
DOCKED: REMARK  5 active torsions:
DOCKED: REMARK  status: ('A' for Active; 'I' for Inactive)
DOCKED: REMARK    1  A    between atoms: C_2  and  C_19 
DOCKED: REMARK    2  A    between atoms: C_2  and  C_11 
DOCKED: REMARK    3  A    between atoms: C_19  and  C_20 
DOCKED: REMARK    4  A    between atoms: C_20  and  C_21 
DOCKED: REMARK    5  A    between atoms: C_21  and  N_22 
DOCKED: USER                              x       y       z     vdW  Elec       q    Type
DOCKED: USER                           _______ _______ _______ _____ _____    ______ ____
DOCKED: ROOT
DOCKED: ATOM      1  O   UNL     1     -53.201 -31.306   8.187 -0.02 -0.00    -0.346 OA 
DOCKED: ATOM      2  C   UNL     1     -52.108 -32.270   8.048 -0.15 +0.00    +0.130 C  
DOCKED: ATOM      3  C   UNL     1     -52.399 -32.958   6.746 -0.30 +0.00    +0.004 A  
DOCKED: ATOM      4  C   UNL     1     -53.497 -32.365   6.139 -0.29 +0.00    +0.006 A  
DOCKED: ATOM      5  C   UNL     1     -53.994 -31.252   6.978 -0.18 +0.00    +0.169 C  
DOCKED: ATOM      6  C   UNL     1     -51.737 -34.016   6.140 -0.41 -0.00    -0.001 A  
DOCKED: ATOM      7  C   UNL     1     -53.972 -32.809   4.917 -0.06 +0.00    +0.008 A  
DOCKED: ATOM      8  C   UNL     1     -52.206 -34.478   4.910 -0.41 +0.00    +0.010 A  
DOCKED: ATOM      9  C   UNL     1     -53.318 -33.877   4.301 -0.43 +0.00    +0.068 A  
DOCKED: ATOM     10  N   UNL     1     -54.160 -34.756   2.014 -2.00 -0.00    -0.191 NA 
DOCKED: ATOM     11  C   UNL     1     -53.783 -34.362   3.040 -0.42 +0.00    +0.101 C  
DOCKED: ENDROOT
DOCKED: BRANCH   2  12
DOCKED: ATOM     12  C   UNL     1     -50.790 -31.506   8.034 -0.20 +0.00    +0.038 C  
DOCKED: BRANCH  12  13
DOCKED: ATOM     13  C   UNL     1     -50.987 -30.047   8.440 -0.10 +0.00    +0.038 C  
DOCKED: BRANCH  13  14
DOCKED: ATOM     14  C   UNL     1     -50.869 -29.876   9.953 -0.01 +0.00    +0.251 C  
DOCKED: BRANCH  14  15
DOCKED: ATOM     15  N   UNL     1     -52.090 -30.325  10.611 -0.01 +0.00    +0.141 N  
DOCKED: ATOM     16  C   UNL     1     -51.821 -30.696  12.001 -0.00 +0.00    +0.285 C  
DOCKED: ATOM     17  C   UNL     1     -53.119 -29.285  10.554 -0.00 +0.00    +0.285 C  
DOCKED: ENDBRANCH  14  15
DOCKED: ENDBRANCH  13  14
DOCKED: ENDBRANCH  12  13
DOCKED: ENDBRANCH   2  12
DOCKED: BRANCH   2  18
DOCKED: ATOM     18  C   UNL     1     -52.186 -33.189   9.221 -0.16 +0.00    +0.006 A  
DOCKED: ATOM     19  C   UNL     1     -51.020 -33.572   9.884 -0.15 +0.00    +0.001 A  
DOCKED: ATOM     20  C   UNL     1     -51.094 -34.432  10.981 -0.18 +0.00    +0.029 A  
DOCKED: ATOM     21  C   UNL     1     -52.332 -34.907  11.413 -0.09 +0.00    +0.140 A  
DOCKED: ATOM     22  C   UNL     1     -53.497 -34.523  10.749 -0.09 +0.00    +0.029 A  
DOCKED: ATOM     23  F   UNL     1     -52.402 -35.731  12.466 -0.06 -0.00    -0.204 F  
DOCKED: ATOM     24  C   UNL     1     -53.424 -33.663   9.652 -0.16 +0.00    +0.001 A  
DOCKED: ENDBRANCH   2  18
DOCKED: TORSDOF 5
DOCKED: TER
DOCKED: ENDMDL
________________________________________________________________________________


    FINAL DOCKED STATE:
    ________________________


Run:   203 / 512
Time taken for this run:   0.001s

DOCKED: MODEL        203
DOCKED: USER    Run = 203
DOCKED: USER
DOCKED: USER    Estimated Free Energy of Binding    =  -5.42 kcal/mol  [=(1)+(2)+(3)-(4)]
DOCKED: USER
DOCKED: USER    (1) Final Intermolecular Energy     =  -6.91 kcal/mol
DOCKED: USER        vdW + Hbond + desolv Energy     =  -6.91 kcal/mol
DOCKED: USER        Electrostatic Energy            =  +0.00 kcal/mol
DOCKED: USER        Moving Ligand-Fixed Receptor    =  -6.91 kcal/mol
DOCKED: USER        Moving Ligand-Moving Receptor   =  +0.00 kcal/mol
DOCKED: USER    (2) Final Total Internal Energy     =  -1.27 kcal/mol
DOCKED: USER    (3) Torsional Free Energy           =  +1.49 kcal/mol
DOCKED: USER    (4) Unbound System's Energy         =  -1.27 kcal/mol
DOCKED: USER
DOCKED: USER
DOCKED: REMARK  5 active torsions:
DOCKED: REMARK  status: ('A' for Active; 'I' for Inactive)
DOCKED: REMARK    1  A    between atoms: C_2  and  C_19 
DOCKED: REMARK    2  A    between atoms: C_2  and  C_11 
DOCKED: REMARK    3  A    between atoms: C_19  and  C_20 
DOCKED: REMARK    4  A    between atoms: C_20  and  C_21 
DOCKED: REMARK    5  A    between atoms: C_21  and  N_22 
DOCKED: USER                              x       y       z     vdW  Elec       q    Type
DOCKED: USER                           _______ _______ _______ _____ _____    ______ ____
DOCKED: ROOT
DOCKED: ATOM      1  O   UNL     1     -51.809 -31.328   7.413 -0.07 -0.00    -0.346 OA 
DOCKED: ATOM      2  C   UNL     1     -52.437 -32.614   7.720 -0.17 +0.00    +0.130 C  
DOCKED: ATOM      3  C   UNL     1     -52.890 -33.122   6.382 -0.32 +0.00    +0.004 A  
DOCKED: ATOM      4  C   UNL     1     -52.461 -32.258   5.385 -0.34 +0.00    +0.006 A  
DOCKED: ATOM      5  C   UNL     1     -51.695 -31.141   5.983 -0.15 +0.00    +0.169 C  
DOCKED: ATOM      6  C   UNL     1     -53.615 -34.263   6.071 -0.33 -0.00    -0.001 A  
DOCKED: ATOM      7  C   UNL     1     -52.742 -32.500   4.051 -0.13 +0.00    +0.008 A  
DOCKED: ATOM      8  C   UNL     1     -53.910 -34.520   4.731 -0.44 +0.00    +0.010 A  
DOCKED: ATOM      9  C   UNL     1     -53.475 -33.642   3.726 -0.43 +0.00    +0.068 A  
DOCKED: ATOM     10  N   UNL     1     -54.036 -34.150   1.248 -3.10 -0.00    -0.191 NA 
DOCKED: ATOM     11  C   UNL     1     -53.785 -33.922   2.360 -0.28 +0.00    +0.101 C  
DOCKED: ENDROOT
DOCKED: BRANCH   2  12
DOCKED: ATOM     12  C   UNL     1     -51.398 -33.515   8.376 -0.27 +0.00    +0.038 C  
DOCKED: BRANCH  12  13
DOCKED: ATOM     13  C   UNL     1     -50.056 -33.437   7.651 -0.18 +0.00    +0.038 C  
DOCKED: BRANCH  13  14
DOCKED: ATOM     14  C   UNL     1     -49.122 -32.437   8.328 -0.13 +0.00    +0.251 C  
DOCKED: BRANCH  14  15
DOCKED: ATOM     15  N   UNL     1     -49.334 -32.441   9.771 -0.11 +0.00    +0.141 N  
DOCKED: ATOM     16  C   UNL     1     -48.120 -32.866  10.469 -0.03 +0.00    +0.285 C  
DOCKED: ATOM     17  C   UNL     1     -49.750 -31.117  10.235 -0.03 +0.00    +0.285 C  
DOCKED: ENDBRANCH  14  15
DOCKED: ENDBRANCH  13  14
DOCKED: ENDBRANCH  12  13
DOCKED: ENDBRANCH   2  12
DOCKED: BRANCH   2  18
DOCKED: ATOM     18  C   UNL     1     -53.571 -32.333   8.650 -0.10 +0.00    +0.006 A  
DOCKED: ATOM     19  C   UNL     1     -54.873 -32.260   8.158 -0.13 +0.00    +0.001 A  
DOCKED: ATOM     20  C   UNL     1     -55.932 -31.997   9.029 -0.08 +0.00    +0.029 A  
DOCKED: ATOM     21  C   UNL     1     -55.687 -31.809  10.388 -0.01 +0.00    +0.140 A  
DOCKED: ATOM     22  C   UNL     1     -54.384 -31.883  10.879 -0.03 +0.00    +0.029 A  
DOCKED: ATOM     23  F   UNL     1     -56.704 -31.559  11.223 +0.01 -0.00    -0.204 F  
DOCKED: ATOM     24  C   UNL     1     -53.324 -32.145  10.009 -0.06 +0.00    +0.001 A  
DOCKED: ENDBRANCH   2  18
DOCKED: TORSDOF 5
DOCKED: TER
DOCKED: ENDMDL
________________________________________________________________________________


    FINAL DOCKED STATE:
    ________________________


Run:   204 / 512
Time taken for this run:   0.001s

DOCKED: MODEL        204
DOCKED: USER    Run = 204
DOCKED: USER
DOCKED: USER    Estimated Free Energy of Binding    =  -4.92 kcal/mol  [=(1)+(2)+(3)-(4)]
DOCKED: USER
DOCKED: USER    (1) Final Intermolecular Energy     =  -6.41 kcal/mol
DOCKED: USER        vdW + Hbond + desolv Energy     =  -6.41 kcal/mol
DOCKED: USER        Electrostatic Energy            =  +0.00 kcal/mol
DOCKED: USER        Moving Ligand-Fixed Receptor    =  -6.41 kcal/mol
DOCKED: USER        Moving Ligand-Moving Receptor   =  +0.00 kcal/mol
DOCKED: USER    (2) Final Total Internal Energy     =  -1.18 kcal/mol
DOCKED: USER    (3) Torsional Free Energy           =  +1.49 kcal/mol
DOCKED: USER    (4) Unbound System's Energy         =  -1.18 kcal/mol
DOCKED: USER
DOCKED: USER
DOCKED: REMARK  5 active torsions:
DOCKED: REMARK  status: ('A' for Active; 'I' for Inactive)
DOCKED: REMARK    1  A    between atoms: C_2  and  C_19 
DOCKED: REMARK    2  A    between atoms: C_2  and  C_11 
DOCKED: REMARK    3  A    between atoms: C_19  and  C_20 
DOCKED: REMARK    4  A    between atoms: C_20  and  C_21 
DOCKED: REMARK    5  A    between atoms: C_21  and  N_22 
DOCKED: USER                              x       y       z     vdW  Elec       q    Type
DOCKED: USER                           _______ _______ _______ _____ _____    ______ ____
DOCKED: ROOT
DOCKED: ATOM      1  O   UNL     1     -52.499 -31.134   8.396 -0.01 -0.00    -0.346 OA 
DOCKED: ATOM      2  C   UNL     1     -51.569 -32.260   8.290 -0.16 +0.00    +0.130 C  
DOCKED: ATOM      3  C   UNL     1     -51.924 -32.898   6.978 -0.30 +0.00    +0.004 A  
DOCKED: ATOM      4  C   UNL     1     -52.895 -32.140   6.338 -0.30 +0.00    +0.006 A  
DOCKED: ATOM      5  C   UNL     1     -53.235 -30.960   7.163 -0.18 +0.00    +0.169 C  
DOCKED: ATOM      6  C   UNL     1     -51.419 -34.050   6.393 -0.39 -0.00    -0.001 A  
DOCKED: ATOM      7  C   UNL     1     -53.396 -32.508   5.101 -0.19 +0.00    +0.008 A  
DOCKED: ATOM      8  C   UNL     1     -51.918 -34.436   5.147 -0.33 +0.00    +0.010 A  
DOCKED: ATOM      9  C   UNL     1     -52.900 -33.668   4.505 -0.42 +0.00    +0.068 A  
DOCKED: ATOM     10  N   UNL     1     -53.800 -34.411   2.191 -2.12 -0.00    -0.191 NA 
DOCKED: ATOM     11  C   UNL     1     -53.397 -34.078   3.229 -0.52 +0.00    +0.101 C  
DOCKED: ENDROOT
DOCKED: BRANCH   2  12
DOCKED: ATOM     12  C   UNL     1     -50.146 -31.714   8.319 -0.20 +0.00    +0.038 C  
DOCKED: BRANCH  12  13
DOCKED: ATOM     13  C   UNL     1     -49.957 -30.596   7.295 -0.13 +0.00    +0.038 C  
DOCKED: BRANCH  13  14
DOCKED: ATOM     14  C   UNL     1     -48.930 -29.575   7.780 -0.08 +0.00    +0.251 C  
DOCKED: BRANCH  14  15
DOCKED: ATOM     15  N   UNL     1     -49.541 -28.256   7.894 -0.04 +0.00    +0.141 N  
DOCKED: ATOM     16  C   UNL     1     -50.967 -28.317   7.567 -0.07 +0.00    +0.285 C  
DOCKED: ATOM     17  C   UNL     1     -49.352 -27.715   9.241 -0.01 +0.00    +0.285 C  
DOCKED: ENDBRANCH  14  15
DOCKED: ENDBRANCH  13  14
DOCKED: ENDBRANCH  12  13
DOCKED: ENDBRANCH   2  12
DOCKED: BRANCH   2  18
DOCKED: ATOM     18  C   UNL     1     -51.827 -33.151   9.459 -0.15 +0.00    +0.006 A  
DOCKED: ATOM     19  C   UNL     1     -50.776 -33.527  10.294 -0.13 +0.00    +0.001 A  
DOCKED: ATOM     20  C   UNL     1     -51.019 -34.360  11.386 -0.20 +0.00    +0.029 A  
DOCKED: ATOM     21  C   UNL     1     -52.312 -34.815  11.642 -0.14 +0.00    +0.140 A  
DOCKED: ATOM     22  C   UNL     1     -53.363 -34.438  10.807 -0.13 +0.00    +0.029 A  
DOCKED: ATOM     23  F   UNL     1     -52.545 -35.614  12.692 -0.05 -0.00    -0.204 F  
DOCKED: ATOM     24  C   UNL     1     -53.121 -33.605   9.713 -0.16 +0.00    +0.001 A  
DOCKED: ENDBRANCH   2  18
DOCKED: TORSDOF 5
DOCKED: TER
DOCKED: ENDMDL
________________________________________________________________________________


    FINAL DOCKED STATE:
    ________________________


Run:   205 / 512
Time taken for this run:   0.001s

DOCKED: MODEL        205
DOCKED: USER    Run = 205
DOCKED: USER
DOCKED: USER    Estimated Free Energy of Binding    =  -3.61 kcal/mol  [=(1)+(2)+(3)-(4)]
DOCKED: USER
DOCKED: USER    (1) Final Intermolecular Energy     =  -5.10 kcal/mol
DOCKED: USER        vdW + Hbond + desolv Energy     =  -5.10 kcal/mol
DOCKED: USER        Electrostatic Energy            =  +0.00 kcal/mol
DOCKED: USER        Moving Ligand-Fixed Receptor    =  -5.10 kcal/mol
DOCKED: USER        Moving Ligand-Moving Receptor   =  +0.00 kcal/mol
DOCKED: USER    (2) Final Total Internal Energy     =  -1.55 kcal/mol
DOCKED: USER    (3) Torsional Free Energy           =  +1.49 kcal/mol
DOCKED: USER    (4) Unbound System's Energy         =  -1.55 kcal/mol
DOCKED: USER
DOCKED: USER
DOCKED: REMARK  5 active torsions:
DOCKED: REMARK  status: ('A' for Active; 'I' for Inactive)
DOCKED: REMARK    1  A    between atoms: C_2  and  C_19 
DOCKED: REMARK    2  A    between atoms: C_2  and  C_11 
DOCKED: REMARK    3  A    between atoms: C_19  and  C_20 
DOCKED: REMARK    4  A    between atoms: C_20  and  C_21 
DOCKED: REMARK    5  A    between atoms: C_21  and  N_22 
DOCKED: USER                              x       y       z     vdW  Elec       q    Type
DOCKED: USER                           _______ _______ _______ _____ _____    ______ ____
DOCKED: ROOT
DOCKED: ATOM      1  O   UNL     1     -49.798 -32.620  10.500 -0.05 -0.00    -0.346 OA 
DOCKED: ATOM      2  C   UNL     1     -49.732 -31.670   9.388 -0.11 +0.00    +0.130 C  
DOCKED: ATOM      3  C   UNL     1     -50.607 -32.286   8.336 -0.21 +0.00    +0.004 A  
DOCKED: ATOM      4  C   UNL     1     -51.209 -33.430   8.840 -0.21 +0.00    +0.006 A  
DOCKED: ATOM      5  C   UNL     1     -50.790 -33.641  10.244 -0.09 +0.00    +0.169 C  
DOCKED: ATOM      6  C   UNL     1     -50.860 -31.861   7.040 -0.19 -0.00    -0.001 A  
DOCKED: ATOM      7  C   UNL     1     -52.075 -34.188   8.071 -0.29 +0.00    +0.008 A  
DOCKED: ATOM      8  C   UNL     1     -51.728 -32.617   6.250 -0.32 +0.00    +0.010 A  
DOCKED: ATOM      9  C   UNL     1     -52.333 -33.774   6.763 -0.29 +0.00    +0.068 A  
DOCKED: ATOM     10  N   UNL     1     -53.943 -35.151   5.271 -2.39 -0.00    -0.191 NA 
DOCKED: ATOM     11  C   UNL     1     -53.220 -34.534   5.940 -0.18 +0.00    +0.101 C  
DOCKED: ENDROOT
DOCKED: BRANCH   2  12
DOCKED: ATOM     12  C   UNL     1     -50.248 -30.321   9.875 -0.05 +0.00    +0.038 C  
DOCKED: BRANCH  12  13
DOCKED: ATOM     13  C   UNL     1     -50.461 -30.319  11.388 -0.02 +0.00    +0.038 C  
DOCKED: BRANCH  13  14
DOCKED: ATOM     14  C   UNL     1     -49.192 -29.888  12.121 -0.00 +0.00    +0.251 C  
DOCKED: BRANCH  14  15
DOCKED: ATOM     15  N   UNL     1     -48.739 -30.946  13.017 -0.01 +0.00    +0.141 N  
DOCKED: ATOM     16  C   UNL     1     -49.841 -31.853  13.342 -0.01 +0.00    +0.285 C  
DOCKED: ATOM     17  C   UNL     1     -47.630 -31.689  12.417 -0.01 +0.00    +0.285 C  
DOCKED: ENDBRANCH  14  15
DOCKED: ENDBRANCH  13  14
DOCKED: ENDBRANCH  12  13
DOCKED: ENDBRANCH   2  12
DOCKED: BRANCH   2  18
DOCKED: ATOM     18  C   UNL     1     -48.301 -31.581   8.975 -0.14 +0.00    +0.006 A  
DOCKED: ATOM     19  C   UNL     1     -47.473 -32.697   9.086 -0.15 +0.00    +0.001 A  
DOCKED: ATOM     20  C   UNL     1     -46.135 -32.612   8.699 -0.15 +0.00    +0.029 A  
DOCKED: ATOM     21  C   UNL     1     -45.627 -31.413   8.203 -0.07 +0.00    +0.140 A  
DOCKED: ATOM     22  C   UNL     1     -46.456 -30.297   8.092 -0.08 +0.00    +0.029 A  
DOCKED: ATOM     23  F   UNL     1     -44.343 -31.332   7.830 +0.00 -0.00    -0.204 F  
DOCKED: ATOM     24  C   UNL     1     -47.794 -30.380   8.479 -0.10 +0.00    +0.001 A  
DOCKED: ENDBRANCH   2  18
DOCKED: TORSDOF 5
DOCKED: TER
DOCKED: ENDMDL
________________________________________________________________________________


    FINAL DOCKED STATE:
    ________________________


Run:   206 / 512
Time taken for this run:   0.001s

DOCKED: MODEL        206
DOCKED: USER    Run = 206
DOCKED: USER
DOCKED: USER    Estimated Free Energy of Binding    =  -4.04 kcal/mol  [=(1)+(2)+(3)-(4)]
DOCKED: USER
DOCKED: USER    (1) Final Intermolecular Energy     =  -5.53 kcal/mol
DOCKED: USER        vdW + Hbond + desolv Energy     =  -5.53 kcal/mol
DOCKED: USER        Electrostatic Energy            =  +0.00 kcal/mol
DOCKED: USER        Moving Ligand-Fixed Receptor    =  -5.53 kcal/mol
DOCKED: USER        Moving Ligand-Moving Receptor   =  +0.00 kcal/mol
DOCKED: USER    (2) Final Total Internal Energy     =  -1.39 kcal/mol
DOCKED: USER    (3) Torsional Free Energy           =  +1.49 kcal/mol
DOCKED: USER    (4) Unbound System's Energy         =  -1.39 kcal/mol
DOCKED: USER
DOCKED: USER
DOCKED: REMARK  5 active torsions:
DOCKED: REMARK  status: ('A' for Active; 'I' for Inactive)
DOCKED: REMARK    1  A    between atoms: C_2  and  C_19 
DOCKED: REMARK    2  A    between atoms: C_2  and  C_11 
DOCKED: REMARK    3  A    between atoms: C_19  and  C_20 
DOCKED: REMARK    4  A    between atoms: C_20  and  C_21 
DOCKED: REMARK    5  A    between atoms: C_21  and  N_22 
DOCKED: USER                              x       y       z     vdW  Elec       q    Type
DOCKED: USER                           _______ _______ _______ _____ _____    ______ ____
DOCKED: ROOT
DOCKED: ATOM      1  O   UNL     1     -45.693 -20.785  -0.571 -0.08 -0.00    -0.346 OA 
DOCKED: ATOM      2  C   UNL     1     -45.646 -22.205  -0.921 -0.12 +0.00    +0.130 C  
DOCKED: ATOM      3  C   UNL     1     -46.785 -22.377  -1.883 -0.17 +0.00    +0.004 A  
DOCKED: ATOM      4  C   UNL     1     -47.363 -21.143  -2.147 -0.23 +0.00    +0.006 A  
DOCKED: ATOM      5  C   UNL     1     -46.650 -20.084  -1.399 -0.21 +0.00    +0.169 C  
DOCKED: ATOM      6  C   UNL     1     -47.264 -23.531  -2.486 -0.16 -0.00    -0.001 A  
DOCKED: ATOM      7  C   UNL     1     -48.436 -21.021  -3.013 -0.22 +0.00    +0.008 A  
DOCKED: ATOM      8  C   UNL     1     -48.349 -23.424  -3.359 -0.26 +0.00    +0.010 A  
DOCKED: ATOM      9  C   UNL     1     -48.931 -22.175  -3.621 -0.35 +0.00    +0.068 A  
DOCKED: ATOM     10  N   UNL     1     -50.940 -22.012  -5.250 -2.55 -0.00    -0.191 NA 
DOCKED: ATOM     11  C   UNL     1     -50.039 -22.086  -4.519 -0.44 +0.00    +0.101 C  
DOCKED: ENDROOT
DOCKED: BRANCH   2  12
DOCKED: ATOM     12  C   UNL     1     -44.289 -22.503  -1.548 -0.05 +0.00    +0.038 C  
DOCKED: BRANCH  12  13
DOCKED: ATOM     13  C   UNL     1     -43.592 -21.222  -2.003 -0.03 +0.00    +0.038 C  
DOCKED: BRANCH  13  14
DOCKED: ATOM     14  C   UNL     1     -43.543 -21.134  -3.527 -0.01 +0.00    +0.251 C  
DOCKED: BRANCH  14  15
DOCKED: ATOM     15  N   UNL     1     -44.822 -21.537  -4.099 -0.04 +0.00    +0.141 N  
DOCKED: ATOM     16  C   UNL     1     -45.308 -20.525  -5.040 -0.05 +0.00    +0.285 C  
DOCKED: ATOM     17  C   UNL     1     -44.703 -22.834  -4.766 +0.00 +0.00    +0.285 C  
DOCKED: ENDBRANCH  14  15
DOCKED: ENDBRANCH  13  14
DOCKED: ENDBRANCH  12  13
DOCKED: ENDBRANCH   2  12
DOCKED: BRANCH   2  18
DOCKED: ATOM     18  C   UNL     1     -45.833 -22.973   0.345 -0.11 +0.00    +0.006 A  
DOCKED: ATOM     19  C   UNL     1     -47.035 -23.637   0.586 -0.08 +0.00    +0.001 A  
DOCKED: ATOM     20  C   UNL     1     -47.210 -24.354   1.770 -0.13 +0.00    +0.029 A  
DOCKED: ATOM     21  C   UNL     1     -46.183 -24.406   2.711 -0.07 +0.00    +0.140 A  
DOCKED: ATOM     22  C   UNL     1     -44.980 -23.741   2.470 -0.07 +0.00    +0.029 A  
DOCKED: ATOM     23  F   UNL     1     -46.350 -25.095   3.847 -0.01 -0.00    -0.204 F  
DOCKED: ATOM     24  C   UNL     1     -44.805 -23.023   1.286 -0.09 +0.00    +0.001 A  
DOCKED: ENDBRANCH   2  18
DOCKED: TORSDOF 5
DOCKED: TER
DOCKED: ENDMDL
________________________________________________________________________________


    FINAL DOCKED STATE:
    ________________________


Run:   207 / 512
Time taken for this run:   0.001s

DOCKED: MODEL        207
DOCKED: USER    Run = 207
DOCKED: USER
DOCKED: USER    Estimated Free Energy of Binding    =  -4.28 kcal/mol  [=(1)+(2)+(3)-(4)]
DOCKED: USER
DOCKED: USER    (1) Final Intermolecular Energy     =  -5.77 kcal/mol
DOCKED: USER        vdW + Hbond + desolv Energy     =  -5.77 kcal/mol
DOCKED: USER        Electrostatic Energy            =  +0.00 kcal/mol
DOCKED: USER        Moving Ligand-Fixed Receptor    =  -5.77 kcal/mol
DOCKED: USER        Moving Ligand-Moving Receptor   =  +0.00 kcal/mol
DOCKED: USER    (2) Final Total Internal Energy     =  -1.40 kcal/mol
DOCKED: USER    (3) Torsional Free Energy           =  +1.49 kcal/mol
DOCKED: USER    (4) Unbound System's Energy         =  -1.40 kcal/mol
DOCKED: USER
DOCKED: USER
DOCKED: REMARK  5 active torsions:
DOCKED: REMARK  status: ('A' for Active; 'I' for Inactive)
DOCKED: REMARK    1  A    between atoms: C_2  and  C_19 
DOCKED: REMARK    2  A    between atoms: C_2  and  C_11 
DOCKED: REMARK    3  A    between atoms: C_19  and  C_20 
DOCKED: REMARK    4  A    between atoms: C_20  and  C_21 
DOCKED: REMARK    5  A    between atoms: C_21  and  N_22 
DOCKED: USER                              x       y       z     vdW  Elec       q    Type
DOCKED: USER                           _______ _______ _______ _____ _____    ______ ____
DOCKED: ROOT
DOCKED: ATOM      1  O   UNL     1     -52.209 -31.058   9.062 -0.01 -0.00    -0.346 OA 
DOCKED: ATOM      2  C   UNL     1     -51.251 -32.155   8.921 -0.12 +0.00    +0.130 C  
DOCKED: ATOM      3  C   UNL     1     -51.591 -32.761   7.591 -0.26 +0.00    +0.004 A  
DOCKED: ATOM      4  C   UNL     1     -52.582 -32.010   6.975 -0.25 +0.00    +0.006 A  
DOCKED: ATOM      5  C   UNL     1     -52.952 -30.865   7.836 -0.12 +0.00    +0.169 C  
DOCKED: ATOM      6  C   UNL     1     -51.058 -33.882   6.970 -0.37 -0.00    -0.001 A  
DOCKED: ATOM      7  C   UNL     1     -53.076 -32.353   5.728 -0.33 +0.00    +0.008 A  
DOCKED: ATOM      8  C   UNL     1     -51.548 -34.243   5.714 -0.32 +0.00    +0.010 A  
DOCKED: ATOM      9  C   UNL     1     -52.552 -33.481   5.096 -0.37 +0.00    +0.068 A  
DOCKED: ATOM     10  N   UNL     1     -53.435 -34.176   2.762 -1.79 -0.00    -0.191 NA 
DOCKED: ATOM     11  C   UNL     1     -53.040 -33.865   3.809 -0.52 +0.00    +0.101 C  
DOCKED: ENDROOT
DOCKED: BRANCH   2  12
DOCKED: ATOM     12  C   UNL     1     -49.842 -31.573   8.965 -0.16 +0.00    +0.038 C  
DOCKED: BRANCH  12  13
DOCKED: ATOM     13  C   UNL     1     -49.557 -30.711   7.737 -0.14 +0.00    +0.038 C  
DOCKED: BRANCH  13  14
DOCKED: ATOM     14  C   UNL     1     -49.811 -29.234   8.032 -0.07 +0.00    +0.251 C  
DOCKED: BRANCH  14  15
DOCKED: ATOM     15  N   UNL     1     -50.266 -28.548   6.828 -0.11 +0.00    +0.141 N  
DOCKED: ATOM     16  C   UNL     1     -50.493 -29.504   5.743 +0.15 +0.00    +0.285 C  
DOCKED: ATOM     17  C   UNL     1     -51.488 -27.788   7.098 -0.08 +0.00    +0.285 C  
DOCKED: ENDBRANCH  14  15
DOCKED: ENDBRANCH  13  14
DOCKED: ENDBRANCH  12  13
DOCKED: ENDBRANCH   2  12
DOCKED: BRANCH   2  18
DOCKED: ATOM     18  C   UNL     1     -51.484 -33.087  10.063 -0.14 +0.00    +0.006 A  
DOCKED: ATOM     19  C   UNL     1     -50.557 -33.163  11.101 -0.13 +0.00    +0.001 A  
DOCKED: ATOM     20  C   UNL     1     -50.776 -34.036  12.168 -0.15 +0.00    +0.029 A  
DOCKED: ATOM     21  C   UNL     1     -51.922 -34.830  12.194 -0.16 +0.00    +0.140 A  
DOCKED: ATOM     22  C   UNL     1     -52.849 -34.753  11.156 -0.11 +0.00    +0.029 A  
DOCKED: ATOM     23  F   UNL     1     -52.133 -35.666  13.219 -0.04 -0.00    -0.204 F  
DOCKED: ATOM     24  C   UNL     1     -52.630 -33.881  10.088 -0.18 +0.00    +0.001 A  
DOCKED: ENDBRANCH   2  18
DOCKED: TORSDOF 5
DOCKED: TER
DOCKED: ENDMDL
________________________________________________________________________________


    FINAL DOCKED STATE:
    ________________________


Run:   208 / 512
Time taken for this run:   0.001s

DOCKED: MODEL        208
DOCKED: USER    Run = 208
DOCKED: USER
DOCKED: USER    Estimated Free Energy of Binding    =  -4.16 kcal/mol  [=(1)+(2)+(3)-(4)]
DOCKED: USER
DOCKED: USER    (1) Final Intermolecular Energy     =  -5.65 kcal/mol
DOCKED: USER        vdW + Hbond + desolv Energy     =  -5.65 kcal/mol
DOCKED: USER        Electrostatic Energy            =  +0.00 kcal/mol
DOCKED: USER        Moving Ligand-Fixed Receptor    =  -5.65 kcal/mol
DOCKED: USER        Moving Ligand-Moving Receptor   =  +0.00 kcal/mol
DOCKED: USER    (2) Final Total Internal Energy     =  -1.40 kcal/mol
DOCKED: USER    (3) Torsional Free Energy           =  +1.49 kcal/mol
DOCKED: USER    (4) Unbound System's Energy         =  -1.40 kcal/mol
DOCKED: USER
DOCKED: USER
DOCKED: REMARK  5 active torsions:
DOCKED: REMARK  status: ('A' for Active; 'I' for Inactive)
DOCKED: REMARK    1  A    between atoms: C_2  and  C_19 
DOCKED: REMARK    2  A    between atoms: C_2  and  C_11 
DOCKED: REMARK    3  A    between atoms: C_19  and  C_20 
DOCKED: REMARK    4  A    between atoms: C_20  and  C_21 
DOCKED: REMARK    5  A    between atoms: C_21  and  N_22 
DOCKED: USER                              x       y       z     vdW  Elec       q    Type
DOCKED: USER                           _______ _______ _______ _____ _____    ______ ____
DOCKED: ROOT
DOCKED: ATOM      1  O   UNL     1     -50.527 -29.603   7.768 -0.05 -0.00    -0.346 OA 
DOCKED: ATOM      2  C   UNL     1     -51.971 -29.371   7.798 -0.12 +0.00    +0.130 C  
DOCKED: ATOM      3  C   UNL     1     -52.551 -30.643   7.250 -0.21 +0.00    +0.004 A  
DOCKED: ATOM      4  C   UNL     1     -51.535 -31.563   7.030 -0.26 +0.00    +0.006 A  
DOCKED: ATOM      5  C   UNL     1     -50.234 -30.977   7.424 -0.12 +0.00    +0.169 C  
DOCKED: ATOM      6  C   UNL     1     -53.873 -30.965   6.979 -0.22 -0.00    -0.001 A  
DOCKED: ATOM      7  C   UNL     1     -51.802 -32.826   6.531 -0.33 +0.00    +0.008 A  
DOCKED: ATOM      8  C   UNL     1     -54.158 -32.234   6.471 -0.24 +0.00    +0.010 A  
DOCKED: ATOM      9  C   UNL     1     -53.128 -33.159   6.249 -0.27 +0.00    +0.068 A  
DOCKED: ATOM     10  N   UNL     1     -53.692 -35.507   5.310 -2.55 -0.00    -0.191 NA 
DOCKED: ATOM     11  C   UNL     1     -53.439 -34.454   5.730 -0.34 +0.00    +0.101 C  
DOCKED: ENDROOT
DOCKED: BRANCH   2  12
DOCKED: ATOM     12  C   UNL     1     -52.387 -29.102   9.239 -0.04 +0.00    +0.038 C  
DOCKED: BRANCH  12  13
DOCKED: ATOM     13  C   UNL     1     -51.226 -29.328  10.205 -0.02 +0.00    +0.038 C  
DOCKED: BRANCH  13  14
DOCKED: ATOM     14  C   UNL     1     -50.330 -28.093  10.286 -0.00 +0.00    +0.251 C  
DOCKED: BRANCH  14  15
DOCKED: ATOM     15  N   UNL     1     -51.110 -26.884  10.045 -0.00 +0.00    +0.141 N  
DOCKED: ATOM     16  C   UNL     1     -51.332 -26.157  11.296 +0.00 +0.00    +0.285 C  
DOCKED: ATOM     17  C   UNL     1     -50.439 -26.023   9.070 -0.00 +0.00    +0.285 C  
DOCKED: ENDBRANCH  14  15
DOCKED: ENDBRANCH  13  14
DOCKED: ENDBRANCH  12  13
DOCKED: ENDBRANCH   2  12
DOCKED: BRANCH   2  18
DOCKED: ATOM     18  C   UNL     1     -52.241 -28.188   6.929 -0.16 +0.00    +0.006 A  
DOCKED: ATOM     19  C   UNL     1     -51.207 -27.616   6.190 -0.12 +0.00    +0.001 A  
DOCKED: ATOM     20  C   UNL     1     -51.460 -26.509   5.379 -0.10 +0.00    +0.029 A  
DOCKED: ATOM     21  C   UNL     1     -52.747 -25.977   5.307 -0.13 +0.00    +0.140 A  
DOCKED: ATOM     22  C   UNL     1     -53.781 -26.551   6.046 -0.17 +0.00    +0.029 A  
DOCKED: ATOM     23  F   UNL     1     -52.990 -24.916   4.527 -0.03 -0.00    -0.204 F  
DOCKED: ATOM     24  C   UNL     1     -53.529 -27.657   6.859 -0.19 +0.00    +0.001 A  
DOCKED: ENDBRANCH   2  18
DOCKED: TORSDOF 5
DOCKED: TER
DOCKED: ENDMDL
________________________________________________________________________________


    FINAL DOCKED STATE:
    ________________________


Run:   209 / 512
Time taken for this run:   0.001s

DOCKED: MODEL        209
DOCKED: USER    Run = 209
DOCKED: USER
DOCKED: USER    Estimated Free Energy of Binding    =  -4.46 kcal/mol  [=(1)+(2)+(3)-(4)]
DOCKED: USER
DOCKED: USER    (1) Final Intermolecular Energy     =  -5.95 kcal/mol
DOCKED: USER        vdW + Hbond + desolv Energy     =  -5.95 kcal/mol
DOCKED: USER        Electrostatic Energy            =  +0.00 kcal/mol
DOCKED: USER        Moving Ligand-Fixed Receptor    =  -5.95 kcal/mol
DOCKED: USER        Moving Ligand-Moving Receptor   =  +0.00 kcal/mol
DOCKED: USER    (2) Final Total Internal Energy     =  -1.18 kcal/mol
DOCKED: USER    (3) Torsional Free Energy           =  +1.49 kcal/mol
DOCKED: USER    (4) Unbound System's Energy         =  -1.18 kcal/mol
DOCKED: USER
DOCKED: USER
DOCKED: REMARK  5 active torsions:
DOCKED: REMARK  status: ('A' for Active; 'I' for Inactive)
DOCKED: REMARK    1  A    between atoms: C_2  and  C_19 
DOCKED: REMARK    2  A    between atoms: C_2  and  C_11 
DOCKED: REMARK    3  A    between atoms: C_19  and  C_20 
DOCKED: REMARK    4  A    between atoms: C_20  and  C_21 
DOCKED: REMARK    5  A    between atoms: C_21  and  N_22 
DOCKED: USER                              x       y       z     vdW  Elec       q    Type
DOCKED: USER                           _______ _______ _______ _____ _____    ______ ____
DOCKED: ROOT
DOCKED: ATOM      1  O   UNL     1     -51.207 -28.703   6.909 -0.06 -0.00    -0.346 OA 
DOCKED: ATOM      2  C   UNL     1     -52.601 -28.739   7.353 -0.15 +0.00    +0.130 C  
DOCKED: ATOM      3  C   UNL     1     -53.065 -30.114   6.970 -0.22 +0.00    +0.004 A  
DOCKED: ATOM      4  C   UNL     1     -52.001 -30.839   6.453 -0.27 +0.00    +0.006 A  
DOCKED: ATOM      5  C   UNL     1     -50.774 -30.012   6.470 -0.18 +0.00    +0.169 C  
DOCKED: ATOM      6  C   UNL     1     -54.326 -30.682   7.080 -0.22 -0.00    -0.001 A  
DOCKED: ATOM      7  C   UNL     1     -52.159 -32.147   6.028 -0.34 +0.00    +0.008 A  
DOCKED: ATOM      8  C   UNL     1     -54.503 -31.999   6.651 -0.22 +0.00    +0.010 A  
DOCKED: ATOM      9  C   UNL     1     -53.424 -32.727   6.128 -0.26 +0.00    +0.068 A  
DOCKED: ATOM     10  N   UNL     1     -53.785 -35.171   5.345 -2.56 -0.00    -0.191 NA 
DOCKED: ATOM     11  C   UNL     1     -53.623 -34.075   5.696 -0.36 +0.00    +0.101 C  
DOCKED: ENDROOT
DOCKED: BRANCH   2  12
DOCKED: ATOM     12  C   UNL     1     -52.634 -28.499   8.858 -0.05 +0.00    +0.038 C  
DOCKED: BRANCH  12  13
DOCKED: ATOM     13  C   UNL     1     -51.231 -28.540   9.460 -0.03 +0.00    +0.038 C  
DOCKED: BRANCH  13  14
DOCKED: ATOM     14  C   UNL     1     -50.938 -29.906  10.078 -0.01 +0.00    +0.251 C  
DOCKED: BRANCH  14  15
DOCKED: ATOM     15  N   UNL     1     -52.075 -30.360  10.869 -0.01 +0.00    +0.141 N  
DOCKED: ATOM     16  C   UNL     1     -51.852 -31.721  11.359 -0.01 +0.00    +0.285 C  
DOCKED: ATOM     17  C   UNL     1     -52.320 -29.450  11.989 -0.00 +0.00    +0.285 C  
DOCKED: ENDBRANCH  14  15
DOCKED: ENDBRANCH  13  14
DOCKED: ENDBRANCH  12  13
DOCKED: ENDBRANCH   2  12
DOCKED: BRANCH   2  18
DOCKED: ATOM     18  C   UNL     1     -53.320 -27.657   6.620 -0.19 +0.00    +0.006 A  
DOCKED: ATOM     19  C   UNL     1     -52.612 -26.783   5.796 -0.15 +0.00    +0.001 A  
DOCKED: ATOM     20  C   UNL     1     -53.286 -25.772   5.111 -0.16 +0.00    +0.029 A  
DOCKED: ATOM     21  C   UNL     1     -54.666 -25.635   5.250 -0.10 +0.00    +0.140 A  
DOCKED: ATOM     22  C   UNL     1     -55.374 -26.509   6.074 -0.17 +0.00    +0.029 A  
DOCKED: ATOM     23  F   UNL     1     -55.313 -24.665   4.591 -0.02 -0.00    -0.204 F  
DOCKED: ATOM     24  C   UNL     1     -54.701 -27.521   6.760 -0.21 +0.00    +0.001 A  
DOCKED: ENDBRANCH   2  18
DOCKED: TORSDOF 5
DOCKED: TER
DOCKED: ENDMDL
________________________________________________________________________________


    FINAL DOCKED STATE:
    ________________________


Run:   210 / 512
Time taken for this run:   0.001s

DOCKED: MODEL        210
DOCKED: USER    Run = 210
DOCKED: USER
DOCKED: USER    Estimated Free Energy of Binding    =  -4.26 kcal/mol  [=(1)+(2)+(3)-(4)]
DOCKED: USER
DOCKED: USER    (1) Final Intermolecular Energy     =  -5.75 kcal/mol
DOCKED: USER        vdW + Hbond + desolv Energy     =  -5.75 kcal/mol
DOCKED: USER        Electrostatic Energy            =  +0.00 kcal/mol
DOCKED: USER        Moving Ligand-Fixed Receptor    =  -5.75 kcal/mol
DOCKED: USER        Moving Ligand-Moving Receptor   =  +0.00 kcal/mol
DOCKED: USER    (2) Final Total Internal Energy     =  -1.45 kcal/mol
DOCKED: USER    (3) Torsional Free Energy           =  +1.49 kcal/mol
DOCKED: USER    (4) Unbound System's Energy         =  -1.45 kcal/mol
DOCKED: USER
DOCKED: USER
DOCKED: REMARK  5 active torsions:
DOCKED: REMARK  status: ('A' for Active; 'I' for Inactive)
DOCKED: REMARK    1  A    between atoms: C_2  and  C_19 
DOCKED: REMARK    2  A    between atoms: C_2  and  C_11 
DOCKED: REMARK    3  A    between atoms: C_19  and  C_20 
DOCKED: REMARK    4  A    between atoms: C_20  and  C_21 
DOCKED: REMARK    5  A    between atoms: C_21  and  N_22 
DOCKED: USER                              x       y       z     vdW  Elec       q    Type
DOCKED: USER                           _______ _______ _______ _____ _____    ______ ____
DOCKED: ROOT
DOCKED: ATOM      1  O   UNL     1     -49.486 -30.690   8.286 -0.07 -0.00    -0.346 OA 
DOCKED: ATOM      2  C   UNL     1     -50.668 -29.981   7.795 -0.13 +0.00    +0.130 C  
DOCKED: ATOM      3  C   UNL     1     -51.487 -31.058   7.143 -0.24 +0.00    +0.004 A  
DOCKED: ATOM      4  C   UNL     1     -50.881 -32.290   7.341 -0.25 +0.00    +0.006 A  
DOCKED: ATOM      5  C   UNL     1     -49.644 -32.120   8.136 -0.15 +0.00    +0.169 C  
DOCKED: ATOM      6  C   UNL     1     -52.679 -30.955   6.441 -0.27 -0.00    -0.001 A  
DOCKED: ATOM      7  C   UNL     1     -51.439 -33.456   6.844 -0.34 +0.00    +0.008 A  
DOCKED: ATOM      8  C   UNL     1     -53.252 -32.121   5.930 -0.28 +0.00    +0.010 A  
DOCKED: ATOM      9  C   UNL     1     -52.635 -33.365   6.131 -0.31 +0.00    +0.068 A  
DOCKED: ATOM     10  N   UNL     1     -53.728 -35.510   5.173 -2.47 -0.00    -0.191 NA 
DOCKED: ATOM     11  C   UNL     1     -53.237 -34.548   5.602 -0.34 +0.00    +0.101 C  
DOCKED: ENDROOT
DOCKED: BRANCH   2  12
DOCKED: ATOM     12  C   UNL     1     -51.373 -29.336   8.982 -0.05 +0.00    +0.038 C  
DOCKED: BRANCH  12  13
DOCKED: ATOM     13  C   UNL     1     -50.727 -29.749  10.304 -0.02 +0.00    +0.038 C  
DOCKED: BRANCH  13  14
DOCKED: ATOM     14  C   UNL     1     -51.530 -30.856  10.985 -0.01 +0.00    +0.251 C  
DOCKED: BRANCH  14  15
DOCKED: ATOM     15  N   UNL     1     -52.657 -31.253  10.150 -0.02 +0.00    +0.141 N  
DOCKED: ATOM     16  C   UNL     1     -52.781 -32.710  10.108 -0.04 +0.00    +0.285 C  
DOCKED: ATOM     17  C   UNL     1     -53.899 -30.652  10.640 -0.00 +0.00    +0.285 C  
DOCKED: ENDBRANCH  14  15
DOCKED: ENDBRANCH  13  14
DOCKED: ENDBRANCH  12  13
DOCKED: ENDBRANCH   2  12
DOCKED: BRANCH   2  18
DOCKED: ATOM     18  C   UNL     1     -50.188 -28.950   6.829 -0.16 +0.00    +0.006 A  
DOCKED: ATOM     19  C   UNL     1     -50.950 -27.806   6.596 -0.13 +0.00    +0.001 A  
DOCKED: ATOM     20  C   UNL     1     -50.501 -26.842   5.692 -0.10 +0.00    +0.029 A  
DOCKED: ATOM     21  C   UNL     1     -49.291 -27.024   5.023 -0.08 +0.00    +0.140 A  
DOCKED: ATOM     22  C   UNL     1     -48.530 -28.169   5.256 -0.13 +0.00    +0.029 A  
DOCKED: ATOM     23  F   UNL     1     -48.859 -26.099   4.157 -0.01 -0.00    -0.204 F  
DOCKED: ATOM     24  C   UNL     1     -48.979 -29.134   6.160 -0.14 +0.00    +0.001 A  
DOCKED: ENDBRANCH   2  18
DOCKED: TORSDOF 5
DOCKED: TER
DOCKED: ENDMDL
________________________________________________________________________________


    FINAL DOCKED STATE:
    ________________________


Run:   211 / 512
Time taken for this run:   0.001s

DOCKED: MODEL        211
DOCKED: USER    Run = 211
DOCKED: USER
DOCKED: USER    Estimated Free Energy of Binding    =  -4.00 kcal/mol  [=(1)+(2)+(3)-(4)]
DOCKED: USER
DOCKED: USER    (1) Final Intermolecular Energy     =  -5.49 kcal/mol
DOCKED: USER        vdW + Hbond + desolv Energy     =  -5.49 kcal/mol
DOCKED: USER        Electrostatic Energy            =  +0.00 kcal/mol
DOCKED: USER        Moving Ligand-Fixed Receptor    =  -5.49 kcal/mol
DOCKED: USER        Moving Ligand-Moving Receptor   =  +0.00 kcal/mol
DOCKED: USER    (2) Final Total Internal Energy     =  -1.40 kcal/mol
DOCKED: USER    (3) Torsional Free Energy           =  +1.49 kcal/mol
DOCKED: USER    (4) Unbound System's Energy         =  -1.40 kcal/mol
DOCKED: USER
DOCKED: USER
DOCKED: REMARK  5 active torsions:
DOCKED: REMARK  status: ('A' for Active; 'I' for Inactive)
DOCKED: REMARK    1  A    between atoms: C_2  and  C_19 
DOCKED: REMARK    2  A    between atoms: C_2  and  C_11 
DOCKED: REMARK    3  A    between atoms: C_19  and  C_20 
DOCKED: REMARK    4  A    between atoms: C_20  and  C_21 
DOCKED: REMARK    5  A    between atoms: C_21  and  N_22 
DOCKED: USER                              x       y       z     vdW  Elec       q    Type
DOCKED: USER                           _______ _______ _______ _____ _____    ______ ____
DOCKED: ROOT
DOCKED: ATOM      1  O   UNL     1     -47.032 -25.821  -0.227 -0.01 -0.00    -0.346 OA 
DOCKED: ATOM      2  C   UNL     1     -48.382 -25.656   0.313 -0.15 +0.00    +0.130 C  
DOCKED: ATOM      3  C   UNL     1     -49.085 -24.828  -0.724 -0.27 +0.00    +0.004 A  
DOCKED: ATOM      4  C   UNL     1     -48.247 -24.631  -1.812 -0.23 +0.00    +0.006 A  
DOCKED: ATOM      5  C   UNL     1     -46.954 -25.315  -1.580 -0.09 +0.00    +0.169 C  
DOCKED: ATOM      6  C   UNL     1     -50.368 -24.302  -0.710 -0.24 -0.00    -0.001 A  
DOCKED: ATOM      7  C   UNL     1     -48.657 -23.903  -2.915 -0.24 +0.00    +0.008 A  
DOCKED: ATOM      8  C   UNL     1     -50.795 -23.561  -1.813 -0.27 +0.00    +0.010 A  
DOCKED: ATOM      9  C   UNL     1     -49.943 -23.363  -2.910 -0.21 +0.00    +0.068 A  
DOCKED: ATOM     10  N   UNL     1     -50.769 -21.986  -4.944 -2.27 -0.00    -0.191 NA 
DOCKED: ATOM     11  C   UNL     1     -50.398 -22.603  -4.032 -0.34 +0.00    +0.101 C  
DOCKED: ENDROOT
DOCKED: BRANCH   2  12
DOCKED: ATOM     12  C   UNL     1     -49.002 -27.036   0.492 -0.22 +0.00    +0.038 C  
DOCKED: BRANCH  12  13
DOCKED: ATOM     13  C   UNL     1     -47.952 -28.072   0.886 -0.18 +0.00    +0.038 C  
DOCKED: BRANCH  13  14
DOCKED: ATOM     14  C   UNL     1     -47.251 -27.678   2.184 -0.05 +0.00    +0.251 C  
DOCKED: BRANCH  14  15
DOCKED: ATOM     15  N   UNL     1     -45.885 -27.246   1.913 -0.02 +0.00    +0.141 N  
DOCKED: ATOM     16  C   UNL     1     -45.146 -27.054   3.162 -0.00 +0.00    +0.285 C  
DOCKED: ATOM     17  C   UNL     1     -45.197 -28.218   1.061 -0.01 +0.00    +0.285 C  
DOCKED: ENDBRANCH  14  15
DOCKED: ENDBRANCH  13  14
DOCKED: ENDBRANCH  12  13
DOCKED: ENDBRANCH   2  12
DOCKED: BRANCH   2  18
DOCKED: ATOM     18  C   UNL     1     -48.244 -24.953   1.623 -0.16 +0.00    +0.006 A  
DOCKED: ATOM     19  C   UNL     1     -47.118 -24.173   1.880 -0.13 +0.00    +0.001 A  
DOCKED: ATOM     20  C   UNL     1     -46.991 -23.517   3.105 +0.02 +0.00    +0.029 A  
DOCKED: ATOM     21  C   UNL     1     -47.989 -23.642   4.070 -0.10 +0.00    +0.140 A  
DOCKED: ATOM     22  C   UNL     1     -49.116 -24.423   3.812 -0.13 +0.00    +0.029 A  
DOCKED: ATOM     23  F   UNL     1     -47.868 -23.011   5.245 -0.04 -0.00    -0.204 F  
DOCKED: ATOM     24  C   UNL     1     -49.244 -25.079   2.587 -0.16 +0.00    +0.001 A  
DOCKED: ENDBRANCH   2  18
DOCKED: TORSDOF 5
DOCKED: TER
DOCKED: ENDMDL
________________________________________________________________________________


    FINAL DOCKED STATE:
    ________________________


Run:   212 / 512
Time taken for this run:   0.001s

DOCKED: MODEL        212
DOCKED: USER    Run = 212
DOCKED: USER
DOCKED: USER    Estimated Free Energy of Binding    =  -5.09 kcal/mol  [=(1)+(2)+(3)-(4)]
DOCKED: USER
DOCKED: USER    (1) Final Intermolecular Energy     =  -6.59 kcal/mol
DOCKED: USER        vdW + Hbond + desolv Energy     =  -6.59 kcal/mol
DOCKED: USER        Electrostatic Energy            =  +0.00 kcal/mol
DOCKED: USER        Moving Ligand-Fixed Receptor    =  -6.59 kcal/mol
DOCKED: USER        Moving Ligand-Moving Receptor   =  +0.00 kcal/mol
DOCKED: USER    (2) Final Total Internal Energy     =  -0.97 kcal/mol
DOCKED: USER    (3) Torsional Free Energy           =  +1.49 kcal/mol
DOCKED: USER    (4) Unbound System's Energy         =  -0.97 kcal/mol
DOCKED: USER
DOCKED: USER
DOCKED: REMARK  5 active torsions:
DOCKED: REMARK  status: ('A' for Active; 'I' for Inactive)
DOCKED: REMARK    1  A    between atoms: C_2  and  C_19 
DOCKED: REMARK    2  A    between atoms: C_2  and  C_11 
DOCKED: REMARK    3  A    between atoms: C_19  and  C_20 
DOCKED: REMARK    4  A    between atoms: C_20  and  C_21 
DOCKED: REMARK    5  A    between atoms: C_21  and  N_22 
DOCKED: USER                              x       y       z     vdW  Elec       q    Type
DOCKED: USER                           _______ _______ _______ _____ _____    ______ ____
DOCKED: ROOT
DOCKED: ATOM      1  O   UNL     1     -53.895 -33.683   8.639 -0.05 -0.00    -0.346 OA 
DOCKED: ATOM      2  C   UNL     1     -53.122 -32.532   8.169 -0.12 +0.00    +0.130 C  
DOCKED: ATOM      3  C   UNL     1     -53.133 -32.679   6.674 -0.26 +0.00    +0.004 A  
DOCKED: ATOM      4  C   UNL     1     -53.933 -33.755   6.316 -0.29 +0.00    +0.006 A  
DOCKED: ATOM      5  C   UNL     1     -54.509 -34.378   7.529 -0.14 +0.00    +0.169 C  
DOCKED: ATOM      6  C   UNL     1     -52.495 -31.914   5.709 -0.33 -0.00    -0.001 A  
DOCKED: ATOM      7  C   UNL     1     -54.119 -34.104   4.990 -0.40 +0.00    +0.008 A  
DOCKED: ATOM      8  C   UNL     1     -52.669 -32.257   4.367 +0.05 +0.00    +0.010 A  
DOCKED: ATOM      9  C   UNL     1     -53.477 -33.346   4.009 -0.38 +0.00    +0.068 A  
DOCKED: ATOM     10  N   UNL     1     -53.782 -33.952   1.509 -3.01 -0.00    -0.191 NA 
DOCKED: ATOM     11  C   UNL     1     -53.645 -33.681   2.630 -0.31 +0.00    +0.101 C  
DOCKED: ENDROOT
DOCKED: BRANCH   2  12
DOCKED: ATOM     12  C   UNL     1     -53.813 -31.260   8.645 -0.10 +0.00    +0.038 C  
DOCKED: BRANCH  12  13
DOCKED: ATOM     13  C   UNL     1     -52.860 -30.067   8.623 -0.08 +0.00    +0.038 C  
DOCKED: BRANCH  13  14
DOCKED: ATOM     14  C   UNL     1     -53.152 -29.153   7.434 -0.13 +0.00    +0.251 C  
DOCKED: BRANCH  14  15
DOCKED: ATOM     15  N   UNL     1     -52.197 -28.051   7.395 -0.09 +0.00    +0.141 N  
DOCKED: ATOM     16  C   UNL     1     -52.197 -27.415   6.077 -0.07 +0.00    +0.285 C  
DOCKED: ATOM     17  C   UNL     1     -52.503 -27.066   8.434 -0.02 +0.00    +0.285 C  
DOCKED: ENDBRANCH  14  15
DOCKED: ENDBRANCH  13  14
DOCKED: ENDBRANCH  12  13
DOCKED: ENDBRANCH   2  12
DOCKED: BRANCH   2  18
DOCKED: ATOM     18  C   UNL     1     -51.756 -32.655   8.755 -0.16 +0.00    +0.006 A  
DOCKED: ATOM     19  C   UNL     1     -51.598 -33.102  10.067 -0.14 +0.00    +0.001 A  
DOCKED: ATOM     20  C   UNL     1     -50.319 -33.216  10.614 -0.12 +0.00    +0.029 A  
DOCKED: ATOM     21  C   UNL     1     -49.202 -32.884   9.850 +0.01 +0.00    +0.140 A  
DOCKED: ATOM     22  C   UNL     1     -49.360 -32.437   8.538 -0.19 +0.00    +0.029 A  
DOCKED: ATOM     23  F   UNL     1     -47.974 -32.995  10.375 -0.02 -0.00    -0.204 F  
DOCKED: ATOM     24  C   UNL     1     -50.639 -32.322   7.990 -0.23 +0.00    +0.001 A  
DOCKED: ENDBRANCH   2  18
DOCKED: TORSDOF 5
DOCKED: TER
DOCKED: ENDMDL
________________________________________________________________________________


    FINAL DOCKED STATE:
    ________________________


Run:   213 / 512
Time taken for this run:   0.001s

DOCKED: MODEL        213
DOCKED: USER    Run = 213
DOCKED: USER
DOCKED: USER    Estimated Free Energy of Binding    =  -3.83 kcal/mol  [=(1)+(2)+(3)-(4)]
DOCKED: USER
DOCKED: USER    (1) Final Intermolecular Energy     =  -5.32 kcal/mol
DOCKED: USER        vdW + Hbond + desolv Energy     =  -5.32 kcal/mol
DOCKED: USER        Electrostatic Energy            =  +0.00 kcal/mol
DOCKED: USER        Moving Ligand-Fixed Receptor    =  -5.32 kcal/mol
DOCKED: USER        Moving Ligand-Moving Receptor   =  +0.00 kcal/mol
DOCKED: USER    (2) Final Total Internal Energy     =  -1.32 kcal/mol
DOCKED: USER    (3) Torsional Free Energy           =  +1.49 kcal/mol
DOCKED: USER    (4) Unbound System's Energy         =  -1.32 kcal/mol
DOCKED: USER
DOCKED: USER
DOCKED: REMARK  5 active torsions:
DOCKED: REMARK  status: ('A' for Active; 'I' for Inactive)
DOCKED: REMARK    1  A    between atoms: C_2  and  C_19 
DOCKED: REMARK    2  A    between atoms: C_2  and  C_11 
DOCKED: REMARK    3  A    between atoms: C_19  and  C_20 
DOCKED: REMARK    4  A    between atoms: C_20  and  C_21 
DOCKED: REMARK    5  A    between atoms: C_21  and  N_22 
DOCKED: USER                              x       y       z     vdW  Elec       q    Type
DOCKED: USER                           _______ _______ _______ _____ _____    ______ ____
DOCKED: ROOT
DOCKED: ATOM      1  O   UNL     1     -51.273 -31.363  10.459 -0.01 -0.00    -0.346 OA 
DOCKED: ATOM      2  C   UNL     1     -50.247 -31.573   9.437 -0.10 +0.00    +0.130 C  
DOCKED: ATOM      3  C   UNL     1     -50.927 -32.441   8.418 -0.20 +0.00    +0.004 A  
DOCKED: ATOM      4  C   UNL     1     -52.257 -32.620   8.770 -0.14 +0.00    +0.006 A  
DOCKED: ATOM      5  C   UNL     1     -52.549 -31.883  10.021 -0.04 +0.00    +0.169 C  
DOCKED: ATOM      6  C   UNL     1     -50.412 -33.017   7.266 -0.19 -0.00    -0.001 A  
DOCKED: ATOM      7  C   UNL     1     -53.113 -33.378   7.991 -0.19 +0.00    +0.008 A  
DOCKED: ATOM      8  C   UNL     1     -51.262 -33.788   6.471 -0.36 +0.00    +0.010 A  
DOCKED: ATOM      9  C   UNL     1     -52.605 -33.968   6.832 -0.27 +0.00    +0.068 A  
DOCKED: ATOM     10  N   UNL     1     -54.156 -35.402   5.332 -2.35 -0.00    -0.191 NA 
DOCKED: ATOM     11  C   UNL     1     -53.461 -34.759   6.005 -0.00 +0.00    +0.101 C  
DOCKED: ENDROOT
DOCKED: BRANCH   2  12
DOCKED: ATOM     12  C   UNL     1     -49.835 -30.215   8.881 -0.09 +0.00    +0.038 C  
DOCKED: BRANCH  12  13
DOCKED: ATOM     13  C   UNL     1     -51.046 -29.421   8.396 -0.08 +0.00    +0.038 C  
DOCKED: BRANCH  13  14
DOCKED: ATOM     14  C   UNL     1     -51.169 -29.481   6.874 -0.15 +0.00    +0.251 C  
DOCKED: BRANCH  14  15
DOCKED: ATOM     15  N   UNL     1     -52.528 -29.153   6.462 -0.18 +0.00    +0.141 N  
DOCKED: ATOM     16  C   UNL     1     -53.504 -29.826   7.321 -0.13 +0.00    +0.285 C  
DOCKED: ATOM     17  C   UNL     1     -52.741 -27.705   6.490 -0.13 +0.00    +0.285 C  
DOCKED: ENDBRANCH  14  15
DOCKED: ENDBRANCH  13  14
DOCKED: ENDBRANCH  12  13
DOCKED: ENDBRANCH   2  12
DOCKED: BRANCH   2  18
DOCKED: ATOM     18  C   UNL     1     -49.098 -32.252  10.106 -0.11 +0.00    +0.006 A  
DOCKED: ATOM     19  C   UNL     1     -49.288 -32.909  11.321 -0.11 +0.00    +0.001 A  
DOCKED: ATOM     20  C   UNL     1     -48.213 -33.543  11.945 -0.12 +0.00    +0.029 A  
DOCKED: ATOM     21  C   UNL     1     -46.951 -33.520  11.353 -0.09 +0.00    +0.140 A  
DOCKED: ATOM     22  C   UNL     1     -46.762 -32.863  10.138 -0.11 +0.00    +0.029 A  
DOCKED: ATOM     23  F   UNL     1     -45.920 -34.130  11.952 -0.03 -0.00    -0.204 F  
DOCKED: ATOM     24  C   UNL     1     -47.836 -32.227   9.513 -0.14 +0.00    +0.001 A  
DOCKED: ENDBRANCH   2  18
DOCKED: TORSDOF 5
DOCKED: TER
DOCKED: ENDMDL
________________________________________________________________________________


    FINAL DOCKED STATE:
    ________________________


Run:   214 / 512
Time taken for this run:   0.001s

DOCKED: MODEL        214
DOCKED: USER    Run = 214
DOCKED: USER
DOCKED: USER    Estimated Free Energy of Binding    =  -5.24 kcal/mol  [=(1)+(2)+(3)-(4)]
DOCKED: USER
DOCKED: USER    (1) Final Intermolecular Energy     =  -6.74 kcal/mol
DOCKED: USER        vdW + Hbond + desolv Energy     =  -6.74 kcal/mol
DOCKED: USER        Electrostatic Energy            =  +0.00 kcal/mol
DOCKED: USER        Moving Ligand-Fixed Receptor    =  -6.74 kcal/mol
DOCKED: USER        Moving Ligand-Moving Receptor   =  +0.00 kcal/mol
DOCKED: USER    (2) Final Total Internal Energy     =  -1.32 kcal/mol
DOCKED: USER    (3) Torsional Free Energy           =  +1.49 kcal/mol
DOCKED: USER    (4) Unbound System's Energy         =  -1.32 kcal/mol
DOCKED: USER
DOCKED: USER
DOCKED: REMARK  5 active torsions:
DOCKED: REMARK  status: ('A' for Active; 'I' for Inactive)
DOCKED: REMARK    1  A    between atoms: C_2  and  C_19 
DOCKED: REMARK    2  A    between atoms: C_2  and  C_11 
DOCKED: REMARK    3  A    between atoms: C_19  and  C_20 
DOCKED: REMARK    4  A    between atoms: C_20  and  C_21 
DOCKED: REMARK    5  A    between atoms: C_21  and  N_22 
DOCKED: USER                              x       y       z     vdW  Elec       q    Type
DOCKED: USER                           _______ _______ _______ _____ _____    ______ ____
DOCKED: ROOT
DOCKED: ATOM      1  O   UNL     1     -50.855 -34.130   8.457 -0.10 -0.00    -0.346 OA 
DOCKED: ATOM      2  C   UNL     1     -51.147 -32.736   8.120 -0.21 +0.00    +0.130 C  
DOCKED: ATOM      3  C   UNL     1     -51.736 -32.815   6.741 -0.32 +0.00    +0.004 A  
DOCKED: ATOM      4  C   UNL     1     -51.871 -34.144   6.366 -0.40 +0.00    +0.006 A  
DOCKED: ATOM      5  C   UNL     1     -51.401 -35.025   7.459 -0.03 +0.00    +0.169 C  
DOCKED: ATOM      6  C   UNL     1     -52.131 -31.792   5.891 -0.32 -0.00    -0.001 A  
DOCKED: ATOM      7  C   UNL     1     -52.398 -34.496   5.135 -0.47 +0.00    +0.008 A  
DOCKED: ATOM      8  C   UNL     1     -52.660 -32.130   4.644 -0.04 +0.00    +0.010 A  
DOCKED: ATOM      9  C   UNL     1     -52.793 -33.476   4.269 -0.39 +0.00    +0.068 A  
DOCKED: ATOM     10  N   UNL     1     -53.784 -34.069   1.950 -2.55 -0.00    -0.191 NA 
DOCKED: ATOM     11  C   UNL     1     -53.339 -33.803   2.990 -0.47 +0.00    +0.101 C  
DOCKED: ENDROOT
DOCKED: BRANCH   2  12
DOCKED: ATOM     12  C   UNL     1     -52.125 -32.185   9.152 -0.12 +0.00    +0.038 C  
DOCKED: BRANCH  12  13
DOCKED: ATOM     13  C   UNL     1     -52.871 -33.309   9.868 -0.15 +0.00    +0.038 C  
DOCKED: BRANCH  13  14
DOCKED: ATOM     14  C   UNL     1     -52.549 -33.318  11.361 -0.06 +0.00    +0.251 C  
DOCKED: BRANCH  14  15
DOCKED: ATOM     15  N   UNL     1     -51.159 -33.699  11.579 -0.11 +0.00    +0.141 N  
DOCKED: ATOM     16  C   UNL     1     -50.701 -33.251  12.895 -0.04 +0.00    +0.285 C  
DOCKED: ATOM     17  C   UNL     1     -50.995 -35.148  11.451 -0.12 +0.00    +0.285 C  
DOCKED: ENDBRANCH  14  15
DOCKED: ENDBRANCH  13  14
DOCKED: ENDBRANCH  12  13
DOCKED: ENDBRANCH   2  12
DOCKED: BRANCH   2  18
DOCKED: ATOM     18  C   UNL     1     -49.851 -31.997   8.158 -0.20 +0.00    +0.006 A  
DOCKED: ATOM     19  C   UNL     1     -49.779 -30.693   7.671 -0.14 +0.00    +0.001 A  
DOCKED: ATOM     20  C   UNL     1     -48.566 -30.003   7.706 -0.11 +0.00    +0.029 A  
DOCKED: ATOM     21  C   UNL     1     -47.429 -30.618   8.229 -0.09 +0.00    +0.140 A  
DOCKED: ATOM     22  C   UNL     1     -47.503 -31.922   8.716 -0.15 +0.00    +0.029 A  
DOCKED: ATOM     23  F   UNL     1     -46.266 -29.955   8.265 -0.01 -0.00    -0.204 F  
DOCKED: ATOM     24  C   UNL     1     -48.715 -32.614   8.681 -0.15 +0.00    +0.001 A  
DOCKED: ENDBRANCH   2  18
DOCKED: TORSDOF 5
DOCKED: TER
DOCKED: ENDMDL
________________________________________________________________________________


    FINAL DOCKED STATE:
    ________________________


Run:   215 / 512
Time taken for this run:   0.001s

DOCKED: MODEL        215
DOCKED: USER    Run = 215
DOCKED: USER
DOCKED: USER    Estimated Free Energy of Binding    =  -4.37 kcal/mol  [=(1)+(2)+(3)-(4)]
DOCKED: USER
DOCKED: USER    (1) Final Intermolecular Energy     =  -5.86 kcal/mol
DOCKED: USER        vdW + Hbond + desolv Energy     =  -5.86 kcal/mol
DOCKED: USER        Electrostatic Energy            =  +0.00 kcal/mol
DOCKED: USER        Moving Ligand-Fixed Receptor    =  -5.86 kcal/mol
DOCKED: USER        Moving Ligand-Moving Receptor   =  +0.00 kcal/mol
DOCKED: USER    (2) Final Total Internal Energy     =  -1.16 kcal/mol
DOCKED: USER    (3) Torsional Free Energy           =  +1.49 kcal/mol
DOCKED: USER    (4) Unbound System's Energy         =  -1.16 kcal/mol
DOCKED: USER
DOCKED: USER
DOCKED: REMARK  5 active torsions:
DOCKED: REMARK  status: ('A' for Active; 'I' for Inactive)
DOCKED: REMARK    1  A    between atoms: C_2  and  C_19 
DOCKED: REMARK    2  A    between atoms: C_2  and  C_11 
DOCKED: REMARK    3  A    between atoms: C_19  and  C_20 
DOCKED: REMARK    4  A    between atoms: C_20  and  C_21 
DOCKED: REMARK    5  A    between atoms: C_21  and  N_22 
DOCKED: USER                              x       y       z     vdW  Elec       q    Type
DOCKED: USER                           _______ _______ _______ _____ _____    ______ ____
DOCKED: ROOT
DOCKED: ATOM      1  O   UNL     1     -54.775 -28.868   7.582 -0.07 -0.00    -0.346 OA 
DOCKED: ATOM      2  C   UNL     1     -53.356 -28.929   7.233 -0.18 +0.00    +0.130 C  
DOCKED: ATOM      3  C   UNL     1     -53.154 -30.351   6.795 -0.23 +0.00    +0.004 A  
DOCKED: ATOM      4  C   UNL     1     -54.373 -31.015   6.789 -0.21 +0.00    +0.006 A  
DOCKED: ATOM      5  C   UNL     1     -55.451 -30.090   7.203 -0.18 +0.00    +0.169 C  
DOCKED: ATOM      6  C   UNL     1     -51.987 -31.002   6.422 -0.28 -0.00    -0.001 A  
DOCKED: ATOM      7  C   UNL     1     -54.467 -32.345   6.416 -0.24 +0.00    +0.008 A  
DOCKED: ATOM      8  C   UNL     1     -52.065 -32.345   6.047 -0.34 +0.00    +0.010 A  
DOCKED: ATOM      9  C   UNL     1     -53.299 -33.012   6.044 -0.27 +0.00    +0.068 A  
DOCKED: ATOM     10  N   UNL     1     -53.409 -35.503   5.338 -2.61 -0.00    -0.191 NA 
DOCKED: ATOM     11  C   UNL     1     -53.360 -34.386   5.655 -0.38 +0.00    +0.101 C  
DOCKED: ENDROOT
DOCKED: BRANCH   2  12
DOCKED: ATOM     12  C   UNL     1     -53.088 -27.923   6.120 -0.15 +0.00    +0.038 C  
DOCKED: BRANCH  12  13
DOCKED: ATOM     13  C   UNL     1     -52.834 -26.526   6.682 -0.14 +0.00    +0.038 C  
DOCKED: BRANCH  13  14
DOCKED: ATOM     14  C   UNL     1     -53.415 -25.450   5.766 -0.10 +0.00    +0.251 C  
DOCKED: BRANCH  14  15
DOCKED: ATOM     15  N   UNL     1     -54.769 -25.807   5.360 -0.15 +0.00    +0.141 N  
DOCKED: ATOM     16  C   UNL     1     -55.706 -25.623   6.469 -0.07 +0.00    +0.285 C  
DOCKED: ATOM     17  C   UNL     1     -55.187 -25.012   4.204 -0.10 +0.00    +0.285 C  
DOCKED: ENDBRANCH  14  15
DOCKED: ENDBRANCH  13  14
DOCKED: ENDBRANCH  12  13
DOCKED: ENDBRANCH   2  12
DOCKED: BRANCH   2  18
DOCKED: ATOM     18  C   UNL     1     -52.588 -28.586   8.465 -0.06 +0.00    +0.006 A  
DOCKED: ATOM     19  C   UNL     1     -53.260 -28.146   9.605 -0.02 +0.00    +0.001 A  
DOCKED: ATOM     20  C   UNL     1     -52.541 -27.824  10.756 -0.00 +0.00    +0.029 A  
DOCKED: ATOM     21  C   UNL     1     -51.152 -27.944  10.767 -0.00 +0.00    +0.140 A  
DOCKED: ATOM     22  C   UNL     1     -50.480 -28.385   9.627 -0.02 +0.00    +0.029 A  
DOCKED: ATOM     23  F   UNL     1     -50.462 -27.637  11.874 -0.00 -0.00    -0.204 F  
DOCKED: ATOM     24  C   UNL     1     -51.199 -28.706   8.474 -0.06 +0.00    +0.001 A  
DOCKED: ENDBRANCH   2  18
DOCKED: TORSDOF 5
DOCKED: TER
DOCKED: ENDMDL
________________________________________________________________________________


    FINAL DOCKED STATE:
    ________________________


Run:   216 / 512
Time taken for this run:   0.001s

DOCKED: MODEL        216
DOCKED: USER    Run = 216
DOCKED: USER
DOCKED: USER    Estimated Free Energy of Binding    =  -4.36 kcal/mol  [=(1)+(2)+(3)-(4)]
DOCKED: USER
DOCKED: USER    (1) Final Intermolecular Energy     =  -5.85 kcal/mol
DOCKED: USER        vdW + Hbond + desolv Energy     =  -5.85 kcal/mol
DOCKED: USER        Electrostatic Energy            =  +0.00 kcal/mol
DOCKED: USER        Moving Ligand-Fixed Receptor    =  -5.85 kcal/mol
DOCKED: USER        Moving Ligand-Moving Receptor   =  +0.00 kcal/mol
DOCKED: USER    (2) Final Total Internal Energy     =  -1.50 kcal/mol
DOCKED: USER    (3) Torsional Free Energy           =  +1.49 kcal/mol
DOCKED: USER    (4) Unbound System's Energy         =  -1.50 kcal/mol
DOCKED: USER
DOCKED: USER
DOCKED: REMARK  5 active torsions:
DOCKED: REMARK  status: ('A' for Active; 'I' for Inactive)
DOCKED: REMARK    1  A    between atoms: C_2  and  C_19 
DOCKED: REMARK    2  A    between atoms: C_2  and  C_11 
DOCKED: REMARK    3  A    between atoms: C_19  and  C_20 
DOCKED: REMARK    4  A    between atoms: C_20  and  C_21 
DOCKED: REMARK    5  A    between atoms: C_21  and  N_22 
DOCKED: USER                              x       y       z     vdW  Elec       q    Type
DOCKED: USER                           _______ _______ _______ _____ _____    ______ ____
DOCKED: ROOT
DOCKED: ATOM      1  O   UNL     1     -51.037 -28.969   7.155 -0.06 -0.00    -0.346 OA 
DOCKED: ATOM      2  C   UNL     1     -52.436 -28.977   7.585 -0.13 +0.00    +0.130 C  
DOCKED: ATOM      3  C   UNL     1     -52.937 -30.325   7.151 -0.21 +0.00    +0.004 A  
DOCKED: ATOM      4  C   UNL     1     -51.890 -31.064   6.620 -0.28 +0.00    +0.006 A  
DOCKED: ATOM      5  C   UNL     1     -50.639 -30.275   6.676 -0.15 +0.00    +0.169 C  
DOCKED: ATOM      6  C   UNL     1     -54.215 -30.857   7.231 -0.21 -0.00    -0.001 A  
DOCKED: ATOM      7  C   UNL     1     -52.083 -32.352   6.149 -0.34 +0.00    +0.008 A  
DOCKED: ATOM      8  C   UNL     1     -54.427 -32.153   6.756 -0.22 +0.00    +0.010 A  
DOCKED: ATOM      9  C   UNL     1     -53.366 -32.896   6.219 -0.25 +0.00    +0.068 A  
DOCKED: ATOM     10  N   UNL     1     -53.792 -35.300   5.351 -2.55 -0.00    -0.191 NA 
DOCKED: ATOM     11  C   UNL     1     -53.601 -34.222   5.740 -0.36 +0.00    +0.101 C  
DOCKED: ENDROOT
DOCKED: BRANCH   2  12
DOCKED: ATOM     12  C   UNL     1     -52.477 -28.787   9.096 -0.04 +0.00    +0.038 C  
DOCKED: BRANCH  12  13
DOCKED: ATOM     13  C   UNL     1     -51.716 -29.897   9.818 -0.03 +0.00    +0.038 C  
DOCKED: BRANCH  13  14
DOCKED: ATOM     14  C   UNL     1     -52.678 -30.893  10.463 -0.01 +0.00    +0.251 C  
DOCKED: BRANCH  14  15
DOCKED: ATOM     15  N   UNL     1     -52.577 -32.192   9.809 -0.05 +0.00    +0.141 N  
DOCKED: ATOM     16  C   UNL     1     -51.223 -32.731   9.938 -0.07 +0.00    +0.285 C  
DOCKED: ATOM     17  C   UNL     1     -53.552 -33.129  10.369 -0.04 +0.00    +0.285 C  
DOCKED: ENDBRANCH  14  15
DOCKED: ENDBRANCH  13  14
DOCKED: ENDBRANCH  12  13
DOCKED: ENDBRANCH   2  12
DOCKED: BRANCH   2  18
DOCKED: ATOM     18  C   UNL     1     -53.115 -27.850   6.881 -0.18 +0.00    +0.006 A  
DOCKED: ATOM     19  C   UNL     1     -54.402 -27.468   7.258 -0.16 +0.00    +0.001 A  
DOCKED: ATOM     20  C   UNL     1     -55.036 -26.414   6.599 -0.15 +0.00    +0.029 A  
DOCKED: ATOM     21  C   UNL     1     -54.383 -25.744   5.566 -0.12 +0.00    +0.140 A  
DOCKED: ATOM     22  C   UNL     1     -53.096 -26.126   5.190 -0.14 +0.00    +0.029 A  
DOCKED: ATOM     23  F   UNL     1     -54.991 -24.731   4.935 -0.02 -0.00    -0.204 F  
DOCKED: ATOM     24  C   UNL     1     -52.460 -27.181   5.848 -0.09 +0.00    +0.001 A  
DOCKED: ENDBRANCH   2  18
DOCKED: TORSDOF 5
DOCKED: TER
DOCKED: ENDMDL
________________________________________________________________________________


    FINAL DOCKED STATE:
    ________________________


Run:   217 / 512
Time taken for this run:   0.001s

DOCKED: MODEL        217
DOCKED: USER    Run = 217
DOCKED: USER
DOCKED: USER    Estimated Free Energy of Binding    =  -4.91 kcal/mol  [=(1)+(2)+(3)-(4)]
DOCKED: USER
DOCKED: USER    (1) Final Intermolecular Energy     =  -6.40 kcal/mol
DOCKED: USER        vdW + Hbond + desolv Energy     =  -6.40 kcal/mol
DOCKED: USER        Electrostatic Energy            =  +0.00 kcal/mol
DOCKED: USER        Moving Ligand-Fixed Receptor    =  -6.40 kcal/mol
DOCKED: USER        Moving Ligand-Moving Receptor   =  +0.00 kcal/mol
DOCKED: USER    (2) Final Total Internal Energy     =  -1.15 kcal/mol
DOCKED: USER    (3) Torsional Free Energy           =  +1.49 kcal/mol
DOCKED: USER    (4) Unbound System's Energy         =  -1.15 kcal/mol
DOCKED: USER
DOCKED: USER
DOCKED: REMARK  5 active torsions:
DOCKED: REMARK  status: ('A' for Active; 'I' for Inactive)
DOCKED: REMARK    1  A    between atoms: C_2  and  C_19 
DOCKED: REMARK    2  A    between atoms: C_2  and  C_11 
DOCKED: REMARK    3  A    between atoms: C_19  and  C_20 
DOCKED: REMARK    4  A    between atoms: C_20  and  C_21 
DOCKED: REMARK    5  A    between atoms: C_21  and  N_22 
DOCKED: USER                              x       y       z     vdW  Elec       q    Type
DOCKED: USER                           _______ _______ _______ _____ _____    ______ ____
DOCKED: ROOT
DOCKED: ATOM      1  O   UNL     1     -52.689 -31.132   8.472 -0.01 -0.00    -0.346 OA 
DOCKED: ATOM      2  C   UNL     1     -51.745 -32.248   8.392 -0.14 +0.00    +0.130 C  
DOCKED: ATOM      3  C   UNL     1     -52.056 -32.887   7.069 -0.29 +0.00    +0.004 A  
DOCKED: ATOM      4  C   UNL     1     -53.016 -32.138   6.403 -0.29 +0.00    +0.006 A  
DOCKED: ATOM      5  C   UNL     1     -53.392 -30.962   7.220 -0.17 +0.00    +0.169 C  
DOCKED: ATOM      6  C   UNL     1     -51.524 -34.033   6.497 -0.41 -0.00    -0.001 A  
DOCKED: ATOM      7  C   UNL     1     -53.478 -32.508   5.152 -0.16 +0.00    +0.008 A  
DOCKED: ATOM      8  C   UNL     1     -51.983 -34.422   5.237 -0.38 +0.00    +0.010 A  
DOCKED: ATOM      9  C   UNL     1     -52.955 -33.663   4.568 -0.42 +0.00    +0.068 A  
DOCKED: ATOM     10  N   UNL     1     -53.780 -34.410   2.229 -2.09 -0.00    -0.191 NA 
DOCKED: ATOM     11  C   UNL     1     -53.411 -34.075   3.278 -0.52 +0.00    +0.101 C  
DOCKED: ENDROOT
DOCKED: BRANCH   2  12
DOCKED: ATOM     12  C   UNL     1     -50.329 -31.689   8.462 -0.19 +0.00    +0.038 C  
DOCKED: BRANCH  12  13
DOCKED: ATOM     13  C   UNL     1     -50.033 -30.772   7.276 -0.12 +0.00    +0.038 C  
DOCKED: BRANCH  13  14
DOCKED: ATOM     14  C   UNL     1     -49.075 -29.651   7.674 -0.09 +0.00    +0.251 C  
DOCKED: BRANCH  14  15
DOCKED: ATOM     15  N   UNL     1     -49.436 -28.411   6.998 -0.08 +0.00    +0.141 N  
DOCKED: ATOM     16  C   UNL     1     -48.455 -28.082   5.963 -0.08 +0.00    +0.285 C  
DOCKED: ATOM     17  C   UNL     1     -50.775 -28.514   6.413 -0.11 +0.00    +0.285 C  
DOCKED: ENDBRANCH  14  15
DOCKED: ENDBRANCH  13  14
DOCKED: ENDBRANCH  12  13
DOCKED: ENDBRANCH   2  12
DOCKED: BRANCH   2  18
DOCKED: ATOM     18  C   UNL     1     -52.028 -33.143   9.552 -0.15 +0.00    +0.006 A  
DOCKED: ATOM     19  C   UNL     1     -51.069 -33.316  10.548 -0.15 +0.00    +0.001 A  
DOCKED: ATOM     20  C   UNL     1     -51.335 -34.154  11.632 -0.18 +0.00    +0.029 A  
DOCKED: ATOM     21  C   UNL     1     -52.558 -34.817  11.718 -0.12 +0.00    +0.140 A  
DOCKED: ATOM     22  C   UNL     1     -53.517 -34.643  10.720 -0.04 +0.00    +0.029 A  
DOCKED: ATOM     23  F   UNL     1     -52.814 -35.619  12.759 -0.04 -0.00    -0.204 F  
DOCKED: ATOM     24  C   UNL     1     -53.252 -33.805   9.635 -0.17 +0.00    +0.001 A  
DOCKED: ENDBRANCH   2  18
DOCKED: TORSDOF 5
DOCKED: TER
DOCKED: ENDMDL
________________________________________________________________________________


    FINAL DOCKED STATE:
    ________________________


Run:   218 / 512
Time taken for this run:   0.001s

DOCKED: MODEL        218
DOCKED: USER    Run = 218
DOCKED: USER
DOCKED: USER    Estimated Free Energy of Binding    =  -4.09 kcal/mol  [=(1)+(2)+(3)-(4)]
DOCKED: USER
DOCKED: USER    (1) Final Intermolecular Energy     =  -5.59 kcal/mol
DOCKED: USER        vdW + Hbond + desolv Energy     =  -5.59 kcal/mol
DOCKED: USER        Electrostatic Energy            =  +0.00 kcal/mol
DOCKED: USER        Moving Ligand-Fixed Receptor    =  -5.59 kcal/mol
DOCKED: USER        Moving Ligand-Moving Receptor   =  +0.00 kcal/mol
DOCKED: USER    (2) Final Total Internal Energy     =  -1.23 kcal/mol
DOCKED: USER    (3) Torsional Free Energy           =  +1.49 kcal/mol
DOCKED: USER    (4) Unbound System's Energy         =  -1.23 kcal/mol
DOCKED: USER
DOCKED: USER
DOCKED: REMARK  5 active torsions:
DOCKED: REMARK  status: ('A' for Active; 'I' for Inactive)
DOCKED: REMARK    1  A    between atoms: C_2  and  C_19 
DOCKED: REMARK    2  A    between atoms: C_2  and  C_11 
DOCKED: REMARK    3  A    between atoms: C_19  and  C_20 
DOCKED: REMARK    4  A    between atoms: C_20  and  C_21 
DOCKED: REMARK    5  A    between atoms: C_21  and  N_22 
DOCKED: USER                              x       y       z     vdW  Elec       q    Type
DOCKED: USER                           _______ _______ _______ _____ _____    ______ ____
DOCKED: ROOT
DOCKED: ATOM      1  O   UNL     1     -46.047 -23.647  -0.133 -0.06 -0.00    -0.346 OA 
DOCKED: ATOM      2  C   UNL     1     -47.215 -24.512   0.034 -0.13 +0.00    +0.130 C  
DOCKED: ATOM      3  C   UNL     1     -48.159 -24.053  -1.039 -0.19 +0.00    +0.004 A  
DOCKED: ATOM      4  C   UNL     1     -47.543 -23.086  -1.821 -0.17 +0.00    +0.006 A  
DOCKED: ATOM      5  C   UNL     1     -46.164 -22.852  -1.336 -0.11 +0.00    +0.169 C  
DOCKED: ATOM      6  C   UNL     1     -49.456 -24.465  -1.309 -0.28 -0.00    -0.001 A  
DOCKED: ATOM      7  C   UNL     1     -48.198 -22.499  -2.890 -0.27 +0.00    +0.008 A  
DOCKED: ATOM      8  C   UNL     1     -50.131 -23.879  -2.381 -0.12 +0.00    +0.010 A  
DOCKED: ATOM      9  C   UNL     1     -49.505 -22.902  -3.168 -0.34 +0.00    +0.068 A  
DOCKED: ATOM     10  N   UNL     1     -50.785 -21.838  -5.153 -2.46 -0.00    -0.191 NA 
DOCKED: ATOM     11  C   UNL     1     -50.211 -22.315  -4.262 -0.41 +0.00    +0.101 C  
DOCKED: ENDROOT
DOCKED: BRANCH   2  12
DOCKED: ATOM     12  C   UNL     1     -46.773 -25.960  -0.145 -0.07 +0.00    +0.038 C  
DOCKED: BRANCH  12  13
DOCKED: ATOM     13  C   UNL     1     -46.523 -26.288  -1.615 -0.08 +0.00    +0.038 C  
DOCKED: BRANCH  13  14
DOCKED: ATOM     14  C   UNL     1     -45.082 -25.973  -2.012 -0.01 +0.00    +0.251 C  
DOCKED: BRANCH  14  15
DOCKED: ATOM     15  N   UNL     1     -44.998 -25.699  -3.442 -0.02 +0.00    +0.141 N  
DOCKED: ATOM     16  C   UNL     1     -44.102 -26.653  -4.098 -0.00 +0.00    +0.285 C  
DOCKED: ATOM     17  C   UNL     1     -46.327 -25.747  -4.055 -0.08 +0.00    +0.285 C  
DOCKED: ENDBRANCH  14  15
DOCKED: ENDBRANCH  13  14
DOCKED: ENDBRANCH  12  13
DOCKED: ENDBRANCH   2  12
DOCKED: BRANCH   2  18
DOCKED: ATOM     18  C   UNL     1     -47.740 -24.275   1.411 -0.16 +0.00    +0.006 A  
DOCKED: ATOM     19  C   UNL     1     -46.898 -23.765   2.399 -0.03 +0.00    +0.001 A  
DOCKED: ATOM     20  C   UNL     1     -47.390 -23.544   3.686 -0.07 +0.00    +0.029 A  
DOCKED: ATOM     21  C   UNL     1     -48.721 -23.833   3.983 -0.12 +0.00    +0.140 A  
DOCKED: ATOM     22  C   UNL     1     -49.562 -24.343   2.994 -0.18 +0.00    +0.029 A  
DOCKED: ATOM     23  F   UNL     1     -49.194 -23.620   5.218 -0.02 -0.00    -0.204 F  
DOCKED: ATOM     24  C   UNL     1     -49.071 -24.565   1.706 -0.21 +0.00    +0.001 A  
DOCKED: ENDBRANCH   2  18
DOCKED: TORSDOF 5
DOCKED: TER
DOCKED: ENDMDL
________________________________________________________________________________


    FINAL DOCKED STATE:
    ________________________


Run:   219 / 512
Time taken for this run:   0.001s

DOCKED: MODEL        219
DOCKED: USER    Run = 219
DOCKED: USER
DOCKED: USER    Estimated Free Energy of Binding    =  -4.78 kcal/mol  [=(1)+(2)+(3)-(4)]
DOCKED: USER
DOCKED: USER    (1) Final Intermolecular Energy     =  -6.27 kcal/mol
DOCKED: USER        vdW + Hbond + desolv Energy     =  -6.27 kcal/mol
DOCKED: USER        Electrostatic Energy            =  +0.00 kcal/mol
DOCKED: USER        Moving Ligand-Fixed Receptor    =  -6.27 kcal/mol
DOCKED: USER        Moving Ligand-Moving Receptor   =  +0.00 kcal/mol
DOCKED: USER    (2) Final Total Internal Energy     =  -1.39 kcal/mol
DOCKED: USER    (3) Torsional Free Energy           =  +1.49 kcal/mol
DOCKED: USER    (4) Unbound System's Energy         =  -1.39 kcal/mol
DOCKED: USER
DOCKED: USER
DOCKED: REMARK  5 active torsions:
DOCKED: REMARK  status: ('A' for Active; 'I' for Inactive)
DOCKED: REMARK    1  A    between atoms: C_2  and  C_19 
DOCKED: REMARK    2  A    between atoms: C_2  and  C_11 
DOCKED: REMARK    3  A    between atoms: C_19  and  C_20 
DOCKED: REMARK    4  A    between atoms: C_20  and  C_21 
DOCKED: REMARK    5  A    between atoms: C_21  and  N_22 
DOCKED: USER                              x       y       z     vdW  Elec       q    Type
DOCKED: USER                           _______ _______ _______ _____ _____    ______ ____
DOCKED: ROOT
DOCKED: ATOM      1  O   UNL     1     -55.574 -32.280   8.117 -0.01 -0.00    -0.346 OA 
DOCKED: ATOM      2  C   UNL     1     -54.150 -31.982   7.954 -0.11 +0.00    +0.130 C  
DOCKED: ATOM      3  C   UNL     1     -53.851 -32.416   6.549 -0.25 +0.00    +0.004 A  
DOCKED: ATOM      4  C   UNL     1     -55.022 -32.823   5.926 -0.27 +0.00    +0.006 A  
DOCKED: ATOM      5  C   UNL     1     -56.163 -32.676   6.857 -0.18 +0.00    +0.169 C  
DOCKED: ATOM      6  C   UNL     1     -52.640 -32.439   5.871 -0.35 -0.00    -0.001 A  
DOCKED: ATOM      7  C   UNL     1     -55.024 -33.267   4.615 -0.20 +0.00    +0.008 A  
DOCKED: ATOM      8  C   UNL     1     -52.625 -32.888   4.550 -0.35 +0.00    +0.010 A  
DOCKED: ATOM      9  C   UNL     1     -53.812 -33.300   3.925 -0.30 +0.00    +0.068 A  
DOCKED: ATOM     10  N   UNL     1     -53.749 -34.124   1.469 -2.80 -0.00    -0.191 NA 
DOCKED: ATOM     11  C   UNL     1     -53.777 -33.755   2.571 -0.27 +0.00    +0.101 C  
DOCKED: ENDROOT
DOCKED: BRANCH   2  12
DOCKED: ATOM     12  C   UNL     1     -53.942 -30.488   8.171 -0.13 +0.00    +0.038 C  
DOCKED: BRANCH  12  13
DOCKED: ATOM     13  C   UNL     1     -55.270 -29.766   8.388 -0.11 +0.00    +0.038 C  
DOCKED: BRANCH  13  14
DOCKED: ATOM     14  C   UNL     1     -55.215 -28.873   9.626 -0.01 +0.00    +0.251 C  
DOCKED: BRANCH  14  15
DOCKED: ATOM     15  N   UNL     1     -55.776 -29.568  10.778 -0.01 +0.00    +0.141 N  
DOCKED: ATOM     16  C   UNL     1     -56.727 -30.594  10.349 +0.00 +0.00    +0.285 C  
DOCKED: ATOM     17  C   UNL     1     -54.713 -30.167  11.587 +0.00 +0.00    +0.285 C  
DOCKED: ENDBRANCH  14  15
DOCKED: ENDBRANCH  13  14
DOCKED: ENDBRANCH  12  13
DOCKED: ENDBRANCH   2  12
DOCKED: BRANCH   2  18
DOCKED: ATOM     18  C   UNL     1     -53.417 -32.782   8.979 -0.11 +0.00    +0.006 A  
DOCKED: ATOM     19  C   UNL     1     -52.034 -32.657   9.101 -0.13 +0.00    +0.001 A  
DOCKED: ATOM     20  C   UNL     1     -51.349 -33.406  10.060 -0.15 +0.00    +0.029 A  
DOCKED: ATOM     21  C   UNL     1     -52.048 -34.278  10.893 -0.15 +0.00    +0.140 A  
DOCKED: ATOM     22  C   UNL     1     -53.432 -34.402  10.770 -0.14 +0.00    +0.029 A  
DOCKED: ATOM     23  F   UNL     1     -51.391 -34.995  11.814 -0.08 -0.00    -0.204 F  
DOCKED: ATOM     24  C   UNL     1     -54.117 -33.654   9.811 -0.14 +0.00    +0.001 A  
DOCKED: ENDBRANCH   2  18
DOCKED: TORSDOF 5
DOCKED: TER
DOCKED: ENDMDL
________________________________________________________________________________


    FINAL DOCKED STATE:
    ________________________


Run:   220 / 512
Time taken for this run:   0.001s

DOCKED: MODEL        220
DOCKED: USER    Run = 220
DOCKED: USER
DOCKED: USER    Estimated Free Energy of Binding    =  -4.18 kcal/mol  [=(1)+(2)+(3)-(4)]
DOCKED: USER
DOCKED: USER    (1) Final Intermolecular Energy     =  -5.67 kcal/mol
DOCKED: USER        vdW + Hbond + desolv Energy     =  -5.67 kcal/mol
DOCKED: USER        Electrostatic Energy            =  +0.00 kcal/mol
DOCKED: USER        Moving Ligand-Fixed Receptor    =  -5.67 kcal/mol
DOCKED: USER        Moving Ligand-Moving Receptor   =  +0.00 kcal/mol
DOCKED: USER    (2) Final Total Internal Energy     =  -1.39 kcal/mol
DOCKED: USER    (3) Torsional Free Energy           =  +1.49 kcal/mol
DOCKED: USER    (4) Unbound System's Energy         =  -1.39 kcal/mol
DOCKED: USER
DOCKED: USER
DOCKED: REMARK  5 active torsions:
DOCKED: REMARK  status: ('A' for Active; 'I' for Inactive)
DOCKED: REMARK    1  A    between atoms: C_2  and  C_19 
DOCKED: REMARK    2  A    between atoms: C_2  and  C_11 
DOCKED: REMARK    3  A    between atoms: C_19  and  C_20 
DOCKED: REMARK    4  A    between atoms: C_20  and  C_21 
DOCKED: REMARK    5  A    between atoms: C_21  and  N_22 
DOCKED: USER                              x       y       z     vdW  Elec       q    Type
DOCKED: USER                           _______ _______ _______ _____ _____    ______ ____
DOCKED: ROOT
DOCKED: ATOM      1  O   UNL     1     -48.854 -31.400   8.813 -0.07 -0.00    -0.346 OA 
DOCKED: ATOM      2  C   UNL     1     -49.911 -30.476   8.398 -0.11 +0.00    +0.130 C  
DOCKED: ATOM      3  C   UNL     1     -50.886 -31.351   7.665 -0.20 +0.00    +0.004 A  
DOCKED: ATOM      4  C   UNL     1     -50.480 -32.676   7.748 -0.25 +0.00    +0.006 A  
DOCKED: ATOM      5  C   UNL     1     -49.233 -32.770   8.541 -0.11 +0.00    +0.169 C  
DOCKED: ATOM      6  C   UNL     1     -52.047 -31.004   6.988 -0.25 -0.00    -0.001 A  
DOCKED: ATOM      7  C   UNL     1     -51.211 -33.692   7.158 -0.35 +0.00    +0.008 A  
DOCKED: ATOM      8  C   UNL     1     -52.793 -32.018   6.384 -0.30 +0.00    +0.010 A  
DOCKED: ATOM      9  C   UNL     1     -52.377 -33.355   6.469 -0.30 +0.00    +0.068 A  
DOCKED: ATOM     10  N   UNL     1     -53.788 -35.212   5.341 -2.56 -0.00    -0.191 NA 
DOCKED: ATOM     11  C   UNL     1     -53.155 -34.379   5.846 -0.35 +0.00    +0.101 C  
DOCKED: ENDROOT
DOCKED: BRANCH   2  12
DOCKED: ATOM     12  C   UNL     1     -50.510 -29.837   9.646 -0.04 +0.00    +0.038 C  
DOCKED: BRANCH  12  13
DOCKED: ATOM     13  C   UNL     1     -50.612 -30.841  10.792 -0.03 +0.00    +0.038 C  
DOCKED: BRANCH  13  14
DOCKED: ATOM     14  C   UNL     1     -51.890 -31.670  10.683 -0.02 +0.00    +0.251 C  
DOCKED: BRANCH  14  15
DOCKED: ATOM     15  N   UNL     1     -51.579 -33.093  10.747 -0.08 +0.00    +0.141 N  
DOCKED: ATOM     16  C   UNL     1     -50.687 -33.376  11.873 -0.07 +0.00    +0.285 C  
DOCKED: ATOM     17  C   UNL     1     -52.805 -33.885  10.859 -0.08 +0.00    +0.285 C  
DOCKED: ENDBRANCH  14  15
DOCKED: ENDBRANCH  13  14
DOCKED: ENDBRANCH  12  13
DOCKED: ENDBRANCH   2  12
DOCKED: BRANCH   2  18
DOCKED: ATOM     18  C   UNL     1     -49.275 -29.451   7.520 -0.12 +0.00    +0.006 A  
DOCKED: ATOM     19  C   UNL     1     -49.892 -28.215   7.333 -0.09 +0.00    +0.001 A  
DOCKED: ATOM     20  C   UNL     1     -49.296 -27.257   6.511 -0.07 +0.00    +0.029 A  
DOCKED: ATOM     21  C   UNL     1     -48.085 -27.537   5.878 -0.06 +0.00    +0.140 A  
DOCKED: ATOM     22  C   UNL     1     -47.469 -28.774   6.066 -0.10 +0.00    +0.029 A  
DOCKED: ATOM     23  F   UNL     1     -47.513 -26.617   5.091 -0.00 -0.00    -0.204 F  
DOCKED: ATOM     24  C   UNL     1     -48.065 -29.733   6.888 -0.04 +0.00    +0.001 A  
DOCKED: ENDBRANCH   2  18
DOCKED: TORSDOF 5
DOCKED: TER
DOCKED: ENDMDL
________________________________________________________________________________


    FINAL DOCKED STATE:
    ________________________


Run:   221 / 512
Time taken for this run:   0.001s

DOCKED: MODEL        221
DOCKED: USER    Run = 221
DOCKED: USER
DOCKED: USER    Estimated Free Energy of Binding    =  -3.82 kcal/mol  [=(1)+(2)+(3)-(4)]
DOCKED: USER
DOCKED: USER    (1) Final Intermolecular Energy     =  -5.31 kcal/mol
DOCKED: USER        vdW + Hbond + desolv Energy     =  -5.31 kcal/mol
DOCKED: USER        Electrostatic Energy            =  +0.00 kcal/mol
DOCKED: USER        Moving Ligand-Fixed Receptor    =  -5.31 kcal/mol
DOCKED: USER        Moving Ligand-Moving Receptor   =  +0.00 kcal/mol
DOCKED: USER    (2) Final Total Internal Energy     =  -1.45 kcal/mol
DOCKED: USER    (3) Torsional Free Energy           =  +1.49 kcal/mol
DOCKED: USER    (4) Unbound System's Energy         =  -1.45 kcal/mol
DOCKED: USER
DOCKED: USER
DOCKED: REMARK  5 active torsions:
DOCKED: REMARK  status: ('A' for Active; 'I' for Inactive)
DOCKED: REMARK    1  A    between atoms: C_2  and  C_19 
DOCKED: REMARK    2  A    between atoms: C_2  and  C_11 
DOCKED: REMARK    3  A    between atoms: C_19  and  C_20 
DOCKED: REMARK    4  A    between atoms: C_20  and  C_21 
DOCKED: REMARK    5  A    between atoms: C_21  and  N_22 
DOCKED: USER                              x       y       z     vdW  Elec       q    Type
DOCKED: USER                           _______ _______ _______ _____ _____    ______ ____
DOCKED: ROOT
DOCKED: ATOM      1  O   UNL     1     -49.997 -32.373  10.415 -0.04 -0.00    -0.346 OA 
DOCKED: ATOM      2  C   UNL     1     -49.806 -31.568   9.207 -0.12 +0.00    +0.130 C  
DOCKED: ATOM      3  C   UNL     1     -50.693 -32.228   8.192 -0.21 +0.00    +0.004 A  
DOCKED: ATOM      4  C   UNL     1     -51.413 -33.250   8.794 -0.20 +0.00    +0.006 A  
DOCKED: ATOM      5  C   UNL     1     -51.066 -33.329  10.231 -0.12 +0.00    +0.169 C  
DOCKED: ATOM      6  C   UNL     1     -50.860 -31.939   6.845 -0.15 -0.00    -0.001 A  
DOCKED: ATOM      7  C   UNL     1     -52.314 -34.018   8.076 -0.27 +0.00    +0.008 A  
DOCKED: ATOM      8  C   UNL     1     -51.761 -32.706   6.106 -0.32 +0.00    +0.010 A  
DOCKED: ATOM      9  C   UNL     1     -52.485 -33.740   6.719 -0.28 +0.00    +0.068 A  
DOCKED: ATOM     10  N   UNL     1     -54.155 -35.143   5.320 -2.29 -0.00    -0.191 NA 
DOCKED: ATOM     11  C   UNL     1     -53.406 -34.514   5.947 -0.23 +0.00    +0.101 C  
DOCKED: ENDROOT
DOCKED: BRANCH   2  12
DOCKED: ATOM     12  C   UNL     1     -50.218 -30.133   9.513 -0.05 +0.00    +0.038 C  
DOCKED: BRANCH  12  13
DOCKED: ATOM     13  C   UNL     1     -51.723 -30.024   9.749 -0.04 +0.00    +0.038 C  
DOCKED: BRANCH  13  14
DOCKED: ATOM     14  C   UNL     1     -52.402 -29.250   8.621 -0.04 +0.00    +0.251 C  
DOCKED: BRANCH  14  15
DOCKED: ATOM     15  N   UNL     1     -53.746 -29.766   8.388 -0.06 +0.00    +0.141 N  
DOCKED: ATOM     16  C   UNL     1     -53.849 -30.349   7.049 -0.14 +0.00    +0.285 C  
DOCKED: ATOM     17  C   UNL     1     -54.100 -30.759   9.403 -0.01 +0.00    +0.285 C  
DOCKED: ENDBRANCH  14  15
DOCKED: ENDBRANCH  13  14
DOCKED: ENDBRANCH  12  13
DOCKED: ENDBRANCH   2  12
DOCKED: BRANCH   2  18
DOCKED: ATOM     18  C   UNL     1     -48.358 -31.649   8.854 -0.15 +0.00    +0.006 A  
DOCKED: ATOM     19  C   UNL     1     -47.803 -30.720   7.975 -0.11 +0.00    +0.001 A  
DOCKED: ATOM     20  C   UNL     1     -46.449 -30.796   7.645 -0.11 +0.00    +0.029 A  
DOCKED: ATOM     21  C   UNL     1     -45.653 -31.801   8.195 -0.08 +0.00    +0.140 A  
DOCKED: ATOM     22  C   UNL     1     -46.210 -32.730   9.074 -0.14 +0.00    +0.029 A  
DOCKED: ATOM     23  F   UNL     1     -44.354 -31.873   7.879 -0.00 -0.00    -0.204 F  
DOCKED: ATOM     24  C   UNL     1     -47.564 -32.654   9.404 -0.14 +0.00    +0.001 A  
DOCKED: ENDBRANCH   2  18
DOCKED: TORSDOF 5
DOCKED: TER
DOCKED: ENDMDL
________________________________________________________________________________


    FINAL DOCKED STATE:
    ________________________


Run:   222 / 512
Time taken for this run:   0.001s

DOCKED: MODEL        222
DOCKED: USER    Run = 222
DOCKED: USER
DOCKED: USER    Estimated Free Energy of Binding    =  -3.97 kcal/mol  [=(1)+(2)+(3)-(4)]
DOCKED: USER
DOCKED: USER    (1) Final Intermolecular Energy     =  -5.46 kcal/mol
DOCKED: USER        vdW + Hbond + desolv Energy     =  -5.46 kcal/mol
DOCKED: USER        Electrostatic Energy            =  +0.00 kcal/mol
DOCKED: USER        Moving Ligand-Fixed Receptor    =  -5.46 kcal/mol
DOCKED: USER        Moving Ligand-Moving Receptor   =  +0.00 kcal/mol
DOCKED: USER    (2) Final Total Internal Energy     =  -1.28 kcal/mol
DOCKED: USER    (3) Torsional Free Energy           =  +1.49 kcal/mol
DOCKED: USER    (4) Unbound System's Energy         =  -1.28 kcal/mol
DOCKED: USER
DOCKED: USER
DOCKED: REMARK  5 active torsions:
DOCKED: REMARK  status: ('A' for Active; 'I' for Inactive)
DOCKED: REMARK    1  A    between atoms: C_2  and  C_19 
DOCKED: REMARK    2  A    between atoms: C_2  and  C_11 
DOCKED: REMARK    3  A    between atoms: C_19  and  C_20 
DOCKED: REMARK    4  A    between atoms: C_20  and  C_21 
DOCKED: REMARK    5  A    between atoms: C_21  and  N_22 
DOCKED: USER                              x       y       z     vdW  Elec       q    Type
DOCKED: USER                           _______ _______ _______ _____ _____    ______ ____
DOCKED: ROOT
DOCKED: ATOM      1  O   UNL     1     -49.611 -31.399   9.329 -0.04 -0.00    -0.346 OA 
DOCKED: ATOM      2  C   UNL     1     -50.336 -30.512   8.419 -0.11 +0.00    +0.130 C  
DOCKED: ATOM      3  C   UNL     1     -51.102 -31.452   7.534 -0.21 +0.00    +0.004 A  
DOCKED: ATOM      4  C   UNL     1     -50.918 -32.757   7.969 -0.25 +0.00    +0.006 A  
DOCKED: ATOM      5  C   UNL     1     -50.042 -32.770   9.162 -0.13 +0.00    +0.169 C  
DOCKED: ATOM      6  C   UNL     1     -51.906 -31.174   6.439 -0.29 -0.00    -0.001 A  
DOCKED: ATOM      7  C   UNL     1     -51.524 -33.823   7.327 -0.35 +0.00    +0.008 A  
DOCKED: ATOM      8  C   UNL     1     -52.521 -32.239   5.777 -0.35 +0.00    +0.010 A  
DOCKED: ATOM      9  C   UNL     1     -52.331 -33.557   6.219 -0.32 +0.00    +0.068 A  
DOCKED: ATOM     10  N   UNL     1     -53.490 -35.509   4.972 -2.38 -0.00    -0.191 NA 
DOCKED: ATOM     11  C   UNL     1     -52.969 -34.634   5.531 -0.33 +0.00    +0.101 C  
DOCKED: ENDROOT
DOCKED: BRANCH   2  12
DOCKED: ATOM     12  C   UNL     1     -51.241 -29.607   9.247 -0.05 +0.00    +0.038 C  
DOCKED: BRANCH  12  13
DOCKED: ATOM     13  C   UNL     1     -51.334 -30.086  10.695 -0.02 +0.00    +0.038 C  
DOCKED: BRANCH  13  14
DOCKED: ATOM     14  C   UNL     1     -50.066 -29.734  11.472 -0.00 +0.00    +0.251 C  
DOCKED: BRANCH  14  15
DOCKED: ATOM     15  N   UNL     1     -49.920 -30.611  12.627 -0.00 +0.00    +0.141 N  
DOCKED: ATOM     16  C   UNL     1     -50.881 -31.713  12.564 -0.01 +0.00    +0.285 C  
DOCKED: ATOM     17  C   UNL     1     -48.554 -31.133  12.708 -0.01 +0.00    +0.285 C  
DOCKED: ENDBRANCH  14  15
DOCKED: ENDBRANCH  13  14
DOCKED: ENDBRANCH  12  13
DOCKED: ENDBRANCH   2  12
DOCKED: BRANCH   2  18
DOCKED: ATOM     18  C   UNL     1     -49.314 -29.717   7.677 -0.12 +0.00    +0.006 A  
DOCKED: ATOM     19  C   UNL     1     -49.694 -28.570   6.981 -0.13 +0.00    +0.001 A  
DOCKED: ATOM     20  C   UNL     1     -48.737 -27.829   6.287 -0.09 +0.00    +0.029 A  
DOCKED: ATOM     21  C   UNL     1     -47.403 -28.234   6.291 -0.06 +0.00    +0.140 A  
DOCKED: ATOM     22  C   UNL     1     -47.024 -29.381   6.988 -0.09 +0.00    +0.029 A  
DOCKED: ATOM     23  F   UNL     1     -46.484 -27.521   5.627 -0.00 -0.00    -0.204 F  
DOCKED: ATOM     24  C   UNL     1     -47.981 -30.124   7.682 -0.10 +0.00    +0.001 A  
DOCKED: ENDBRANCH   2  18
DOCKED: TORSDOF 5
DOCKED: TER
DOCKED: ENDMDL
________________________________________________________________________________


    FINAL DOCKED STATE:
    ________________________


Run:   223 / 512
Time taken for this run:   0.001s

DOCKED: MODEL        223
DOCKED: USER    Run = 223
DOCKED: USER
DOCKED: USER    Estimated Free Energy of Binding    =  -4.17 kcal/mol  [=(1)+(2)+(3)-(4)]
DOCKED: USER
DOCKED: USER    (1) Final Intermolecular Energy     =  -5.66 kcal/mol
DOCKED: USER        vdW + Hbond + desolv Energy     =  -5.66 kcal/mol
DOCKED: USER        Electrostatic Energy            =  +0.00 kcal/mol
DOCKED: USER        Moving Ligand-Fixed Receptor    =  -5.66 kcal/mol
DOCKED: USER        Moving Ligand-Moving Receptor   =  +0.00 kcal/mol
DOCKED: USER    (2) Final Total Internal Energy     =  -1.49 kcal/mol
DOCKED: USER    (3) Torsional Free Energy           =  +1.49 kcal/mol
DOCKED: USER    (4) Unbound System's Energy         =  -1.49 kcal/mol
DOCKED: USER
DOCKED: USER
DOCKED: REMARK  5 active torsions:
DOCKED: REMARK  status: ('A' for Active; 'I' for Inactive)
DOCKED: REMARK    1  A    between atoms: C_2  and  C_19 
DOCKED: REMARK    2  A    between atoms: C_2  and  C_11 
DOCKED: REMARK    3  A    between atoms: C_19  and  C_20 
DOCKED: REMARK    4  A    between atoms: C_20  and  C_21 
DOCKED: REMARK    5  A    between atoms: C_21  and  N_22 
DOCKED: USER                              x       y       z     vdW  Elec       q    Type
DOCKED: USER                           _______ _______ _______ _____ _____    ______ ____
DOCKED: ROOT
DOCKED: ATOM      1  O   UNL     1     -51.329 -28.935   7.140 -0.06 -0.00    -0.346 OA 
DOCKED: ATOM      2  C   UNL     1     -52.450 -29.295   8.008 -0.10 +0.00    +0.130 C  
DOCKED: ATOM      3  C   UNL     1     -52.837 -30.670   7.546 -0.18 +0.00    +0.004 A  
DOCKED: ATOM      4  C   UNL     1     -51.946 -31.103   6.574 -0.28 +0.00    +0.006 A  
DOCKED: ATOM      5  C   UNL     1     -50.916 -30.067   6.339 -0.15 +0.00    +0.169 C  
DOCKED: ATOM      6  C   UNL     1     -53.886 -31.477   7.960 -0.13 -0.00    -0.001 A  
DOCKED: ATOM      7  C   UNL     1     -52.074 -32.348   5.983 -0.34 +0.00    +0.008 A  
DOCKED: ATOM      8  C   UNL     1     -54.031 -32.734   7.370 -0.18 +0.00    +0.010 A  
DOCKED: ATOM      9  C   UNL     1     -53.129 -33.167   6.387 -0.26 +0.00    +0.068 A  
DOCKED: ATOM     10  N   UNL     1     -53.424 -35.508   5.317 -2.60 -0.00    -0.191 NA 
DOCKED: ATOM     11  C   UNL     1     -53.292 -34.458   5.796 -0.32 +0.00    +0.101 C  
DOCKED: ENDROOT
DOCKED: BRANCH   2  12
DOCKED: ATOM     12  C   UNL     1     -51.969 -29.268   9.454 -0.04 +0.00    +0.038 C  
DOCKED: BRANCH  12  13
DOCKED: ATOM     13  C   UNL     1     -50.465 -29.524   9.545 -0.04 +0.00    +0.038 C  
DOCKED: BRANCH  13  14
DOCKED: ATOM     14  C   UNL     1     -50.178 -30.931  10.065 -0.03 +0.00    +0.251 C  
DOCKED: BRANCH  14  15
DOCKED: ATOM     15  N   UNL     1     -50.190 -31.890   8.967 -0.11 +0.00    +0.141 N  
DOCKED: ATOM     16  C   UNL     1     -48.826 -32.184   8.523 -0.11 +0.00    +0.285 C  
DOCKED: ATOM     17  C   UNL     1     -50.870 -33.123   9.366 -0.09 +0.00    +0.285 C  
DOCKED: ENDBRANCH  14  15
DOCKED: ENDBRANCH  13  14
DOCKED: ENDBRANCH  12  13
DOCKED: ENDBRANCH   2  12
DOCKED: BRANCH   2  18
DOCKED: ATOM     18  C   UNL     1     -53.522 -28.282   7.780 -0.12 +0.00    +0.006 A  
DOCKED: ATOM     19  C   UNL     1     -53.831 -27.357   8.776 -0.04 +0.00    +0.001 A  
DOCKED: ATOM     20  C   UNL     1     -54.833 -26.410   8.561 -0.04 +0.00    +0.029 A  
DOCKED: ATOM     21  C   UNL     1     -55.524 -26.389   7.351 -0.07 +0.00    +0.140 A  
DOCKED: ATOM     22  C   UNL     1     -55.215 -27.315   6.354 -0.18 +0.00    +0.029 A  
DOCKED: ATOM     23  F   UNL     1     -56.485 -25.480   7.144 +0.01 -0.00    -0.204 F  
DOCKED: ATOM     24  C   UNL     1     -54.212 -28.262   6.568 -0.22 +0.00    +0.001 A  
DOCKED: ENDBRANCH   2  18
DOCKED: TORSDOF 5
DOCKED: TER
DOCKED: ENDMDL
________________________________________________________________________________


    FINAL DOCKED STATE:
    ________________________


Run:   224 / 512
Time taken for this run:   0.001s

DOCKED: MODEL        224
DOCKED: USER    Run = 224
DOCKED: USER
DOCKED: USER    Estimated Free Energy of Binding    =  -5.43 kcal/mol  [=(1)+(2)+(3)-(4)]
DOCKED: USER
DOCKED: USER    (1) Final Intermolecular Energy     =  -6.93 kcal/mol
DOCKED: USER        vdW + Hbond + desolv Energy     =  -6.93 kcal/mol
DOCKED: USER        Electrostatic Energy            =  +0.00 kcal/mol
DOCKED: USER        Moving Ligand-Fixed Receptor    =  -6.93 kcal/mol
DOCKED: USER        Moving Ligand-Moving Receptor   =  +0.00 kcal/mol
DOCKED: USER    (2) Final Total Internal Energy     =  -1.15 kcal/mol
DOCKED: USER    (3) Torsional Free Energy           =  +1.49 kcal/mol
DOCKED: USER    (4) Unbound System's Energy         =  -1.15 kcal/mol
DOCKED: USER
DOCKED: USER
DOCKED: REMARK  5 active torsions:
DOCKED: REMARK  status: ('A' for Active; 'I' for Inactive)
DOCKED: REMARK    1  A    between atoms: C_2  and  C_19 
DOCKED: REMARK    2  A    between atoms: C_2  and  C_11 
DOCKED: REMARK    3  A    between atoms: C_19  and  C_20 
DOCKED: REMARK    4  A    between atoms: C_20  and  C_21 
DOCKED: REMARK    5  A    between atoms: C_21  and  N_22 
DOCKED: USER                              x       y       z     vdW  Elec       q    Type
DOCKED: USER                           _______ _______ _______ _____ _____    ______ ____
DOCKED: ROOT
DOCKED: ATOM      1  O   UNL     1     -55.112 -32.459   8.266 -0.00 -0.00    -0.346 OA 
DOCKED: ATOM      2  C   UNL     1     -53.702 -32.169   8.001 -0.11 +0.00    +0.130 C  
DOCKED: ATOM      3  C   UNL     1     -53.522 -32.550   6.560 -0.26 +0.00    +0.004 A  
DOCKED: ATOM      4  C   UNL     1     -54.745 -32.919   6.018 -0.28 +0.00    +0.006 A  
DOCKED: ATOM      5  C   UNL     1     -55.806 -32.798   7.042 -0.17 +0.00    +0.169 C  
DOCKED: ATOM      6  C   UNL     1     -52.370 -32.557   5.787 -0.37 -0.00    -0.001 A  
DOCKED: ATOM      7  C   UNL     1     -54.858 -33.310   4.694 -0.26 +0.00    +0.008 A  
DOCKED: ATOM      8  C   UNL     1     -52.466 -32.954   4.452 -0.19 +0.00    +0.010 A  
DOCKED: ATOM      9  C   UNL     1     -53.704 -33.328   3.909 -0.33 +0.00    +0.068 A  
DOCKED: ATOM     10  N   UNL     1     -53.849 -34.054   1.426 -2.99 -0.00    -0.191 NA 
DOCKED: ATOM     11  C   UNL     1     -53.784 -33.729   2.540 -0.27 +0.00    +0.101 C  
DOCKED: ENDROOT
DOCKED: BRANCH   2  12
DOCKED: ATOM     12  C   UNL     1     -53.457 -30.687   8.259 -0.12 +0.00    +0.038 C  
DOCKED: BRANCH  12  13
DOCKED: ATOM     13  C   UNL     1     -54.761 -29.951   8.561 -0.10 +0.00    +0.038 C  
DOCKED: BRANCH  13  14
DOCKED: ATOM     14  C   UNL     1     -54.673 -28.484   8.146 -0.07 +0.00    +0.251 C  
DOCKED: BRANCH  14  15
DOCKED: ATOM     15  N   UNL     1     -55.612 -28.205   7.066 -0.17 +0.00    +0.141 N  
DOCKED: ATOM     16  C   UNL     1     -56.493 -29.352   6.839 -0.15 +0.00    +0.285 C  
DOCKED: ATOM     17  C   UNL     1     -56.401 -27.009   7.365 -0.07 +0.00    +0.285 C  
DOCKED: ENDBRANCH  14  15
DOCKED: ENDBRANCH  13  14
DOCKED: ENDBRANCH  12  13
DOCKED: ENDBRANCH   2  12
DOCKED: BRANCH   2  18
DOCKED: ATOM     18  C   UNL     1     -52.901 -33.017   8.931 -0.14 +0.00    +0.006 A  
DOCKED: ATOM     19  C   UNL     1     -52.642 -34.350   8.611 -0.27 +0.00    +0.001 A  
DOCKED: ATOM     20  C   UNL     1     -51.893 -35.142   9.482 -0.19 +0.00    +0.029 A  
DOCKED: ATOM     21  C   UNL     1     -51.403 -34.601  10.670 -0.15 +0.00    +0.140 A  
DOCKED: ATOM     22  C   UNL     1     -51.661 -33.268  10.989 -0.12 +0.00    +0.029 A  
DOCKED: ATOM     23  F   UNL     1     -50.682 -35.361  11.504 -0.08 -0.00    -0.204 F  
DOCKED: ATOM     24  C   UNL     1     -52.411 -32.475  10.118 -0.08 +0.00    +0.001 A  
DOCKED: ENDBRANCH   2  18
DOCKED: TORSDOF 5
DOCKED: TER
DOCKED: ENDMDL
________________________________________________________________________________


    FINAL DOCKED STATE:
    ________________________


Run:   225 / 512
Time taken for this run:   0.001s

DOCKED: MODEL        225
DOCKED: USER    Run = 225
DOCKED: USER
DOCKED: USER    Estimated Free Energy of Binding    =  -4.29 kcal/mol  [=(1)+(2)+(3)-(4)]
DOCKED: USER
DOCKED: USER    (1) Final Intermolecular Energy     =  -5.79 kcal/mol
DOCKED: USER        vdW + Hbond + desolv Energy     =  -5.79 kcal/mol
DOCKED: USER        Electrostatic Energy            =  +0.00 kcal/mol
DOCKED: USER        Moving Ligand-Fixed Receptor    =  -5.79 kcal/mol
DOCKED: USER        Moving Ligand-Moving Receptor   =  +0.00 kcal/mol
DOCKED: USER    (2) Final Total Internal Energy     =  -1.02 kcal/mol
DOCKED: USER    (3) Torsional Free Energy           =  +1.49 kcal/mol
DOCKED: USER    (4) Unbound System's Energy         =  -1.02 kcal/mol
DOCKED: USER
DOCKED: USER
DOCKED: REMARK  5 active torsions:
DOCKED: REMARK  status: ('A' for Active; 'I' for Inactive)
DOCKED: REMARK    1  A    between atoms: C_2  and  C_19 
DOCKED: REMARK    2  A    between atoms: C_2  and  C_11 
DOCKED: REMARK    3  A    between atoms: C_19  and  C_20 
DOCKED: REMARK    4  A    between atoms: C_20  and  C_21 
DOCKED: REMARK    5  A    between atoms: C_21  and  N_22 
DOCKED: USER                              x       y       z     vdW  Elec       q    Type
DOCKED: USER                           _______ _______ _______ _____ _____    ______ ____
DOCKED: ROOT
DOCKED: ATOM      1  O   UNL     1     -48.907 -31.104   8.474 -0.08 -0.00    -0.346 OA 
DOCKED: ATOM      2  C   UNL     1     -49.821 -30.231   7.736 -0.14 +0.00    +0.130 C  
DOCKED: ATOM      3  C   UNL     1     -50.791 -31.183   7.099 -0.20 +0.00    +0.004 A  
DOCKED: ATOM      4  C   UNL     1     -50.524 -32.477   7.524 -0.23 +0.00    +0.006 A  
DOCKED: ATOM      5  C   UNL     1     -49.383 -32.469   8.468 -0.17 +0.00    +0.169 C  
DOCKED: ATOM      6  C   UNL     1     -51.834 -30.924   6.222 -0.26 -0.00    -0.001 A  
DOCKED: ATOM      7  C   UNL     1     -51.281 -33.550   7.088 -0.34 +0.00    +0.008 A  
DOCKED: ATOM      8  C   UNL     1     -52.605 -31.996   5.769 -0.33 +0.00    +0.010 A  
DOCKED: ATOM      9  C   UNL     1     -52.330 -33.302   6.201 -0.31 +0.00    +0.068 A  
DOCKED: ATOM     10  N   UNL     1     -53.783 -35.270   5.345 -2.56 -0.00    -0.191 NA 
DOCKED: ATOM     11  C   UNL     1     -53.131 -34.387   5.728 -0.38 +0.00    +0.101 C  
DOCKED: ENDROOT
DOCKED: BRANCH   2  12
DOCKED: ATOM     12  C   UNL     1     -50.485 -29.280   8.725 -0.06 +0.00    +0.038 C  
DOCKED: BRANCH  12  13
DOCKED: ATOM     13  C   UNL     1     -49.722 -29.231  10.048 -0.02 +0.00    +0.038 C  
DOCKED: BRANCH  13  14
DOCKED: ATOM     14  C   UNL     1     -50.237 -30.291  11.019 -0.01 +0.00    +0.251 C  
DOCKED: BRANCH  14  15
DOCKED: ATOM     15  N   UNL     1     -50.406 -29.721  12.350 -0.00 +0.00    +0.141 N  
DOCKED: ATOM     16  C   UNL     1     -50.679 -28.285  12.265 +0.00 +0.00    +0.285 C  
DOCKED: ATOM     17  C   UNL     1     -51.485 -30.401  13.069 -0.00 +0.00    +0.285 C  
DOCKED: ENDBRANCH  14  15
DOCKED: ENDBRANCH  13  14
DOCKED: ENDBRANCH  12  13
DOCKED: ENDBRANCH   2  12
DOCKED: BRANCH   2  18
DOCKED: ATOM     18  C   UNL     1     -49.000 -29.483   6.739 -0.12 +0.00    +0.006 A  
DOCKED: ATOM     19  C   UNL     1     -47.608 -29.531   6.806 -0.10 +0.00    +0.001 A  
DOCKED: ATOM     20  C   UNL     1     -46.842 -28.831   5.874 -0.09 +0.00    +0.029 A  
DOCKED: ATOM     21  C   UNL     1     -47.468 -28.085   4.876 -0.08 +0.00    +0.140 A  
DOCKED: ATOM     22  C   UNL     1     -48.860 -28.038   4.809 -0.14 +0.00    +0.029 A  
DOCKED: ATOM     23  F   UNL     1     -46.732 -27.415   3.980 -0.00 -0.00    -0.204 F  
DOCKED: ATOM     24  C   UNL     1     -49.628 -28.738   5.742 -0.16 +0.00    +0.001 A  
DOCKED: ENDBRANCH   2  18
DOCKED: TORSDOF 5
DOCKED: TER
DOCKED: ENDMDL
________________________________________________________________________________


    FINAL DOCKED STATE:
    ________________________


Run:   226 / 512
Time taken for this run:   0.001s

DOCKED: MODEL        226
DOCKED: USER    Run = 226
DOCKED: USER
DOCKED: USER    Estimated Free Energy of Binding    =  -3.94 kcal/mol  [=(1)+(2)+(3)-(4)]
DOCKED: USER
DOCKED: USER    (1) Final Intermolecular Energy     =  -5.43 kcal/mol
DOCKED: USER        vdW + Hbond + desolv Energy     =  -5.43 kcal/mol
DOCKED: USER        Electrostatic Energy            =  +0.00 kcal/mol
DOCKED: USER        Moving Ligand-Fixed Receptor    =  -5.43 kcal/mol
DOCKED: USER        Moving Ligand-Moving Receptor   =  +0.00 kcal/mol
DOCKED: USER    (2) Final Total Internal Energy     =  -1.46 kcal/mol
DOCKED: USER    (3) Torsional Free Energy           =  +1.49 kcal/mol
DOCKED: USER    (4) Unbound System's Energy         =  -1.46 kcal/mol
DOCKED: USER
DOCKED: USER
DOCKED: REMARK  5 active torsions:
DOCKED: REMARK  status: ('A' for Active; 'I' for Inactive)
DOCKED: REMARK    1  A    between atoms: C_2  and  C_19 
DOCKED: REMARK    2  A    between atoms: C_2  and  C_11 
DOCKED: REMARK    3  A    between atoms: C_19  and  C_20 
DOCKED: REMARK    4  A    between atoms: C_20  and  C_21 
DOCKED: REMARK    5  A    between atoms: C_21  and  N_22 
DOCKED: USER                              x       y       z     vdW  Elec       q    Type
DOCKED: USER                           _______ _______ _______ _____ _____    ______ ____
DOCKED: ROOT
DOCKED: ATOM      1  O   UNL     1     -43.416 -32.588  -1.750 -0.00 -0.00    -0.346 OA 
DOCKED: ATOM      2  C   UNL     1     -44.054 -31.567  -0.919 -0.08 +0.00    +0.130 C  
DOCKED: ATOM      3  C   UNL     1     -44.643 -32.347   0.221 -0.12 +0.00    +0.004 A  
DOCKED: ATOM      4  C   UNL     1     -44.279 -33.682   0.111 -0.13 +0.00    +0.006 A  
DOCKED: ATOM      5  C   UNL     1     -43.426 -33.873  -1.084 -0.07 +0.00    +0.169 C  
DOCKED: ATOM      6  C   UNL     1     -45.428 -31.909   1.277 -0.17 -0.00    -0.001 A  
DOCKED: ATOM      7  C   UNL     1     -44.688 -34.619   1.043 -0.22 +0.00    +0.008 A  
DOCKED: ATOM      8  C   UNL     1     -45.852 -32.843   2.224 -0.28 +0.00    +0.010 A  
DOCKED: ATOM      9  C   UNL     1     -45.483 -34.192   2.107 -0.28 +0.00    +0.068 A  
DOCKED: ATOM     10  N   UNL     1     -46.283 -35.899   3.884 -2.56 -0.00    -0.191 NA 
DOCKED: ATOM     11  C   UNL     1     -45.925 -35.133   3.087 -0.43 +0.00    +0.101 C  
DOCKED: ENDROOT
DOCKED: BRANCH   2  12
DOCKED: ATOM     12  C   UNL     1     -42.989 -30.574  -0.470 -0.02 +0.00    +0.038 C  
DOCKED: BRANCH  12  13
DOCKED: ATOM     13  C   UNL     1     -41.947 -31.241   0.426 -0.01 +0.00    +0.038 C  
DOCKED: BRANCH  13  14
DOCKED: ATOM     14  C   UNL     1     -42.151 -30.853   1.889 -0.00 +0.00    +0.251 C  
DOCKED: BRANCH  14  15
DOCKED: ATOM     15  N   UNL     1     -42.324 -32.045   2.711 -0.02 +0.00    +0.141 N  
DOCKED: ATOM     16  C   UNL     1     -41.348 -33.071   2.343 -0.00 +0.00    +0.285 C  
DOCKED: ATOM     17  C   UNL     1     -42.201 -31.713   4.131 -0.00 +0.00    +0.285 C  
DOCKED: ENDBRANCH  14  15
DOCKED: ENDBRANCH  13  14
DOCKED: ENDBRANCH  12  13
DOCKED: ENDBRANCH   2  12
DOCKED: BRANCH   2  18
DOCKED: ATOM     18  C   UNL     1     -45.089 -30.901  -1.764 -0.13 +0.00    +0.006 A  
DOCKED: ATOM     19  C   UNL     1     -45.347 -31.373  -3.050 -0.12 +0.00    +0.001 A  
DOCKED: ATOM     20  C   UNL     1     -46.314 -30.750  -3.839 -0.16 +0.00    +0.029 A  
DOCKED: ATOM     21  C   UNL     1     -47.022 -29.657  -3.341 -0.17 +0.00    +0.140 A  
DOCKED: ATOM     22  C   UNL     1     -46.764 -29.186  -2.054 -0.20 +0.00    +0.029 A  
DOCKED: ATOM     23  F   UNL     1     -47.952 -29.060  -4.098 -0.12 -0.00    -0.204 F  
DOCKED: ATOM     24  C   UNL     1     -45.796 -29.808  -1.264 -0.15 +0.00    +0.001 A  
DOCKED: ENDBRANCH   2  18
DOCKED: TORSDOF 5
DOCKED: TER
DOCKED: ENDMDL
________________________________________________________________________________


    FINAL DOCKED STATE:
    ________________________


Run:   227 / 512
Time taken for this run:   0.001s

DOCKED: MODEL        227
DOCKED: USER    Run = 227
DOCKED: USER
DOCKED: USER    Estimated Free Energy of Binding    =  -5.38 kcal/mol  [=(1)+(2)+(3)-(4)]
DOCKED: USER
DOCKED: USER    (1) Final Intermolecular Energy     =  -6.87 kcal/mol
DOCKED: USER        vdW + Hbond + desolv Energy     =  -6.87 kcal/mol
DOCKED: USER        Electrostatic Energy            =  +0.00 kcal/mol
DOCKED: USER        Moving Ligand-Fixed Receptor    =  -6.87 kcal/mol
DOCKED: USER        Moving Ligand-Moving Receptor   =  +0.00 kcal/mol
DOCKED: USER    (2) Final Total Internal Energy     =  -1.53 kcal/mol
DOCKED: USER    (3) Torsional Free Energy           =  +1.49 kcal/mol
DOCKED: USER    (4) Unbound System's Energy         =  -1.53 kcal/mol
DOCKED: USER
DOCKED: USER
DOCKED: REMARK  5 active torsions:
DOCKED: REMARK  status: ('A' for Active; 'I' for Inactive)
DOCKED: REMARK    1  A    between atoms: C_2  and  C_19 
DOCKED: REMARK    2  A    between atoms: C_2  and  C_11 
DOCKED: REMARK    3  A    between atoms: C_19  and  C_20 
DOCKED: REMARK    4  A    between atoms: C_20  and  C_21 
DOCKED: REMARK    5  A    between atoms: C_21  and  N_22 
DOCKED: USER                              x       y       z     vdW  Elec       q    Type
DOCKED: USER                           _______ _______ _______ _____ _____    ______ ____
DOCKED: ROOT
DOCKED: ATOM      1  O   UNL     1     -51.668 -33.046   7.983 -0.07 -0.00    -0.346 OA 
DOCKED: ATOM      2  C   UNL     1     -53.131 -33.089   8.002 -0.15 +0.00    +0.130 C  
DOCKED: ATOM      3  C   UNL     1     -53.504 -33.265   6.559 -0.27 +0.00    +0.004 A  
DOCKED: ATOM      4  C   UNL     1     -52.356 -33.421   5.795 -0.39 +0.00    +0.006 A  
DOCKED: ATOM      5  C   UNL     1     -51.162 -33.373   6.668 -0.27 +0.00    +0.169 C  
DOCKED: ATOM      6  C   UNL     1     -54.760 -33.296   5.970 -0.30 -0.00    -0.001 A  
DOCKED: ATOM      7  C   UNL     1     -52.422 -33.608   4.425 -0.30 +0.00    +0.008 A  
DOCKED: ATOM      8  C   UNL     1     -54.843 -33.479   4.589 -0.25 +0.00    +0.010 A  
DOCKED: ATOM      9  C   UNL     1     -53.680 -33.635   3.821 -0.40 +0.00    +0.068 A  
DOCKED: ATOM     10  N   UNL     1     -53.870 -33.979   1.260 -3.10 -0.00    -0.191 NA 
DOCKED: ATOM     11  C   UNL     1     -53.784 -33.825   2.408 -0.28 +0.00    +0.101 C  
DOCKED: ENDROOT
DOCKED: BRANCH   2  12
DOCKED: ATOM     12  C   UNL     1     -53.569 -34.258   8.876 -0.24 +0.00    +0.038 C  
DOCKED: BRANCH  12  13
DOCKED: ATOM     13  C   UNL     1     -52.381 -35.133   9.272 -0.17 +0.00    +0.038 C  
DOCKED: BRANCH  13  14
DOCKED: ATOM     14  C   UNL     1     -51.817 -34.712  10.628 -0.16 +0.00    +0.251 C  
DOCKED: BRANCH  14  15
DOCKED: ATOM     15  N   UNL     1     -52.225 -33.349  10.946 -0.08 +0.00    +0.141 N  
DOCKED: ATOM     16  C   UNL     1     -53.078 -33.330  12.136 -0.03 +0.00    +0.285 C  
DOCKED: ATOM     17  C   UNL     1     -51.055 -32.493  11.147 -0.04 +0.00    +0.285 C  
DOCKED: ENDBRANCH  14  15
DOCKED: ENDBRANCH  13  14
DOCKED: ENDBRANCH  12  13
DOCKED: ENDBRANCH   2  12
DOCKED: BRANCH   2  18
DOCKED: ATOM     18  C   UNL     1     -53.597 -31.789   8.569 -0.09 +0.00    +0.006 A  
DOCKED: ATOM     19  C   UNL     1     -54.717 -31.753   9.400 -0.06 +0.00    +0.001 A  
DOCKED: ATOM     20  C   UNL     1     -55.152 -30.537   9.929 -0.03 +0.00    +0.029 A  
DOCKED: ATOM     21  C   UNL     1     -54.468 -29.361   9.627 -0.01 +0.00    +0.140 A  
DOCKED: ATOM     22  C   UNL     1     -53.348 -29.398   8.797 -0.06 +0.00    +0.029 A  
DOCKED: ATOM     23  F   UNL     1     -54.885 -28.195  10.137 +0.00 -0.00    -0.204 F  
DOCKED: ATOM     24  C   UNL     1     -52.912 -30.613   8.267 -0.10 +0.00    +0.001 A  
DOCKED: ENDBRANCH   2  18
DOCKED: TORSDOF 5
DOCKED: TER
DOCKED: ENDMDL
________________________________________________________________________________


    FINAL DOCKED STATE:
    ________________________


Run:   228 / 512
Time taken for this run:   0.001s

DOCKED: MODEL        228
DOCKED: USER    Run = 228
DOCKED: USER
DOCKED: USER    Estimated Free Energy of Binding    =  -4.80 kcal/mol  [=(1)+(2)+(3)-(4)]
DOCKED: USER
DOCKED: USER    (1) Final Intermolecular Energy     =  -6.30 kcal/mol
DOCKED: USER        vdW + Hbond + desolv Energy     =  -6.30 kcal/mol
DOCKED: USER        Electrostatic Energy            =  +0.00 kcal/mol
DOCKED: USER        Moving Ligand-Fixed Receptor    =  -6.30 kcal/mol
DOCKED: USER        Moving Ligand-Moving Receptor   =  +0.00 kcal/mol
DOCKED: USER    (2) Final Total Internal Energy     =  -1.48 kcal/mol
DOCKED: USER    (3) Torsional Free Energy           =  +1.49 kcal/mol
DOCKED: USER    (4) Unbound System's Energy         =  -1.48 kcal/mol
DOCKED: USER
DOCKED: USER
DOCKED: REMARK  5 active torsions:
DOCKED: REMARK  status: ('A' for Active; 'I' for Inactive)
DOCKED: REMARK    1  A    between atoms: C_2  and  C_19 
DOCKED: REMARK    2  A    between atoms: C_2  and  C_11 
DOCKED: REMARK    3  A    between atoms: C_19  and  C_20 
DOCKED: REMARK    4  A    between atoms: C_20  and  C_21 
DOCKED: REMARK    5  A    between atoms: C_21  and  N_22 
DOCKED: USER                              x       y       z     vdW  Elec       q    Type
DOCKED: USER                           _______ _______ _______ _____ _____    ______ ____
DOCKED: ROOT
DOCKED: ATOM      1  O   UNL     1     -55.135 -32.402   8.425 -0.00 -0.00    -0.346 OA 
DOCKED: ATOM      2  C   UNL     1     -53.727 -32.096   8.165 -0.10 +0.00    +0.130 C  
DOCKED: ATOM      3  C   UNL     1     -53.536 -32.482   6.726 -0.24 +0.00    +0.004 A  
DOCKED: ATOM      4  C   UNL     1     -54.752 -32.868   6.181 -0.27 +0.00    +0.006 A  
DOCKED: ATOM      5  C   UNL     1     -55.819 -32.755   7.201 -0.16 +0.00    +0.169 C  
DOCKED: ATOM      6  C   UNL     1     -52.380 -32.479   5.959 -0.36 -0.00    -0.001 A  
DOCKED: ATOM      7  C   UNL     1     -54.854 -33.268   4.859 -0.29 +0.00    +0.008 A  
DOCKED: ATOM      8  C   UNL     1     -52.466 -32.883   4.626 -0.26 +0.00    +0.010 A  
DOCKED: ATOM      9  C   UNL     1     -53.697 -33.275   4.079 -0.33 +0.00    +0.068 A  
DOCKED: ATOM     10  N   UNL     1     -53.823 -34.015   1.599 -2.97 -0.00    -0.191 NA 
DOCKED: ATOM     11  C   UNL     1     -53.766 -33.684   2.711 -0.26 +0.00    +0.101 C  
DOCKED: ENDROOT
DOCKED: BRANCH   2  12
DOCKED: ATOM     12  C   UNL     1     -53.501 -30.610   8.416 -0.10 +0.00    +0.038 C  
DOCKED: BRANCH  12  13
DOCKED: ATOM     13  C   UNL     1     -54.164 -30.158   9.716 -0.04 +0.00    +0.038 C  
DOCKED: BRANCH  13  14
DOCKED: ATOM     14  C   UNL     1     -53.145 -30.065  10.849 -0.00 +0.00    +0.251 C  
DOCKED: BRANCH  14  15
DOCKED: ATOM     15  N   UNL     1     -53.701 -30.616  12.079 -0.00 +0.00    +0.141 N  
DOCKED: ATOM     16  C   UNL     1     -54.999 -31.243  11.822 +0.00 +0.00    +0.285 C  
DOCKED: ATOM     17  C   UNL     1     -52.779 -31.585  12.673 -0.00 +0.00    +0.285 C  
DOCKED: ENDBRANCH  14  15
DOCKED: ENDBRANCH  13  14
DOCKED: ENDBRANCH  12  13
DOCKED: ENDBRANCH   2  12
DOCKED: BRANCH   2  18
DOCKED: ATOM     18  C   UNL     1     -52.919 -32.930   9.103 -0.12 +0.00    +0.006 A  
DOCKED: ATOM     19  C   UNL     1     -51.549 -32.705   9.230 -0.14 +0.00    +0.001 A  
DOCKED: ATOM     20  C   UNL     1     -50.795 -33.486  10.107 -0.12 +0.00    +0.029 A  
DOCKED: ATOM     21  C   UNL     1     -51.411 -34.488  10.855 -0.16 +0.00    +0.140 A  
DOCKED: ATOM     22  C   UNL     1     -52.782 -34.712  10.727 -0.09 +0.00    +0.029 A  
DOCKED: ATOM     23  F   UNL     1     -50.687 -35.236  11.698 -0.09 -0.00    -0.204 F  
DOCKED: ATOM     24  C   UNL     1     -53.537 -33.932   9.849 -0.17 +0.00    +0.001 A  
DOCKED: ENDBRANCH   2  18
DOCKED: TORSDOF 5
DOCKED: TER
DOCKED: ENDMDL
________________________________________________________________________________


    FINAL DOCKED STATE:
    ________________________


Run:   229 / 512
Time taken for this run:   0.001s

DOCKED: MODEL        229
DOCKED: USER    Run = 229
DOCKED: USER
DOCKED: USER    Estimated Free Energy of Binding    =  -4.70 kcal/mol  [=(1)+(2)+(3)-(4)]
DOCKED: USER
DOCKED: USER    (1) Final Intermolecular Energy     =  -6.19 kcal/mol
DOCKED: USER        vdW + Hbond + desolv Energy     =  -6.19 kcal/mol
DOCKED: USER        Electrostatic Energy            =  +0.00 kcal/mol
DOCKED: USER        Moving Ligand-Fixed Receptor    =  -6.19 kcal/mol
DOCKED: USER        Moving Ligand-Moving Receptor   =  +0.00 kcal/mol
DOCKED: USER    (2) Final Total Internal Energy     =  -1.36 kcal/mol
DOCKED: USER    (3) Torsional Free Energy           =  +1.49 kcal/mol
DOCKED: USER    (4) Unbound System's Energy         =  -1.36 kcal/mol
DOCKED: USER
DOCKED: USER
DOCKED: REMARK  5 active torsions:
DOCKED: REMARK  status: ('A' for Active; 'I' for Inactive)
DOCKED: REMARK    1  A    between atoms: C_2  and  C_19 
DOCKED: REMARK    2  A    between atoms: C_2  and  C_11 
DOCKED: REMARK    3  A    between atoms: C_19  and  C_20 
DOCKED: REMARK    4  A    between atoms: C_20  and  C_21 
DOCKED: REMARK    5  A    between atoms: C_21  and  N_22 
DOCKED: USER                              x       y       z     vdW  Elec       q    Type
DOCKED: USER                           _______ _______ _______ _____ _____    ______ ____
DOCKED: ROOT
DOCKED: ATOM      1  O   UNL     1     -51.476 -28.855   6.988 -0.07 -0.00    -0.346 OA 
DOCKED: ATOM      2  C   UNL     1     -52.826 -29.067   7.511 -0.15 +0.00    +0.130 C  
DOCKED: ATOM      3  C   UNL     1     -53.158 -30.470   7.091 -0.22 +0.00    +0.004 A  
DOCKED: ATOM      4  C   UNL     1     -52.055 -31.048   6.480 -0.28 +0.00    +0.006 A  
DOCKED: ATOM      5  C   UNL     1     -50.929 -30.088   6.464 -0.19 +0.00    +0.169 C  
DOCKED: ATOM      6  C   UNL     1     -54.339 -31.181   7.248 -0.20 -0.00    -0.001 A  
DOCKED: ATOM      7  C   UNL     1     -52.094 -32.347   6.003 -0.34 +0.00    +0.008 A  
DOCKED: ATOM      8  C   UNL     1     -54.395 -32.491   6.769 -0.22 +0.00    +0.010 A  
DOCKED: ATOM      9  C   UNL     1     -53.278 -33.071   6.150 -0.27 +0.00    +0.068 A  
DOCKED: ATOM     10  N   UNL     1     -53.415 -35.506   5.276 -2.57 -0.00    -0.191 NA 
DOCKED: ATOM     11  C   UNL     1     -53.353 -34.414   5.667 -0.37 +0.00    +0.101 C  
DOCKED: ENDROOT
DOCKED: BRANCH   2  12
DOCKED: ATOM     12  C   UNL     1     -52.791 -28.893   9.025 -0.05 +0.00    +0.038 C  
DOCKED: BRANCH  12  13
DOCKED: ATOM     13  C   UNL     1     -52.777 -30.243   9.740 -0.04 +0.00    +0.038 C  
DOCKED: BRANCH  13  14
DOCKED: ATOM     14  C   UNL     1     -51.348 -30.707  10.012 -0.02 +0.00    +0.251 C  
DOCKED: BRANCH  14  15
DOCKED: ATOM     15  N   UNL     1     -51.319 -32.143  10.262 -0.05 +0.00    +0.141 N  
DOCKED: ATOM     16  C   UNL     1     -52.610 -32.750   9.934 -0.04 +0.00    +0.285 C  
DOCKED: ATOM     17  C   UNL     1     -50.249 -32.779   9.493 -0.08 +0.00    +0.285 C  
DOCKED: ENDBRANCH  14  15
DOCKED: ENDBRANCH  13  14
DOCKED: ENDBRANCH  12  13
DOCKED: ENDBRANCH   2  12
DOCKED: BRANCH   2  18
DOCKED: ATOM     18  C   UNL     1     -53.706 -28.045   6.872 -0.20 +0.00    +0.006 A  
DOCKED: ATOM     19  C   UNL     1     -53.143 -26.997   6.145 -0.18 +0.00    +0.001 A  
DOCKED: ATOM     20  C   UNL     1     -53.967 -26.042   5.549 -0.15 +0.00    +0.029 A  
DOCKED: ATOM     21  C   UNL     1     -55.352 -26.136   5.679 -0.09 +0.00    +0.140 A  
DOCKED: ATOM     22  C   UNL     1     -55.914 -27.185   6.406 -0.18 +0.00    +0.029 A  
DOCKED: ATOM     23  F   UNL     1     -56.142 -25.220   5.105 -0.03 -0.00    -0.204 F  
DOCKED: ATOM     24  C   UNL     1     -55.091 -28.141   7.004 -0.21 +0.00    +0.001 A  
DOCKED: ENDBRANCH   2  18
DOCKED: TORSDOF 5
DOCKED: TER
DOCKED: ENDMDL
________________________________________________________________________________


    FINAL DOCKED STATE:
    ________________________


Run:   230 / 512
Time taken for this run:   0.001s

DOCKED: MODEL        230
DOCKED: USER    Run = 230
DOCKED: USER
DOCKED: USER    Estimated Free Energy of Binding    =  -6.00 kcal/mol  [=(1)+(2)+(3)-(4)]
DOCKED: USER
DOCKED: USER    (1) Final Intermolecular Energy     =  -7.49 kcal/mol
DOCKED: USER        vdW + Hbond + desolv Energy     =  -7.49 kcal/mol
DOCKED: USER        Electrostatic Energy            =  +0.00 kcal/mol
DOCKED: USER        Moving Ligand-Fixed Receptor    =  -7.49 kcal/mol
DOCKED: USER        Moving Ligand-Moving Receptor   =  +0.00 kcal/mol
DOCKED: USER    (2) Final Total Internal Energy     =  -0.84 kcal/mol
DOCKED: USER    (3) Torsional Free Energy           =  +1.49 kcal/mol
DOCKED: USER    (4) Unbound System's Energy         =  -0.84 kcal/mol
DOCKED: USER
DOCKED: USER
DOCKED: REMARK  5 active torsions:
DOCKED: REMARK  status: ('A' for Active; 'I' for Inactive)
DOCKED: REMARK    1  A    between atoms: C_2  and  C_19 
DOCKED: REMARK    2  A    between atoms: C_2  and  C_11 
DOCKED: REMARK    3  A    between atoms: C_19  and  C_20 
DOCKED: REMARK    4  A    between atoms: C_20  and  C_21 
DOCKED: REMARK    5  A    between atoms: C_21  and  N_22 
DOCKED: USER                              x       y       z     vdW  Elec       q    Type
DOCKED: USER                           _______ _______ _______ _____ _____    ______ ____
DOCKED: ROOT
DOCKED: ATOM      1  O   UNL     1     -51.418 -34.190   7.953 -0.23 -0.00    -0.346 OA 
DOCKED: ATOM      2  C   UNL     1     -52.821 -33.781   8.025 -0.20 +0.00    +0.130 C  
DOCKED: ATOM      3  C   UNL     1     -53.260 -33.748   6.589 -0.29 +0.00    +0.004 A  
DOCKED: ATOM      4  C   UNL     1     -52.233 -34.205   5.776 -0.43 +0.00    +0.006 A  
DOCKED: ATOM      5  C   UNL     1     -51.065 -34.578   6.605 -0.32 +0.00    +0.169 C  
DOCKED: ATOM      6  C   UNL     1     -54.476 -33.356   6.048 -0.30 -0.00    -0.001 A  
DOCKED: ATOM      7  C   UNL     1     -52.381 -34.282   4.402 -0.40 +0.00    +0.008 A  
DOCKED: ATOM      8  C   UNL     1     -54.640 -33.424   4.663 -0.30 +0.00    +0.010 A  
DOCKED: ATOM      9  C   UNL     1     -53.598 -33.885   3.845 -0.42 +0.00    +0.068 A  
DOCKED: ATOM     10  N   UNL     1     -53.937 -34.003   1.279 -3.14 -0.00    -0.191 NA 
DOCKED: ATOM     11  C   UNL     1     -53.784 -33.949   2.430 -0.29 +0.00    +0.101 C  
DOCKED: ENDROOT
DOCKED: BRANCH   2  12
DOCKED: ATOM     12  C   UNL     1     -53.582 -34.808   8.855 -0.24 +0.00    +0.038 C  
DOCKED: BRANCH  12  13
DOCKED: ATOM     13  C   UNL     1     -54.375 -34.141   9.977 -0.18 +0.00    +0.038 C  
DOCKED: BRANCH  13  14
DOCKED: ATOM     14  C   UNL     1     -55.729 -34.820  10.172 -0.08 +0.00    +0.251 C  
DOCKED: BRANCH  14  15
DOCKED: ATOM     15  N   UNL     1     -55.897 -35.228  11.562 -0.14 +0.00    +0.141 N  
DOCKED: ATOM     16  C   UNL     1     -54.597 -35.345  12.225 -0.07 +0.00    +0.285 C  
DOCKED: ATOM     17  C   UNL     1     -56.749 -34.278  12.279 -0.03 +0.00    +0.285 C  
DOCKED: ENDBRANCH  14  15
DOCKED: ENDBRANCH  13  14
DOCKED: ENDBRANCH  12  13
DOCKED: ENDBRANCH   2  12
DOCKED: BRANCH   2  18
DOCKED: ATOM     18  C   UNL     1     -52.851 -32.437   8.673 -0.12 +0.00    +0.006 A  
DOCKED: ATOM     19  C   UNL     1     -51.935 -32.127   9.677 -0.09 +0.00    +0.001 A  
DOCKED: ATOM     20  C   UNL     1     -51.964 -30.870  10.282 -0.03 +0.00    +0.029 A  
DOCKED: ATOM     21  C   UNL     1     -52.908 -29.925   9.882 -0.01 +0.00    +0.140 A  
DOCKED: ATOM     22  C   UNL     1     -53.824 -30.236   8.878 -0.06 +0.00    +0.029 A  
DOCKED: ATOM     23  F   UNL     1     -52.935 -28.718  10.462 +0.00 -0.00    -0.204 F  
DOCKED: ATOM     24  C   UNL     1     -53.796 -31.493   8.272 -0.11 +0.00    +0.001 A  
DOCKED: ENDBRANCH   2  18
DOCKED: TORSDOF 5
DOCKED: TER
DOCKED: ENDMDL
________________________________________________________________________________


    FINAL DOCKED STATE:
    ________________________


Run:   231 / 512
Time taken for this run:   0.001s

DOCKED: MODEL        231
DOCKED: USER    Run = 231
DOCKED: USER
DOCKED: USER    Estimated Free Energy of Binding    =  -4.04 kcal/mol  [=(1)+(2)+(3)-(4)]
DOCKED: USER
DOCKED: USER    (1) Final Intermolecular Energy     =  -5.53 kcal/mol
DOCKED: USER        vdW + Hbond + desolv Energy     =  -5.53 kcal/mol
DOCKED: USER        Electrostatic Energy            =  +0.00 kcal/mol
DOCKED: USER        Moving Ligand-Fixed Receptor    =  -5.53 kcal/mol
DOCKED: USER        Moving Ligand-Moving Receptor   =  +0.00 kcal/mol
DOCKED: USER    (2) Final Total Internal Energy     =  -1.37 kcal/mol
DOCKED: USER    (3) Torsional Free Energy           =  +1.49 kcal/mol
DOCKED: USER    (4) Unbound System's Energy         =  -1.37 kcal/mol
DOCKED: USER
DOCKED: USER
DOCKED: REMARK  5 active torsions:
DOCKED: REMARK  status: ('A' for Active; 'I' for Inactive)
DOCKED: REMARK    1  A    between atoms: C_2  and  C_19 
DOCKED: REMARK    2  A    between atoms: C_2  and  C_11 
DOCKED: REMARK    3  A    between atoms: C_19  and  C_20 
DOCKED: REMARK    4  A    between atoms: C_20  and  C_21 
DOCKED: REMARK    5  A    between atoms: C_21  and  N_22 
DOCKED: USER                              x       y       z     vdW  Elec       q    Type
DOCKED: USER                           _______ _______ _______ _____ _____    ______ ____
DOCKED: ROOT
DOCKED: ATOM      1  O   UNL     1     -50.572 -31.821  10.175 -0.02 -0.00    -0.346 OA 
DOCKED: ATOM      2  C   UNL     1     -50.513 -31.007   8.961 -0.09 +0.00    +0.130 C  
DOCKED: ATOM      3  C   UNL     1     -51.185 -31.860   7.923 -0.20 +0.00    +0.004 A  
DOCKED: ATOM      4  C   UNL     1     -51.682 -33.012   8.516 -0.19 +0.00    +0.006 A  
DOCKED: ATOM      5  C   UNL     1     -51.390 -32.996   9.967 -0.11 +0.00    +0.169 C  
DOCKED: ATOM      6  C   UNL     1     -51.352 -31.629   6.566 -0.24 -0.00    -0.001 A  
DOCKED: ATOM      7  C   UNL     1     -52.356 -33.969   7.778 -0.28 +0.00    +0.008 A  
DOCKED: ATOM      8  C   UNL     1     -52.025 -32.587   5.806 -0.33 +0.00    +0.010 A  
DOCKED: ATOM      9  C   UNL     1     -52.525 -33.751   6.410 -0.31 +0.00    +0.068 A  
DOCKED: ATOM     10  N   UNL     1     -53.775 -35.507   4.972 -2.36 -0.00    -0.191 NA 
DOCKED: ATOM     11  C   UNL     1     -53.214 -34.720   5.616 -0.27 +0.00    +0.101 C  
DOCKED: ENDROOT
DOCKED: BRANCH   2  12
DOCKED: ATOM     12  C   UNL     1     -51.250 -29.698   9.221 -0.05 +0.00    +0.038 C  
DOCKED: BRANCH  12  13
DOCKED: ATOM     13  C   UNL     1     -52.665 -29.949   9.738 -0.04 +0.00    +0.038 C  
DOCKED: BRANCH  13  14
DOCKED: ATOM     14  C   UNL     1     -53.678 -29.060   9.020 -0.02 +0.00    +0.251 C  
DOCKED: BRANCH  14  15
DOCKED: ATOM     15  N   UNL     1     -53.733 -29.397   7.602 -0.12 +0.00    +0.141 N  
DOCKED: ATOM     16  C   UNL     1     -54.897 -30.237   7.316 -0.12 +0.00    +0.285 C  
DOCKED: ATOM     17  C   UNL     1     -53.770 -28.182   6.785 -0.16 +0.00    +0.285 C  
DOCKED: ENDBRANCH  14  15
DOCKED: ENDBRANCH  13  14
DOCKED: ENDBRANCH  12  13
DOCKED: ENDBRANCH   2  12
DOCKED: BRANCH   2  18
DOCKED: ATOM     18  C   UNL     1     -49.070 -30.763   8.668 -0.12 +0.00    +0.006 A  
DOCKED: ATOM     19  C   UNL     1     -48.692 -29.669   7.892 -0.11 +0.00    +0.001 A  
DOCKED: ATOM     20  C   UNL     1     -47.342 -29.443   7.618 -0.08 +0.00    +0.029 A  
DOCKED: ATOM     21  C   UNL     1     -46.374 -30.310   8.122 -0.06 +0.00    +0.140 A  
DOCKED: ATOM     22  C   UNL     1     -46.753 -31.404   8.899 -0.10 +0.00    +0.029 A  
DOCKED: ATOM     23  F   UNL     1     -45.078 -30.091   7.862 -0.00 -0.00    -0.204 F  
DOCKED: ATOM     24  C   UNL     1     -48.103 -31.632   9.173 -0.13 +0.00    +0.001 A  
DOCKED: ENDBRANCH   2  18
DOCKED: TORSDOF 5
DOCKED: TER
DOCKED: ENDMDL
________________________________________________________________________________


    FINAL DOCKED STATE:
    ________________________


Run:   232 / 512
Time taken for this run:   0.001s

DOCKED: MODEL        232
DOCKED: USER    Run = 232
DOCKED: USER
DOCKED: USER    Estimated Free Energy of Binding    =  -3.96 kcal/mol  [=(1)+(2)+(3)-(4)]
DOCKED: USER
DOCKED: USER    (1) Final Intermolecular Energy     =  -5.45 kcal/mol
DOCKED: USER        vdW + Hbond + desolv Energy     =  -5.45 kcal/mol
DOCKED: USER        Electrostatic Energy            =  +0.00 kcal/mol
DOCKED: USER        Moving Ligand-Fixed Receptor    =  -5.45 kcal/mol
DOCKED: USER        Moving Ligand-Moving Receptor   =  +0.00 kcal/mol
DOCKED: USER    (2) Final Total Internal Energy     =  -1.40 kcal/mol
DOCKED: USER    (3) Torsional Free Energy           =  +1.49 kcal/mol
DOCKED: USER    (4) Unbound System's Energy         =  -1.40 kcal/mol
DOCKED: USER
DOCKED: USER
DOCKED: REMARK  5 active torsions:
DOCKED: REMARK  status: ('A' for Active; 'I' for Inactive)
DOCKED: REMARK    1  A    between atoms: C_2  and  C_19 
DOCKED: REMARK    2  A    between atoms: C_2  and  C_11 
DOCKED: REMARK    3  A    between atoms: C_19  and  C_20 
DOCKED: REMARK    4  A    between atoms: C_20  and  C_21 
DOCKED: REMARK    5  A    between atoms: C_21  and  N_22 
DOCKED: USER                              x       y       z     vdW  Elec       q    Type
DOCKED: USER                           _______ _______ _______ _____ _____    ______ ____
DOCKED: ROOT
DOCKED: ATOM      1  O   UNL     1     -48.934 -31.108   8.491 -0.08 -0.00    -0.346 OA 
DOCKED: ATOM      2  C   UNL     1     -50.162 -30.324   8.346 -0.11 +0.00    +0.130 C  
DOCKED: ATOM      3  C   UNL     1     -51.111 -31.266   7.664 -0.20 +0.00    +0.004 A  
DOCKED: ATOM      4  C   UNL     1     -50.517 -32.513   7.531 -0.23 +0.00    +0.006 A  
DOCKED: ATOM      5  C   UNL     1     -49.159 -32.488   8.118 -0.09 +0.00    +0.169 C  
DOCKED: ATOM      6  C   UNL     1     -52.402 -31.041   7.209 -0.22 -0.00    -0.001 A  
DOCKED: ATOM      7  C   UNL     1     -51.186 -33.570   6.938 -0.35 +0.00    +0.008 A  
DOCKED: ATOM      8  C   UNL     1     -53.088 -32.095   6.604 -0.27 +0.00    +0.010 A  
DOCKED: ATOM      9  C   UNL     1     -52.483 -33.354   6.470 -0.29 +0.00    +0.068 A  
DOCKED: ATOM     10  N   UNL     1     -53.787 -35.291   5.348 -2.56 -0.00    -0.191 NA 
DOCKED: ATOM     11  C   UNL     1     -53.202 -34.422   5.850 -0.32 +0.00    +0.101 C  
DOCKED: ENDROOT
DOCKED: BRANCH   2  12
DOCKED: ATOM     12  C   UNL     1     -50.634 -29.907   9.734 -0.04 +0.00    +0.038 C  
DOCKED: BRANCH  12  13
DOCKED: ATOM     13  C   UNL     1     -50.899 -31.121  10.621 -0.05 +0.00    +0.038 C  
DOCKED: BRANCH  13  14
DOCKED: ATOM     14  C   UNL     1     -52.377 -31.216  10.997 -0.01 +0.00    +0.251 C  
DOCKED: BRANCH  14  15
DOCKED: ATOM     15  N   UNL     1     -52.952 -32.454  10.484 -0.04 +0.00    +0.141 N  
DOCKED: ATOM     16  C   UNL     1     -51.919 -33.479  10.333 -0.09 +0.00    +0.285 C  
DOCKED: ATOM     17  C   UNL     1     -54.016 -32.932  11.369 -0.02 +0.00    +0.285 C  
DOCKED: ENDBRANCH  14  15
DOCKED: ENDBRANCH  13  14
DOCKED: ENDBRANCH  12  13
DOCKED: ENDBRANCH   2  12
DOCKED: BRANCH   2  18
DOCKED: ATOM     18  C   UNL     1     -49.823 -29.134   7.512 -0.12 +0.00    +0.006 A  
DOCKED: ATOM     19  C   UNL     1     -49.251 -29.307   6.252 -0.10 +0.00    +0.001 A  
DOCKED: ATOM     20  C   UNL     1     -48.934 -28.193   5.473 -0.14 +0.00    +0.029 A  
DOCKED: ATOM     21  C   UNL     1     -49.191 -26.910   5.954 -0.06 +0.00    +0.140 A  
DOCKED: ATOM     22  C   UNL     1     -49.764 -26.738   7.214 -0.04 +0.00    +0.029 A  
DOCKED: ATOM     23  F   UNL     1     -48.890 -25.841   5.205 -0.00 -0.00    -0.204 F  
DOCKED: ATOM     24  C   UNL     1     -50.081 -27.852   7.994 -0.05 +0.00    +0.001 A  
DOCKED: ENDBRANCH   2  18
DOCKED: TORSDOF 5
DOCKED: TER
DOCKED: ENDMDL
________________________________________________________________________________


    FINAL DOCKED STATE:
    ________________________


Run:   233 / 512
Time taken for this run:   0.001s

DOCKED: MODEL        233
DOCKED: USER    Run = 233
DOCKED: USER
DOCKED: USER    Estimated Free Energy of Binding    =  -5.49 kcal/mol  [=(1)+(2)+(3)-(4)]
DOCKED: USER
DOCKED: USER    (1) Final Intermolecular Energy     =  -6.98 kcal/mol
DOCKED: USER        vdW + Hbond + desolv Energy     =  -6.98 kcal/mol
DOCKED: USER        Electrostatic Energy            =  +0.00 kcal/mol
DOCKED: USER        Moving Ligand-Fixed Receptor    =  -6.98 kcal/mol
DOCKED: USER        Moving Ligand-Moving Receptor   =  +0.00 kcal/mol
DOCKED: USER    (2) Final Total Internal Energy     =  -1.50 kcal/mol
DOCKED: USER    (3) Torsional Free Energy           =  +1.49 kcal/mol
DOCKED: USER    (4) Unbound System's Energy         =  -1.50 kcal/mol
DOCKED: USER
DOCKED: USER
DOCKED: REMARK  5 active torsions:
DOCKED: REMARK  status: ('A' for Active; 'I' for Inactive)
DOCKED: REMARK    1  A    between atoms: C_2  and  C_19 
DOCKED: REMARK    2  A    between atoms: C_2  and  C_11 
DOCKED: REMARK    3  A    between atoms: C_19  and  C_20 
DOCKED: REMARK    4  A    between atoms: C_20  and  C_21 
DOCKED: REMARK    5  A    between atoms: C_21  and  N_22 
DOCKED: USER                              x       y       z     vdW  Elec       q    Type
DOCKED: USER                           _______ _______ _______ _____ _____    ______ ____
DOCKED: ROOT
DOCKED: ATOM      1  O   UNL     1     -51.620 -32.727   8.309 -0.05 -0.00    -0.346 OA 
DOCKED: ATOM      2  C   UNL     1     -52.919 -33.399   8.357 -0.16 +0.00    +0.130 C  
DOCKED: ATOM      3  C   UNL     1     -53.310 -33.530   6.913 -0.26 +0.00    +0.004 A  
DOCKED: ATOM      4  C   UNL     1     -52.276 -33.074   6.107 -0.36 +0.00    +0.006 A  
DOCKED: ATOM      5  C   UNL     1     -51.142 -32.629   6.947 -0.24 +0.00    +0.169 C  
DOCKED: ATOM      6  C   UNL     1     -54.481 -34.023   6.358 -0.26 -0.00    -0.001 A  
DOCKED: ATOM      7  C   UNL     1     -52.378 -33.092   4.726 -0.27 +0.00    +0.008 A  
DOCKED: ATOM      8  C   UNL     1     -54.601 -34.043   4.967 -0.38 +0.00    +0.010 A  
DOCKED: ATOM      9  C   UNL     1     -53.555 -33.580   4.156 -0.40 +0.00    +0.068 A  
DOCKED: ATOM     10  N   UNL     1     -53.808 -33.636   1.578 -3.18 -0.00    -0.191 NA 
DOCKED: ATOM     11  C   UNL     1     -53.695 -33.610   2.734 -0.30 +0.00    +0.101 C  
DOCKED: ENDROOT
DOCKED: BRANCH   2  12
DOCKED: ATOM     12  C   UNL     1     -52.741 -34.745   9.048 -0.29 +0.00    +0.038 C  
DOCKED: BRANCH  12  13
DOCKED: ATOM     13  C   UNL     1     -51.543 -34.732   9.995 -0.23 +0.00    +0.038 C  
DOCKED: BRANCH  13  14
DOCKED: ATOM     14  C   UNL     1     -51.990 -34.862  11.450 -0.14 +0.00    +0.251 C  
DOCKED: BRANCH  14  15
DOCKED: ATOM     15  N   UNL     1     -51.650 -33.655  12.195 -0.08 +0.00    +0.141 N  
DOCKED: ATOM     16  C   UNL     1     -50.792 -32.780  11.395 -0.05 +0.00    +0.285 C  
DOCKED: ATOM     17  C   UNL     1     -52.861 -32.943  12.605 -0.01 +0.00    +0.285 C  
DOCKED: ENDBRANCH  14  15
DOCKED: ENDBRANCH  13  14
DOCKED: ENDBRANCH  12  13
DOCKED: ENDBRANCH   2  12
DOCKED: BRANCH   2  18
DOCKED: ATOM     18  C   UNL     1     -53.839 -32.514   9.130 -0.09 +0.00    +0.006 A  
DOCKED: ATOM     19  C   UNL     1     -54.883 -33.070   9.868 -0.09 +0.00    +0.001 A  
DOCKED: ATOM     20  C   UNL     1     -55.743 -32.242  10.590 -0.04 +0.00    +0.029 A  
DOCKED: ATOM     21  C   UNL     1     -55.557 -30.860  10.575 -0.01 +0.00    +0.140 A  
DOCKED: ATOM     22  C   UNL     1     -54.512 -30.305   9.837 -0.03 +0.00    +0.029 A  
DOCKED: ATOM     23  F   UNL     1     -56.381 -30.066  11.270 +0.01 -0.00    -0.204 F  
DOCKED: ATOM     24  C   UNL     1     -53.652 -31.133   9.114 -0.06 +0.00    +0.001 A  
DOCKED: ENDBRANCH   2  18
DOCKED: TORSDOF 5
DOCKED: TER
DOCKED: ENDMDL
________________________________________________________________________________


    FINAL DOCKED STATE:
    ________________________


Run:   234 / 512
Time taken for this run:   0.001s

DOCKED: MODEL        234
DOCKED: USER    Run = 234
DOCKED: USER
DOCKED: USER    Estimated Free Energy of Binding    =  -3.98 kcal/mol  [=(1)+(2)+(3)-(4)]
DOCKED: USER
DOCKED: USER    (1) Final Intermolecular Energy     =  -5.47 kcal/mol
DOCKED: USER        vdW + Hbond + desolv Energy     =  -5.47 kcal/mol
DOCKED: USER        Electrostatic Energy            =  +0.00 kcal/mol
DOCKED: USER        Moving Ligand-Fixed Receptor    =  -5.47 kcal/mol
DOCKED: USER        Moving Ligand-Moving Receptor   =  +0.00 kcal/mol
DOCKED: USER    (2) Final Total Internal Energy     =  -1.19 kcal/mol
DOCKED: USER    (3) Torsional Free Energy           =  +1.49 kcal/mol
DOCKED: USER    (4) Unbound System's Energy         =  -1.19 kcal/mol
DOCKED: USER
DOCKED: USER
DOCKED: REMARK  5 active torsions:
DOCKED: REMARK  status: ('A' for Active; 'I' for Inactive)
DOCKED: REMARK    1  A    between atoms: C_2  and  C_19 
DOCKED: REMARK    2  A    between atoms: C_2  and  C_11 
DOCKED: REMARK    3  A    between atoms: C_19  and  C_20 
DOCKED: REMARK    4  A    between atoms: C_20  and  C_21 
DOCKED: REMARK    5  A    between atoms: C_21  and  N_22 
DOCKED: USER                              x       y       z     vdW  Elec       q    Type
DOCKED: USER                           _______ _______ _______ _____ _____    ______ ____
DOCKED: ROOT
DOCKED: ATOM      1  O   UNL     1     -45.511 -28.832   1.523 +0.01 -0.00    -0.346 OA 
DOCKED: ATOM      2  C   UNL     1     -46.689 -29.516   0.987 -0.15 +0.00    +0.130 C  
DOCKED: ATOM      3  C   UNL     1     -46.604 -30.894   1.578 -0.24 +0.00    +0.004 A  
DOCKED: ATOM      4  C   UNL     1     -45.535 -30.958   2.461 -0.15 +0.00    +0.006 A  
DOCKED: ATOM      5  C   UNL     1     -44.857 -29.644   2.525 -0.04 +0.00    +0.169 C  
DOCKED: ATOM      6  C   UNL     1     -47.414 -31.998   1.360 -0.27 -0.00    -0.001 A  
DOCKED: ATOM      7  C   UNL     1     -45.239 -32.122   3.150 -0.19 +0.00    +0.008 A  
DOCKED: ATOM      8  C   UNL     1     -47.125 -33.181   2.044 -0.10 +0.00    +0.010 A  
DOCKED: ATOM      9  C   UNL     1     -46.043 -33.242   2.935 -0.25 +0.00    +0.068 A  
DOCKED: ATOM     10  N   UNL     1     -45.538 -35.450   4.191 -1.95 -0.00    -0.191 NA 
DOCKED: ATOM     11  C   UNL     1     -45.764 -34.460   3.627 -0.31 +0.00    +0.101 C  
DOCKED: ENDROOT
DOCKED: BRANCH   2  12
DOCKED: ATOM     12  C   UNL     1     -47.933 -28.756   1.430 -0.22 +0.00    +0.038 C  
DOCKED: BRANCH  12  13
DOCKED: ATOM     13  C   UNL     1     -47.566 -27.484   2.192 -0.10 +0.00    +0.038 C  
DOCKED: BRANCH  13  14
DOCKED: ATOM     14  C   UNL     1     -47.229 -26.346   1.230 -0.04 +0.00    +0.251 C  
DOCKED: BRANCH  14  15
DOCKED: ATOM     15  N   UNL     1     -48.316 -25.375   1.192 -0.10 +0.00    +0.141 N  
DOCKED: ATOM     16  C   UNL     1     -48.740 -25.129  -0.187 -0.15 +0.00    +0.285 C  
DOCKED: ATOM     17  C   UNL     1     -49.449 -25.837   1.996 -0.10 +0.00    +0.285 C  
DOCKED: ENDBRANCH  14  15
DOCKED: ENDBRANCH  13  14
DOCKED: ENDBRANCH  12  13
DOCKED: ENDBRANCH   2  12
DOCKED: BRANCH   2  18
DOCKED: ATOM     18  C   UNL     1     -46.556 -29.512  -0.500 -0.18 +0.00    +0.006 A  
DOCKED: ATOM     19  C   UNL     1     -47.351 -28.663  -1.268 -0.19 +0.00    +0.001 A  
DOCKED: ATOM     20  C   UNL     1     -47.227 -28.660  -2.657 -0.23 +0.00    +0.029 A  
DOCKED: ATOM     21  C   UNL     1     -46.307 -29.506  -3.277 -0.19 +0.00    +0.140 A  
DOCKED: ATOM     22  C   UNL     1     -45.512 -30.355  -2.508 -0.16 +0.00    +0.029 A  
DOCKED: ATOM     23  F   UNL     1     -46.187 -29.502  -4.611 -0.05 -0.00    -0.204 F  
DOCKED: ATOM     24  C   UNL     1     -45.636 -30.359  -1.117 -0.14 +0.00    +0.001 A  
DOCKED: ENDBRANCH   2  18
DOCKED: TORSDOF 5
DOCKED: TER
DOCKED: ENDMDL
________________________________________________________________________________


    FINAL DOCKED STATE:
    ________________________


Run:   235 / 512
Time taken for this run:   0.001s

DOCKED: MODEL        235
DOCKED: USER    Run = 235
DOCKED: USER
DOCKED: USER    Estimated Free Energy of Binding    =  -4.70 kcal/mol  [=(1)+(2)+(3)-(4)]
DOCKED: USER
DOCKED: USER    (1) Final Intermolecular Energy     =  -6.19 kcal/mol
DOCKED: USER        vdW + Hbond + desolv Energy     =  -6.19 kcal/mol
DOCKED: USER        Electrostatic Energy            =  +0.00 kcal/mol
DOCKED: USER        Moving Ligand-Fixed Receptor    =  -6.19 kcal/mol
DOCKED: USER        Moving Ligand-Moving Receptor   =  +0.00 kcal/mol
DOCKED: USER    (2) Final Total Internal Energy     =  -1.42 kcal/mol
DOCKED: USER    (3) Torsional Free Energy           =  +1.49 kcal/mol
DOCKED: USER    (4) Unbound System's Energy         =  -1.42 kcal/mol
DOCKED: USER
DOCKED: USER
DOCKED: REMARK  5 active torsions:
DOCKED: REMARK  status: ('A' for Active; 'I' for Inactive)
DOCKED: REMARK    1  A    between atoms: C_2  and  C_19 
DOCKED: REMARK    2  A    between atoms: C_2  and  C_11 
DOCKED: REMARK    3  A    between atoms: C_19  and  C_20 
DOCKED: REMARK    4  A    between atoms: C_20  and  C_21 
DOCKED: REMARK    5  A    between atoms: C_21  and  N_22 
DOCKED: USER                              x       y       z     vdW  Elec       q    Type
DOCKED: USER                           _______ _______ _______ _____ _____    ______ ____
DOCKED: ROOT
DOCKED: ATOM      1  O   UNL     1     -49.752 -25.256   1.095 -0.09 -0.00    -0.346 OA 
DOCKED: ATOM      2  C   UNL     1     -48.435 -25.015   0.504 -0.17 +0.00    +0.130 C  
DOCKED: ATOM      3  C   UNL     1     -48.745 -24.346  -0.804 -0.24 +0.00    +0.004 A  
DOCKED: ATOM      4  C   UNL     1     -50.111 -24.123  -0.902 -0.22 +0.00    +0.006 A  
DOCKED: ATOM      5  C   UNL     1     -50.789 -24.610   0.320 -0.18 +0.00    +0.169 C  
DOCKED: ATOM      6  C   UNL     1     -47.886 -23.955  -1.820 -0.21 -0.00    -0.001 A  
DOCKED: ATOM      7  C   UNL     1     -50.664 -23.510  -2.014 -0.34 +0.00    +0.008 A  
DOCKED: ATOM      8  C   UNL     1     -48.428 -23.340  -2.950 -0.27 +0.00    +0.010 A  
DOCKED: ATOM      9  C   UNL     1     -49.810 -23.118  -3.046 -0.32 +0.00    +0.068 A  
DOCKED: ATOM     10  N   UNL     1     -50.782 -21.968  -5.154 -2.52 -0.00    -0.191 NA 
DOCKED: ATOM     11  C   UNL     1     -50.346 -22.485  -4.209 -0.35 +0.00    +0.101 C  
DOCKED: ENDROOT
DOCKED: BRANCH   2  12
DOCKED: ATOM     12  C   UNL     1     -47.636 -24.127   1.450 -0.15 +0.00    +0.038 C  
DOCKED: BRANCH  12  13
DOCKED: ATOM     13  C   UNL     1     -48.214 -24.157   2.864 -0.16 +0.00    +0.038 C  
DOCKED: BRANCH  13  14
DOCKED: ATOM     14  C   UNL     1     -47.860 -25.462   3.574 -0.05 +0.00    +0.251 C  
DOCKED: BRANCH  14  15
DOCKED: ATOM     15  N   UNL     1     -48.857 -25.772   4.592 -0.05 +0.00    +0.141 N  
DOCKED: ATOM     16  C   UNL     1     -50.088 -25.015   4.357 -0.06 +0.00    +0.285 C  
DOCKED: ATOM     17  C   UNL     1     -49.142 -27.208   4.615 -0.07 +0.00    +0.285 C  
DOCKED: ENDBRANCH  14  15
DOCKED: ENDBRANCH  13  14
DOCKED: ENDBRANCH  12  13
DOCKED: ENDBRANCH   2  12
DOCKED: BRANCH   2  18
DOCKED: ATOM     18  C   UNL     1     -47.783 -26.346   0.335 -0.11 +0.00    +0.006 A  
DOCKED: ATOM     19  C   UNL     1     -46.467 -26.425  -0.119 -0.05 +0.00    +0.001 A  
DOCKED: ATOM     20  C   UNL     1     -45.858 -27.671  -0.276 -0.04 +0.00    +0.029 A  
DOCKED: ATOM     21  C   UNL     1     -46.565 -28.835   0.021 -0.11 +0.00    +0.140 A  
DOCKED: ATOM     22  C   UNL     1     -47.881 -28.755   0.476 -0.21 +0.00    +0.029 A  
DOCKED: ATOM     23  F   UNL     1     -45.980 -30.030  -0.128 -0.04 -0.00    -0.204 F  
DOCKED: ATOM     24  C   UNL     1     -48.491 -27.510   0.633 -0.18 +0.00    +0.001 A  
DOCKED: ENDBRANCH   2  18
DOCKED: TORSDOF 5
DOCKED: TER
DOCKED: ENDMDL
________________________________________________________________________________


    FINAL DOCKED STATE:
    ________________________


Run:   236 / 512
Time taken for this run:   0.001s

DOCKED: MODEL        236
DOCKED: USER    Run = 236
DOCKED: USER
DOCKED: USER    Estimated Free Energy of Binding    =  -4.89 kcal/mol  [=(1)+(2)+(3)-(4)]
DOCKED: USER
DOCKED: USER    (1) Final Intermolecular Energy     =  -6.38 kcal/mol
DOCKED: USER        vdW + Hbond + desolv Energy     =  -6.38 kcal/mol
DOCKED: USER        Electrostatic Energy            =  +0.00 kcal/mol
DOCKED: USER        Moving Ligand-Fixed Receptor    =  -6.38 kcal/mol
DOCKED: USER        Moving Ligand-Moving Receptor   =  +0.00 kcal/mol
DOCKED: USER    (2) Final Total Internal Energy     =  -1.32 kcal/mol
DOCKED: USER    (3) Torsional Free Energy           =  +1.49 kcal/mol
DOCKED: USER    (4) Unbound System's Energy         =  -1.32 kcal/mol
DOCKED: USER
DOCKED: USER
DOCKED: REMARK  5 active torsions:
DOCKED: REMARK  status: ('A' for Active; 'I' for Inactive)
DOCKED: REMARK    1  A    between atoms: C_2  and  C_19 
DOCKED: REMARK    2  A    between atoms: C_2  and  C_11 
DOCKED: REMARK    3  A    between atoms: C_19  and  C_20 
DOCKED: REMARK    4  A    between atoms: C_20  and  C_21 
DOCKED: REMARK    5  A    between atoms: C_21  and  N_22 
DOCKED: USER                              x       y       z     vdW  Elec       q    Type
DOCKED: USER                           _______ _______ _______ _____ _____    ______ ____
DOCKED: ROOT
DOCKED: ATOM      1  O   UNL     1     -52.977 -34.017   9.024 -0.08 -0.00    -0.346 OA 
DOCKED: ATOM      2  C   UNL     1     -52.459 -32.744   8.520 -0.13 +0.00    +0.130 C  
DOCKED: ATOM      3  C   UNL     1     -52.648 -32.843   7.034 -0.26 +0.00    +0.004 A  
DOCKED: ATOM      4  C   UNL     1     -53.316 -34.019   6.725 -0.29 +0.00    +0.006 A  
DOCKED: ATOM      5  C   UNL     1     -53.623 -34.764   7.967 -0.15 +0.00    +0.169 C  
DOCKED: ATOM      6  C   UNL     1     -52.270 -31.956   6.036 -0.33 -0.00    -0.001 A  
DOCKED: ATOM      7  C   UNL     1     -53.624 -34.351   5.416 -0.40 +0.00    +0.008 A  
DOCKED: ATOM      8  C   UNL     1     -52.568 -32.279   4.711 -0.15 +0.00    +0.010 A  
DOCKED: ATOM      9  C   UNL     1     -53.243 -33.470   4.403 -0.40 +0.00    +0.068 A  
DOCKED: ATOM     10  N   UNL     1     -53.786 -34.036   1.934 -2.59 -0.00    -0.191 NA 
DOCKED: ATOM     11  C   UNL     1     -53.542 -33.783   3.041 -0.43 +0.00    +0.101 C  
DOCKED: ENDROOT
DOCKED: BRANCH   2  12
DOCKED: ATOM     12  C   UNL     1     -53.265 -31.613   9.147 -0.08 +0.00    +0.038 C  
DOCKED: BRANCH  12  13
DOCKED: ATOM     13  C   UNL     1     -52.897 -30.262   8.535 -0.09 +0.00    +0.038 C  
DOCKED: BRANCH  13  14
DOCKED: ATOM     14  C   UNL     1     -52.047 -29.436   9.498 -0.01 +0.00    +0.251 C  
DOCKED: BRANCH  14  15
DOCKED: ATOM     15  N   UNL     1     -50.676 -29.339   9.009 -0.03 +0.00    +0.141 N  
DOCKED: ATOM     16  C   UNL     1     -50.639 -29.460   7.551 -0.10 +0.00    +0.285 C  
DOCKED: ATOM     17  C   UNL     1     -50.067 -28.077   9.430 -0.01 +0.00    +0.285 C  
DOCKED: ENDBRANCH  14  15
DOCKED: ENDBRANCH  13  14
DOCKED: ENDBRANCH  12  13
DOCKED: ENDBRANCH   2  12
DOCKED: BRANCH   2  18
DOCKED: ATOM     18  C   UNL     1     -51.023 -32.669   8.919 -0.17 +0.00    +0.006 A  
DOCKED: ATOM     19  C   UNL     1     -50.682 -32.423  10.249 -0.11 +0.00    +0.001 A  
DOCKED: ATOM     20  C   UNL     1     -49.339 -32.353  10.621 -0.09 +0.00    +0.029 A  
DOCKED: ATOM     21  C   UNL     1     -48.340 -32.528   9.664 -0.09 +0.00    +0.140 A  
DOCKED: ATOM     22  C   UNL     1     -48.682 -32.773   8.335 -0.11 +0.00    +0.029 A  
DOCKED: ATOM     23  F   UNL     1     -47.051 -32.462  10.022 -0.02 -0.00    -0.204 F  
DOCKED: ATOM     24  C   UNL     1     -50.025 -32.844   7.961 -0.25 +0.00    +0.001 A  
DOCKED: ENDBRANCH   2  18
DOCKED: TORSDOF 5
DOCKED: TER
DOCKED: ENDMDL
________________________________________________________________________________


    FINAL DOCKED STATE:
    ________________________


Run:   237 / 512
Time taken for this run:   0.001s

DOCKED: MODEL        237
DOCKED: USER    Run = 237
DOCKED: USER
DOCKED: USER    Estimated Free Energy of Binding    =  -3.75 kcal/mol  [=(1)+(2)+(3)-(4)]
DOCKED: USER
DOCKED: USER    (1) Final Intermolecular Energy     =  -5.24 kcal/mol
DOCKED: USER        vdW + Hbond + desolv Energy     =  -5.24 kcal/mol
DOCKED: USER        Electrostatic Energy            =  +0.00 kcal/mol
DOCKED: USER        Moving Ligand-Fixed Receptor    =  -5.24 kcal/mol
DOCKED: USER        Moving Ligand-Moving Receptor   =  +0.00 kcal/mol
DOCKED: USER    (2) Final Total Internal Energy     =  -1.44 kcal/mol
DOCKED: USER    (3) Torsional Free Energy           =  +1.49 kcal/mol
DOCKED: USER    (4) Unbound System's Energy         =  -1.44 kcal/mol
DOCKED: USER
DOCKED: USER
DOCKED: REMARK  5 active torsions:
DOCKED: REMARK  status: ('A' for Active; 'I' for Inactive)
DOCKED: REMARK    1  A    between atoms: C_2  and  C_19 
DOCKED: REMARK    2  A    between atoms: C_2  and  C_11 
DOCKED: REMARK    3  A    between atoms: C_19  and  C_20 
DOCKED: REMARK    4  A    between atoms: C_20  and  C_21 
DOCKED: REMARK    5  A    between atoms: C_21  and  N_22 
DOCKED: USER                              x       y       z     vdW  Elec       q    Type
DOCKED: USER                           _______ _______ _______ _____ _____    ______ ____
DOCKED: ROOT
DOCKED: ATOM      1  O   UNL     1     -50.944 -29.719   9.161 -0.01 -0.00    -0.346 OA 
DOCKED: ATOM      2  C   UNL     1     -50.856 -29.427   7.730 -0.12 +0.00    +0.130 C  
DOCKED: ATOM      3  C   UNL     1     -51.502 -30.617   7.080 -0.23 +0.00    +0.004 A  
DOCKED: ATOM      4  C   UNL     1     -52.013 -31.462   8.056 -0.15 +0.00    +0.006 A  
DOCKED: ATOM      5  C   UNL     1     -51.756 -30.892   9.398 -0.04 +0.00    +0.169 C  
DOCKED: ATOM      6  C   UNL     1     -51.636 -30.922   5.734 +0.00 -0.00    -0.001 A  
DOCKED: ATOM      7  C   UNL     1     -52.668 -32.635   7.722 -0.18 +0.00    +0.008 A  
DOCKED: ATOM      8  C   UNL     1     -52.290 -32.104   5.381 -0.32 +0.00    +0.010 A  
DOCKED: ATOM      9  C   UNL     1     -52.804 -32.956   6.371 -0.27 +0.00    +0.068 A  
DOCKED: ATOM     10  N   UNL     1     -54.017 -35.139   5.682 -2.38 -0.00    -0.191 NA 
DOCKED: ATOM     11  C   UNL     1     -53.472 -34.160   5.991 -0.33 +0.00    +0.101 C  
DOCKED: ENDROOT
DOCKED: BRANCH   2  12
DOCKED: ATOM     12  C   UNL     1     -51.600 -28.126   7.456 -0.12 +0.00    +0.038 C  
DOCKED: BRANCH  12  13
DOCKED: ATOM     13  C   UNL     1     -52.921 -28.067   8.221 -0.08 +0.00    +0.038 C  
DOCKED: BRANCH  13  14
DOCKED: ATOM     14  C   UNL     1     -54.106 -27.955   7.264 -0.14 +0.00    +0.251 C  
DOCKED: BRANCH  14  15
DOCKED: ATOM     15  N   UNL     1     -55.183 -28.842   7.686 -0.12 +0.00    +0.141 N  
DOCKED: ATOM     16  C   UNL     1     -55.216 -30.046   6.854 -0.13 +0.00    +0.285 C  
DOCKED: ATOM     17  C   UNL     1     -55.032 -29.204   9.096 -0.01 +0.00    +0.285 C  
DOCKED: ENDBRANCH  14  15
DOCKED: ENDBRANCH  13  14
DOCKED: ENDBRANCH  12  13
DOCKED: ENDBRANCH   2  12
DOCKED: BRANCH   2  18
DOCKED: ATOM     18  C   UNL     1     -49.407 -29.299   7.399 -0.13 +0.00    +0.006 A  
DOCKED: ATOM     19  C   UNL     1     -48.471 -30.107   8.044 -0.11 +0.00    +0.001 A  
DOCKED: ATOM     20  C   UNL     1     -47.116 -29.986   7.733 -0.09 +0.00    +0.029 A  
DOCKED: ATOM     21  C   UNL     1     -46.699 -29.059   6.779 -0.07 +0.00    +0.140 A  
DOCKED: ATOM     22  C   UNL     1     -47.636 -28.252   6.134 -0.09 +0.00    +0.029 A  
DOCKED: ATOM     23  F   UNL     1     -45.398 -28.944   6.480 -0.01 -0.00    -0.204 F  
DOCKED: ATOM     24  C   UNL     1     -48.992 -28.371   6.444 -0.13 +0.00    +0.001 A  
DOCKED: ENDBRANCH   2  18
DOCKED: TORSDOF 5
DOCKED: TER
DOCKED: ENDMDL
________________________________________________________________________________


    FINAL DOCKED STATE:
    ________________________


Run:   238 / 512
Time taken for this run:   0.001s

DOCKED: MODEL        238
DOCKED: USER    Run = 238
DOCKED: USER
DOCKED: USER    Estimated Free Energy of Binding    =  -4.16 kcal/mol  [=(1)+(2)+(3)-(4)]
DOCKED: USER
DOCKED: USER    (1) Final Intermolecular Energy     =  -5.65 kcal/mol
DOCKED: USER        vdW + Hbond + desolv Energy     =  -5.65 kcal/mol
DOCKED: USER        Electrostatic Energy            =  +0.00 kcal/mol
DOCKED: USER        Moving Ligand-Fixed Receptor    =  -5.65 kcal/mol
DOCKED: USER        Moving Ligand-Moving Receptor   =  +0.00 kcal/mol
DOCKED: USER    (2) Final Total Internal Energy     =  -0.96 kcal/mol
DOCKED: USER    (3) Torsional Free Energy           =  +1.49 kcal/mol
DOCKED: USER    (4) Unbound System's Energy         =  -0.96 kcal/mol
DOCKED: USER
DOCKED: USER
DOCKED: REMARK  5 active torsions:
DOCKED: REMARK  status: ('A' for Active; 'I' for Inactive)
DOCKED: REMARK    1  A    between atoms: C_2  and  C_19 
DOCKED: REMARK    2  A    between atoms: C_2  and  C_11 
DOCKED: REMARK    3  A    between atoms: C_19  and  C_20 
DOCKED: REMARK    4  A    between atoms: C_20  and  C_21 
DOCKED: REMARK    5  A    between atoms: C_21  and  N_22 
DOCKED: USER                              x       y       z     vdW  Elec       q    Type
DOCKED: USER                           _______ _______ _______ _____ _____    ______ ____
DOCKED: ROOT
DOCKED: ATOM      1  O   UNL     1     -43.981 -29.922   1.155 +0.01 -0.00    -0.346 OA 
DOCKED: ATOM      2  C   UNL     1     -45.442 -29.987   1.087 -0.08 +0.00    +0.130 C  
DOCKED: ATOM      3  C   UNL     1     -45.767 -31.346   1.637 -0.18 +0.00    +0.004 A  
DOCKED: ATOM      4  C   UNL     1     -44.605 -31.959   2.083 -0.10 +0.00    +0.006 A  
DOCKED: ATOM      5  C   UNL     1     -43.449 -31.059   1.874 -0.02 +0.00    +0.169 C  
DOCKED: ATOM      6  C   UNL     1     -46.995 -31.983   1.744 -0.32 -0.00    -0.001 A  
DOCKED: ATOM      7  C   UNL     1     -44.628 -33.225   2.644 -0.17 +0.00    +0.008 A  
DOCKED: ATOM      8  C   UNL     1     -47.034 -33.261   2.304 -0.16 +0.00    +0.010 A  
DOCKED: ATOM      9  C   UNL     1     -45.857 -33.878   2.752 -0.31 +0.00    +0.068 A  
DOCKED: ATOM     10  N   UNL     1     -45.966 -36.249   3.791 -2.24 -0.00    -0.191 NA 
DOCKED: ATOM     11  C   UNL     1     -45.917 -35.186   3.324 -0.41 +0.00    +0.101 C  
DOCKED: ENDROOT
DOCKED: BRANCH   2  12
DOCKED: ATOM     12  C   UNL     1     -46.015 -28.853   1.929 -0.07 +0.00    +0.038 C  
DOCKED: BRANCH  12  13
DOCKED: ATOM     13  C   UNL     1     -46.608 -29.375   3.236 -0.14 +0.00    +0.038 C  
DOCKED: BRANCH  13  14
DOCKED: ATOM     14  C   UNL     1     -47.026 -28.223   4.148 -0.07 +0.00    +0.251 C  
DOCKED: BRANCH  14  15
DOCKED: ATOM     15  N   UNL     1     -48.475 -28.062   4.130 -0.12 +0.00    +0.141 N  
DOCKED: ATOM     16  C   UNL     1     -48.918 -27.250   5.264 -0.07 +0.00    +0.285 C  
DOCKED: ATOM     17  C   UNL     1     -48.910 -27.455   2.871 -0.07 +0.00    +0.285 C  
DOCKED: ENDBRANCH  14  15
DOCKED: ENDBRANCH  13  14
DOCKED: ENDBRANCH  12  13
DOCKED: ENDBRANCH   2  12
DOCKED: BRANCH   2  18
DOCKED: ATOM     18  C   UNL     1     -45.819 -29.835  -0.349 -0.13 +0.00    +0.006 A  
DOCKED: ATOM     19  C   UNL     1     -45.223 -30.645  -1.315 -0.13 +0.00    +0.001 A  
DOCKED: ATOM     20  C   UNL     1     -45.576 -30.502  -2.657 -0.16 +0.00    +0.029 A  
DOCKED: ATOM     21  C   UNL     1     -46.524 -29.550  -3.031 -0.20 +0.00    +0.140 A  
DOCKED: ATOM     22  C   UNL     1     -47.120 -28.741  -2.064 -0.21 +0.00    +0.029 A  
DOCKED: ATOM     23  F   UNL     1     -46.865 -29.414  -4.320 -0.11 -0.00    -0.204 F  
DOCKED: ATOM     24  C   UNL     1     -46.767 -28.883  -0.721 -0.17 +0.00    +0.001 A  
DOCKED: ENDBRANCH   2  18
DOCKED: TORSDOF 5
DOCKED: TER
DOCKED: ENDMDL
________________________________________________________________________________


    FINAL DOCKED STATE:
    ________________________


Run:   239 / 512
Time taken for this run:   0.001s

DOCKED: MODEL        239
DOCKED: USER    Run = 239
DOCKED: USER
DOCKED: USER    Estimated Free Energy of Binding    =  -3.69 kcal/mol  [=(1)+(2)+(3)-(4)]
DOCKED: USER
DOCKED: USER    (1) Final Intermolecular Energy     =  -5.18 kcal/mol
DOCKED: USER        vdW + Hbond + desolv Energy     =  -5.18 kcal/mol
DOCKED: USER        Electrostatic Energy            =  +0.00 kcal/mol
DOCKED: USER        Moving Ligand-Fixed Receptor    =  -5.18 kcal/mol
DOCKED: USER        Moving Ligand-Moving Receptor   =  +0.00 kcal/mol
DOCKED: USER    (2) Final Total Internal Energy     =  -1.41 kcal/mol
DOCKED: USER    (3) Torsional Free Energy           =  +1.49 kcal/mol
DOCKED: USER    (4) Unbound System's Energy         =  -1.41 kcal/mol
DOCKED: USER
DOCKED: USER
DOCKED: REMARK  5 active torsions:
DOCKED: REMARK  status: ('A' for Active; 'I' for Inactive)
DOCKED: REMARK    1  A    between atoms: C_2  and  C_19 
DOCKED: REMARK    2  A    between atoms: C_2  and  C_11 
DOCKED: REMARK    3  A    between atoms: C_19  and  C_20 
DOCKED: REMARK    4  A    between atoms: C_20  and  C_21 
DOCKED: REMARK    5  A    between atoms: C_21  and  N_22 
DOCKED: USER                              x       y       z     vdW  Elec       q    Type
DOCKED: USER                           _______ _______ _______ _____ _____    ______ ____
DOCKED: ROOT
DOCKED: ATOM      1  O   UNL     1     -46.237 -29.188   1.493 -0.00 -0.00    -0.346 OA 
DOCKED: ATOM      2  C   UNL     1     -45.817 -30.062   0.397 -0.12 +0.00    +0.130 C  
DOCKED: ATOM      3  C   UNL     1     -45.835 -31.434   1.004 -0.18 +0.00    +0.004 A  
DOCKED: ATOM      4  C   UNL     1     -46.329 -31.366   2.299 -0.24 +0.00    +0.006 A  
DOCKED: ATOM      5  C   UNL     1     -46.678 -29.966   2.630 -0.14 +0.00    +0.169 C  
DOCKED: ATOM      6  C   UNL     1     -45.457 -32.649   0.451 -0.11 -0.00    -0.001 A  
DOCKED: ATOM      7  C   UNL     1     -46.456 -32.500   3.083 -0.09 +0.00    +0.008 A  
DOCKED: ATOM      8  C   UNL     1     -45.575 -33.801   1.230 -0.26 +0.00    +0.010 A  
DOCKED: ATOM      9  C   UNL     1     -46.073 -33.726   2.539 -0.31 +0.00    +0.068 A  
DOCKED: ATOM     10  N   UNL     1     -46.285 -35.885   3.957 -2.59 -0.00    -0.191 NA 
DOCKED: ATOM     11  C   UNL     1     -46.189 -34.917   3.321 -0.31 +0.00    +0.101 C  
DOCKED: ENDROOT
DOCKED: BRANCH   2  12
DOCKED: ATOM     12  C   UNL     1     -46.808 -29.907  -0.751 -0.15 +0.00    +0.038 C  
DOCKED: BRANCH  12  13
DOCKED: ATOM     13  C   UNL     1     -46.712 -28.521  -1.386 -0.18 +0.00    +0.038 C  
DOCKED: BRANCH  13  14
DOCKED: ATOM     14  C   UNL     1     -47.917 -27.661  -1.012 -0.12 +0.00    +0.251 C  
DOCKED: BRANCH  14  15
DOCKED: ATOM     15  N   UNL     1     -47.784 -27.167   0.353 -0.09 +0.00    +0.141 N  
DOCKED: ATOM     16  C   UNL     1     -47.470 -25.738   0.357 -0.06 +0.00    +0.285 C  
DOCKED: ATOM     17  C   UNL     1     -49.009 -27.420   1.114 -0.13 +0.00    +0.285 C  
DOCKED: ENDBRANCH  14  15
DOCKED: ENDBRANCH  13  14
DOCKED: ENDBRANCH  12  13
DOCKED: ENDBRANCH   2  12
DOCKED: BRANCH   2  18
DOCKED: ATOM     18  C   UNL     1     -44.449 -29.624  -0.010 -0.04 +0.00    +0.006 A  
DOCKED: ATOM     19  C   UNL     1     -43.762 -28.683   0.756 -0.01 +0.00    +0.001 A  
DOCKED: ATOM     20  C   UNL     1     -42.484 -28.275   0.375 -0.00 +0.00    +0.029 A  
DOCKED: ATOM     21  C   UNL     1     -41.894 -28.807  -0.771 -0.00 +0.00    +0.140 A  
DOCKED: ATOM     22  C   UNL     1     -42.582 -29.749  -1.536 -0.00 +0.00    +0.029 A  
DOCKED: ATOM     23  F   UNL     1     -40.666 -28.417  -1.136 +0.00 -0.00    -0.204 F  
DOCKED: ATOM     24  C   UNL     1     -43.861 -30.158  -1.156 -0.04 +0.00    +0.001 A  
DOCKED: ENDBRANCH   2  18
DOCKED: TORSDOF 5
DOCKED: TER
DOCKED: ENDMDL
________________________________________________________________________________


    FINAL DOCKED STATE:
    ________________________


Run:   240 / 512
Time taken for this run:   0.001s

DOCKED: MODEL        240
DOCKED: USER    Run = 240
DOCKED: USER
DOCKED: USER    Estimated Free Energy of Binding    =  -3.50 kcal/mol  [=(1)+(2)+(3)-(4)]
DOCKED: USER
DOCKED: USER    (1) Final Intermolecular Energy     =  -4.99 kcal/mol
DOCKED: USER        vdW + Hbond + desolv Energy     =  -4.99 kcal/mol
DOCKED: USER        Electrostatic Energy            =  +0.00 kcal/mol
DOCKED: USER        Moving Ligand-Fixed Receptor    =  -4.99 kcal/mol
DOCKED: USER        Moving Ligand-Moving Receptor   =  +0.00 kcal/mol
DOCKED: USER    (2) Final Total Internal Energy     =  -1.58 kcal/mol
DOCKED: USER    (3) Torsional Free Energy           =  +1.49 kcal/mol
DOCKED: USER    (4) Unbound System's Energy         =  -1.58 kcal/mol
DOCKED: USER
DOCKED: USER
DOCKED: REMARK  5 active torsions:
DOCKED: REMARK  status: ('A' for Active; 'I' for Inactive)
DOCKED: REMARK    1  A    between atoms: C_2  and  C_19 
DOCKED: REMARK    2  A    between atoms: C_2  and  C_11 
DOCKED: REMARK    3  A    between atoms: C_19  and  C_20 
DOCKED: REMARK    4  A    between atoms: C_20  and  C_21 
DOCKED: REMARK    5  A    between atoms: C_21  and  N_22 
DOCKED: USER                              x       y       z     vdW  Elec       q    Type
DOCKED: USER                           _______ _______ _______ _____ _____    ______ ____
DOCKED: ROOT
DOCKED: ATOM      1  O   UNL     1     -44.502 -29.521   1.880 +0.00 -0.00    -0.346 OA 
DOCKED: ATOM      2  C   UNL     1     -45.820 -29.875   1.350 -0.09 +0.00    +0.130 C  
DOCKED: ATOM      3  C   UNL     1     -46.024 -31.289   1.810 -0.21 +0.00    +0.004 A  
DOCKED: ATOM      4  C   UNL     1     -44.967 -31.673   2.623 -0.13 +0.00    +0.006 A  
DOCKED: ATOM      5  C   UNL     1     -44.011 -30.552   2.767 -0.03 +0.00    +0.169 C  
DOCKED: ATOM      6  C   UNL     1     -47.067 -32.163   1.539 -0.32 -0.00    -0.001 A  
DOCKED: ATOM      7  C   UNL     1     -44.913 -32.936   3.187 -0.20 +0.00    +0.008 A  
DOCKED: ATOM      8  C   UNL     1     -47.025 -33.442   2.097 -0.07 +0.00    +0.010 A  
DOCKED: ATOM      9  C   UNL     1     -45.954 -33.826   2.917 -0.30 +0.00    +0.068 A  
DOCKED: ATOM     10  N   UNL     1     -45.911 -36.206   3.941 -2.24 -0.00    -0.191 NA 
DOCKED: ATOM     11  C   UNL     1     -45.930 -35.139   3.481 -0.40 +0.00    +0.101 C  
DOCKED: ENDROOT
DOCKED: BRANCH   2  12
DOCKED: ATOM     12  C   UNL     1     -46.847 -28.909   1.928 -0.13 +0.00    +0.038 C  
DOCKED: BRANCH  12  13
DOCKED: ATOM     13  C   UNL     1     -46.176 -27.682   2.543 -0.04 +0.00    +0.038 C  
DOCKED: BRANCH  13  14
DOCKED: ATOM     14  C   UNL     1     -45.897 -26.619   1.482 -0.01 +0.00    +0.251 C  
DOCKED: BRANCH  14  15
DOCKED: ATOM     15  N   UNL     1     -44.482 -26.267   1.475 -0.01 +0.00    +0.141 N  
DOCKED: ATOM     16  C   UNL     1     -43.854 -26.631   2.746 -0.00 +0.00    +0.285 C  
DOCKED: ATOM     17  C   UNL     1     -43.793 -26.922   0.362 -0.00 +0.00    +0.285 C  
DOCKED: ENDBRANCH  14  15
DOCKED: ENDBRANCH  13  14
DOCKED: ENDBRANCH  12  13
DOCKED: ENDBRANCH   2  12
DOCKED: BRANCH   2  18
DOCKED: ATOM     18  C   UNL     1     -45.740 -29.751  -0.135 -0.12 +0.00    +0.006 A  
DOCKED: ATOM     19  C   UNL     1     -44.632 -30.250  -0.817 -0.08 +0.00    +0.001 A  
DOCKED: ATOM     20  C   UNL     1     -44.559 -30.134  -2.206 -0.08 +0.00    +0.029 A  
DOCKED: ATOM     21  C   UNL     1     -45.594 -29.520  -2.910 -0.12 +0.00    +0.140 A  
DOCKED: ATOM     22  C   UNL     1     -46.703 -29.021  -2.226 -0.21 +0.00    +0.029 A  
DOCKED: ATOM     23  F   UNL     1     -45.524 -29.410  -4.243 -0.02 -0.00    -0.204 F  
DOCKED: ATOM     24  C   UNL     1     -46.776 -29.137  -0.837 -0.19 +0.00    +0.001 A  
DOCKED: ENDBRANCH   2  18
DOCKED: TORSDOF 5
DOCKED: TER
DOCKED: ENDMDL
________________________________________________________________________________


    FINAL DOCKED STATE:
    ________________________


Run:   241 / 512
Time taken for this run:   0.001s

DOCKED: MODEL        241
DOCKED: USER    Run = 241
DOCKED: USER
DOCKED: USER    Estimated Free Energy of Binding    =  -3.67 kcal/mol  [=(1)+(2)+(3)-(4)]
DOCKED: USER
DOCKED: USER    (1) Final Intermolecular Energy     =  -5.16 kcal/mol
DOCKED: USER        vdW + Hbond + desolv Energy     =  -5.16 kcal/mol
DOCKED: USER        Electrostatic Energy            =  +0.00 kcal/mol
DOCKED: USER        Moving Ligand-Fixed Receptor    =  -5.16 kcal/mol
DOCKED: USER        Moving Ligand-Moving Receptor   =  +0.00 kcal/mol
DOCKED: USER    (2) Final Total Internal Energy     =  -1.34 kcal/mol
DOCKED: USER    (3) Torsional Free Energy           =  +1.49 kcal/mol
DOCKED: USER    (4) Unbound System's Energy         =  -1.34 kcal/mol
DOCKED: USER
DOCKED: USER
DOCKED: REMARK  5 active torsions:
DOCKED: REMARK  status: ('A' for Active; 'I' for Inactive)
DOCKED: REMARK    1  A    between atoms: C_2  and  C_19 
DOCKED: REMARK    2  A    between atoms: C_2  and  C_11 
DOCKED: REMARK    3  A    between atoms: C_19  and  C_20 
DOCKED: REMARK    4  A    between atoms: C_20  and  C_21 
DOCKED: REMARK    5  A    between atoms: C_21  and  N_22 
DOCKED: USER                              x       y       z     vdW  Elec       q    Type
DOCKED: USER                           _______ _______ _______ _____ _____    ______ ____
DOCKED: ROOT
DOCKED: ATOM      1  O   UNL     1     -51.182 -30.208   9.344 -0.01 -0.00    -0.346 OA 
DOCKED: ATOM      2  C   UNL     1     -51.206 -29.734   7.960 -0.11 +0.00    +0.130 C  
DOCKED: ATOM      3  C   UNL     1     -51.738 -30.907   7.188 -0.23 +0.00    +0.004 A  
DOCKED: ATOM      4  C   UNL     1     -52.092 -31.922   8.065 -0.15 +0.00    +0.006 A  
DOCKED: ATOM      5  C   UNL     1     -51.834 -31.494   9.458 -0.05 +0.00    +0.169 C  
DOCKED: ATOM      6  C   UNL     1     -51.907 -31.058   5.819 -0.16 -0.00    -0.001 A  
DOCKED: ATOM      7  C   UNL     1     -52.619 -33.118   7.608 -0.21 +0.00    +0.008 A  
DOCKED: ATOM      8  C   UNL     1     -52.433 -32.260   5.343 -0.33 +0.00    +0.010 A  
DOCKED: ATOM      9  C   UNL     1     -52.788 -33.284   6.233 -0.29 +0.00    +0.068 A  
DOCKED: ATOM     10  N   UNL     1     -53.767 -35.501   5.316 -2.53 -0.00    -0.191 NA 
DOCKED: ATOM     11  C   UNL     1     -53.327 -34.507   5.727 -0.32 +0.00    +0.101 C  
DOCKED: ENDROOT
DOCKED: BRANCH   2  12
DOCKED: ATOM     12  C   UNL     1     -52.113 -28.512   7.884 -0.10 +0.00    +0.038 C  
DOCKED: BRANCH  12  13
DOCKED: ATOM     13  C   UNL     1     -51.457 -27.291   8.525 -0.04 +0.00    +0.038 C  
DOCKED: BRANCH  13  14
DOCKED: ATOM     14  C   UNL     1     -51.355 -27.453  10.040 -0.00 +0.00    +0.251 C  
DOCKED: BRANCH  14  15
DOCKED: ATOM     15  N   UNL     1     -52.629 -27.900  10.589 -0.00 +0.00    +0.141 N  
DOCKED: ATOM     16  C   UNL     1     -52.458 -28.389  11.958 +0.00 +0.00    +0.285 C  
DOCKED: ATOM     17  C   UNL     1     -53.613 -26.816  10.557 -0.00 +0.00    +0.285 C  
DOCKED: ENDBRANCH  14  15
DOCKED: ENDBRANCH  13  14
DOCKED: ENDBRANCH  12  13
DOCKED: ENDBRANCH   2  12
DOCKED: BRANCH   2  18
DOCKED: ATOM     18  C   UNL     1     -49.802 -29.386   7.593 -0.13 +0.00    +0.006 A  
DOCKED: ATOM     19  C   UNL     1     -49.518 -28.879   6.326 -0.16 +0.00    +0.001 A  
DOCKED: ATOM     20  C   UNL     1     -48.205 -28.554   5.985 -0.12 +0.00    +0.029 A  
DOCKED: ATOM     21  C   UNL     1     -47.178 -28.736   6.910 -0.06 +0.00    +0.140 A  
DOCKED: ATOM     22  C   UNL     1     -47.463 -29.243   8.178 -0.06 +0.00    +0.029 A  
DOCKED: ATOM     23  F   UNL     1     -45.918 -28.422   6.583 -0.00 -0.00    -0.204 F  
DOCKED: ATOM     24  C   UNL     1     -48.776 -29.569   8.520 -0.08 +0.00    +0.001 A  
DOCKED: ENDBRANCH   2  18
DOCKED: TORSDOF 5
DOCKED: TER
DOCKED: ENDMDL
________________________________________________________________________________


    FINAL DOCKED STATE:
    ________________________


Run:   242 / 512
Time taken for this run:   0.001s

DOCKED: MODEL        242
DOCKED: USER    Run = 242
DOCKED: USER
DOCKED: USER    Estimated Free Energy of Binding    =  -3.86 kcal/mol  [=(1)+(2)+(3)-(4)]
DOCKED: USER
DOCKED: USER    (1) Final Intermolecular Energy     =  -5.35 kcal/mol
DOCKED: USER        vdW + Hbond + desolv Energy     =  -5.35 kcal/mol
DOCKED: USER        Electrostatic Energy            =  +0.00 kcal/mol
DOCKED: USER        Moving Ligand-Fixed Receptor    =  -5.35 kcal/mol
DOCKED: USER        Moving Ligand-Moving Receptor   =  +0.00 kcal/mol
DOCKED: USER    (2) Final Total Internal Energy     =  -1.41 kcal/mol
DOCKED: USER    (3) Torsional Free Energy           =  +1.49 kcal/mol
DOCKED: USER    (4) Unbound System's Energy         =  -1.41 kcal/mol
DOCKED: USER
DOCKED: USER
DOCKED: REMARK  5 active torsions:
DOCKED: REMARK  status: ('A' for Active; 'I' for Inactive)
DOCKED: REMARK    1  A    between atoms: C_2  and  C_19 
DOCKED: REMARK    2  A    between atoms: C_2  and  C_11 
DOCKED: REMARK    3  A    between atoms: C_19  and  C_20 
DOCKED: REMARK    4  A    between atoms: C_20  and  C_21 
DOCKED: REMARK    5  A    between atoms: C_21  and  N_22 
DOCKED: USER                              x       y       z     vdW  Elec       q    Type
DOCKED: USER                           _______ _______ _______ _____ _____    ______ ____
DOCKED: ROOT
DOCKED: ATOM      1  O   UNL     1     -47.308 -29.678   0.620 -0.04 -0.00    -0.346 OA 
DOCKED: ATOM      2  C   UNL     1     -45.934 -30.065   0.298 -0.13 +0.00    +0.130 C  
DOCKED: ATOM      3  C   UNL     1     -45.751 -31.369   1.019 -0.17 +0.00    +0.004 A  
DOCKED: ATOM      4  C   UNL     1     -46.948 -31.749   1.609 -0.32 +0.00    +0.006 A  
DOCKED: ATOM      5  C   UNL     1     -47.994 -30.745   1.314 -0.28 +0.00    +0.169 C  
DOCKED: ATOM      6  C   UNL     1     -44.618 -32.162   1.134 -0.11 -0.00    -0.001 A  
DOCKED: ATOM      7  C   UNL     1     -47.053 -32.924   2.334 -0.20 +0.00    +0.008 A  
DOCKED: ATOM      8  C   UNL     1     -44.707 -33.348   1.865 -0.17 +0.00    +0.010 A  
DOCKED: ATOM      9  C   UNL     1     -45.918 -33.727   2.461 -0.30 +0.00    +0.068 A  
DOCKED: ATOM     10  N   UNL     1     -46.050 -35.937   3.807 -2.27 -0.00    -0.191 NA 
DOCKED: ATOM     11  C   UNL     1     -45.991 -34.945   3.204 -0.40 +0.00    +0.101 C  
DOCKED: ENDROOT
DOCKED: BRANCH   2  12
DOCKED: ATOM     12  C   UNL     1     -45.812 -30.202  -1.215 -0.16 +0.00    +0.038 C  
DOCKED: BRANCH  12  13
DOCKED: ATOM     13  C   UNL     1     -46.964 -29.500  -1.932 -0.16 +0.00    +0.038 C  
DOCKED: BRANCH  13  14
DOCKED: ATOM     14  C   UNL     1     -46.644 -28.026  -2.172 -0.13 +0.00    +0.251 C  
DOCKED: BRANCH  14  15
DOCKED: ATOM     15  N   UNL     1     -47.824 -27.204  -1.928 -0.20 +0.00    +0.141 N  
DOCKED: ATOM     16  C   UNL     1     -47.842 -26.725  -0.545 -0.10 +0.00    +0.285 C  
DOCKED: ATOM     17  C   UNL     1     -47.867 -26.074  -2.858 -0.11 +0.00    +0.285 C  
DOCKED: ENDBRANCH  14  15
DOCKED: ENDBRANCH  13  14
DOCKED: ENDBRANCH  12  13
DOCKED: ENDBRANCH   2  12
DOCKED: BRANCH   2  18
DOCKED: ATOM     18  C   UNL     1     -45.044 -28.985   0.815 -0.04 +0.00    +0.006 A  
DOCKED: ATOM     19  C   UNL     1     -43.880 -28.651   0.123 -0.01 +0.00    +0.001 A  
DOCKED: ATOM     20  C   UNL     1     -43.048 -27.641   0.608 -0.00 +0.00    +0.029 A  
DOCKED: ATOM     21  C   UNL     1     -43.381 -26.966   1.781 -0.00 +0.00    +0.140 A  
DOCKED: ATOM     22  C   UNL     1     -44.546 -27.300   2.472 -0.01 +0.00    +0.029 A  
DOCKED: ATOM     23  F   UNL     1     -42.584 -25.995   2.245 +0.00 -0.00    -0.204 F  
DOCKED: ATOM     24  C   UNL     1     -45.378 -28.311   1.989 -0.03 +0.00    +0.001 A  
DOCKED: ENDBRANCH   2  18
DOCKED: TORSDOF 5
DOCKED: TER
DOCKED: ENDMDL
________________________________________________________________________________


    FINAL DOCKED STATE:
    ________________________


Run:   243 / 512
Time taken for this run:   0.001s

DOCKED: MODEL        243
DOCKED: USER    Run = 243
DOCKED: USER
DOCKED: USER    Estimated Free Energy of Binding    =  -4.03 kcal/mol  [=(1)+(2)+(3)-(4)]
DOCKED: USER
DOCKED: USER    (1) Final Intermolecular Energy     =  -5.52 kcal/mol
DOCKED: USER        vdW + Hbond + desolv Energy     =  -5.52 kcal/mol
DOCKED: USER        Electrostatic Energy            =  +0.00 kcal/mol
DOCKED: USER        Moving Ligand-Fixed Receptor    =  -5.52 kcal/mol
DOCKED: USER        Moving Ligand-Moving Receptor   =  +0.00 kcal/mol
DOCKED: USER    (2) Final Total Internal Energy     =  -1.36 kcal/mol
DOCKED: USER    (3) Torsional Free Energy           =  +1.49 kcal/mol
DOCKED: USER    (4) Unbound System's Energy         =  -1.36 kcal/mol
DOCKED: USER
DOCKED: USER
DOCKED: REMARK  5 active torsions:
DOCKED: REMARK  status: ('A' for Active; 'I' for Inactive)
DOCKED: REMARK    1  A    between atoms: C_2  and  C_19 
DOCKED: REMARK    2  A    between atoms: C_2  and  C_11 
DOCKED: REMARK    3  A    between atoms: C_19  and  C_20 
DOCKED: REMARK    4  A    between atoms: C_20  and  C_21 
DOCKED: REMARK    5  A    between atoms: C_21  and  N_22 
DOCKED: USER                              x       y       z     vdW  Elec       q    Type
DOCKED: USER                           _______ _______ _______ _____ _____    ______ ____
DOCKED: ROOT
DOCKED: ATOM      1  O   UNL     1     -52.331 -28.706   7.195 -0.07 -0.00    -0.346 OA 
DOCKED: ATOM      2  C   UNL     1     -51.133 -29.491   7.493 -0.14 +0.00    +0.130 C  
DOCKED: ATOM      3  C   UNL     1     -51.510 -30.889   7.096 -0.23 +0.00    +0.004 A  
DOCKED: ATOM      4  C   UNL     1     -52.772 -30.886   6.518 -0.26 +0.00    +0.006 A  
DOCKED: ATOM      5  C   UNL     1     -53.304 -29.505   6.482 -0.16 +0.00    +0.169 C  
DOCKED: ATOM      6  C   UNL     1     -50.790 -32.068   7.224 -0.24 -0.00    -0.001 A  
DOCKED: ATOM      7  C   UNL     1     -53.356 -32.052   6.056 -0.27 +0.00    +0.008 A  
DOCKED: ATOM      8  C   UNL     1     -51.367 -33.253   6.767 -0.33 +0.00    +0.010 A  
DOCKED: ATOM      9  C   UNL     1     -52.644 -33.245   6.185 -0.30 +0.00    +0.068 A  
DOCKED: ATOM     10  N   UNL     1     -53.684 -35.464   5.342 -2.56 -0.00    -0.191 NA 
DOCKED: ATOM     11  C   UNL     1     -53.218 -34.469   5.721 -0.34 +0.00    +0.101 C  
DOCKED: ENDROOT
DOCKED: BRANCH   2  12
DOCKED: ATOM     12  C   UNL     1     -49.975 -28.934   6.675 -0.17 +0.00    +0.038 C  
DOCKED: BRANCH  12  13
DOCKED: ATOM     13  C   UNL     1     -50.377 -27.658   5.937 -0.12 +0.00    +0.038 C  
DOCKED: BRANCH  13  14
DOCKED: ATOM     14  C   UNL     1     -50.363 -26.453   6.876 -0.04 +0.00    +0.251 C  
DOCKED: BRANCH  14  15
DOCKED: ATOM     15  N   UNL     1     -51.713 -25.931   7.050 -0.04 +0.00    +0.141 N  
DOCKED: ATOM     16  C   UNL     1     -51.673 -24.547   7.525 -0.01 +0.00    +0.285 C  
DOCKED: ATOM     17  C   UNL     1     -52.464 -26.015   5.796 -0.10 +0.00    +0.285 C  
DOCKED: ENDBRANCH  14  15
DOCKED: ENDBRANCH  13  14
DOCKED: ENDBRANCH  12  13
DOCKED: ENDBRANCH   2  12
DOCKED: BRANCH   2  18
DOCKED: ATOM     18  C   UNL     1     -50.874 -29.353   8.956 -0.05 +0.00    +0.006 A  
DOCKED: ATOM     19  C   UNL     1     -50.041 -30.263   9.606 -0.05 +0.00    +0.001 A  
DOCKED: ATOM     20  C   UNL     1     -49.800 -30.133  10.974 -0.02 +0.00    +0.029 A  
DOCKED: ATOM     21  C   UNL     1     -50.391 -29.093  11.690 -0.00 +0.00    +0.140 A  
DOCKED: ATOM     22  C   UNL     1     -51.224 -28.183  11.040 -0.00 +0.00    +0.029 A  
DOCKED: ATOM     23  F   UNL     1     -50.158 -28.967  13.003 +0.00 -0.00    -0.204 F  
DOCKED: ATOM     24  C   UNL     1     -51.466 -28.313   9.671 -0.02 +0.00    +0.001 A  
DOCKED: ENDBRANCH   2  18
DOCKED: TORSDOF 5
DOCKED: TER
DOCKED: ENDMDL
________________________________________________________________________________


    FINAL DOCKED STATE:
    ________________________


Run:   244 / 512
Time taken for this run:   0.001s

DOCKED: MODEL        244
DOCKED: USER    Run = 244
DOCKED: USER
DOCKED: USER    Estimated Free Energy of Binding    =  -3.95 kcal/mol  [=(1)+(2)+(3)-(4)]
DOCKED: USER
DOCKED: USER    (1) Final Intermolecular Energy     =  -5.44 kcal/mol
DOCKED: USER        vdW + Hbond + desolv Energy     =  -5.44 kcal/mol
DOCKED: USER        Electrostatic Energy            =  +0.00 kcal/mol
DOCKED: USER        Moving Ligand-Fixed Receptor    =  -5.44 kcal/mol
DOCKED: USER        Moving Ligand-Moving Receptor   =  +0.00 kcal/mol
DOCKED: USER    (2) Final Total Internal Energy     =  -1.50 kcal/mol
DOCKED: USER    (3) Torsional Free Energy           =  +1.49 kcal/mol
DOCKED: USER    (4) Unbound System's Energy         =  -1.50 kcal/mol
DOCKED: USER
DOCKED: USER
DOCKED: REMARK  5 active torsions:
DOCKED: REMARK  status: ('A' for Active; 'I' for Inactive)
DOCKED: REMARK    1  A    between atoms: C_2  and  C_19 
DOCKED: REMARK    2  A    between atoms: C_2  and  C_11 
DOCKED: REMARK    3  A    between atoms: C_19  and  C_20 
DOCKED: REMARK    4  A    between atoms: C_20  and  C_21 
DOCKED: REMARK    5  A    between atoms: C_21  and  N_22 
DOCKED: USER                              x       y       z     vdW  Elec       q    Type
DOCKED: USER                           _______ _______ _______ _____ _____    ______ ____
DOCKED: ROOT
DOCKED: ATOM      1  O   UNL     1     -53.350 -28.650   7.306 -0.08 -0.00    -0.346 OA 
DOCKED: ATOM      2  C   UNL     1     -51.979 -29.152   7.408 -0.14 +0.00    +0.130 C  
DOCKED: ATOM      3  C   UNL     1     -52.093 -30.592   6.997 -0.23 +0.00    +0.004 A  
DOCKED: ATOM      4  C   UNL     1     -53.392 -30.861   6.591 -0.23 +0.00    +0.006 A  
DOCKED: ATOM      5  C   UNL     1     -54.213 -29.633   6.690 -0.17 +0.00    +0.169 C  
DOCKED: ATOM      6  C   UNL     1     -51.121 -31.582   6.975 -0.24 -0.00    -0.001 A  
DOCKED: ATOM      7  C   UNL     1     -53.765 -32.120   6.154 -0.25 +0.00    +0.008 A  
DOCKED: ATOM      8  C   UNL     1     -51.483 -32.859   6.542 -0.31 +0.00    +0.010 A  
DOCKED: ATOM      9  C   UNL     1     -52.798 -33.126   6.133 -0.30 +0.00    +0.068 A  
DOCKED: ATOM     10  N   UNL     1     -53.434 -35.506   5.330 -2.60 -0.00    -0.191 NA 
DOCKED: ATOM     11  C   UNL     1     -53.149 -34.439   5.691 -0.36 +0.00    +0.101 C  
DOCKED: ENDROOT
DOCKED: BRANCH   2  12
DOCKED: ATOM     12  C   UNL     1     -51.095 -28.337   6.471 -0.16 +0.00    +0.038 C  
DOCKED: BRANCH  12  13
DOCKED: ATOM     13  C   UNL     1     -51.867 -27.175   5.849 -0.07 +0.00    +0.038 C  
DOCKED: BRANCH  13  14
DOCKED: ATOM     14  C   UNL     1     -51.573 -25.866   6.580 -0.05 +0.00    +0.251 C  
DOCKED: BRANCH  14  15
DOCKED: ATOM     15  N   UNL     1     -52.816 -25.234   7.007 -0.03 +0.00    +0.141 N  
DOCKED: ATOM     16  C   UNL     1     -53.922 -25.628   6.133 -0.09 +0.00    +0.285 C  
DOCKED: ATOM     17  C   UNL     1     -53.120 -25.579   8.397 -0.01 +0.00    +0.285 C  
DOCKED: ENDBRANCH  14  15
DOCKED: ENDBRANCH  13  14
DOCKED: ENDBRANCH  12  13
DOCKED: ENDBRANCH   2  12
DOCKED: BRANCH   2  18
DOCKED: ATOM     18  C   UNL     1     -51.557 -28.984   8.829 -0.05 +0.00    +0.006 A  
DOCKED: ATOM     19  C   UNL     1     -50.205 -28.847   9.143 -0.03 +0.00    +0.001 A  
DOCKED: ATOM     20  C   UNL     1     -49.812 -28.691  10.472 -0.01 +0.00    +0.029 A  
DOCKED: ATOM     21  C   UNL     1     -50.769 -28.671  11.485 -0.00 +0.00    +0.140 A  
DOCKED: ATOM     22  C   UNL     1     -52.121 -28.808  11.171 -0.00 +0.00    +0.029 A  
DOCKED: ATOM     23  F   UNL     1     -50.392 -28.519  12.761 +0.00 -0.00    -0.204 F  
DOCKED: ATOM     24  C   UNL     1     -52.516 -28.965   9.841 -0.02 +0.00    +0.001 A  
DOCKED: ENDBRANCH   2  18
DOCKED: TORSDOF 5
DOCKED: TER
DOCKED: ENDMDL
________________________________________________________________________________


    FINAL DOCKED STATE:
    ________________________


Run:   245 / 512
Time taken for this run:   0.001s

DOCKED: MODEL        245
DOCKED: USER    Run = 245
DOCKED: USER
DOCKED: USER    Estimated Free Energy of Binding    =  -3.66 kcal/mol  [=(1)+(2)+(3)-(4)]
DOCKED: USER
DOCKED: USER    (1) Final Intermolecular Energy     =  -5.15 kcal/mol
DOCKED: USER        vdW + Hbond + desolv Energy     =  -5.15 kcal/mol
DOCKED: USER        Electrostatic Energy            =  +0.00 kcal/mol
DOCKED: USER        Moving Ligand-Fixed Receptor    =  -5.15 kcal/mol
DOCKED: USER        Moving Ligand-Moving Receptor   =  +0.00 kcal/mol
DOCKED: USER    (2) Final Total Internal Energy     =  -1.10 kcal/mol
DOCKED: USER    (3) Torsional Free Energy           =  +1.49 kcal/mol
DOCKED: USER    (4) Unbound System's Energy         =  -1.10 kcal/mol
DOCKED: USER
DOCKED: USER
DOCKED: REMARK  5 active torsions:
DOCKED: REMARK  status: ('A' for Active; 'I' for Inactive)
DOCKED: REMARK    1  A    between atoms: C_2  and  C_19 
DOCKED: REMARK    2  A    between atoms: C_2  and  C_11 
DOCKED: REMARK    3  A    between atoms: C_19  and  C_20 
DOCKED: REMARK    4  A    between atoms: C_20  and  C_21 
DOCKED: REMARK    5  A    between atoms: C_21  and  N_22 
DOCKED: USER                              x       y       z     vdW  Elec       q    Type
DOCKED: USER                           _______ _______ _______ _____ _____    ______ ____
DOCKED: ROOT
DOCKED: ATOM      1  O   UNL     1     -49.331 -31.572   9.005 -0.07 -0.00    -0.346 OA 
DOCKED: ATOM      2  C   UNL     1     -50.607 -30.859   8.924 -0.09 +0.00    +0.130 C  
DOCKED: ATOM      3  C   UNL     1     -51.455 -31.738   8.051 -0.17 +0.00    +0.004 A  
DOCKED: ATOM      4  C   UNL     1     -50.765 -32.903   7.750 -0.27 +0.00    +0.006 A  
DOCKED: ATOM      5  C   UNL     1     -49.437 -32.883   8.403 -0.13 +0.00    +0.169 C  
DOCKED: ATOM      6  C   UNL     1     -52.740 -31.528   7.571 -0.18 -0.00    -0.001 A  
DOCKED: ATOM      7  C   UNL     1     -51.328 -33.891   6.960 -0.37 +0.00    +0.008 A  
DOCKED: ATOM      8  C   UNL     1     -53.320 -32.513   6.770 -0.24 +0.00    +0.010 A  
DOCKED: ATOM      9  C   UNL     1     -52.617 -33.688   6.466 -0.29 +0.00    +0.068 A  
DOCKED: ATOM     10  N   UNL     1     -53.726 -35.499   4.980 -2.36 -0.00    -0.191 NA 
DOCKED: ATOM     11  C   UNL     1     -53.228 -34.686   5.646 -0.27 +0.00    +0.101 C  
DOCKED: ENDROOT
DOCKED: BRANCH   2  12
DOCKED: ATOM     12  C   UNL     1     -51.165 -30.707  10.334 -0.04 +0.00    +0.038 C  
DOCKED: BRANCH  12  13
DOCKED: ATOM     13  C   UNL     1     -51.714 -32.032  10.861 -0.06 +0.00    +0.038 C  
DOCKED: BRANCH  13  14
DOCKED: ATOM     14  C   UNL     1     -50.688 -32.739  11.744 -0.05 +0.00    +0.251 C  
DOCKED: BRANCH  14  15
DOCKED: ATOM     15  N   UNL     1     -51.127 -32.735  13.135 -0.02 +0.00    +0.141 N  
DOCKED: ATOM     16  C   UNL     1     -51.834 -33.975  13.457 -0.03 +0.00    +0.285 C  
DOCKED: ATOM     17  C   UNL     1     -49.987 -32.552  14.035 -0.01 +0.00    +0.285 C  
DOCKED: ENDBRANCH  14  15
DOCKED: ENDBRANCH  13  14
DOCKED: ENDBRANCH  12  13
DOCKED: ENDBRANCH   2  12
DOCKED: BRANCH   2  18
DOCKED: ATOM     18  C   UNL     1     -50.325 -29.528   8.311 -0.09 +0.00    +0.006 A  
DOCKED: ATOM     19  C   UNL     1     -50.325 -28.381   9.104 -0.03 +0.00    +0.001 A  
DOCKED: ATOM     20  C   UNL     1     -50.062 -27.137   8.529 -0.02 +0.00    +0.029 A  
DOCKED: ATOM     21  C   UNL     1     -49.798 -27.042   7.163 -0.04 +0.00    +0.140 A  
DOCKED: ATOM     22  C   UNL     1     -49.798 -28.190   6.371 -0.13 +0.00    +0.029 A  
DOCKED: ATOM     23  F   UNL     1     -49.544 -25.848   6.612 -0.00 -0.00    -0.204 F  
DOCKED: ATOM     24  C   UNL     1     -50.062 -29.434   6.944 -0.17 +0.00    +0.001 A  
DOCKED: ENDBRANCH   2  18
DOCKED: TORSDOF 5
DOCKED: TER
DOCKED: ENDMDL
________________________________________________________________________________


    FINAL DOCKED STATE:
    ________________________


Run:   246 / 512
Time taken for this run:   0.001s

DOCKED: MODEL        246
DOCKED: USER    Run = 246
DOCKED: USER
DOCKED: USER    Estimated Free Energy of Binding    =  -5.16 kcal/mol  [=(1)+(2)+(3)-(4)]
DOCKED: USER
DOCKED: USER    (1) Final Intermolecular Energy     =  -6.65 kcal/mol
DOCKED: USER        vdW + Hbond + desolv Energy     =  -6.65 kcal/mol
DOCKED: USER        Electrostatic Energy            =  +0.00 kcal/mol
DOCKED: USER        Moving Ligand-Fixed Receptor    =  -6.65 kcal/mol
DOCKED: USER        Moving Ligand-Moving Receptor   =  +0.00 kcal/mol
DOCKED: USER    (2) Final Total Internal Energy     =  -1.14 kcal/mol
DOCKED: USER    (3) Torsional Free Energy           =  +1.49 kcal/mol
DOCKED: USER    (4) Unbound System's Energy         =  -1.14 kcal/mol
DOCKED: USER
DOCKED: USER
DOCKED: REMARK  5 active torsions:
DOCKED: REMARK  status: ('A' for Active; 'I' for Inactive)
DOCKED: REMARK    1  A    between atoms: C_2  and  C_19 
DOCKED: REMARK    2  A    between atoms: C_2  and  C_11 
DOCKED: REMARK    3  A    between atoms: C_19  and  C_20 
DOCKED: REMARK    4  A    between atoms: C_20  and  C_21 
DOCKED: REMARK    5  A    between atoms: C_21  and  N_22 
DOCKED: USER                              x       y       z     vdW  Elec       q    Type
DOCKED: USER                           _______ _______ _______ _____ _____    ______ ____
DOCKED: ROOT
DOCKED: ATOM      1  O   UNL     1     -50.870 -34.188   8.570 -0.09 -0.00    -0.346 OA 
DOCKED: ATOM      2  C   UNL     1     -51.161 -32.789   8.252 -0.20 +0.00    +0.130 C  
DOCKED: ATOM      3  C   UNL     1     -51.742 -32.849   6.868 -0.31 +0.00    +0.004 A  
DOCKED: ATOM      4  C   UNL     1     -51.874 -34.172   6.474 -0.39 +0.00    +0.006 A  
DOCKED: ATOM      5  C   UNL     1     -51.409 -35.068   7.556 -0.04 +0.00    +0.169 C  
DOCKED: ATOM      6  C   UNL     1     -52.133 -31.814   6.031 -0.32 -0.00    -0.001 A  
DOCKED: ATOM      7  C   UNL     1     -52.394 -34.506   5.235 -0.47 +0.00    +0.008 A  
DOCKED: ATOM      8  C   UNL     1     -52.654 -32.134   4.777 -0.13 +0.00    +0.010 A  
DOCKED: ATOM      9  C   UNL     1     -52.785 -33.474   4.381 -0.39 +0.00    +0.068 A  
DOCKED: ATOM     10  N   UNL     1     -53.762 -34.034   2.048 -2.43 -0.00    -0.191 NA 
DOCKED: ATOM     11  C   UNL     1     -53.323 -33.783   3.094 -0.50 +0.00    +0.101 C  
DOCKED: ENDROOT
DOCKED: BRANCH   2  12
DOCKED: ATOM     12  C   UNL     1     -52.145 -32.254   9.286 -0.12 +0.00    +0.038 C  
DOCKED: BRANCH  12  13
DOCKED: ATOM     13  C   UNL     1     -53.154 -33.323   9.700 -0.15 +0.00    +0.038 C  
DOCKED: BRANCH  13  14
DOCKED: ATOM     14  C   UNL     1     -52.550 -34.282  10.723 -0.13 +0.00    +0.251 C  
DOCKED: BRANCH  14  15
DOCKED: ATOM     15  N   UNL     1     -52.340 -33.601  11.995 -0.07 +0.00    +0.141 N  
DOCKED: ATOM     16  C   UNL     1     -52.841 -34.413  13.105 -0.06 +0.00    +0.285 C  
DOCKED: ATOM     17  C   UNL     1     -50.922 -33.296  12.189 -0.06 +0.00    +0.285 C  
DOCKED: ENDBRANCH  14  15
DOCKED: ENDBRANCH  13  14
DOCKED: ENDBRANCH  12  13
DOCKED: ENDBRANCH   2  12
DOCKED: BRANCH   2  18
DOCKED: ATOM     18  C   UNL     1     -49.866 -32.050   8.308 -0.20 +0.00    +0.006 A  
DOCKED: ATOM     19  C   UNL     1     -48.662 -32.754   8.307 -0.11 +0.00    +0.001 A  
DOCKED: ATOM     20  C   UNL     1     -47.452 -32.061   8.359 -0.16 +0.00    +0.029 A  
DOCKED: ATOM     21  C   UNL     1     -47.447 -30.668   8.412 -0.08 +0.00    +0.140 A  
DOCKED: ATOM     22  C   UNL     1     -48.651 -29.966   8.412 -0.09 +0.00    +0.029 A  
DOCKED: ATOM     23  F   UNL     1     -46.285 -30.004   8.461 -0.01 -0.00    -0.204 F  
DOCKED: ATOM     24  C   UNL     1     -49.863 -30.657   8.360 -0.13 +0.00    +0.001 A  
DOCKED: ENDBRANCH   2  18
DOCKED: TORSDOF 5
DOCKED: TER
DOCKED: ENDMDL
________________________________________________________________________________


    FINAL DOCKED STATE:
    ________________________


Run:   247 / 512
Time taken for this run:   0.001s

DOCKED: MODEL        247
DOCKED: USER    Run = 247
DOCKED: USER
DOCKED: USER    Estimated Free Energy of Binding    =  -4.14 kcal/mol  [=(1)+(2)+(3)-(4)]
DOCKED: USER
DOCKED: USER    (1) Final Intermolecular Energy     =  -5.63 kcal/mol
DOCKED: USER        vdW + Hbond + desolv Energy     =  -5.63 kcal/mol
DOCKED: USER        Electrostatic Energy            =  +0.00 kcal/mol
DOCKED: USER        Moving Ligand-Fixed Receptor    =  -5.63 kcal/mol
DOCKED: USER        Moving Ligand-Moving Receptor   =  +0.00 kcal/mol
DOCKED: USER    (2) Final Total Internal Energy     =  -1.22 kcal/mol
DOCKED: USER    (3) Torsional Free Energy           =  +1.49 kcal/mol
DOCKED: USER    (4) Unbound System's Energy         =  -1.22 kcal/mol
DOCKED: USER
DOCKED: USER
DOCKED: REMARK  5 active torsions:
DOCKED: REMARK  status: ('A' for Active; 'I' for Inactive)
DOCKED: REMARK    1  A    between atoms: C_2  and  C_19 
DOCKED: REMARK    2  A    between atoms: C_2  and  C_11 
DOCKED: REMARK    3  A    between atoms: C_19  and  C_20 
DOCKED: REMARK    4  A    between atoms: C_20  and  C_21 
DOCKED: REMARK    5  A    between atoms: C_21  and  N_22 
DOCKED: USER                              x       y       z     vdW  Elec       q    Type
DOCKED: USER                           _______ _______ _______ _____ _____    ______ ____
DOCKED: ROOT
DOCKED: ATOM      1  O   UNL     1     -45.220 -20.814  -5.949 -0.05 -0.00    -0.346 OA 
DOCKED: ATOM      2  C   UNL     1     -45.327 -20.899  -4.492 -0.11 +0.00    +0.130 C  
DOCKED: ATOM      3  C   UNL     1     -46.757 -21.292  -4.259 -0.19 +0.00    +0.004 A  
DOCKED: ATOM      4  C   UNL     1     -47.383 -21.520  -5.476 -0.25 +0.00    +0.006 A  
DOCKED: ATOM      5  C   UNL     1     -46.423 -21.309  -6.582 -0.14 +0.00    +0.169 C  
DOCKED: ATOM      6  C   UNL     1     -47.445 -21.447  -3.065 -0.25 -0.00    -0.001 A  
DOCKED: ATOM      7  C   UNL     1     -48.712 -21.903  -5.543 -0.37 +0.00    +0.008 A  
DOCKED: ATOM      8  C   UNL     1     -48.787 -21.829  -3.115 -0.35 +0.00    +0.010 A  
DOCKED: ATOM      9  C   UNL     1     -49.417 -22.056  -4.348 -0.40 +0.00    +0.068 A  
DOCKED: ATOM     10  N   UNL     1     -51.907 -22.769  -4.405 -2.48 -0.00    -0.191 NA 
DOCKED: ATOM     11  C   UNL     1     -50.790 -22.449  -4.380 -0.12 +0.00    +0.101 C  
DOCKED: ENDROOT
DOCKED: BRANCH   2  12
DOCKED: ATOM     12  C   UNL     1     -44.336 -21.945  -3.996 -0.04 +0.00    +0.038 C  
DOCKED: BRANCH  12  13
DOCKED: ATOM     13  C   UNL     1     -43.923 -21.680  -2.550 -0.03 +0.00    +0.038 C  
DOCKED: BRANCH  13  14
DOCKED: ATOM     14  C   UNL     1     -44.551 -22.702  -1.603 -0.03 +0.00    +0.251 C  
DOCKED: BRANCH  14  15
DOCKED: ATOM     15  N   UNL     1     -45.293 -22.025  -0.546 -0.11 +0.00    +0.141 N  
DOCKED: ATOM     16  C   UNL     1     -45.461 -22.906   0.611 -0.08 +0.00    +0.285 C  
DOCKED: ATOM     17  C   UNL     1     -44.616 -20.790  -0.150 -0.08 +0.00    +0.285 C  
DOCKED: ENDBRANCH  14  15
DOCKED: ENDBRANCH  13  14
DOCKED: ENDBRANCH  12  13
DOCKED: ENDBRANCH   2  12
DOCKED: BRANCH   2  18
DOCKED: ATOM     18  C   UNL     1     -44.999 -19.548  -3.951 -0.13 +0.00    +0.006 A  
DOCKED: ATOM     19  C   UNL     1     -45.808 -18.975  -2.970 -0.11 +0.00    +0.001 A  
DOCKED: ATOM     20  C   UNL     1     -45.501 -17.711  -2.465 -0.14 +0.00    +0.029 A  
DOCKED: ATOM     21  C   UNL     1     -44.386 -17.023  -2.940 -0.05 +0.00    +0.140 A  
DOCKED: ATOM     22  C   UNL     1     -43.577 -17.596  -3.921 -0.06 +0.00    +0.029 A  
DOCKED: ATOM     23  F   UNL     1     -44.090 -15.810  -2.454 +0.01 -0.00    -0.204 F  
DOCKED: ATOM     24  C   UNL     1     -43.884 -18.860  -4.427 -0.08 +0.00    +0.001 A  
DOCKED: ENDBRANCH   2  18
DOCKED: TORSDOF 5
DOCKED: TER
DOCKED: ENDMDL
________________________________________________________________________________


    FINAL DOCKED STATE:
    ________________________


Run:   248 / 512
Time taken for this run:   0.001s

DOCKED: MODEL        248
DOCKED: USER    Run = 248
DOCKED: USER
DOCKED: USER    Estimated Free Energy of Binding    =  -4.49 kcal/mol  [=(1)+(2)+(3)-(4)]
DOCKED: USER
DOCKED: USER    (1) Final Intermolecular Energy     =  -5.98 kcal/mol
DOCKED: USER        vdW + Hbond + desolv Energy     =  -5.98 kcal/mol
DOCKED: USER        Electrostatic Energy            =  +0.00 kcal/mol
DOCKED: USER        Moving Ligand-Fixed Receptor    =  -5.98 kcal/mol
DOCKED: USER        Moving Ligand-Moving Receptor   =  +0.00 kcal/mol
DOCKED: USER    (2) Final Total Internal Energy     =  -1.40 kcal/mol
DOCKED: USER    (3) Torsional Free Energy           =  +1.49 kcal/mol
DOCKED: USER    (4) Unbound System's Energy         =  -1.40 kcal/mol
DOCKED: USER
DOCKED: USER
DOCKED: REMARK  5 active torsions:
DOCKED: REMARK  status: ('A' for Active; 'I' for Inactive)
DOCKED: REMARK    1  A    between atoms: C_2  and  C_19 
DOCKED: REMARK    2  A    between atoms: C_2  and  C_11 
DOCKED: REMARK    3  A    between atoms: C_19  and  C_20 
DOCKED: REMARK    4  A    between atoms: C_20  and  C_21 
DOCKED: REMARK    5  A    between atoms: C_21  and  N_22 
DOCKED: USER                              x       y       z     vdW  Elec       q    Type
DOCKED: USER                           _______ _______ _______ _____ _____    ______ ____
DOCKED: ROOT
DOCKED: ATOM      1  O   UNL     1     -51.076 -28.967   7.250 -0.05 -0.00    -0.346 OA 
DOCKED: ATOM      2  C   UNL     1     -52.515 -28.927   7.517 -0.14 +0.00    +0.130 C  
DOCKED: ATOM      3  C   UNL     1     -53.001 -30.275   7.070 -0.22 +0.00    +0.004 A  
DOCKED: ATOM      4  C   UNL     1     -51.920 -31.058   6.687 -0.27 +0.00    +0.006 A  
DOCKED: ATOM      5  C   UNL     1     -50.663 -30.298   6.862 -0.18 +0.00    +0.169 C  
DOCKED: ATOM      6  C   UNL     1     -54.294 -30.774   7.019 -0.22 -0.00    -0.001 A  
DOCKED: ATOM      7  C   UNL     1     -52.094 -32.355   6.237 -0.33 +0.00    +0.008 A  
DOCKED: ATOM      8  C   UNL     1     -54.486 -32.080   6.563 -0.23 +0.00    +0.010 A  
DOCKED: ATOM      9  C   UNL     1     -53.391 -32.866   6.175 -0.26 +0.00    +0.068 A  
DOCKED: ATOM     10  N   UNL     1     -53.783 -35.287   5.339 -2.55 -0.00    -0.191 NA 
DOCKED: ATOM     11  C   UNL     1     -53.607 -34.201   5.714 -0.36 +0.00    +0.101 C  
DOCKED: ENDROOT
DOCKED: BRANCH   2  12
DOCKED: ATOM     12  C   UNL     1     -52.723 -28.684   9.007 -0.05 +0.00    +0.038 C  
DOCKED: BRANCH  12  13
DOCKED: ATOM     13  C   UNL     1     -52.858 -29.999   9.772 -0.04 +0.00    +0.038 C  
DOCKED: BRANCH  13  14
DOCKED: ATOM     14  C   UNL     1     -51.527 -30.408  10.400 -0.01 +0.00    +0.251 C  
DOCKED: BRANCH  14  15
DOCKED: ATOM     15  N   UNL     1     -51.448 -31.859  10.522 -0.04 +0.00    +0.141 N  
DOCKED: ATOM     16  C   UNL     1     -52.785 -32.454  10.484 -0.03 +0.00    +0.285 C  
DOCKED: ATOM     17  C   UNL     1     -50.612 -32.420   9.459 -0.08 +0.00    +0.285 C  
DOCKED: ENDBRANCH  14  15
DOCKED: ENDBRANCH  13  14
DOCKED: ENDBRANCH  12  13
DOCKED: ENDBRANCH   2  12
DOCKED: BRANCH   2  18
DOCKED: ATOM     18  C   UNL     1     -53.077 -27.808   6.705 -0.18 +0.00    +0.006 A  
DOCKED: ATOM     19  C   UNL     1     -54.442 -27.527   6.757 -0.21 +0.00    +0.001 A  
DOCKED: ATOM     20  C   UNL     1     -54.967 -26.481   5.998 -0.16 +0.00    +0.029 A  
DOCKED: ATOM     21  C   UNL     1     -54.127 -25.718   5.188 -0.11 +0.00    +0.140 A  
DOCKED: ATOM     22  C   UNL     1     -52.762 -25.999   5.136 -0.15 +0.00    +0.029 A  
DOCKED: ATOM     23  F   UNL     1     -54.631 -24.712   4.460 -0.03 -0.00    -0.204 F  
DOCKED: ATOM     24  C   UNL     1     -52.236 -27.046   5.895 -0.11 +0.00    +0.001 A  
DOCKED: ENDBRANCH   2  18
DOCKED: TORSDOF 5
DOCKED: TER
DOCKED: ENDMDL
________________________________________________________________________________


    FINAL DOCKED STATE:
    ________________________


Run:   249 / 512
Time taken for this run:   0.001s

DOCKED: MODEL        249
DOCKED: USER    Run = 249
DOCKED: USER
DOCKED: USER    Estimated Free Energy of Binding    =  -3.82 kcal/mol  [=(1)+(2)+(3)-(4)]
DOCKED: USER
DOCKED: USER    (1) Final Intermolecular Energy     =  -5.32 kcal/mol
DOCKED: USER        vdW + Hbond + desolv Energy     =  -5.32 kcal/mol
DOCKED: USER        Electrostatic Energy            =  +0.00 kcal/mol
DOCKED: USER        Moving Ligand-Fixed Receptor    =  -5.32 kcal/mol
DOCKED: USER        Moving Ligand-Moving Receptor   =  +0.00 kcal/mol
DOCKED: USER    (2) Final Total Internal Energy     =  -1.34 kcal/mol
DOCKED: USER    (3) Torsional Free Energy           =  +1.49 kcal/mol
DOCKED: USER    (4) Unbound System's Energy         =  -1.34 kcal/mol
DOCKED: USER
DOCKED: USER
DOCKED: REMARK  5 active torsions:
DOCKED: REMARK  status: ('A' for Active; 'I' for Inactive)
DOCKED: REMARK    1  A    between atoms: C_2  and  C_19 
DOCKED: REMARK    2  A    between atoms: C_2  and  C_11 
DOCKED: REMARK    3  A    between atoms: C_19  and  C_20 
DOCKED: REMARK    4  A    between atoms: C_20  and  C_21 
DOCKED: REMARK    5  A    between atoms: C_21  and  N_22 
DOCKED: USER                              x       y       z     vdW  Elec       q    Type
DOCKED: USER                           _______ _______ _______ _____ _____    ______ ____
DOCKED: ROOT
DOCKED: ATOM      1  O   UNL     1     -45.231 -20.647  -1.251 -0.04 -0.00    -0.346 OA 
DOCKED: ATOM      2  C   UNL     1     -44.788 -20.852  -2.631 -0.06 +0.00    +0.130 C  
DOCKED: ATOM      3  C   UNL     1     -46.057 -21.151  -3.375 -0.14 +0.00    +0.004 A  
DOCKED: ATOM      4  C   UNL     1     -47.142 -21.020  -2.519 -0.24 +0.00    +0.006 A  
DOCKED: ATOM      5  C   UNL     1     -46.675 -20.619  -1.174 -0.10 +0.00    +0.169 C  
DOCKED: ATOM      6  C   UNL     1     -46.239 -21.500  -4.705 -0.16 -0.00    -0.001 A  
DOCKED: ATOM      7  C   UNL     1     -48.437 -21.236  -2.959 -0.31 +0.00    +0.008 A  
DOCKED: ATOM      8  C   UNL     1     -47.538 -21.726  -5.163 -0.26 +0.00    +0.010 A  
DOCKED: ATOM      9  C   UNL     1     -48.631 -21.593  -4.294 -0.34 +0.00    +0.068 A  
DOCKED: ATOM     10  N   UNL     1     -51.031 -22.014  -5.177 -2.55 -0.00    -0.191 NA 
DOCKED: ATOM     11  C   UNL     1     -49.955 -21.826  -4.781 -0.38 +0.00    +0.101 C  
DOCKED: ENDROOT
DOCKED: BRANCH   2  12
DOCKED: ATOM     12  C   UNL     1     -44.104 -19.578  -3.113 -0.08 +0.00    +0.038 C  
DOCKED: BRANCH  12  13
DOCKED: ATOM     13  C   UNL     1     -44.503 -18.375  -2.260 -0.09 +0.00    +0.038 C  
DOCKED: BRANCH  13  14
DOCKED: ATOM     14  C   UNL     1     -45.847 -17.805  -2.709 -0.12 +0.00    +0.251 C  
DOCKED: BRANCH  14  15
DOCKED: ATOM     15  N   UNL     1     -46.481 -17.078  -1.615 -0.13 +0.00    +0.141 N  
DOCKED: ATOM     16  C   UNL     1     -47.906 -17.403  -1.536 -0.17 +0.00    +0.285 C  
DOCKED: ATOM     17  C   UNL     1     -45.820 -17.381  -0.344 -0.07 +0.00    +0.285 C  
DOCKED: ENDBRANCH  14  15
DOCKED: ENDBRANCH  13  14
DOCKED: ENDBRANCH  12  13
DOCKED: ENDBRANCH   2  12
DOCKED: BRANCH   2  18
DOCKED: ATOM     18  C   UNL     1     -43.837 -22.002  -2.618 -0.02 +0.00    +0.006 A  
DOCKED: ATOM     19  C   UNL     1     -44.055 -23.077  -1.758 -0.02 +0.00    +0.001 A  
DOCKED: ATOM     20  C   UNL     1     -43.165 -24.151  -1.747 -0.01 +0.00    +0.029 A  
DOCKED: ATOM     21  C   UNL     1     -42.059 -24.149  -2.595 -0.00 +0.00    +0.140 A  
DOCKED: ATOM     22  C   UNL     1     -41.841 -23.074  -3.456 -0.00 +0.00    +0.029 A  
DOCKED: ATOM     23  F   UNL     1     -41.205 -25.181  -2.586 +0.00 -0.00    -0.204 F  
DOCKED: ATOM     24  C   UNL     1     -42.731 -21.998  -3.467 -0.01 +0.00    +0.001 A  
DOCKED: ENDBRANCH   2  18
DOCKED: TORSDOF 5
DOCKED: TER
DOCKED: ENDMDL
________________________________________________________________________________


    FINAL DOCKED STATE:
    ________________________


Run:   250 / 512
Time taken for this run:   0.001s

DOCKED: MODEL        250
DOCKED: USER    Run = 250
DOCKED: USER
DOCKED: USER    Estimated Free Energy of Binding    =  -4.96 kcal/mol  [=(1)+(2)+(3)-(4)]
DOCKED: USER
DOCKED: USER    (1) Final Intermolecular Energy     =  -6.45 kcal/mol
DOCKED: USER        vdW + Hbond + desolv Energy     =  -6.45 kcal/mol
DOCKED: USER        Electrostatic Energy            =  +0.00 kcal/mol
DOCKED: USER        Moving Ligand-Fixed Receptor    =  -6.45 kcal/mol
DOCKED: USER        Moving Ligand-Moving Receptor   =  +0.00 kcal/mol
DOCKED: USER    (2) Final Total Internal Energy     =  -0.61 kcal/mol
DOCKED: USER    (3) Torsional Free Energy           =  +1.49 kcal/mol
DOCKED: USER    (4) Unbound System's Energy         =  -0.61 kcal/mol
DOCKED: USER
DOCKED: USER
DOCKED: REMARK  5 active torsions:
DOCKED: REMARK  status: ('A' for Active; 'I' for Inactive)
DOCKED: REMARK    1  A    between atoms: C_2  and  C_19 
DOCKED: REMARK    2  A    between atoms: C_2  and  C_11 
DOCKED: REMARK    3  A    between atoms: C_19  and  C_20 
DOCKED: REMARK    4  A    between atoms: C_20  and  C_21 
DOCKED: REMARK    5  A    between atoms: C_21  and  N_22 
DOCKED: USER                              x       y       z     vdW  Elec       q    Type
DOCKED: USER                           _______ _______ _______ _____ _____    ______ ____
DOCKED: ROOT
DOCKED: ATOM      1  O   UNL     1     -50.905 -34.185   8.627 -0.09 -0.00    -0.346 OA 
DOCKED: ATOM      2  C   UNL     1     -51.199 -32.788   8.305 -0.20 +0.00    +0.130 C  
DOCKED: ATOM      3  C   UNL     1     -51.776 -32.852   6.920 -0.31 +0.00    +0.004 A  
DOCKED: ATOM      4  C   UNL     1     -51.904 -34.177   6.528 -0.38 +0.00    +0.006 A  
DOCKED: ATOM      5  C   UNL     1     -51.440 -35.069   7.614 -0.06 +0.00    +0.169 C  
DOCKED: ATOM      6  C   UNL     1     -52.167 -31.820   6.079 -0.33 -0.00    -0.001 A  
DOCKED: ATOM      7  C   UNL     1     -52.420 -34.515   5.289 -0.46 +0.00    +0.008 A  
DOCKED: ATOM      8  C   UNL     1     -52.685 -32.145   4.824 -0.14 +0.00    +0.010 A  
DOCKED: ATOM      9  C   UNL     1     -52.811 -33.485   4.432 -0.40 +0.00    +0.068 A  
DOCKED: ATOM     10  N   UNL     1     -53.781 -34.053   2.097 -2.39 -0.00    -0.191 NA 
DOCKED: ATOM     11  C   UNL     1     -53.345 -33.799   3.144 -0.51 +0.00    +0.101 C  
DOCKED: ENDROOT
DOCKED: BRANCH   2  12
DOCKED: ATOM     12  C   UNL     1     -52.186 -32.253   9.335 -0.11 +0.00    +0.038 C  
DOCKED: BRANCH  12  13
DOCKED: ATOM     13  C   UNL     1     -53.578 -32.850   9.136 -0.12 +0.00    +0.038 C  
DOCKED: BRANCH  13  14
DOCKED: ATOM     14  C   UNL     1     -54.337 -32.928  10.459 -0.03 +0.00    +0.251 C  
DOCKED: BRANCH  14  15
DOCKED: ATOM     15  N   UNL     1     -53.511 -33.560  11.481 -0.07 +0.00    +0.141 N  
DOCKED: ATOM     16  C   UNL     1     -52.720 -34.648  10.904 -0.05 +0.00    +0.285 C  
DOCKED: ATOM     17  C   UNL     1     -52.633 -32.576  12.116 -0.01 +0.00    +0.285 C  
DOCKED: ENDBRANCH  14  15
DOCKED: ENDBRANCH  13  14
DOCKED: ENDBRANCH  12  13
DOCKED: ENDBRANCH   2  12
DOCKED: BRANCH   2  18
DOCKED: ATOM     18  C   UNL     1     -49.905 -32.046   8.362 -0.20 +0.00    +0.006 A  
DOCKED: ATOM     19  C   UNL     1     -49.744 -30.870   7.632 -0.12 +0.00    +0.001 A  
DOCKED: ATOM     20  C   UNL     1     -48.534 -30.177   7.686 -0.10 +0.00    +0.029 A  
DOCKED: ATOM     21  C   UNL     1     -47.488 -30.661   8.470 -0.08 +0.00    +0.140 A  
DOCKED: ATOM     22  C   UNL     1     -47.650 -31.838   9.201 -0.13 +0.00    +0.029 A  
DOCKED: ATOM     23  F   UNL     1     -46.327 -29.996   8.524 -0.01 -0.00    -0.204 F  
DOCKED: ATOM     24  C   UNL     1     -48.860 -32.532   9.147 -0.15 +0.00    +0.001 A  
DOCKED: ENDBRANCH   2  18
DOCKED: TORSDOF 5
DOCKED: TER
DOCKED: ENDMDL
________________________________________________________________________________


    FINAL DOCKED STATE:
    ________________________


Run:   251 / 512
Time taken for this run:   0.001s

DOCKED: MODEL        251
DOCKED: USER    Run = 251
DOCKED: USER
DOCKED: USER    Estimated Free Energy of Binding    =  -4.67 kcal/mol  [=(1)+(2)+(3)-(4)]
DOCKED: USER
DOCKED: USER    (1) Final Intermolecular Energy     =  -6.16 kcal/mol
DOCKED: USER        vdW + Hbond + desolv Energy     =  -6.16 kcal/mol
DOCKED: USER        Electrostatic Energy            =  +0.00 kcal/mol
DOCKED: USER        Moving Ligand-Fixed Receptor    =  -6.16 kcal/mol
DOCKED: USER        Moving Ligand-Moving Receptor   =  +0.00 kcal/mol
DOCKED: USER    (2) Final Total Internal Energy     =  -0.97 kcal/mol
DOCKED: USER    (3) Torsional Free Energy           =  +1.49 kcal/mol
DOCKED: USER    (4) Unbound System's Energy         =  -0.97 kcal/mol
DOCKED: USER
DOCKED: USER
DOCKED: REMARK  5 active torsions:
DOCKED: REMARK  status: ('A' for Active; 'I' for Inactive)
DOCKED: REMARK    1  A    between atoms: C_2  and  C_19 
DOCKED: REMARK    2  A    between atoms: C_2  and  C_11 
DOCKED: REMARK    3  A    between atoms: C_19  and  C_20 
DOCKED: REMARK    4  A    between atoms: C_20  and  C_21 
DOCKED: REMARK    5  A    between atoms: C_21  and  N_22 
DOCKED: USER                              x       y       z     vdW  Elec       q    Type
DOCKED: USER                           _______ _______ _______ _____ _____    ______ ____
DOCKED: ROOT
DOCKED: ATOM      1  O   UNL     1     -50.164 -25.338   1.372 -0.10 -0.00    -0.346 OA 
DOCKED: ATOM      2  C   UNL     1     -48.834 -25.289   0.761 -0.18 +0.00    +0.130 C  
DOCKED: ATOM      3  C   UNL     1     -49.067 -24.599  -0.551 -0.27 +0.00    +0.004 A  
DOCKED: ATOM      4  C   UNL     1     -50.390 -24.189  -0.636 -0.23 +0.00    +0.006 A  
DOCKED: ATOM      5  C   UNL     1     -51.111 -24.563   0.601 -0.07 +0.00    +0.169 C  
DOCKED: ATOM      6  C   UNL     1     -48.175 -24.343  -1.583 -0.23 -0.00    -0.001 A  
DOCKED: ATOM      7  C   UNL     1     -50.867 -23.519  -1.749 -0.24 +0.00    +0.008 A  
DOCKED: ATOM      8  C   UNL     1     -48.642 -23.671  -2.714 -0.27 +0.00    +0.010 A  
DOCKED: ATOM      9  C   UNL     1     -49.981 -23.261  -2.796 -0.29 +0.00    +0.068 A  
DOCKED: ATOM     10  N   UNL     1     -50.814 -22.012  -4.908 -2.30 -0.00    -0.191 NA 
DOCKED: ATOM     11  C   UNL     1     -50.441 -22.573  -3.961 -0.35 +0.00    +0.101 C  
DOCKED: ENDROOT
DOCKED: BRANCH   2  12
DOCKED: ATOM     12  C   UNL     1     -47.907 -24.510   1.686 -0.17 +0.00    +0.038 C  
DOCKED: BRANCH  12  13
DOCKED: ATOM     13  C   UNL     1     -48.694 -23.739   2.743 -0.16 +0.00    +0.038 C  
DOCKED: BRANCH  13  14
DOCKED: ATOM     14  C   UNL     1     -49.022 -24.628   3.941 -0.08 +0.00    +0.251 C  
DOCKED: BRANCH  14  15
DOCKED: ATOM     15  N   UNL     1     -47.861 -24.754   4.813 -0.04 +0.00    +0.141 N  
DOCKED: ATOM     16  C   UNL     1     -47.137 -23.485   4.895 -0.06 +0.00    +0.285 C  
DOCKED: ATOM     17  C   UNL     1     -48.264 -25.195   6.149 -0.01 +0.00    +0.285 C  
DOCKED: ENDBRANCH  14  15
DOCKED: ENDBRANCH  13  14
DOCKED: ENDBRANCH  12  13
DOCKED: ENDBRANCH   2  12
DOCKED: BRANCH   2  18
DOCKED: ATOM     18  C   UNL     1     -48.375 -26.700   0.603 -0.15 +0.00    +0.006 A  
DOCKED: ATOM     19  C   UNL     1     -47.930 -27.153  -0.638 -0.18 +0.00    +0.001 A  
DOCKED: ATOM     20  C   UNL     1     -47.501 -28.473  -0.785 -0.17 +0.00    +0.029 A  
DOCKED: ATOM     21  C   UNL     1     -47.518 -29.337   0.308 -0.18 +0.00    +0.140 A  
DOCKED: ATOM     22  C   UNL     1     -47.964 -28.884   1.549 -0.21 +0.00    +0.029 A  
DOCKED: ATOM     23  F   UNL     1     -47.105 -30.603   0.167 -0.09 -0.00    -0.204 F  
DOCKED: ATOM     24  C   UNL     1     -48.393 -27.564   1.697 -0.14 +0.00    +0.001 A  
DOCKED: ENDBRANCH   2  18
DOCKED: TORSDOF 5
DOCKED: TER
DOCKED: ENDMDL
________________________________________________________________________________


    FINAL DOCKED STATE:
    ________________________


Run:   252 / 512
Time taken for this run:   0.001s

DOCKED: MODEL        252
DOCKED: USER    Run = 252
DOCKED: USER
DOCKED: USER    Estimated Free Energy of Binding    =  -4.15 kcal/mol  [=(1)+(2)+(3)-(4)]
DOCKED: USER
DOCKED: USER    (1) Final Intermolecular Energy     =  -5.64 kcal/mol
DOCKED: USER        vdW + Hbond + desolv Energy     =  -5.64 kcal/mol
DOCKED: USER        Electrostatic Energy            =  +0.00 kcal/mol
DOCKED: USER        Moving Ligand-Fixed Receptor    =  -5.64 kcal/mol
DOCKED: USER        Moving Ligand-Moving Receptor   =  +0.00 kcal/mol
DOCKED: USER    (2) Final Total Internal Energy     =  -1.42 kcal/mol
DOCKED: USER    (3) Torsional Free Energy           =  +1.49 kcal/mol
DOCKED: USER    (4) Unbound System's Energy         =  -1.42 kcal/mol
DOCKED: USER
DOCKED: USER
DOCKED: REMARK  5 active torsions:
DOCKED: REMARK  status: ('A' for Active; 'I' for Inactive)
DOCKED: REMARK    1  A    between atoms: C_2  and  C_19 
DOCKED: REMARK    2  A    between atoms: C_2  and  C_11 
DOCKED: REMARK    3  A    between atoms: C_19  and  C_20 
DOCKED: REMARK    4  A    between atoms: C_20  and  C_21 
DOCKED: REMARK    5  A    between atoms: C_21  and  N_22 
DOCKED: USER                              x       y       z     vdW  Elec       q    Type
DOCKED: USER                           _______ _______ _______ _____ _____    ______ ____
DOCKED: ROOT
DOCKED: ATOM      1  O   UNL     1     -49.442 -30.360   8.435 -0.05 -0.00    -0.346 OA 
DOCKED: ATOM      2  C   UNL     1     -50.610 -29.704   7.847 -0.12 +0.00    +0.130 C  
DOCKED: ATOM      3  C   UNL     1     -51.371 -30.829   7.208 -0.22 +0.00    +0.004 A  
DOCKED: ATOM      4  C   UNL     1     -50.752 -32.036   7.498 -0.23 +0.00    +0.006 A  
DOCKED: ATOM      5  C   UNL     1     -49.563 -31.799   8.349 -0.16 +0.00    +0.169 C  
DOCKED: ATOM      6  C   UNL     1     -52.525 -30.788   6.439 -0.26 -0.00    -0.001 A  
DOCKED: ATOM      7  C   UNL     1     -51.258 -33.237   7.031 -0.32 +0.00    +0.008 A  
DOCKED: ATOM      8  C   UNL     1     -53.046 -31.990   5.957 -0.29 +0.00    +0.010 A  
DOCKED: ATOM      9  C   UNL     1     -52.416 -33.208   6.252 -0.31 +0.00    +0.068 A  
DOCKED: ATOM     10  N   UNL     1     -53.412 -35.422   5.345 -2.57 -0.00    -0.191 NA 
DOCKED: ATOM     11  C   UNL     1     -52.964 -34.429   5.751 -0.35 +0.00    +0.101 C  
DOCKED: ENDROOT
DOCKED: BRANCH   2  12
DOCKED: ATOM     12  C   UNL     1     -51.391 -29.018   8.963 -0.05 +0.00    +0.038 C  
DOCKED: BRANCH  12  13
DOCKED: ATOM     13  C   UNL     1     -51.805 -30.013  10.045 -0.03 +0.00    +0.038 C  
DOCKED: BRANCH  13  14
DOCKED: ATOM     14  C   UNL     1     -53.311 -29.962  10.291 -0.01 +0.00    +0.251 C  
DOCKED: BRANCH  14  15
DOCKED: ATOM     15  N   UNL     1     -54.035 -30.357   9.089 -0.03 +0.00    +0.141 N  
DOCKED: ATOM     16  C   UNL     1     -54.685 -31.654   9.280 -0.01 +0.00    +0.285 C  
DOCKED: ATOM     17  C   UNL     1     -55.026 -29.341   8.727 -0.03 +0.00    +0.285 C  
DOCKED: ENDBRANCH  14  15
DOCKED: ENDBRANCH  13  14
DOCKED: ENDBRANCH  12  13
DOCKED: ENDBRANCH   2  12
DOCKED: BRANCH   2  18
DOCKED: ATOM     18  C   UNL     1     -50.100 -28.710   6.858 -0.15 +0.00    +0.006 A  
DOCKED: ATOM     19  C   UNL     1     -50.325 -27.348   7.058 -0.08 +0.00    +0.001 A  
DOCKED: ATOM     20  C   UNL     1     -49.848 -26.420   6.132 -0.06 +0.00    +0.029 A  
DOCKED: ATOM     21  C   UNL     1     -49.147 -26.854   5.008 -0.07 +0.00    +0.140 A  
DOCKED: ATOM     22  C   UNL     1     -48.922 -28.216   4.808 -0.14 +0.00    +0.029 A  
DOCKED: ATOM     23  F   UNL     1     -48.687 -25.963   4.120 -0.01 -0.00    -0.204 F  
DOCKED: ATOM     24  C   UNL     1     -49.399 -29.145   5.734 -0.09 +0.00    +0.001 A  
DOCKED: ENDBRANCH   2  18
DOCKED: TORSDOF 5
DOCKED: TER
DOCKED: ENDMDL
________________________________________________________________________________


    FINAL DOCKED STATE:
    ________________________


Run:   253 / 512
Time taken for this run:   0.001s

DOCKED: MODEL        253
DOCKED: USER    Run = 253
DOCKED: USER
DOCKED: USER    Estimated Free Energy of Binding    =  -4.88 kcal/mol  [=(1)+(2)+(3)-(4)]
DOCKED: USER
DOCKED: USER    (1) Final Intermolecular Energy     =  -6.37 kcal/mol
DOCKED: USER        vdW + Hbond + desolv Energy     =  -6.37 kcal/mol
DOCKED: USER        Electrostatic Energy            =  +0.00 kcal/mol
DOCKED: USER        Moving Ligand-Fixed Receptor    =  -6.37 kcal/mol
DOCKED: USER        Moving Ligand-Moving Receptor   =  +0.00 kcal/mol
DOCKED: USER    (2) Final Total Internal Energy     =  -1.31 kcal/mol
DOCKED: USER    (3) Torsional Free Energy           =  +1.49 kcal/mol
DOCKED: USER    (4) Unbound System's Energy         =  -1.31 kcal/mol
DOCKED: USER
DOCKED: USER
DOCKED: REMARK  5 active torsions:
DOCKED: REMARK  status: ('A' for Active; 'I' for Inactive)
DOCKED: REMARK    1  A    between atoms: C_2  and  C_19 
DOCKED: REMARK    2  A    between atoms: C_2  and  C_11 
DOCKED: REMARK    3  A    between atoms: C_19  and  C_20 
DOCKED: REMARK    4  A    between atoms: C_20  and  C_21 
DOCKED: REMARK    5  A    between atoms: C_21  and  N_22 
DOCKED: USER                              x       y       z     vdW  Elec       q    Type
DOCKED: USER                           _______ _______ _______ _____ _____    ______ ____
DOCKED: ROOT
DOCKED: ATOM      1  O   UNL     1     -49.917 -25.002   1.162 -0.11 -0.00    -0.346 OA 
DOCKED: ATOM      2  C   UNL     1     -48.648 -25.119   0.443 -0.18 +0.00    +0.130 C  
DOCKED: ATOM      3  C   UNL     1     -48.928 -24.479  -0.886 -0.26 +0.00    +0.004 A  
DOCKED: ATOM      4  C   UNL     1     -50.208 -23.944  -0.886 -0.14 +0.00    +0.006 A  
DOCKED: ATOM      5  C   UNL     1     -50.851 -24.178   0.427 -0.19 +0.00    +0.169 C  
DOCKED: ATOM      6  C   UNL     1     -48.111 -24.368  -2.001 -0.23 -0.00    -0.001 A  
DOCKED: ATOM      7  C   UNL     1     -50.715 -23.288  -1.995 -0.19 +0.00    +0.008 A  
DOCKED: ATOM      8  C   UNL     1     -48.608 -23.714  -3.129 -0.24 +0.00    +0.010 A  
DOCKED: ATOM      9  C   UNL     1     -49.904 -23.176  -3.125 -0.24 +0.00    +0.068 A  
DOCKED: ATOM     10  N   UNL     1     -50.796 -21.962  -5.234 -2.52 -0.00    -0.191 NA 
DOCKED: ATOM     11  C   UNL     1     -50.396 -22.507  -4.288 -0.31 +0.00    +0.101 C  
DOCKED: ENDROOT
DOCKED: BRANCH   2  12
DOCKED: ATOM     12  C   UNL     1     -47.573 -24.390   1.239 -0.17 +0.00    +0.038 C  
DOCKED: BRANCH  12  13
DOCKED: ATOM     13  C   UNL     1     -48.108 -23.906   2.585 -0.16 +0.00    +0.038 C  
DOCKED: BRANCH  13  14
DOCKED: ATOM     14  C   UNL     1     -48.550 -25.082   3.455 -0.08 +0.00    +0.251 C  
DOCKED: BRANCH  14  15
DOCKED: ATOM     15  N   UNL     1     -49.705 -24.709   4.263 -0.07 +0.00    +0.141 N  
DOCKED: ATOM     16  C   UNL     1     -50.105 -23.329   3.986 -0.14 +0.00    +0.285 C  
DOCKED: ATOM     17  C   UNL     1     -50.823 -25.621   4.016 -0.08 +0.00    +0.285 C  
DOCKED: ENDBRANCH  14  15
DOCKED: ENDBRANCH  13  14
DOCKED: ENDBRANCH  12  13
DOCKED: ENDBRANCH   2  12
DOCKED: BRANCH   2  18
DOCKED: ATOM     18  C   UNL     1     -48.342 -26.576   0.333 -0.15 +0.00    +0.006 A  
DOCKED: ATOM     19  C   UNL     1     -49.162 -27.510   0.965 -0.22 +0.00    +0.001 A  
DOCKED: ATOM     20  C   UNL     1     -48.875 -28.871   0.862 -0.23 +0.00    +0.029 A  
DOCKED: ATOM     21  C   UNL     1     -47.768 -29.297   0.128 -0.17 +0.00    +0.140 A  
DOCKED: ATOM     22  C   UNL     1     -46.948 -28.362  -0.503 -0.15 +0.00    +0.029 A  
DOCKED: ATOM     23  F   UNL     1     -47.493 -30.604   0.028 -0.06 -0.00    -0.204 F  
DOCKED: ATOM     24  C   UNL     1     -47.235 -27.000  -0.401 -0.11 +0.00    +0.001 A  
DOCKED: ENDBRANCH   2  18
DOCKED: TORSDOF 5
DOCKED: TER
DOCKED: ENDMDL
________________________________________________________________________________


    FINAL DOCKED STATE:
    ________________________


Run:   254 / 512
Time taken for this run:   0.001s

DOCKED: MODEL        254
DOCKED: USER    Run = 254
DOCKED: USER
DOCKED: USER    Estimated Free Energy of Binding    =  -4.64 kcal/mol  [=(1)+(2)+(3)-(4)]
DOCKED: USER
DOCKED: USER    (1) Final Intermolecular Energy     =  -6.13 kcal/mol
DOCKED: USER        vdW + Hbond + desolv Energy     =  -6.13 kcal/mol
DOCKED: USER        Electrostatic Energy            =  +0.00 kcal/mol
DOCKED: USER        Moving Ligand-Fixed Receptor    =  -6.13 kcal/mol
DOCKED: USER        Moving Ligand-Moving Receptor   =  +0.00 kcal/mol
DOCKED: USER    (2) Final Total Internal Energy     =  -1.36 kcal/mol
DOCKED: USER    (3) Torsional Free Energy           =  +1.49 kcal/mol
DOCKED: USER    (4) Unbound System's Energy         =  -1.36 kcal/mol
DOCKED: USER
DOCKED: USER
DOCKED: REMARK  5 active torsions:
DOCKED: REMARK  status: ('A' for Active; 'I' for Inactive)
DOCKED: REMARK    1  A    between atoms: C_2  and  C_19 
DOCKED: REMARK    2  A    between atoms: C_2  and  C_11 
DOCKED: REMARK    3  A    between atoms: C_19  and  C_20 
DOCKED: REMARK    4  A    between atoms: C_20  and  C_21 
DOCKED: REMARK    5  A    between atoms: C_21  and  N_22 
DOCKED: USER                              x       y       z     vdW  Elec       q    Type
DOCKED: USER                           _______ _______ _______ _____ _____    ______ ____
DOCKED: ROOT
DOCKED: ATOM      1  O   UNL     1     -51.508 -28.927   7.185 -0.06 -0.00    -0.346 OA 
DOCKED: ATOM      2  C   UNL     1     -52.887 -29.136   7.626 -0.14 +0.00    +0.130 C  
DOCKED: ATOM      3  C   UNL     1     -53.210 -30.524   7.152 -0.21 +0.00    +0.004 A  
DOCKED: ATOM      4  C   UNL     1     -52.080 -31.099   6.588 -0.28 +0.00    +0.006 A  
DOCKED: ATOM      5  C   UNL     1     -50.945 -30.152   6.660 -0.19 +0.00    +0.169 C  
DOCKED: ATOM      6  C   UNL     1     -54.404 -31.225   7.224 -0.20 -0.00    -0.001 A  
DOCKED: ATOM      7  C   UNL     1     -52.105 -32.385   6.076 -0.34 +0.00    +0.008 A  
DOCKED: ATOM      8  C   UNL     1     -54.447 -32.522   6.708 -0.23 +0.00    +0.010 A  
DOCKED: ATOM      9  C   UNL     1     -53.303 -33.098   6.137 -0.27 +0.00    +0.068 A  
DOCKED: ATOM     10  N   UNL     1     -53.415 -35.509   5.193 -2.52 -0.00    -0.191 NA 
DOCKED: ATOM     11  C   UNL     1     -53.365 -34.427   5.616 -0.37 +0.00    +0.101 C  
DOCKED: ENDROOT
DOCKED: BRANCH   2  12
DOCKED: ATOM     12  C   UNL     1     -52.935 -29.002   9.143 -0.04 +0.00    +0.038 C  
DOCKED: BRANCH  12  13
DOCKED: ATOM     13  C   UNL     1     -52.852 -30.366   9.826 -0.04 +0.00    +0.038 C  
DOCKED: BRANCH  13  14
DOCKED: ATOM     14  C   UNL     1     -51.549 -30.509  10.610 -0.01 +0.00    +0.251 C  
DOCKED: BRANCH  14  15
DOCKED: ATOM     15  N   UNL     1     -51.071 -31.885  10.551 -0.04 +0.00    +0.141 N  
DOCKED: ATOM     16  C   UNL     1     -52.186 -32.812  10.353 -0.05 +0.00    +0.285 C  
DOCKED: ATOM     17  C   UNL     1     -50.084 -32.043   9.481 -0.08 +0.00    +0.285 C  
DOCKED: ENDBRANCH  14  15
DOCKED: ENDBRANCH  13  14
DOCKED: ENDBRANCH  12  13
DOCKED: ENDBRANCH   2  12
DOCKED: BRANCH   2  18
DOCKED: ATOM     18  C   UNL     1     -53.720 -28.088   6.966 -0.20 +0.00    +0.006 A  
DOCKED: ATOM     19  C   UNL     1     -55.108 -28.121   7.090 -0.21 +0.00    +0.001 A  
DOCKED: ATOM     20  C   UNL     1     -55.886 -27.141   6.473 -0.19 +0.00    +0.029 A  
DOCKED: ATOM     21  C   UNL     1     -55.274 -26.129   5.733 -0.11 +0.00    +0.140 A  
DOCKED: ATOM     22  C   UNL     1     -53.885 -26.097   5.610 -0.15 +0.00    +0.029 A  
DOCKED: ATOM     23  F   UNL     1     -56.020 -25.187   5.142 -0.03 -0.00    -0.204 F  
DOCKED: ATOM     24  C   UNL     1     -53.107 -27.077   6.227 -0.18 +0.00    +0.001 A  
DOCKED: ENDBRANCH   2  18
DOCKED: TORSDOF 5
DOCKED: TER
DOCKED: ENDMDL
________________________________________________________________________________


    FINAL DOCKED STATE:
    ________________________


Run:   255 / 512
Time taken for this run:   0.001s

DOCKED: MODEL        255
DOCKED: USER    Run = 255
DOCKED: USER
DOCKED: USER    Estimated Free Energy of Binding    =  -4.87 kcal/mol  [=(1)+(2)+(3)-(4)]
DOCKED: USER
DOCKED: USER    (1) Final Intermolecular Energy     =  -6.36 kcal/mol
DOCKED: USER        vdW + Hbond + desolv Energy     =  -6.36 kcal/mol
DOCKED: USER        Electrostatic Energy            =  +0.00 kcal/mol
DOCKED: USER        Moving Ligand-Fixed Receptor    =  -6.36 kcal/mol
DOCKED: USER        Moving Ligand-Moving Receptor   =  +0.00 kcal/mol
DOCKED: USER    (2) Final Total Internal Energy     =  -1.11 kcal/mol
DOCKED: USER    (3) Torsional Free Energy           =  +1.49 kcal/mol
DOCKED: USER    (4) Unbound System's Energy         =  -1.11 kcal/mol
DOCKED: USER
DOCKED: USER
DOCKED: REMARK  5 active torsions:
DOCKED: REMARK  status: ('A' for Active; 'I' for Inactive)
DOCKED: REMARK    1  A    between atoms: C_2  and  C_19 
DOCKED: REMARK    2  A    between atoms: C_2  and  C_11 
DOCKED: REMARK    3  A    between atoms: C_19  and  C_20 
DOCKED: REMARK    4  A    between atoms: C_20  and  C_21 
DOCKED: REMARK    5  A    between atoms: C_21  and  N_22 
DOCKED: USER                              x       y       z     vdW  Elec       q    Type
DOCKED: USER                           _______ _______ _______ _____ _____    ______ ____
DOCKED: ROOT
DOCKED: ATOM      1  O   UNL     1     -49.782 -25.354   0.900 -0.10 -0.00    -0.346 OA 
DOCKED: ATOM      2  C   UNL     1     -48.472 -25.195   0.267 -0.17 +0.00    +0.130 C  
DOCKED: ATOM      3  C   UNL     1     -48.777 -24.475  -1.014 -0.26 +0.00    +0.004 A  
DOCKED: ATOM      4  C   UNL     1     -50.126 -24.151  -1.059 -0.24 +0.00    +0.006 A  
DOCKED: ATOM      5  C   UNL     1     -50.795 -24.616   0.177 -0.12 +0.00    +0.169 C  
DOCKED: ATOM      6  C   UNL     1     -47.927 -24.124  -2.053 -0.21 -0.00    -0.001 A  
DOCKED: ATOM      7  C   UNL     1     -50.670 -23.474  -2.137 -0.37 +0.00    +0.008 A  
DOCKED: ATOM      8  C   UNL     1     -48.461 -23.444  -3.149 -0.27 +0.00    +0.010 A  
DOCKED: ATOM      9  C   UNL     1     -49.825 -23.121  -3.190 -0.28 +0.00    +0.068 A  
DOCKED: ATOM     10  N   UNL     1     -50.783 -21.854  -5.238 -2.48 -0.00    -0.191 NA 
DOCKED: ATOM     11  C   UNL     1     -50.354 -22.423  -4.320 -0.37 +0.00    +0.101 C  
DOCKED: ENDROOT
DOCKED: BRANCH   2  12
DOCKED: ATOM     12  C   UNL     1     -47.578 -24.390   1.202 -0.17 +0.00    +0.038 C  
DOCKED: BRANCH  12  13
DOCKED: ATOM     13  C   UNL     1     -48.355 -23.882   2.415 -0.17 +0.00    +0.038 C  
DOCKED: BRANCH  13  14
DOCKED: ATOM     14  C   UNL     1     -48.563 -24.996   3.440 -0.08 +0.00    +0.251 C  
DOCKED: BRANCH  14  15
DOCKED: ATOM     15  N   UNL     1     -47.530 -24.940   4.467 -0.04 +0.00    +0.141 N  
DOCKED: ATOM     16  C   UNL     1     -46.401 -25.801   4.112 -0.01 +0.00    +0.285 C  
DOCKED: ATOM     17  C   UNL     1     -47.075 -23.563   4.666 -0.07 +0.00    +0.285 C  
DOCKED: ENDBRANCH  14  15
DOCKED: ENDBRANCH  13  14
DOCKED: ENDBRANCH  12  13
DOCKED: ENDBRANCH   2  12
DOCKED: BRANCH   2  18
DOCKED: ATOM     18  C   UNL     1     -47.925 -26.566   0.047 -0.13 +0.00    +0.006 A  
DOCKED: ATOM     19  C   UNL     1     -48.489 -27.656   0.710 -0.19 +0.00    +0.001 A  
DOCKED: ATOM     20  C   UNL     1     -47.976 -28.937   0.504 -0.22 +0.00    +0.029 A  
DOCKED: ATOM     21  C   UNL     1     -46.903 -29.127  -0.364 -0.15 +0.00    +0.140 A  
DOCKED: ATOM     22  C   UNL     1     -46.340 -28.037  -1.027 -0.10 +0.00    +0.029 A  
DOCKED: ATOM     23  F   UNL     1     -46.412 -30.358  -0.563 -0.07 -0.00    -0.204 F  
DOCKED: ATOM     24  C   UNL     1     -46.851 -26.755  -0.821 -0.09 +0.00    +0.001 A  
DOCKED: ENDBRANCH   2  18
DOCKED: TORSDOF 5
DOCKED: TER
DOCKED: ENDMDL
________________________________________________________________________________


    FINAL DOCKED STATE:
    ________________________


Run:   256 / 512
Time taken for this run:   0.001s

DOCKED: MODEL        256
DOCKED: USER    Run = 256
DOCKED: USER
DOCKED: USER    Estimated Free Energy of Binding    =  -5.14 kcal/mol  [=(1)+(2)+(3)-(4)]
DOCKED: USER
DOCKED: USER    (1) Final Intermolecular Energy     =  -6.63 kcal/mol
DOCKED: USER        vdW + Hbond + desolv Energy     =  -6.63 kcal/mol
DOCKED: USER        Electrostatic Energy            =  +0.00 kcal/mol
DOCKED: USER        Moving Ligand-Fixed Receptor    =  -6.63 kcal/mol
DOCKED: USER        Moving Ligand-Moving Receptor   =  +0.00 kcal/mol
DOCKED: USER    (2) Final Total Internal Energy     =  -0.99 kcal/mol
DOCKED: USER    (3) Torsional Free Energy           =  +1.49 kcal/mol
DOCKED: USER    (4) Unbound System's Energy         =  -0.99 kcal/mol
DOCKED: USER
DOCKED: USER
DOCKED: REMARK  5 active torsions:
DOCKED: REMARK  status: ('A' for Active; 'I' for Inactive)
DOCKED: REMARK    1  A    between atoms: C_2  and  C_19 
DOCKED: REMARK    2  A    between atoms: C_2  and  C_11 
DOCKED: REMARK    3  A    between atoms: C_19  and  C_20 
DOCKED: REMARK    4  A    between atoms: C_20  and  C_21 
DOCKED: REMARK    5  A    between atoms: C_21  and  N_22 
DOCKED: USER                              x       y       z     vdW  Elec       q    Type
DOCKED: USER                           _______ _______ _______ _____ _____    ______ ____
DOCKED: ROOT
DOCKED: ATOM      1  O   UNL     1     -53.638 -33.410   8.605 -0.03 -0.00    -0.346 OA 
DOCKED: ATOM      2  C   UNL     1     -52.881 -32.337   7.959 -0.13 +0.00    +0.130 C  
DOCKED: ATOM      3  C   UNL     1     -52.992 -32.649   6.495 -0.29 +0.00    +0.004 A  
DOCKED: ATOM      4  C   UNL     1     -53.830 -33.740   6.312 -0.30 +0.00    +0.006 A  
DOCKED: ATOM      5  C   UNL     1     -54.334 -34.211   7.621 -0.17 +0.00    +0.169 C  
DOCKED: ATOM      6  C   UNL     1     -52.407 -32.012   5.410 -0.30 -0.00    -0.001 A  
DOCKED: ATOM      7  C   UNL     1     -54.107 -34.232   5.048 -0.40 +0.00    +0.008 A  
DOCKED: ATOM      8  C   UNL     1     -52.674 -32.498   4.129 -0.18 +0.00    +0.010 A  
DOCKED: ATOM      9  C   UNL     1     -53.520 -33.603   3.949 -0.41 +0.00    +0.068 A  
DOCKED: ATOM     10  N   UNL     1     -53.998 -34.478   1.558 -2.64 -0.00    -0.191 NA 
DOCKED: ATOM     11  C   UNL     1     -53.783 -34.086   2.631 -0.30 +0.00    +0.101 C  
DOCKED: ENDROOT
DOCKED: BRANCH   2  12
DOCKED: ATOM     12  C   UNL     1     -53.520 -31.004   8.331 -0.11 +0.00    +0.038 C  
DOCKED: BRANCH  12  13
DOCKED: ATOM     13  C   UNL     1     -52.644 -29.828   7.904 -0.14 +0.00    +0.038 C  
DOCKED: BRANCH  13  14
DOCKED: ATOM     14  C   UNL     1     -53.370 -28.940   6.896 -0.16 +0.00    +0.251 C  
DOCKED: BRANCH  14  15
DOCKED: ATOM     15  N   UNL     1     -52.565 -27.765   6.583 -0.15 +0.00    +0.141 N  
DOCKED: ATOM     16  C   UNL     1     -53.337 -26.807   5.790 -0.10 +0.00    +0.285 C  
DOCKED: ATOM     17  C   UNL     1     -52.078 -27.132   7.810 -0.04 +0.00    +0.285 C  
DOCKED: ENDBRANCH  14  15
DOCKED: ENDBRANCH  13  14
DOCKED: ENDBRANCH  12  13
DOCKED: ENDBRANCH   2  12
DOCKED: BRANCH   2  18
DOCKED: ATOM     18  C   UNL     1     -51.481 -32.423   8.468 -0.17 +0.00    +0.006 A  
DOCKED: ATOM     19  C   UNL     1     -51.213 -32.181   9.814 -0.10 +0.00    +0.001 A  
DOCKED: ATOM     20  C   UNL     1     -49.903 -32.262  10.289 -0.10 +0.00    +0.029 A  
DOCKED: ATOM     21  C   UNL     1     -48.864 -32.586   9.417 -0.07 +0.00    +0.140 A  
DOCKED: ATOM     22  C   UNL     1     -49.133 -32.828   8.070 -0.05 +0.00    +0.029 A  
DOCKED: ATOM     23  F   UNL     1     -47.607 -32.665   9.873 -0.03 -0.00    -0.204 F  
DOCKED: ATOM     24  C   UNL     1     -50.443 -32.747   7.594 -0.26 +0.00    +0.001 A  
DOCKED: ENDBRANCH   2  18
DOCKED: TORSDOF 5
DOCKED: TER
DOCKED: ENDMDL
________________________________________________________________________________


    FINAL DOCKED STATE:
    ________________________


Run:   257 / 512
Time taken for this run:   0.001s

DOCKED: MODEL        257
DOCKED: USER    Run = 257
DOCKED: USER
DOCKED: USER    Estimated Free Energy of Binding    =  -4.95 kcal/mol  [=(1)+(2)+(3)-(4)]
DOCKED: USER
DOCKED: USER    (1) Final Intermolecular Energy     =  -6.44 kcal/mol
DOCKED: USER        vdW + Hbond + desolv Energy     =  -6.44 kcal/mol
DOCKED: USER        Electrostatic Energy            =  +0.00 kcal/mol
DOCKED: USER        Moving Ligand-Fixed Receptor    =  -6.44 kcal/mol
DOCKED: USER        Moving Ligand-Moving Receptor   =  +0.00 kcal/mol
DOCKED: USER    (2) Final Total Internal Energy     =  -0.92 kcal/mol
DOCKED: USER    (3) Torsional Free Energy           =  +1.49 kcal/mol
DOCKED: USER    (4) Unbound System's Energy         =  -0.92 kcal/mol
DOCKED: USER
DOCKED: USER
DOCKED: REMARK  5 active torsions:
DOCKED: REMARK  status: ('A' for Active; 'I' for Inactive)
DOCKED: REMARK    1  A    between atoms: C_2  and  C_19 
DOCKED: REMARK    2  A    between atoms: C_2  and  C_11 
DOCKED: REMARK    3  A    between atoms: C_19  and  C_20 
DOCKED: REMARK    4  A    between atoms: C_20  and  C_21 
DOCKED: REMARK    5  A    between atoms: C_21  and  N_22 
DOCKED: USER                              x       y       z     vdW  Elec       q    Type
DOCKED: USER                           _______ _______ _______ _____ _____    ______ ____
DOCKED: ROOT
DOCKED: ATOM      1  O   UNL     1     -50.256 -24.901   1.315 -0.12 -0.00    -0.346 OA 
DOCKED: ATOM      2  C   UNL     1     -48.957 -25.051   0.659 -0.20 +0.00    +0.130 C  
DOCKED: ATOM      3  C   UNL     1     -49.165 -24.438  -0.695 -0.27 +0.00    +0.004 A  
DOCKED: ATOM      4  C   UNL     1     -50.436 -23.886  -0.768 -0.09 +0.00    +0.006 A  
DOCKED: ATOM      5  C   UNL     1     -51.142 -24.081   0.518 -0.14 +0.00    +0.169 C  
DOCKED: ATOM      6  C   UNL     1     -48.295 -24.364  -1.773 -0.24 -0.00    -0.001 A  
DOCKED: ATOM      7  C   UNL     1     -50.881 -23.248  -1.913 -0.13 +0.00    +0.008 A  
DOCKED: ATOM      8  C   UNL     1     -48.730 -23.728  -2.937 -0.26 +0.00    +0.010 A  
DOCKED: ATOM      9  C   UNL     1     -50.017 -23.173  -3.006 -0.28 +0.00    +0.068 A  
DOCKED: ATOM     10  N   UNL     1     -50.791 -21.996  -5.181 -2.54 -0.00    -0.191 NA 
DOCKED: ATOM     11  C   UNL     1     -50.444 -22.524  -4.206 -0.30 +0.00    +0.101 C  
DOCKED: ENDROOT
DOCKED: BRANCH   2  12
DOCKED: ATOM     12  C   UNL     1     -47.909 -24.318   1.488 -0.17 +0.00    +0.038 C  
DOCKED: BRANCH  12  13
DOCKED: ATOM     13  C   UNL     1     -47.864 -24.845   2.921 -0.13 +0.00    +0.038 C  
DOCKED: BRANCH  13  14
DOCKED: ATOM     14  C   UNL     1     -49.122 -24.448   3.692 -0.10 +0.00    +0.251 C  
DOCKED: BRANCH  14  15
DOCKED: ATOM     15  N   UNL     1     -48.766 -23.721   4.904 -0.08 +0.00    +0.141 N  
DOCKED: ATOM     16  C   UNL     1     -47.315 -23.719   5.097 -0.06 +0.00    +0.285 C  
DOCKED: ATOM     17  C   UNL     1     -49.273 -22.349   4.850 -0.10 +0.00    +0.285 C  
DOCKED: ENDBRANCH  14  15
DOCKED: ENDBRANCH  13  14
DOCKED: ENDBRANCH  12  13
DOCKED: ENDBRANCH   2  12
DOCKED: BRANCH   2  18
DOCKED: ATOM     18  C   UNL     1     -48.667 -26.514   0.596 -0.17 +0.00    +0.006 A  
DOCKED: ATOM     19  C   UNL     1     -49.289 -27.386   1.489 -0.19 +0.00    +0.001 A  
DOCKED: ATOM     20  C   UNL     1     -49.016 -28.754   1.429 -0.24 +0.00    +0.029 A  
DOCKED: ATOM     21  C   UNL     1     -48.124 -29.246   0.478 -0.19 +0.00    +0.140 A  
DOCKED: ATOM     22  C   UNL     1     -47.503 -28.373  -0.414 -0.18 +0.00    +0.029 A  
DOCKED: ATOM     23  F   UNL     1     -47.864 -30.559   0.420 -0.10 -0.00    -0.204 F  
DOCKED: ATOM     24  C   UNL     1     -47.774 -27.005  -0.355 -0.15 +0.00    +0.001 A  
DOCKED: ENDBRANCH   2  18
DOCKED: TORSDOF 5
DOCKED: TER
DOCKED: ENDMDL
________________________________________________________________________________


    FINAL DOCKED STATE:
    ________________________


Run:   258 / 512
Time taken for this run:   0.001s

DOCKED: MODEL        258
DOCKED: USER    Run = 258
DOCKED: USER
DOCKED: USER    Estimated Free Energy of Binding    =  -3.60 kcal/mol  [=(1)+(2)+(3)-(4)]
DOCKED: USER
DOCKED: USER    (1) Final Intermolecular Energy     =  -5.10 kcal/mol
DOCKED: USER        vdW + Hbond + desolv Energy     =  -5.10 kcal/mol
DOCKED: USER        Electrostatic Energy            =  +0.00 kcal/mol
DOCKED: USER        Moving Ligand-Fixed Receptor    =  -5.10 kcal/mol
DOCKED: USER        Moving Ligand-Moving Receptor   =  +0.00 kcal/mol
DOCKED: USER    (2) Final Total Internal Energy     =  -1.15 kcal/mol
DOCKED: USER    (3) Torsional Free Energy           =  +1.49 kcal/mol
DOCKED: USER    (4) Unbound System's Energy         =  -1.15 kcal/mol
DOCKED: USER
DOCKED: USER
DOCKED: REMARK  5 active torsions:
DOCKED: REMARK  status: ('A' for Active; 'I' for Inactive)
DOCKED: REMARK    1  A    between atoms: C_2  and  C_19 
DOCKED: REMARK    2  A    between atoms: C_2  and  C_11 
DOCKED: REMARK    3  A    between atoms: C_19  and  C_20 
DOCKED: REMARK    4  A    between atoms: C_20  and  C_21 
DOCKED: REMARK    5  A    between atoms: C_21  and  N_22 
DOCKED: USER                              x       y       z     vdW  Elec       q    Type
DOCKED: USER                           _______ _______ _______ _____ _____    ______ ____
DOCKED: ROOT
DOCKED: ATOM      1  O   UNL     1     -44.569 -21.107  -3.628 -0.00 -0.00    -0.346 OA 
DOCKED: ATOM      2  C   UNL     1     -45.049 -21.943  -2.528 -0.05 +0.00    +0.130 C  
DOCKED: ATOM      3  C   UNL     1     -46.505 -22.144  -2.837 -0.14 +0.00    +0.004 A  
DOCKED: ATOM      4  C   UNL     1     -46.805 -21.566  -4.063 -0.18 +0.00    +0.006 A  
DOCKED: ATOM      5  C   UNL     1     -45.586 -20.964  -4.647 -0.11 +0.00    +0.169 C  
DOCKED: ATOM      6  C   UNL     1     -47.482 -22.795  -2.098 -0.19 -0.00    -0.001 A  
DOCKED: ATOM      7  C   UNL     1     -48.085 -21.615  -4.587 -0.32 +0.00    +0.008 A  
DOCKED: ATOM      8  C   UNL     1     -48.779 -22.849  -2.612 -0.30 +0.00    +0.010 A  
DOCKED: ATOM      9  C   UNL     1     -49.079 -22.262  -3.851 -0.36 +0.00    +0.068 A  
DOCKED: ATOM     10  N   UNL     1     -51.495 -22.385  -4.778 -2.45 -0.00    -0.191 NA 
DOCKED: ATOM     11  C   UNL     1     -50.411 -22.329  -4.362 -0.36 +0.00    +0.101 C  
DOCKED: ENDROOT
DOCKED: BRANCH   2  12
DOCKED: ATOM     12  C   UNL     1     -44.257 -23.245  -2.530 -0.02 +0.00    +0.038 C  
DOCKED: BRANCH  12  13
DOCKED: ATOM     13  C   UNL     1     -42.968 -23.111  -3.338 -0.01 +0.00    +0.038 C  
DOCKED: BRANCH  13  14
DOCKED: ATOM     14  C   UNL     1     -42.082 -22.000  -2.777 +0.00 +0.00    +0.251 C  
DOCKED: BRANCH  14  15
DOCKED: ATOM     15  N   UNL     1     -40.688 -22.426  -2.754 -0.00 +0.00    +0.141 N  
DOCKED: ATOM     16  C   UNL     1     -39.951 -21.724  -1.702 +0.00 +0.00    +0.285 C  
DOCKED: ATOM     17  C   UNL     1     -40.594 -23.874  -2.559 +0.00 +0.00    +0.285 C  
DOCKED: ENDBRANCH  14  15
DOCKED: ENDBRANCH  13  14
DOCKED: ENDBRANCH  12  13
DOCKED: ENDBRANCH   2  12
DOCKED: BRANCH   2  18
DOCKED: ATOM     18  C   UNL     1     -44.823 -21.178  -1.267 -0.10 +0.00    +0.006 A  
DOCKED: ATOM     19  C   UNL     1     -45.237 -19.850  -1.174 -0.14 +0.00    +0.001 A  
DOCKED: ATOM     20  C   UNL     1     -45.024 -19.135   0.006 -0.12 +0.00    +0.029 A  
DOCKED: ATOM     21  C   UNL     1     -44.399 -19.749   1.090 -0.06 +0.00    +0.140 A  
DOCKED: ATOM     22  C   UNL     1     -43.985 -21.078   0.996 -0.08 +0.00    +0.029 A  
DOCKED: ATOM     23  F   UNL     1     -44.196 -19.064   2.223 -0.03 -0.00    -0.204 F  
DOCKED: ATOM     24  C   UNL     1     -44.197 -21.793  -0.183 -0.08 +0.00    +0.001 A  
DOCKED: ENDBRANCH   2  18
DOCKED: TORSDOF 5
DOCKED: TER
DOCKED: ENDMDL
________________________________________________________________________________


    FINAL DOCKED STATE:
    ________________________


Run:   259 / 512
Time taken for this run:   0.001s

DOCKED: MODEL        259
DOCKED: USER    Run = 259
DOCKED: USER
DOCKED: USER    Estimated Free Energy of Binding    =  -4.49 kcal/mol  [=(1)+(2)+(3)-(4)]
DOCKED: USER
DOCKED: USER    (1) Final Intermolecular Energy     =  -5.98 kcal/mol
DOCKED: USER        vdW + Hbond + desolv Energy     =  -5.98 kcal/mol
DOCKED: USER        Electrostatic Energy            =  +0.00 kcal/mol
DOCKED: USER        Moving Ligand-Fixed Receptor    =  -5.98 kcal/mol
DOCKED: USER        Moving Ligand-Moving Receptor   =  +0.00 kcal/mol
DOCKED: USER    (2) Final Total Internal Energy     =  -1.13 kcal/mol
DOCKED: USER    (3) Torsional Free Energy           =  +1.49 kcal/mol
DOCKED: USER    (4) Unbound System's Energy         =  -1.13 kcal/mol
DOCKED: USER
DOCKED: USER
DOCKED: REMARK  5 active torsions:
DOCKED: REMARK  status: ('A' for Active; 'I' for Inactive)
DOCKED: REMARK    1  A    between atoms: C_2  and  C_19 
DOCKED: REMARK    2  A    between atoms: C_2  and  C_11 
DOCKED: REMARK    3  A    between atoms: C_19  and  C_20 
DOCKED: REMARK    4  A    between atoms: C_20  and  C_21 
DOCKED: REMARK    5  A    between atoms: C_21  and  N_22 
DOCKED: USER                              x       y       z     vdW  Elec       q    Type
DOCKED: USER                           _______ _______ _______ _____ _____    ______ ____
DOCKED: ROOT
DOCKED: ATOM      1  O   UNL     1     -53.752 -31.378   8.239 -0.01 -0.00    -0.346 OA 
DOCKED: ATOM      2  C   UNL     1     -52.452 -32.005   7.998 -0.13 +0.00    +0.130 C  
DOCKED: ATOM      3  C   UNL     1     -52.622 -32.688   6.672 -0.29 +0.00    +0.004 A  
DOCKED: ATOM      4  C   UNL     1     -53.871 -32.386   6.148 -0.27 +0.00    +0.006 A  
DOCKED: ATOM      5  C   UNL     1     -54.599 -31.486   7.071 -0.17 +0.00    +0.169 C  
DOCKED: ATOM      6  C   UNL     1     -51.737 -33.501   5.979 -0.36 -0.00    -0.001 A  
DOCKED: ATOM      7  C   UNL     1     -54.279 -32.887   4.923 -0.13 +0.00    +0.008 A  
DOCKED: ATOM      8  C   UNL     1     -52.135 -34.018   4.745 -0.15 +0.00    +0.010 A  
DOCKED: ATOM      9  C   UNL     1     -53.400 -33.711   4.220 -0.42 +0.00    +0.068 A  
DOCKED: ATOM     10  N   UNL     1     -54.106 -34.683   1.924 -2.14 -0.00    -0.191 NA 
DOCKED: ATOM     11  C   UNL     1     -53.789 -34.247   2.954 -0.36 +0.00    +0.101 C  
DOCKED: ENDROOT
DOCKED: BRANCH   2  12
DOCKED: ATOM     12  C   UNL     1     -51.388 -30.915   7.972 -0.17 +0.00    +0.038 C  
DOCKED: BRANCH  12  13
DOCKED: ATOM     13  C   UNL     1     -50.006 -31.492   7.672 -0.16 +0.00    +0.038 C  
DOCKED: BRANCH  13  14
DOCKED: ATOM     14  C   UNL     1     -48.904 -30.611   8.257 -0.09 +0.00    +0.251 C  
DOCKED: BRANCH  14  15
DOCKED: ATOM     15  N   UNL     1     -48.232 -31.300   9.353 -0.08 +0.00    +0.141 N  
DOCKED: ATOM     16  C   UNL     1     -49.085 -31.330  10.543 -0.03 +0.00    +0.285 C  
DOCKED: ATOM     17  C   UNL     1     -47.864 -32.661   8.958 -0.07 +0.00    +0.285 C  
DOCKED: ENDBRANCH  14  15
DOCKED: ENDBRANCH  13  14
DOCKED: ENDBRANCH  12  13
DOCKED: ENDBRANCH   2  12
DOCKED: BRANCH   2  18
DOCKED: ATOM     18  C   UNL     1     -52.215 -32.962   9.119 -0.14 +0.00    +0.006 A  
DOCKED: ATOM     19  C   UNL     1     -51.833 -34.275   8.844 -0.27 +0.00    +0.001 A  
DOCKED: ATOM     20  C   UNL     1     -51.612 -35.169   9.893 -0.09 +0.00    +0.029 A  
DOCKED: ATOM     21  C   UNL     1     -51.773 -34.749  11.213 -0.18 +0.00    +0.140 A  
DOCKED: ATOM     22  C   UNL     1     -52.155 -33.436  11.486 -0.11 +0.00    +0.029 A  
DOCKED: ATOM     23  F   UNL     1     -51.559 -35.607  12.219 -0.09 -0.00    -0.204 F  
DOCKED: ATOM     24  C   UNL     1     -52.376 -32.541  10.438 -0.08 +0.00    +0.001 A  
DOCKED: ENDBRANCH   2  18
DOCKED: TORSDOF 5
DOCKED: TER
DOCKED: ENDMDL
________________________________________________________________________________


    FINAL DOCKED STATE:
    ________________________


Run:   260 / 512
Time taken for this run:   0.001s

DOCKED: MODEL        260
DOCKED: USER    Run = 260
DOCKED: USER
DOCKED: USER    Estimated Free Energy of Binding    =  -4.27 kcal/mol  [=(1)+(2)+(3)-(4)]
DOCKED: USER
DOCKED: USER    (1) Final Intermolecular Energy     =  -5.76 kcal/mol
DOCKED: USER        vdW + Hbond + desolv Energy     =  -5.76 kcal/mol
DOCKED: USER        Electrostatic Energy            =  +0.00 kcal/mol
DOCKED: USER        Moving Ligand-Fixed Receptor    =  -5.76 kcal/mol
DOCKED: USER        Moving Ligand-Moving Receptor   =  +0.00 kcal/mol
DOCKED: USER    (2) Final Total Internal Energy     =  -1.51 kcal/mol
DOCKED: USER    (3) Torsional Free Energy           =  +1.49 kcal/mol
DOCKED: USER    (4) Unbound System's Energy         =  -1.51 kcal/mol
DOCKED: USER
DOCKED: USER
DOCKED: REMARK  5 active torsions:
DOCKED: REMARK  status: ('A' for Active; 'I' for Inactive)
DOCKED: REMARK    1  A    between atoms: C_2  and  C_19 
DOCKED: REMARK    2  A    between atoms: C_2  and  C_11 
DOCKED: REMARK    3  A    between atoms: C_19  and  C_20 
DOCKED: REMARK    4  A    between atoms: C_20  and  C_21 
DOCKED: REMARK    5  A    between atoms: C_21  and  N_22 
DOCKED: USER                              x       y       z     vdW  Elec       q    Type
DOCKED: USER                           _______ _______ _______ _____ _____    ______ ____
DOCKED: ROOT
DOCKED: ATOM      1  O   UNL     1     -51.479 -29.266   7.881 -0.03 -0.00    -0.346 OA 
DOCKED: ATOM      2  C   UNL     1     -52.941 -29.311   7.849 -0.12 +0.00    +0.130 C  
DOCKED: ATOM      3  C   UNL     1     -53.247 -30.635   7.211 -0.21 +0.00    +0.004 A  
DOCKED: ATOM      4  C   UNL     1     -52.067 -31.334   6.998 -0.25 +0.00    +0.006 A  
DOCKED: ATOM      5  C   UNL     1     -50.917 -30.539   7.485 -0.16 +0.00    +0.169 C  
DOCKED: ATOM      6  C   UNL     1     -54.472 -31.181   6.857 -0.22 -0.00    -0.001 A  
DOCKED: ATOM      7  C   UNL     1     -52.070 -32.593   6.424 -0.33 +0.00    +0.008 A  
DOCKED: ATOM      8  C   UNL     1     -54.491 -32.449   6.273 -0.24 +0.00    +0.010 A  
DOCKED: ATOM      9  C   UNL     1     -53.295 -33.152   6.058 -0.28 +0.00    +0.068 A  
DOCKED: ATOM     10  N   UNL     1     -53.366 -35.505   4.977 -2.36 -0.00    -0.191 NA 
DOCKED: ATOM     11  C   UNL     1     -53.334 -34.449   5.461 -0.40 +0.00    +0.101 C  
DOCKED: ENDROOT
DOCKED: BRANCH   2  12
DOCKED: ATOM     12  C   UNL     1     -53.459 -29.208   9.279 -0.04 +0.00    +0.038 C  
DOCKED: BRANCH  12  13
DOCKED: ATOM     13  C   UNL     1     -52.797 -30.243  10.187 -0.03 +0.00    +0.038 C  
DOCKED: BRANCH  13  14
DOCKED: ATOM     14  C   UNL     1     -53.797 -31.314  10.619 -0.01 +0.00    +0.251 C  
DOCKED: BRANCH  14  15
DOCKED: ATOM     15  N   UNL     1     -53.616 -32.526   9.828 -0.05 +0.00    +0.141 N  
DOCKED: ATOM     16  C   UNL     1     -52.514 -33.329  10.360 -0.07 +0.00    +0.285 C  
DOCKED: ATOM     17  C   UNL     1     -54.850 -33.313   9.800 -0.04 +0.00    +0.285 C  
DOCKED: ENDBRANCH  14  15
DOCKED: ENDBRANCH  13  14
DOCKED: ENDBRANCH  12  13
DOCKED: ENDBRANCH   2  12
DOCKED: BRANCH   2  18
DOCKED: ATOM     18  C   UNL     1     -53.395 -28.150   7.028 -0.19 +0.00    +0.006 A  
DOCKED: ATOM     19  C   UNL     1     -54.690 -27.655   7.177 -0.18 +0.00    +0.001 A  
DOCKED: ATOM     20  C   UNL     1     -55.113 -26.571   6.408 -0.17 +0.00    +0.029 A  
DOCKED: ATOM     21  C   UNL     1     -54.242 -25.982   5.492 -0.10 +0.00    +0.140 A  
DOCKED: ATOM     22  C   UNL     1     -52.947 -26.478   5.344 -0.12 +0.00    +0.029 A  
DOCKED: ATOM     23  F   UNL     1     -54.648 -24.940   4.756 -0.03 -0.00    -0.204 F  
DOCKED: ATOM     24  C   UNL     1     -52.522 -27.563   6.112 -0.14 +0.00    +0.001 A  
DOCKED: ENDBRANCH   2  18
DOCKED: TORSDOF 5
DOCKED: TER
DOCKED: ENDMDL
________________________________________________________________________________


    FINAL DOCKED STATE:
    ________________________


Run:   261 / 512
Time taken for this run:   0.001s

DOCKED: MODEL        261
DOCKED: USER    Run = 261
DOCKED: USER
DOCKED: USER    Estimated Free Energy of Binding    =  -5.06 kcal/mol  [=(1)+(2)+(3)-(4)]
DOCKED: USER
DOCKED: USER    (1) Final Intermolecular Energy     =  -6.55 kcal/mol
DOCKED: USER        vdW + Hbond + desolv Energy     =  -6.55 kcal/mol
DOCKED: USER        Electrostatic Energy            =  +0.00 kcal/mol
DOCKED: USER        Moving Ligand-Fixed Receptor    =  -6.55 kcal/mol
DOCKED: USER        Moving Ligand-Moving Receptor   =  +0.00 kcal/mol
DOCKED: USER    (2) Final Total Internal Energy     =  -1.11 kcal/mol
DOCKED: USER    (3) Torsional Free Energy           =  +1.49 kcal/mol
DOCKED: USER    (4) Unbound System's Energy         =  -1.11 kcal/mol
DOCKED: USER
DOCKED: USER
DOCKED: REMARK  5 active torsions:
DOCKED: REMARK  status: ('A' for Active; 'I' for Inactive)
DOCKED: REMARK    1  A    between atoms: C_2  and  C_19 
DOCKED: REMARK    2  A    between atoms: C_2  and  C_11 
DOCKED: REMARK    3  A    between atoms: C_19  and  C_20 
DOCKED: REMARK    4  A    between atoms: C_20  and  C_21 
DOCKED: REMARK    5  A    between atoms: C_21  and  N_22 
DOCKED: USER                              x       y       z     vdW  Elec       q    Type
DOCKED: USER                           _______ _______ _______ _____ _____    ______ ____
DOCKED: ROOT
DOCKED: ATOM      1  O   UNL     1     -51.035 -33.290   7.945 -0.12 -0.00    -0.346 OA 
DOCKED: ATOM      2  C   UNL     1     -52.416 -32.811   8.006 -0.16 +0.00    +0.130 C  
DOCKED: ATOM      3  C   UNL     1     -52.957 -33.097   6.635 -0.29 +0.00    +0.004 A  
DOCKED: ATOM      4  C   UNL     1     -52.005 -33.779   5.891 -0.40 +0.00    +0.006 A  
DOCKED: ATOM      5  C   UNL     1     -50.792 -34.000   6.708 -0.21 +0.00    +0.169 C  
DOCKED: ATOM      6  C   UNL     1     -54.196 -32.788   6.094 -0.28 -0.00    -0.001 A  
DOCKED: ATOM      7  C   UNL     1     -52.255 -34.170   4.586 -0.33 +0.00    +0.008 A  
DOCKED: ATOM      8  C   UNL     1     -54.462 -33.172   4.778 -0.24 +0.00    +0.010 A  
DOCKED: ATOM      9  C   UNL     1     -53.496 -33.859   4.029 -0.43 +0.00    +0.068 A  
DOCKED: ATOM     10  N   UNL     1     -54.024 -34.561   1.591 -2.55 -0.00    -0.191 NA 
DOCKED: ATOM     11  C   UNL     1     -53.787 -34.246   2.684 -0.33 +0.00    +0.101 C  
DOCKED: ENDROOT
DOCKED: BRANCH   2  12
DOCKED: ATOM     12  C   UNL     1     -53.145 -33.579   9.103 -0.19 +0.00    +0.038 C  
DOCKED: BRANCH  12  13
DOCKED: ATOM     13  C   UNL     1     -52.326 -34.775   9.584 -0.26 +0.00    +0.038 C  
DOCKED: BRANCH  13  14
DOCKED: ATOM     14  C   UNL     1     -52.288 -34.838  11.110 -0.08 +0.00    +0.251 C  
DOCKED: BRANCH  14  15
DOCKED: ATOM     15  N   UNL     1     -53.323 -33.983  11.678 -0.09 +0.00    +0.141 N  
DOCKED: ATOM     16  C   UNL     1     -54.000 -34.660  12.786 -0.08 +0.00    +0.285 C  
DOCKED: ATOM     17  C   UNL     1     -52.753 -32.714  12.131 -0.02 +0.00    +0.285 C  
DOCKED: ENDBRANCH  14  15
DOCKED: ENDBRANCH  13  14
DOCKED: ENDBRANCH  12  13
DOCKED: ENDBRANCH   2  12
DOCKED: BRANCH   2  18
DOCKED: ATOM     18  C   UNL     1     -52.359 -31.353   8.317 -0.11 +0.00    +0.006 A  
DOCKED: ATOM     19  C   UNL     1     -51.589 -30.502   7.525 -0.18 +0.00    +0.001 A  
DOCKED: ATOM     20  C   UNL     1     -51.537 -29.138   7.817 -0.11 +0.00    +0.029 A  
DOCKED: ATOM     21  C   UNL     1     -52.253 -28.628   8.898 -0.03 +0.00    +0.140 A  
DOCKED: ATOM     22  C   UNL     1     -53.024 -29.480   9.689 -0.02 +0.00    +0.029 A  
DOCKED: ATOM     23  F   UNL     1     -52.204 -27.319   9.177 +0.00 -0.00    -0.204 F  
DOCKED: ATOM     24  C   UNL     1     -53.077 -30.844   9.399 -0.05 +0.00    +0.001 A  
DOCKED: ENDBRANCH   2  18
DOCKED: TORSDOF 5
DOCKED: TER
DOCKED: ENDMDL
________________________________________________________________________________


    FINAL DOCKED STATE:
    ________________________


Run:   262 / 512
Time taken for this run:   0.001s

DOCKED: MODEL        262
DOCKED: USER    Run = 262
DOCKED: USER
DOCKED: USER    Estimated Free Energy of Binding    =  -4.11 kcal/mol  [=(1)+(2)+(3)-(4)]
DOCKED: USER
DOCKED: USER    (1) Final Intermolecular Energy     =  -5.60 kcal/mol
DOCKED: USER        vdW + Hbond + desolv Energy     =  -5.60 kcal/mol
DOCKED: USER        Electrostatic Energy            =  +0.00 kcal/mol
DOCKED: USER        Moving Ligand-Fixed Receptor    =  -5.60 kcal/mol
DOCKED: USER        Moving Ligand-Moving Receptor   =  +0.00 kcal/mol
DOCKED: USER    (2) Final Total Internal Energy     =  -1.05 kcal/mol
DOCKED: USER    (3) Torsional Free Energy           =  +1.49 kcal/mol
DOCKED: USER    (4) Unbound System's Energy         =  -1.05 kcal/mol
DOCKED: USER
DOCKED: USER
DOCKED: REMARK  5 active torsions:
DOCKED: REMARK  status: ('A' for Active; 'I' for Inactive)
DOCKED: REMARK    1  A    between atoms: C_2  and  C_19 
DOCKED: REMARK    2  A    between atoms: C_2  and  C_11 
DOCKED: REMARK    3  A    between atoms: C_19  and  C_20 
DOCKED: REMARK    4  A    between atoms: C_20  and  C_21 
DOCKED: REMARK    5  A    between atoms: C_21  and  N_22 
DOCKED: USER                              x       y       z     vdW  Elec       q    Type
DOCKED: USER                           _______ _______ _______ _____ _____    ______ ____
DOCKED: ROOT
DOCKED: ATOM      1  O   UNL     1     -44.800 -23.996  -1.917 +0.00 -0.00    -0.346 OA 
DOCKED: ATOM      2  C   UNL     1     -45.925 -24.622  -1.221 -0.05 +0.00    +0.130 C  
DOCKED: ATOM      3  C   UNL     1     -47.131 -24.103  -1.949 -0.14 +0.00    +0.004 A  
DOCKED: ATOM      4  C   UNL     1     -46.729 -23.336  -3.033 -0.12 +0.00    +0.006 A  
DOCKED: ATOM      5  C   UNL     1     -45.251 -23.305  -3.105 -0.02 +0.00    +0.169 C  
DOCKED: ATOM      6  C   UNL     1     -48.477 -24.303  -1.679 -0.25 -0.00    -0.001 A  
DOCKED: ATOM      7  C   UNL     1     -47.651 -22.742  -3.877 -0.22 +0.00    +0.008 A  
DOCKED: ATOM      8  C   UNL     1     -49.420 -23.707  -2.519 -0.30 +0.00    +0.010 A  
DOCKED: ATOM      9  C   UNL     1     -49.008 -22.930  -3.613 -0.30 +0.00    +0.068 A  
DOCKED: ATOM     10  N   UNL     1     -50.783 -21.842  -5.155 -2.46 -0.00    -0.191 NA 
DOCKED: ATOM     11  C   UNL     1     -49.987 -22.330  -4.463 -0.43 +0.00    +0.101 C  
DOCKED: ENDROOT
DOCKED: BRANCH   2  12
DOCKED: ATOM     12  C   UNL     1     -45.775 -26.135  -1.326 -0.04 +0.00    +0.038 C  
DOCKED: BRANCH  12  13
DOCKED: ATOM     13  C   UNL     1     -46.394 -26.668  -2.617 -0.11 +0.00    +0.038 C  
DOCKED: BRANCH  13  14
DOCKED: ATOM     14  C   UNL     1     -47.241 -27.910  -2.348 -0.18 +0.00    +0.251 C  
DOCKED: BRANCH  14  15
DOCKED: ATOM     15  N   UNL     1     -46.424 -28.964  -1.758 -0.16 +0.00    +0.141 N  
DOCKED: ATOM     16  C   UNL     1     -47.036 -29.462  -0.525 -0.14 +0.00    +0.285 C  
DOCKED: ATOM     17  C   UNL     1     -46.232 -30.061  -2.708 -0.15 +0.00    +0.285 C  
DOCKED: ENDBRANCH  14  15
DOCKED: ENDBRANCH  13  14
DOCKED: ENDBRANCH  12  13
DOCKED: ENDBRANCH   2  12
DOCKED: BRANCH   2  18
DOCKED: ATOM     18  C   UNL     1     -45.865 -24.172   0.200 -0.10 +0.00    +0.006 A  
DOCKED: ATOM     19  C   UNL     1     -46.759 -24.693   1.134 -0.12 +0.00    +0.001 A  
DOCKED: ATOM     20  C   UNL     1     -46.702 -24.272   2.463 -0.11 +0.00    +0.029 A  
DOCKED: ATOM     21  C   UNL     1     -45.751 -23.331   2.856 -0.01 +0.00    +0.140 A  
DOCKED: ATOM     22  C   UNL     1     -44.856 -22.810   1.921 -0.08 +0.00    +0.029 A  
DOCKED: ATOM     23  F   UNL     1     -45.695 -22.928   4.132 -0.03 -0.00    -0.204 F  
DOCKED: ATOM     24  C   UNL     1     -44.913 -23.231   0.591 -0.09 +0.00    +0.001 A  
DOCKED: ENDBRANCH   2  18
DOCKED: TORSDOF 5
DOCKED: TER
DOCKED: ENDMDL
________________________________________________________________________________


    FINAL DOCKED STATE:
    ________________________


Run:   263 / 512
Time taken for this run:   0.001s

DOCKED: MODEL        263
DOCKED: USER    Run = 263
DOCKED: USER
DOCKED: USER    Estimated Free Energy of Binding    =  -4.10 kcal/mol  [=(1)+(2)+(3)-(4)]
DOCKED: USER
DOCKED: USER    (1) Final Intermolecular Energy     =  -5.59 kcal/mol
DOCKED: USER        vdW + Hbond + desolv Energy     =  -5.59 kcal/mol
DOCKED: USER        Electrostatic Energy            =  +0.00 kcal/mol
DOCKED: USER        Moving Ligand-Fixed Receptor    =  -5.59 kcal/mol
DOCKED: USER        Moving Ligand-Moving Receptor   =  +0.00 kcal/mol
DOCKED: USER    (2) Final Total Internal Energy     =  -1.33 kcal/mol
DOCKED: USER    (3) Torsional Free Energy           =  +1.49 kcal/mol
DOCKED: USER    (4) Unbound System's Energy         =  -1.33 kcal/mol
DOCKED: USER
DOCKED: USER
DOCKED: REMARK  5 active torsions:
DOCKED: REMARK  status: ('A' for Active; 'I' for Inactive)
DOCKED: REMARK    1  A    between atoms: C_2  and  C_19 
DOCKED: REMARK    2  A    between atoms: C_2  and  C_11 
DOCKED: REMARK    3  A    between atoms: C_19  and  C_20 
DOCKED: REMARK    4  A    between atoms: C_20  and  C_21 
DOCKED: REMARK    5  A    between atoms: C_21  and  N_22 
DOCKED: USER                              x       y       z     vdW  Elec       q    Type
DOCKED: USER                           _______ _______ _______ _____ _____    ______ ____
DOCKED: ROOT
DOCKED: ATOM      1  O   UNL     1     -49.072 -31.403   9.056 -0.06 -0.00    -0.346 OA 
DOCKED: ATOM      2  C   UNL     1     -49.896 -30.515   8.236 -0.12 +0.00    +0.130 C  
DOCKED: ATOM      3  C   UNL     1     -50.755 -31.454   7.441 -0.21 +0.00    +0.004 A  
DOCKED: ATOM      4  C   UNL     1     -50.522 -32.760   7.849 -0.26 +0.00    +0.006 A  
DOCKED: ATOM      5  C   UNL     1     -49.517 -32.774   8.936 -0.09 +0.00    +0.169 C  
DOCKED: ATOM      6  C   UNL     1     -51.678 -31.175   6.443 -0.28 -0.00    -0.001 A  
DOCKED: ATOM      7  C   UNL     1     -51.194 -33.826   7.276 -0.36 +0.00    +0.008 A  
DOCKED: ATOM      8  C   UNL     1     -52.361 -32.240   5.852 -0.35 +0.00    +0.010 A  
DOCKED: ATOM      9  C   UNL     1     -52.121 -33.558   6.267 -0.32 +0.00    +0.068 A  
DOCKED: ATOM     10  N   UNL     1     -53.410 -35.510   5.153 -2.50 -0.00    -0.191 NA 
DOCKED: ATOM     11  C   UNL     1     -52.831 -34.634   5.653 -0.28 +0.00    +0.101 C  
DOCKED: ENDROOT
DOCKED: BRANCH   2  12
DOCKED: ATOM     12  C   UNL     1     -50.703 -29.613   9.163 -0.05 +0.00    +0.038 C  
DOCKED: BRANCH  12  13
DOCKED: ATOM     13  C   UNL     1     -51.990 -30.296   9.623 -0.05 +0.00    +0.038 C  
DOCKED: BRANCH  13  14
DOCKED: ATOM     14  C   UNL     1     -51.756 -31.106  10.897 -0.01 +0.00    +0.251 C  
DOCKED: BRANCH  14  15
DOCKED: ATOM     15  N   UNL     1     -52.917 -31.939  11.188 -0.02 +0.00    +0.141 N  
DOCKED: ATOM     16  C   UNL     1     -54.139 -31.134  11.203 -0.00 +0.00    +0.285 C  
DOCKED: ATOM     17  C   UNL     1     -53.034 -33.021  10.209 -0.05 +0.00    +0.285 C  
DOCKED: ENDBRANCH  14  15
DOCKED: ENDBRANCH  13  14
DOCKED: ENDBRANCH  12  13
DOCKED: ENDBRANCH   2  12
DOCKED: BRANCH   2  18
DOCKED: ATOM     18  C   UNL     1     -48.965 -29.717   7.386 -0.12 +0.00    +0.006 A  
DOCKED: ATOM     19  C   UNL     1     -47.626 -30.089   7.280 -0.06 +0.00    +0.001 A  
DOCKED: ATOM     20  C   UNL     1     -46.756 -29.342   6.485 -0.10 +0.00    +0.029 A  
DOCKED: ATOM     21  C   UNL     1     -47.227 -28.225   5.796 -0.07 +0.00    +0.140 A  
DOCKED: ATOM     22  C   UNL     1     -48.567 -27.853   5.902 -0.10 +0.00    +0.029 A  
DOCKED: ATOM     23  F   UNL     1     -46.392 -27.509   5.031 -0.00 -0.00    -0.204 F  
DOCKED: ATOM     24  C   UNL     1     -49.437 -28.599   6.698 -0.14 +0.00    +0.001 A  
DOCKED: ENDBRANCH   2  18
DOCKED: TORSDOF 5
DOCKED: TER
DOCKED: ENDMDL
________________________________________________________________________________


    FINAL DOCKED STATE:
    ________________________


Run:   264 / 512
Time taken for this run:   0.001s

DOCKED: MODEL        264
DOCKED: USER    Run = 264
DOCKED: USER
DOCKED: USER    Estimated Free Energy of Binding    =  -3.74 kcal/mol  [=(1)+(2)+(3)-(4)]
DOCKED: USER
DOCKED: USER    (1) Final Intermolecular Energy     =  -5.23 kcal/mol
DOCKED: USER        vdW + Hbond + desolv Energy     =  -5.23 kcal/mol
DOCKED: USER        Electrostatic Energy            =  +0.00 kcal/mol
DOCKED: USER        Moving Ligand-Fixed Receptor    =  -5.23 kcal/mol
DOCKED: USER        Moving Ligand-Moving Receptor   =  +0.00 kcal/mol
DOCKED: USER    (2) Final Total Internal Energy     =  -1.32 kcal/mol
DOCKED: USER    (3) Torsional Free Energy           =  +1.49 kcal/mol
DOCKED: USER    (4) Unbound System's Energy         =  -1.32 kcal/mol
DOCKED: USER
DOCKED: USER
DOCKED: REMARK  5 active torsions:
DOCKED: REMARK  status: ('A' for Active; 'I' for Inactive)
DOCKED: REMARK    1  A    between atoms: C_2  and  C_19 
DOCKED: REMARK    2  A    between atoms: C_2  and  C_11 
DOCKED: REMARK    3  A    between atoms: C_19  and  C_20 
DOCKED: REMARK    4  A    between atoms: C_20  and  C_21 
DOCKED: REMARK    5  A    between atoms: C_21  and  N_22 
DOCKED: USER                              x       y       z     vdW  Elec       q    Type
DOCKED: USER                           _______ _______ _______ _____ _____    ______ ____
DOCKED: ROOT
DOCKED: ATOM      1  O   UNL     1     -53.779 -29.848   9.312 -0.00 -0.00    -0.346 OA 
DOCKED: ATOM      2  C   UNL     1     -55.064 -29.977   8.626 -0.07 +0.00    +0.130 C  
DOCKED: ATOM      3  C   UNL     1     -54.876 -31.169   7.732 -0.16 +0.00    +0.004 A  
DOCKED: ATOM      4  C   UNL     1     -53.633 -31.738   7.968 -0.13 +0.00    +0.006 A  
DOCKED: ATOM      5  C   UNL     1     -52.927 -30.982   9.027 -0.05 +0.00    +0.169 C  
DOCKED: ATOM      6  C   UNL     1     -55.741 -31.714   6.794 -0.24 -0.00    -0.001 A  
DOCKED: ATOM      7  C   UNL     1     -53.211 -32.861   7.277 -0.21 +0.00    +0.008 A  
DOCKED: ATOM      8  C   UNL     1     -55.329 -32.843   6.086 -0.27 +0.00    +0.010 A  
DOCKED: ATOM      9  C   UNL     1     -54.070 -33.414   6.326 -0.23 +0.00    +0.068 A  
DOCKED: ATOM     10  N   UNL     1     -53.337 -35.513   4.996 -2.35 -0.00    -0.191 NA 
DOCKED: ATOM     11  C   UNL     1     -53.666 -34.571   5.592 -0.32 +0.00    +0.101 C  
DOCKED: ENDROOT
DOCKED: BRANCH   2  12
DOCKED: ATOM     12  C   UNL     1     -56.152 -30.186   9.673 -0.06 +0.00    +0.038 C  
DOCKED: BRANCH  12  13
DOCKED: ATOM     13  C   UNL     1     -56.411 -31.671   9.918 -0.08 +0.00    +0.038 C  
DOCKED: BRANCH  13  14
DOCKED: ATOM     14  C   UNL     1     -56.314 -32.008  11.405 -0.00 +0.00    +0.251 C  
DOCKED: BRANCH  14  15
DOCKED: ATOM     15  N   UNL     1     -55.783 -33.354  11.586 -0.04 +0.00    +0.141 N  
DOCKED: ATOM     16  C   UNL     1     -56.137 -34.205  10.450 -0.04 +0.00    +0.285 C  
DOCKED: ATOM     17  C   UNL     1     -54.330 -33.316  11.760 -0.03 +0.00    +0.285 C  
DOCKED: ENDBRANCH  14  15
DOCKED: ENDBRANCH  13  14
DOCKED: ENDBRANCH  12  13
DOCKED: ENDBRANCH   2  12
DOCKED: BRANCH   2  18
DOCKED: ATOM     18  C   UNL     1     -55.284 -28.711   7.867 -0.14 +0.00    +0.006 A  
DOCKED: ATOM     19  C   UNL     1     -56.565 -28.369   7.437 -0.19 +0.00    +0.001 A  
DOCKED: ATOM     20  C   UNL     1     -56.768 -27.185   6.727 -0.19 +0.00    +0.029 A  
DOCKED: ATOM     21  C   UNL     1     -55.691 -26.345   6.450 -0.12 +0.00    +0.140 A  
DOCKED: ATOM     22  C   UNL     1     -54.410 -26.687   6.880 -0.14 +0.00    +0.029 A  
DOCKED: ATOM     23  F   UNL     1     -55.887 -25.207   5.770 -0.02 -0.00    -0.204 F  
DOCKED: ATOM     24  C   UNL     1     -54.205 -27.872   7.590 -0.14 +0.00    +0.001 A  
DOCKED: ENDBRANCH   2  18
DOCKED: TORSDOF 5
DOCKED: TER
DOCKED: ENDMDL
________________________________________________________________________________


    FINAL DOCKED STATE:
    ________________________


Run:   265 / 512
Time taken for this run:   0.001s

DOCKED: MODEL        265
DOCKED: USER    Run = 265
DOCKED: USER
DOCKED: USER    Estimated Free Energy of Binding    =  -5.32 kcal/mol  [=(1)+(2)+(3)-(4)]
DOCKED: USER
DOCKED: USER    (1) Final Intermolecular Energy     =  -6.81 kcal/mol
DOCKED: USER        vdW + Hbond + desolv Energy     =  -6.81 kcal/mol
DOCKED: USER        Electrostatic Energy            =  +0.00 kcal/mol
DOCKED: USER        Moving Ligand-Fixed Receptor    =  -6.81 kcal/mol
DOCKED: USER        Moving Ligand-Moving Receptor   =  +0.00 kcal/mol
DOCKED: USER    (2) Final Total Internal Energy     =  -1.22 kcal/mol
DOCKED: USER    (3) Torsional Free Energy           =  +1.49 kcal/mol
DOCKED: USER    (4) Unbound System's Energy         =  -1.22 kcal/mol
DOCKED: USER
DOCKED: USER
DOCKED: REMARK  5 active torsions:
DOCKED: REMARK  status: ('A' for Active; 'I' for Inactive)
DOCKED: REMARK    1  A    between atoms: C_2  and  C_19 
DOCKED: REMARK    2  A    between atoms: C_2  and  C_11 
DOCKED: REMARK    3  A    between atoms: C_19  and  C_20 
DOCKED: REMARK    4  A    between atoms: C_20  and  C_21 
DOCKED: REMARK    5  A    between atoms: C_21  and  N_22 
DOCKED: USER                              x       y       z     vdW  Elec       q    Type
DOCKED: USER                           _______ _______ _______ _____ _____    ______ ____
DOCKED: ROOT
DOCKED: ATOM      1  O   UNL     1     -55.251 -32.427   8.172 -0.00 -0.00    -0.346 OA 
DOCKED: ATOM      2  C   UNL     1     -53.807 -32.281   7.988 -0.12 +0.00    +0.130 C  
DOCKED: ATOM      3  C   UNL     1     -53.588 -32.652   6.550 -0.26 +0.00    +0.004 A  
DOCKED: ATOM      4  C   UNL     1     -54.811 -32.881   5.935 -0.28 +0.00    +0.006 A  
DOCKED: ATOM      5  C   UNL     1     -55.908 -32.669   6.906 -0.18 +0.00    +0.169 C  
DOCKED: ATOM      6  C   UNL     1     -52.402 -32.766   5.839 -0.37 -0.00    -0.001 A  
DOCKED: ATOM      7  C   UNL     1     -54.891 -33.234   4.599 -0.19 +0.00    +0.008 A  
DOCKED: ATOM      8  C   UNL     1     -52.466 -33.125   4.492 -0.24 +0.00    +0.010 A  
DOCKED: ATOM      9  C   UNL     1     -53.704 -33.358   3.875 -0.34 +0.00    +0.068 A  
DOCKED: ATOM     10  N   UNL     1     -53.787 -34.019   1.371 -3.00 -0.00    -0.191 NA 
DOCKED: ATOM     11  C   UNL     1     -53.750 -33.723   2.495 -0.27 +0.00    +0.101 C  
DOCKED: ENDROOT
DOCKED: BRANCH   2  12
DOCKED: ATOM     12  C   UNL     1     -53.424 -30.838   8.294 -0.11 +0.00    +0.038 C  
DOCKED: BRANCH  12  13
DOCKED: ATOM     13  C   UNL     1     -53.845 -29.899   7.165 -0.23 +0.00    +0.038 C  
DOCKED: BRANCH  13  14
DOCKED: ATOM     14  C   UNL     1     -54.730 -28.770   7.691 -0.11 +0.00    +0.251 C  
DOCKED: BRANCH  14  15
DOCKED: ATOM     15  N   UNL     1     -55.380 -29.171   8.932 -0.04 +0.00    +0.141 N  
DOCKED: ATOM     16  C   UNL     1     -55.290 -28.104   9.930 -0.00 +0.00    +0.285 C  
DOCKED: ATOM     17  C   UNL     1     -56.780 -29.523   8.691 -0.03 +0.00    +0.285 C  
DOCKED: ENDBRANCH  14  15
DOCKED: ENDBRANCH  13  14
DOCKED: ENDBRANCH  12  13
DOCKED: ENDBRANCH   2  12
DOCKED: BRANCH   2  18
DOCKED: ATOM     18  C   UNL     1     -53.149 -33.225   8.939 -0.14 +0.00    +0.006 A  
DOCKED: ATOM     19  C   UNL     1     -52.445 -34.326   8.452 -0.27 +0.00    +0.001 A  
DOCKED: ATOM     20  C   UNL     1     -51.831 -35.208   9.342 -0.15 +0.00    +0.029 A  
DOCKED: ATOM     21  C   UNL     1     -51.921 -34.988  10.716 -0.10 +0.00    +0.140 A  
DOCKED: ATOM     22  C   UNL     1     -52.625 -33.887  11.201 -0.14 +0.00    +0.029 A  
DOCKED: ATOM     23  F   UNL     1     -51.330 -35.834  11.569 -0.11 -0.00    -0.204 F  
DOCKED: ATOM     24  C   UNL     1     -53.240 -33.004  10.312 -0.10 +0.00    +0.001 A  
DOCKED: ENDBRANCH   2  18
DOCKED: TORSDOF 5
DOCKED: TER
DOCKED: ENDMDL
________________________________________________________________________________


    FINAL DOCKED STATE:
    ________________________


Run:   266 / 512
Time taken for this run:   0.001s

DOCKED: MODEL        266
DOCKED: USER    Run = 266
DOCKED: USER
DOCKED: USER    Estimated Free Energy of Binding    =  -3.52 kcal/mol  [=(1)+(2)+(3)-(4)]
DOCKED: USER
DOCKED: USER    (1) Final Intermolecular Energy     =  -5.02 kcal/mol
DOCKED: USER        vdW + Hbond + desolv Energy     =  -5.02 kcal/mol
DOCKED: USER        Electrostatic Energy            =  +0.00 kcal/mol
DOCKED: USER        Moving Ligand-Fixed Receptor    =  -5.02 kcal/mol
DOCKED: USER        Moving Ligand-Moving Receptor   =  +0.00 kcal/mol
DOCKED: USER    (2) Final Total Internal Energy     =  -1.28 kcal/mol
DOCKED: USER    (3) Torsional Free Energy           =  +1.49 kcal/mol
DOCKED: USER    (4) Unbound System's Energy         =  -1.28 kcal/mol
DOCKED: USER
DOCKED: USER
DOCKED: REMARK  5 active torsions:
DOCKED: REMARK  status: ('A' for Active; 'I' for Inactive)
DOCKED: REMARK    1  A    between atoms: C_2  and  C_19 
DOCKED: REMARK    2  A    between atoms: C_2  and  C_11 
DOCKED: REMARK    3  A    between atoms: C_19  and  C_20 
DOCKED: REMARK    4  A    between atoms: C_20  and  C_21 
DOCKED: REMARK    5  A    between atoms: C_21  and  N_22 
DOCKED: USER                              x       y       z     vdW  Elec       q    Type
DOCKED: USER                           _______ _______ _______ _____ _____    ______ ____
DOCKED: ROOT
DOCKED: ATOM      1  O   UNL     1     -44.707 -20.547  -2.450 -0.01 -0.00    -0.346 OA 
DOCKED: ATOM      2  C   UNL     1     -44.692 -20.457  -3.910 -0.08 +0.00    +0.130 C  
DOCKED: ATOM      3  C   UNL     1     -46.076 -20.879  -4.311 -0.15 +0.00    +0.004 A  
DOCKED: ATOM      4  C   UNL     1     -46.848 -21.085  -3.177 -0.16 +0.00    +0.006 A  
DOCKED: ATOM      5  C   UNL     1     -46.045 -20.805  -1.965 -0.15 +0.00    +0.169 C  
DOCKED: ATOM      6  C   UNL     1     -46.611 -21.055  -5.578 -0.19 -0.00    -0.001 A  
DOCKED: ATOM      7  C   UNL     1     -48.173 -21.476  -3.268 -0.31 +0.00    +0.008 A  
DOCKED: ATOM      8  C   UNL     1     -47.945 -21.454  -5.687 -0.26 +0.00    +0.010 A  
DOCKED: ATOM      9  C   UNL     1     -48.721 -21.663  -4.538 -0.35 +0.00    +0.068 A  
DOCKED: ATOM     10  N   UNL     1     -51.195 -22.397  -4.776 -2.50 -0.00    -0.191 NA 
DOCKED: ATOM     11  C   UNL     1     -50.085 -22.068  -4.669 -0.41 +0.00    +0.101 C  
DOCKED: ENDROOT
DOCKED: BRANCH   2  12
DOCKED: ATOM     12  C   UNL     1     -44.373 -19.019  -4.302 -0.10 +0.00    +0.038 C  
DOCKED: BRANCH  12  13
DOCKED: ATOM     13  C   UNL     1     -44.829 -18.035  -3.227 -0.14 +0.00    +0.038 C  
DOCKED: BRANCH  13  14
DOCKED: ATOM     14  C   UNL     1     -43.716 -17.773  -2.213 -0.01 +0.00    +0.251 C  
DOCKED: BRANCH  14  15
DOCKED: ATOM     15  N   UNL     1     -44.283 -17.436  -0.913 -0.03 +0.00    +0.141 N  
DOCKED: ATOM     16  C   UNL     1     -45.718 -17.720  -0.886 -0.07 +0.00    +0.285 C  
DOCKED: ATOM     17  C   UNL     1     -43.600 -18.171   0.153 -0.02 +0.00    +0.285 C  
DOCKED: ENDBRANCH  14  15
DOCKED: ENDBRANCH  13  14
DOCKED: ENDBRANCH  12  13
DOCKED: ENDBRANCH   2  12
DOCKED: BRANCH   2  18
DOCKED: ATOM     18  C   UNL     1     -43.635 -21.393  -4.394 -0.03 +0.00    +0.006 A  
DOCKED: ATOM     19  C   UNL     1     -43.136 -21.271  -5.690 -0.03 +0.00    +0.001 A  
DOCKED: ATOM     20  C   UNL     1     -42.148 -22.148  -6.141 -0.01 +0.00    +0.029 A  
DOCKED: ATOM     21  C   UNL     1     -41.661 -23.144  -5.296 +0.00 +0.00    +0.140 A  
DOCKED: ATOM     22  C   UNL     1     -42.161 -23.265  -3.999 -0.00 +0.00    +0.029 A  
DOCKED: ATOM     23  F   UNL     1     -40.712 -23.984  -5.728 +0.00 -0.00    -0.204 F  
DOCKED: ATOM     24  C   UNL     1     -43.149 -22.389  -3.547 -0.01 +0.00    +0.001 A  
DOCKED: ENDBRANCH   2  18
DOCKED: TORSDOF 5
DOCKED: TER
DOCKED: ENDMDL
________________________________________________________________________________


    FINAL DOCKED STATE:
    ________________________


Run:   267 / 512
Time taken for this run:   0.001s

DOCKED: MODEL        267
DOCKED: USER    Run = 267
DOCKED: USER
DOCKED: USER    Estimated Free Energy of Binding    =  -5.58 kcal/mol  [=(1)+(2)+(3)-(4)]
DOCKED: USER
DOCKED: USER    (1) Final Intermolecular Energy     =  -7.07 kcal/mol
DOCKED: USER        vdW + Hbond + desolv Energy     =  -7.07 kcal/mol
DOCKED: USER        Electrostatic Energy            =  +0.00 kcal/mol
DOCKED: USER        Moving Ligand-Fixed Receptor    =  -7.07 kcal/mol
DOCKED: USER        Moving Ligand-Moving Receptor   =  +0.00 kcal/mol
DOCKED: USER    (2) Final Total Internal Energy     =  -1.37 kcal/mol
DOCKED: USER    (3) Torsional Free Energy           =  +1.49 kcal/mol
DOCKED: USER    (4) Unbound System's Energy         =  -1.37 kcal/mol
DOCKED: USER
DOCKED: USER
DOCKED: REMARK  5 active torsions:
DOCKED: REMARK  status: ('A' for Active; 'I' for Inactive)
DOCKED: REMARK    1  A    between atoms: C_2  and  C_19 
DOCKED: REMARK    2  A    between atoms: C_2  and  C_11 
DOCKED: REMARK    3  A    between atoms: C_19  and  C_20 
DOCKED: REMARK    4  A    between atoms: C_20  and  C_21 
DOCKED: REMARK    5  A    between atoms: C_21  and  N_22 
DOCKED: USER                              x       y       z     vdW  Elec       q    Type
DOCKED: USER                           _______ _______ _______ _____ _____    ______ ____
DOCKED: ROOT
DOCKED: ATOM      1  O   UNL     1     -51.472 -31.123   7.753 -0.06 -0.00    -0.346 OA 
DOCKED: ATOM      2  C   UNL     1     -51.385 -32.579   7.870 -0.22 +0.00    +0.130 C  
DOCKED: ATOM      3  C   UNL     1     -51.913 -33.077   6.555 -0.34 +0.00    +0.004 A  
DOCKED: ATOM      4  C   UNL     1     -52.175 -32.001   5.720 -0.32 +0.00    +0.006 A  
DOCKED: ATOM      5  C   UNL     1     -51.831 -30.736   6.407 -0.23 +0.00    +0.169 C  
DOCKED: ATOM      6  C   UNL     1     -52.134 -34.379   6.130 -0.39 -0.00    -0.001 A  
DOCKED: ATOM      7  C   UNL     1     -52.667 -32.186   4.439 +0.07 +0.00    +0.008 A  
DOCKED: ATOM      8  C   UNL     1     -52.634 -34.582   4.842 -0.50 +0.00    +0.010 A  
DOCKED: ATOM      9  C   UNL     1     -52.899 -33.491   4.001 -0.41 +0.00    +0.068 A  
DOCKED: ATOM     10  N   UNL     1     -53.822 -33.903   1.616 -3.01 -0.00    -0.191 NA 
DOCKED: ATOM     11  C   UNL     1     -53.409 -33.718   2.686 -0.43 +0.00    +0.101 C  
DOCKED: ENDROOT
DOCKED: BRANCH   2  12
DOCKED: ATOM     12  C   UNL     1     -49.928 -32.959   8.105 -0.24 +0.00    +0.038 C  
DOCKED: BRANCH  12  13
DOCKED: ATOM     13  C   UNL     1     -49.298 -32.098   9.199 -0.17 +0.00    +0.038 C  
DOCKED: BRANCH  13  14
DOCKED: ATOM     14  C   UNL     1     -48.646 -30.850   8.609 -0.09 +0.00    +0.251 C  
DOCKED: BRANCH  14  15
DOCKED: ATOM     15  N   UNL     1     -49.419 -29.662   8.953 -0.04 +0.00    +0.141 N  
DOCKED: ATOM     16  C   UNL     1     -48.854 -29.003  10.132 -0.01 +0.00    +0.285 C  
DOCKED: ATOM     17  C   UNL     1     -49.465 -28.732   7.824 -0.05 +0.00    +0.285 C  
DOCKED: ENDBRANCH  14  15
DOCKED: ENDBRANCH  13  14
DOCKED: ENDBRANCH  12  13
DOCKED: ENDBRANCH   2  12
DOCKED: BRANCH   2  18
DOCKED: ATOM     18  C   UNL     1     -52.239 -32.976   9.028 -0.15 +0.00    +0.006 A  
DOCKED: ATOM     19  C   UNL     1     -53.060 -32.032   9.643 -0.07 +0.00    +0.001 A  
DOCKED: ATOM     20  C   UNL     1     -53.858 -32.405  10.726 -0.05 +0.00    +0.029 A  
DOCKED: ATOM     21  C   UNL     1     -53.833 -33.719  11.191 -0.07 +0.00    +0.140 A  
DOCKED: ATOM     22  C   UNL     1     -53.012 -34.662  10.574 -0.06 +0.00    +0.029 A  
DOCKED: ATOM     23  F   UNL     1     -54.600 -34.076  12.229 -0.00 -0.00    -0.204 F  
DOCKED: ATOM     24  C   UNL     1     -52.213 -34.291   9.491 -0.25 +0.00    +0.001 A  
DOCKED: ENDBRANCH   2  18
DOCKED: TORSDOF 5
DOCKED: TER
DOCKED: ENDMDL
________________________________________________________________________________


    FINAL DOCKED STATE:
    ________________________


Run:   268 / 512
Time taken for this run:   0.001s

DOCKED: MODEL        268
DOCKED: USER    Run = 268
DOCKED: USER
DOCKED: USER    Estimated Free Energy of Binding    =  -5.88 kcal/mol  [=(1)+(2)+(3)-(4)]
DOCKED: USER
DOCKED: USER    (1) Final Intermolecular Energy     =  -7.37 kcal/mol
DOCKED: USER        vdW + Hbond + desolv Energy     =  -7.37 kcal/mol
DOCKED: USER        Electrostatic Energy            =  +0.00 kcal/mol
DOCKED: USER        Moving Ligand-Fixed Receptor    =  -7.37 kcal/mol
DOCKED: USER        Moving Ligand-Moving Receptor   =  +0.00 kcal/mol
DOCKED: USER    (2) Final Total Internal Energy     =  -1.03 kcal/mol
DOCKED: USER    (3) Torsional Free Energy           =  +1.49 kcal/mol
DOCKED: USER    (4) Unbound System's Energy         =  -1.03 kcal/mol
DOCKED: USER
DOCKED: USER
DOCKED: REMARK  5 active torsions:
DOCKED: REMARK  status: ('A' for Active; 'I' for Inactive)
DOCKED: REMARK    1  A    between atoms: C_2  and  C_19 
DOCKED: REMARK    2  A    between atoms: C_2  and  C_11 
DOCKED: REMARK    3  A    between atoms: C_19  and  C_20 
DOCKED: REMARK    4  A    between atoms: C_20  and  C_21 
DOCKED: REMARK    5  A    between atoms: C_21  and  N_22 
DOCKED: USER                              x       y       z     vdW  Elec       q    Type
DOCKED: USER                           _______ _______ _______ _____ _____    ______ ____
DOCKED: ROOT
DOCKED: ATOM      1  O   UNL     1     -51.952 -31.360   8.003 -0.04 -0.00    -0.346 OA 
DOCKED: ATOM      2  C   UNL     1     -51.539 -32.764   7.975 -0.21 +0.00    +0.130 C  
DOCKED: ATOM      3  C   UNL     1     -51.982 -33.242   6.622 -0.34 +0.00    +0.004 A  
DOCKED: ATOM      4  C   UNL     1     -52.501 -32.179   5.898 -0.34 +0.00    +0.006 A  
DOCKED: ATOM      5  C   UNL     1     -52.428 -30.939   6.703 -0.22 +0.00    +0.169 C  
DOCKED: ATOM      6  C   UNL     1     -51.919 -34.514   6.073 -0.35 -0.00    -0.001 A  
DOCKED: ATOM      7  C   UNL     1     -52.977 -32.349   4.609 +0.01 +0.00    +0.008 A  
DOCKED: ATOM      8  C   UNL     1     -52.398 -34.703   4.775 -0.46 +0.00    +0.010 A  
DOCKED: ATOM      9  C   UNL     1     -52.924 -33.625   4.047 -0.43 +0.00    +0.068 A  
DOCKED: ATOM     10  N   UNL     1     -53.802 -34.009   1.640 -2.92 -0.00    -0.191 NA 
DOCKED: ATOM     11  C   UNL     1     -53.409 -33.837   2.720 -0.44 +0.00    +0.101 C  
DOCKED: ENDROOT
DOCKED: BRANCH   2  12
DOCKED: ATOM     12  C   UNL     1     -50.028 -32.827   8.161 -0.26 +0.00    +0.038 C  
DOCKED: BRANCH  12  13
DOCKED: ATOM     13  C   UNL     1     -49.386 -31.454   7.971 -0.15 +0.00    +0.038 C  
DOCKED: BRANCH  13  14
DOCKED: ATOM     14  C   UNL     1     -48.649 -31.012   9.233 -0.07 +0.00    +0.251 C  
DOCKED: BRANCH  14  15
DOCKED: ATOM     15  N   UNL     1     -47.219 -30.896   8.971 -0.07 +0.00    +0.141 N  
DOCKED: ATOM     16  C   UNL     1     -46.699 -32.133   8.387 -0.10 +0.00    +0.285 C  
DOCKED: ATOM     17  C   UNL     1     -46.948 -29.763   8.084 -0.05 +0.00    +0.285 C  
DOCKED: ENDBRANCH  14  15
DOCKED: ENDBRANCH  13  14
DOCKED: ENDBRANCH  12  13
DOCKED: ENDBRANCH   2  12
DOCKED: BRANCH   2  18
DOCKED: ATOM     18  C   UNL     1     -52.249 -33.450   9.095 -0.18 +0.00    +0.006 A  
DOCKED: ATOM     19  C   UNL     1     -53.585 -33.819   8.950 -0.18 +0.00    +0.001 A  
DOCKED: ATOM     20  C   UNL     1     -54.248 -34.460   9.998 -0.14 +0.00    +0.029 A  
DOCKED: ATOM     21  C   UNL     1     -53.573 -34.730  11.188 -0.02 +0.00    +0.140 A  
DOCKED: ATOM     22  C   UNL     1     -52.236 -34.360  11.331 -0.19 +0.00    +0.029 A  
DOCKED: ATOM     23  F   UNL     1     -54.208 -35.347  12.193 -0.04 -0.00    -0.204 F  
DOCKED: ATOM     24  C   UNL     1     -51.573 -33.719  10.284 -0.18 +0.00    +0.001 A  
DOCKED: ENDBRANCH   2  18
DOCKED: TORSDOF 5
DOCKED: TER
DOCKED: ENDMDL
________________________________________________________________________________


    FINAL DOCKED STATE:
    ________________________


Run:   269 / 512
Time taken for this run:   0.001s

DOCKED: MODEL        269
DOCKED: USER    Run = 269
DOCKED: USER
DOCKED: USER    Estimated Free Energy of Binding    =  -5.08 kcal/mol  [=(1)+(2)+(3)-(4)]
DOCKED: USER
DOCKED: USER    (1) Final Intermolecular Energy     =  -6.57 kcal/mol
DOCKED: USER        vdW + Hbond + desolv Energy     =  -6.57 kcal/mol
DOCKED: USER        Electrostatic Energy            =  +0.00 kcal/mol
DOCKED: USER        Moving Ligand-Fixed Receptor    =  -6.57 kcal/mol
DOCKED: USER        Moving Ligand-Moving Receptor   =  +0.00 kcal/mol
DOCKED: USER    (2) Final Total Internal Energy     =  -1.14 kcal/mol
DOCKED: USER    (3) Torsional Free Energy           =  +1.49 kcal/mol
DOCKED: USER    (4) Unbound System's Energy         =  -1.14 kcal/mol
DOCKED: USER
DOCKED: USER
DOCKED: REMARK  5 active torsions:
DOCKED: REMARK  status: ('A' for Active; 'I' for Inactive)
DOCKED: REMARK    1  A    between atoms: C_2  and  C_19 
DOCKED: REMARK    2  A    between atoms: C_2  and  C_11 
DOCKED: REMARK    3  A    between atoms: C_19  and  C_20 
DOCKED: REMARK    4  A    between atoms: C_20  and  C_21 
DOCKED: REMARK    5  A    between atoms: C_21  and  N_22 
DOCKED: USER                              x       y       z     vdW  Elec       q    Type
DOCKED: USER                           _______ _______ _______ _____ _____    ______ ____
DOCKED: ROOT
DOCKED: ATOM      1  O   UNL     1     -52.402 -31.166   8.177 -0.02 -0.00    -0.346 OA 
DOCKED: ATOM      2  C   UNL     1     -51.604 -32.392   8.123 -0.18 +0.00    +0.130 C  
DOCKED: ATOM      3  C   UNL     1     -51.988 -33.013   6.811 -0.32 +0.00    +0.004 A  
DOCKED: ATOM      4  C   UNL     1     -52.845 -32.164   6.126 -0.32 +0.00    +0.006 A  
DOCKED: ATOM      5  C   UNL     1     -53.074 -30.935   6.918 -0.20 +0.00    +0.169 C  
DOCKED: ATOM      6  C   UNL     1     -51.601 -34.228   6.264 -0.42 -0.00    -0.001 A  
DOCKED: ATOM      7  C   UNL     1     -53.346 -32.498   4.879 -0.08 +0.00    +0.008 A  
DOCKED: ATOM      8  C   UNL     1     -52.101 -34.581   5.009 -0.38 +0.00    +0.010 A  
DOCKED: ATOM      9  C   UNL     1     -52.969 -33.720   4.320 -0.43 +0.00    +0.068 A  
DOCKED: ATOM     10  N   UNL     1     -53.874 -34.404   1.991 -2.32 -0.00    -0.191 NA 
DOCKED: ATOM     11  C   UNL     1     -53.468 -34.098   3.036 -0.47 +0.00    +0.101 C  
DOCKED: ENDROOT
DOCKED: BRANCH   2  12
DOCKED: ATOM     12  C   UNL     1     -50.130 -32.012   8.190 -0.22 +0.00    +0.038 C  
DOCKED: BRANCH  12  13
DOCKED: ATOM     13  C   UNL     1     -49.950 -30.545   8.577 -0.12 +0.00    +0.038 C  
DOCKED: BRANCH  13  14
DOCKED: ATOM     14  C   UNL     1     -48.711 -29.950   7.911 -0.08 +0.00    +0.251 C  
DOCKED: BRANCH  14  15
DOCKED: ATOM     15  N   UNL     1     -49.090 -28.868   7.010 -0.10 +0.00    +0.141 N  
DOCKED: ATOM     16  C   UNL     1     -50.547 -28.771   6.903 -0.11 +0.00    +0.285 C  
DOCKED: ATOM     17  C   UNL     1     -48.529 -27.595   7.467 -0.02 +0.00    +0.285 C  
DOCKED: ENDBRANCH  14  15
DOCKED: ENDBRANCH  13  14
DOCKED: ENDBRANCH  12  13
DOCKED: ENDBRANCH   2  12
DOCKED: BRANCH   2  18
DOCKED: ATOM     18  C   UNL     1     -52.000 -33.223   9.298 -0.16 +0.00    +0.006 A  
DOCKED: ATOM     19  C   UNL     1     -51.208 -34.302   9.687 -0.05 +0.00    +0.001 A  
DOCKED: ATOM     20  C   UNL     1     -51.579 -35.078  10.786 -0.21 +0.00    +0.029 A  
DOCKED: ATOM     21  C   UNL     1     -52.741 -34.774  11.493 -0.10 +0.00    +0.140 A  
DOCKED: ATOM     22  C   UNL     1     -53.533 -33.694  11.104 -0.11 +0.00    +0.029 A  
DOCKED: ATOM     23  F   UNL     1     -53.097 -35.517  12.549 -0.04 -0.00    -0.204 F  
DOCKED: ATOM     24  C   UNL     1     -53.163 -32.917  10.004 -0.10 +0.00    +0.001 A  
DOCKED: ENDBRANCH   2  18
DOCKED: TORSDOF 5
DOCKED: TER
DOCKED: ENDMDL
________________________________________________________________________________


    FINAL DOCKED STATE:
    ________________________


Run:   270 / 512
Time taken for this run:   0.001s

DOCKED: MODEL        270
DOCKED: USER    Run = 270
DOCKED: USER
DOCKED: USER    Estimated Free Energy of Binding    =  -4.11 kcal/mol  [=(1)+(2)+(3)-(4)]
DOCKED: USER
DOCKED: USER    (1) Final Intermolecular Energy     =  -5.60 kcal/mol
DOCKED: USER        vdW + Hbond + desolv Energy     =  -5.60 kcal/mol
DOCKED: USER        Electrostatic Energy            =  +0.00 kcal/mol
DOCKED: USER        Moving Ligand-Fixed Receptor    =  -5.60 kcal/mol
DOCKED: USER        Moving Ligand-Moving Receptor   =  +0.00 kcal/mol
DOCKED: USER    (2) Final Total Internal Energy     =  -1.34 kcal/mol
DOCKED: USER    (3) Torsional Free Energy           =  +1.49 kcal/mol
DOCKED: USER    (4) Unbound System's Energy         =  -1.34 kcal/mol
DOCKED: USER
DOCKED: USER
DOCKED: REMARK  5 active torsions:
DOCKED: REMARK  status: ('A' for Active; 'I' for Inactive)
DOCKED: REMARK    1  A    between atoms: C_2  and  C_19 
DOCKED: REMARK    2  A    between atoms: C_2  and  C_11 
DOCKED: REMARK    3  A    between atoms: C_19  and  C_20 
DOCKED: REMARK    4  A    between atoms: C_20  and  C_21 
DOCKED: REMARK    5  A    between atoms: C_21  and  N_22 
DOCKED: USER                              x       y       z     vdW  Elec       q    Type
DOCKED: USER                           _______ _______ _______ _____ _____    ______ ____
DOCKED: ROOT
DOCKED: ATOM      1  O   UNL     1     -50.167 -29.948   8.413 -0.03 -0.00    -0.346 OA 
DOCKED: ATOM      2  C   UNL     1     -51.454 -29.478   7.898 -0.11 +0.00    +0.130 C  
DOCKED: ATOM      3  C   UNL     1     -52.051 -30.697   7.255 -0.21 +0.00    +0.004 A  
DOCKED: ATOM      4  C   UNL     1     -51.230 -31.793   7.479 -0.23 +0.00    +0.006 A  
DOCKED: ATOM      5  C   UNL     1     -50.057 -31.385   8.284 -0.15 +0.00    +0.169 C  
DOCKED: ATOM      6  C   UNL     1     -53.232 -30.828   6.539 -0.24 -0.00    -0.001 A  
DOCKED: ATOM      7  C   UNL     1     -51.555 -33.048   6.996 -0.31 +0.00    +0.008 A  
DOCKED: ATOM      8  C   UNL     1     -53.572 -32.086   6.041 -0.25 +0.00    +0.010 A  
DOCKED: ATOM      9  C   UNL     1     -52.738 -33.191   6.269 -0.29 +0.00    +0.068 A  
DOCKED: ATOM     10  N   UNL     1     -53.402 -35.515   5.334 -2.60 -0.00    -0.191 NA 
DOCKED: ATOM     11  C   UNL     1     -53.104 -34.472   5.753 -0.32 +0.00    +0.101 C  
DOCKED: ENDROOT
DOCKED: BRANCH   2  12
DOCKED: ATOM     12  C   UNL     1     -52.282 -28.959   9.067 -0.04 +0.00    +0.038 C  
DOCKED: BRANCH  12  13
DOCKED: ATOM     13  C   UNL     1     -52.072 -29.809  10.319 -0.02 +0.00    +0.038 C  
DOCKED: BRANCH  13  14
DOCKED: ATOM     14  C   UNL     1     -53.405 -30.308  10.874 -0.00 +0.00    +0.251 C  
DOCKED: BRANCH  14  15
DOCKED: ATOM     15  N   UNL     1     -53.568 -31.731  10.599 -0.02 +0.00    +0.141 N  
DOCKED: ATOM     16  C   UNL     1     -52.568 -32.514  11.326 -0.02 +0.00    +0.285 C  
DOCKED: ATOM     17  C   UNL     1     -54.917 -32.174  10.955 -0.00 +0.00    +0.285 C  
DOCKED: ENDBRANCH  14  15
DOCKED: ENDBRANCH  13  14
DOCKED: ENDBRANCH  12  13
DOCKED: ENDBRANCH   2  12
DOCKED: BRANCH   2  18
DOCKED: ATOM     18  C   UNL     1     -51.161 -28.390   6.920 -0.14 +0.00    +0.006 A  
DOCKED: ATOM     19  C   UNL     1     -49.974 -28.410   6.189 -0.15 +0.00    +0.001 A  
DOCKED: ATOM     20  C   UNL     1     -49.701 -27.392   5.275 -0.10 +0.00    +0.029 A  
DOCKED: ATOM     21  C   UNL     1     -50.615 -26.355   5.093 -0.07 +0.00    +0.140 A  
DOCKED: ATOM     22  C   UNL     1     -51.803 -26.335   5.824 -0.12 +0.00    +0.029 A  
DOCKED: ATOM     23  F   UNL     1     -50.354 -25.378   4.215 -0.02 -0.00    -0.204 F  
DOCKED: ATOM     24  C   UNL     1     -52.077 -27.353   6.739 -0.14 +0.00    +0.001 A  
DOCKED: ENDBRANCH   2  18
DOCKED: TORSDOF 5
DOCKED: TER
DOCKED: ENDMDL
________________________________________________________________________________


    FINAL DOCKED STATE:
    ________________________


Run:   271 / 512
Time taken for this run:   0.001s

DOCKED: MODEL        271
DOCKED: USER    Run = 271
DOCKED: USER
DOCKED: USER    Estimated Free Energy of Binding    =  -5.50 kcal/mol  [=(1)+(2)+(3)-(4)]
DOCKED: USER
DOCKED: USER    (1) Final Intermolecular Energy     =  -6.99 kcal/mol
DOCKED: USER        vdW + Hbond + desolv Energy     =  -6.99 kcal/mol
DOCKED: USER        Electrostatic Energy            =  +0.00 kcal/mol
DOCKED: USER        Moving Ligand-Fixed Receptor    =  -6.99 kcal/mol
DOCKED: USER        Moving Ligand-Moving Receptor   =  +0.00 kcal/mol
DOCKED: USER    (2) Final Total Internal Energy     =  -1.02 kcal/mol
DOCKED: USER    (3) Torsional Free Energy           =  +1.49 kcal/mol
DOCKED: USER    (4) Unbound System's Energy         =  -1.02 kcal/mol
DOCKED: USER
DOCKED: USER
DOCKED: REMARK  5 active torsions:
DOCKED: REMARK  status: ('A' for Active; 'I' for Inactive)
DOCKED: REMARK    1  A    between atoms: C_2  and  C_19 
DOCKED: REMARK    2  A    between atoms: C_2  and  C_11 
DOCKED: REMARK    3  A    between atoms: C_19  and  C_20 
DOCKED: REMARK    4  A    between atoms: C_20  and  C_21 
DOCKED: REMARK    5  A    between atoms: C_21  and  N_22 
DOCKED: USER                              x       y       z     vdW  Elec       q    Type
DOCKED: USER                           _______ _______ _______ _____ _____    ______ ____
DOCKED: ROOT
DOCKED: ATOM      1  O   UNL     1     -51.939 -32.139   8.097 -0.04 -0.00    -0.346 OA 
DOCKED: ATOM      2  C   UNL     1     -53.260 -32.764   8.182 -0.13 +0.00    +0.130 C  
DOCKED: ATOM      3  C   UNL     1     -53.589 -33.105   6.757 -0.25 +0.00    +0.004 A  
DOCKED: ATOM      4  C   UNL     1     -52.506 -32.804   5.943 -0.36 +0.00    +0.006 A  
DOCKED: ATOM      5  C   UNL     1     -51.397 -32.263   6.762 -0.24 +0.00    +0.169 C  
DOCKED: ATOM      6  C   UNL     1     -54.749 -33.649   6.225 -0.29 -0.00    -0.001 A  
DOCKED: ATOM      7  C   UNL     1     -52.545 -33.030   4.578 -0.32 +0.00    +0.008 A  
DOCKED: ATOM      8  C   UNL     1     -54.806 -33.879   4.850 -0.35 +0.00    +0.010 A  
DOCKED: ATOM      9  C   UNL     1     -53.709 -33.571   4.030 -0.38 +0.00    +0.068 A  
DOCKED: ATOM     10  N   UNL     1     -53.846 -34.016   1.482 -3.01 -0.00    -0.191 NA 
DOCKED: ATOM     11  C   UNL     1     -53.785 -33.816   2.625 -0.27 +0.00    +0.101 C  
DOCKED: ENDROOT
DOCKED: BRANCH   2  12
DOCKED: ATOM     12  C   UNL     1     -53.157 -33.993   9.077 -0.23 +0.00    +0.038 C  
DOCKED: BRANCH  12  13
DOCKED: ATOM     13  C   UNL     1     -51.789 -34.076   9.752 -0.24 +0.00    +0.038 C  
DOCKED: BRANCH  13  14
DOCKED: ATOM     14  C   UNL     1     -51.914 -33.924  11.267 -0.11 +0.00    +0.251 C  
DOCKED: BRANCH  14  15
DOCKED: ATOM     15  N   UNL     1     -51.705 -35.209  11.925 -0.21 +0.00    +0.141 N  
DOCKED: ATOM     16  C   UNL     1     -50.426 -35.223  12.635 -0.13 +0.00    +0.285 C  
DOCKED: ATOM     17  C   UNL     1     -52.802 -35.499  12.850 -0.12 +0.00    +0.285 C  
DOCKED: ENDBRANCH  14  15
DOCKED: ENDBRANCH  13  14
DOCKED: ENDBRANCH  12  13
DOCKED: ENDBRANCH   2  12
DOCKED: BRANCH   2  18
DOCKED: ATOM     18  C   UNL     1     -54.186 -31.749   8.765 -0.08 +0.00    +0.006 A  
DOCKED: ATOM     19  C   UNL     1     -55.484 -32.113   9.121 -0.08 +0.00    +0.001 A  
DOCKED: ATOM     20  C   UNL     1     -56.349 -31.163   9.665 -0.05 +0.00    +0.029 A  
DOCKED: ATOM     21  C   UNL     1     -55.914 -29.851   9.854 -0.01 +0.00    +0.140 A  
DOCKED: ATOM     22  C   UNL     1     -54.616 -29.488   9.498 -0.03 +0.00    +0.029 A  
DOCKED: ATOM     23  F   UNL     1     -56.744 -28.940  10.379 +0.01 -0.00    -0.204 F  
DOCKED: ATOM     24  C   UNL     1     -53.750 -30.438   8.953 -0.06 +0.00    +0.001 A  
DOCKED: ENDBRANCH   2  18
DOCKED: TORSDOF 5
DOCKED: TER
DOCKED: ENDMDL
________________________________________________________________________________


    FINAL DOCKED STATE:
    ________________________


Run:   272 / 512
Time taken for this run:   0.001s

DOCKED: MODEL        272
DOCKED: USER    Run = 272
DOCKED: USER
DOCKED: USER    Estimated Free Energy of Binding    =  -5.76 kcal/mol  [=(1)+(2)+(3)-(4)]
DOCKED: USER
DOCKED: USER    (1) Final Intermolecular Energy     =  -7.25 kcal/mol
DOCKED: USER        vdW + Hbond + desolv Energy     =  -7.25 kcal/mol
DOCKED: USER        Electrostatic Energy            =  +0.00 kcal/mol
DOCKED: USER        Moving Ligand-Fixed Receptor    =  -7.25 kcal/mol
DOCKED: USER        Moving Ligand-Moving Receptor   =  +0.00 kcal/mol
DOCKED: USER    (2) Final Total Internal Energy     =  -1.37 kcal/mol
DOCKED: USER    (3) Torsional Free Energy           =  +1.49 kcal/mol
DOCKED: USER    (4) Unbound System's Energy         =  -1.37 kcal/mol
DOCKED: USER
DOCKED: USER
DOCKED: REMARK  5 active torsions:
DOCKED: REMARK  status: ('A' for Active; 'I' for Inactive)
DOCKED: REMARK    1  A    between atoms: C_2  and  C_19 
DOCKED: REMARK    2  A    between atoms: C_2  and  C_11 
DOCKED: REMARK    3  A    between atoms: C_19  and  C_20 
DOCKED: REMARK    4  A    between atoms: C_20  and  C_21 
DOCKED: REMARK    5  A    between atoms: C_21  and  N_22 
DOCKED: USER                              x       y       z     vdW  Elec       q    Type
DOCKED: USER                           _______ _______ _______ _____ _____    ______ ____
DOCKED: ROOT
DOCKED: ATOM      1  O   UNL     1     -51.601 -31.575   7.432 -0.08 -0.00    -0.346 OA 
DOCKED: ATOM      2  C   UNL     1     -51.935 -32.988   7.620 -0.23 +0.00    +0.130 C  
DOCKED: ATOM      3  C   UNL     1     -52.476 -33.410   6.284 -0.36 +0.00    +0.004 A  
DOCKED: ATOM      4  C   UNL     1     -52.359 -32.363   5.381 -0.34 +0.00    +0.006 A  
DOCKED: ATOM      5  C   UNL     1     -51.730 -31.197   6.041 -0.19 +0.00    +0.169 C  
DOCKED: ATOM      6  C   UNL     1     -53.019 -34.626   5.897 -0.07 -0.00    -0.001 A  
DOCKED: ATOM      7  C   UNL     1     -52.781 -32.493   4.069 -0.10 +0.00    +0.008 A  
DOCKED: ATOM      8  C   UNL     1     -53.452 -34.772   4.578 -0.48 +0.00    +0.010 A  
DOCKED: ATOM      9  C   UNL     1     -53.333 -33.710   3.669 -0.45 +0.00    +0.068 A  
DOCKED: ATOM     10  N   UNL     1     -54.144 -34.015   1.227 -3.32 -0.00    -0.191 NA 
DOCKED: ATOM     11  C   UNL     1     -53.781 -33.878   2.322 -0.28 +0.00    +0.101 C  
DOCKED: ENDROOT
DOCKED: BRANCH   2  12
DOCKED: ATOM     12  C   UNL     1     -50.666 -33.737   8.009 -0.23 +0.00    +0.038 C  
DOCKED: BRANCH  12  13
DOCKED: ATOM     13  C   UNL     1     -49.480 -32.785   8.154 -0.19 +0.00    +0.038 C  
DOCKED: BRANCH  13  14
DOCKED: ATOM     14  C   UNL     1     -49.442 -32.163   9.549 -0.10 +0.00    +0.251 C  
DOCKED: BRANCH  14  15
DOCKED: ATOM     15  N   UNL     1     -48.761 -30.875   9.511 -0.05 +0.00    +0.141 N  
DOCKED: ATOM     16  C   UNL     1     -47.700 -30.881   8.502 -0.08 +0.00    +0.285 C  
DOCKED: ATOM     17  C   UNL     1     -49.713 -29.796   9.240 -0.03 +0.00    +0.285 C  
DOCKED: ENDBRANCH  14  15
DOCKED: ENDBRANCH  13  14
DOCKED: ENDBRANCH  12  13
DOCKED: ENDBRANCH   2  12
DOCKED: BRANCH   2  18
DOCKED: ATOM     18  C   UNL     1     -52.955 -33.054   8.707 -0.14 +0.00    +0.006 A  
DOCKED: ATOM     19  C   UNL     1     -53.916 -32.051   8.823 -0.09 +0.00    +0.001 A  
DOCKED: ATOM     20  C   UNL     1     -54.868 -32.114   9.841 -0.05 +0.00    +0.029 A  
DOCKED: ATOM     21  C   UNL     1     -54.859 -33.179  10.740 -0.04 +0.00    +0.140 A  
DOCKED: ATOM     22  C   UNL     1     -53.897 -34.182  10.624 -0.14 +0.00    +0.029 A  
DOCKED: ATOM     23  F   UNL     1     -55.774 -33.240  11.716 +0.01 -0.00    -0.204 F  
DOCKED: ATOM     24  C   UNL     1     -52.943 -34.120   9.606 -0.21 +0.00    +0.001 A  
DOCKED: ENDBRANCH   2  18
DOCKED: TORSDOF 5
DOCKED: TER
DOCKED: ENDMDL
________________________________________________________________________________


    FINAL DOCKED STATE:
    ________________________


Run:   273 / 512
Time taken for this run:   0.001s

DOCKED: MODEL        273
DOCKED: USER    Run = 273
DOCKED: USER
DOCKED: USER    Estimated Free Energy of Binding    =  -5.30 kcal/mol  [=(1)+(2)+(3)-(4)]
DOCKED: USER
DOCKED: USER    (1) Final Intermolecular Energy     =  -6.80 kcal/mol
DOCKED: USER        vdW + Hbond + desolv Energy     =  -6.80 kcal/mol
DOCKED: USER        Electrostatic Energy            =  +0.00 kcal/mol
DOCKED: USER        Moving Ligand-Fixed Receptor    =  -6.80 kcal/mol
DOCKED: USER        Moving Ligand-Moving Receptor   =  +0.00 kcal/mol
DOCKED: USER    (2) Final Total Internal Energy     =  -1.30 kcal/mol
DOCKED: USER    (3) Torsional Free Energy           =  +1.49 kcal/mol
DOCKED: USER    (4) Unbound System's Energy         =  -1.30 kcal/mol
DOCKED: USER
DOCKED: USER
DOCKED: REMARK  5 active torsions:
DOCKED: REMARK  status: ('A' for Active; 'I' for Inactive)
DOCKED: REMARK    1  A    between atoms: C_2  and  C_19 
DOCKED: REMARK    2  A    between atoms: C_2  and  C_11 
DOCKED: REMARK    3  A    between atoms: C_19  and  C_20 
DOCKED: REMARK    4  A    between atoms: C_20  and  C_21 
DOCKED: REMARK    5  A    between atoms: C_21  and  N_22 
DOCKED: USER                              x       y       z     vdW  Elec       q    Type
DOCKED: USER                           _______ _______ _______ _____ _____    ______ ____
DOCKED: ROOT
DOCKED: ATOM      1  O   UNL     1     -52.319 -31.226   8.143 -0.02 -0.00    -0.346 OA 
DOCKED: ATOM      2  C   UNL     1     -51.591 -32.495   8.098 -0.18 +0.00    +0.130 C  
DOCKED: ATOM      3  C   UNL     1     -51.996 -33.096   6.784 -0.32 +0.00    +0.004 A  
DOCKED: ATOM      4  C   UNL     1     -52.797 -32.201   6.088 -0.33 +0.00    +0.006 A  
DOCKED: ATOM      5  C   UNL     1     -52.965 -30.959   6.876 -0.20 +0.00    +0.169 C  
DOCKED: ATOM      6  C   UNL     1     -51.673 -34.331   6.241 -0.42 -0.00    -0.001 A  
DOCKED: ATOM      7  C   UNL     1     -53.303 -32.509   4.837 -0.11 +0.00    +0.008 A  
DOCKED: ATOM      8  C   UNL     1     -52.179 -34.658   4.982 -0.42 +0.00    +0.010 A  
DOCKED: ATOM      9  C   UNL     1     -52.989 -33.751   4.283 -0.43 +0.00    +0.068 A  
DOCKED: ATOM     10  N   UNL     1     -53.907 -34.387   1.946 -2.39 -0.00    -0.191 NA 
DOCKED: ATOM     11  C   UNL     1     -53.496 -34.102   2.994 -0.45 +0.00    +0.101 C  
DOCKED: ENDROOT
DOCKED: BRANCH   2  12
DOCKED: ATOM     12  C   UNL     1     -50.099 -32.198   8.181 -0.23 +0.00    +0.038 C  
DOCKED: BRANCH  12  13
DOCKED: ATOM     13  C   UNL     1     -49.838 -30.711   8.409 -0.14 +0.00    +0.038 C  
DOCKED: BRANCH  13  14
DOCKED: ATOM     14  C   UNL     1     -49.554 -29.994   7.091 -0.06 +0.00    +0.251 C  
DOCKED: BRANCH  14  15
DOCKED: ATOM     15  N   UNL     1     -50.471 -28.874   6.914 -0.13 +0.00    +0.141 N  
DOCKED: ATOM     16  C   UNL     1     -51.075 -28.495   8.192 -0.04 +0.00    +0.285 C  
DOCKED: ATOM     17  C   UNL     1     -49.779 -27.729   6.320 -0.08 +0.00    +0.285 C  
DOCKED: ENDBRANCH  14  15
DOCKED: ENDBRANCH  13  14
DOCKED: ENDBRANCH  12  13
DOCKED: ENDBRANCH   2  12
DOCKED: BRANCH   2  18
DOCKED: ATOM     18  C   UNL     1     -52.045 -33.300   9.270 -0.17 +0.00    +0.006 A  
DOCKED: ATOM     19  C   UNL     1     -51.159 -34.171   9.902 -0.09 +0.00    +0.001 A  
DOCKED: ATOM     20  C   UNL     1     -51.585 -34.924  10.998 -0.23 +0.00    +0.029 A  
DOCKED: ATOM     21  C   UNL     1     -52.895 -34.803  11.459 -0.05 +0.00    +0.140 A  
DOCKED: ATOM     22  C   UNL     1     -53.781 -33.931  10.827 -0.13 +0.00    +0.029 A  
DOCKED: ATOM     23  F   UNL     1     -53.303 -35.524  12.512 -0.04 -0.00    -0.204 F  
DOCKED: ATOM     24  C   UNL     1     -53.356 -33.179   9.730 -0.12 +0.00    +0.001 A  
DOCKED: ENDBRANCH   2  18
DOCKED: TORSDOF 5
DOCKED: TER
DOCKED: ENDMDL
________________________________________________________________________________


    FINAL DOCKED STATE:
    ________________________


Run:   274 / 512
Time taken for this run:   0.001s

DOCKED: MODEL        274
DOCKED: USER    Run = 274
DOCKED: USER
DOCKED: USER    Estimated Free Energy of Binding    =  -4.06 kcal/mol  [=(1)+(2)+(3)-(4)]
DOCKED: USER
DOCKED: USER    (1) Final Intermolecular Energy     =  -5.56 kcal/mol
DOCKED: USER        vdW + Hbond + desolv Energy     =  -5.56 kcal/mol
DOCKED: USER        Electrostatic Energy            =  +0.00 kcal/mol
DOCKED: USER        Moving Ligand-Fixed Receptor    =  -5.56 kcal/mol
DOCKED: USER        Moving Ligand-Moving Receptor   =  +0.00 kcal/mol
DOCKED: USER    (2) Final Total Internal Energy     =  -1.35 kcal/mol
DOCKED: USER    (3) Torsional Free Energy           =  +1.49 kcal/mol
DOCKED: USER    (4) Unbound System's Energy         =  -1.35 kcal/mol
DOCKED: USER
DOCKED: USER
DOCKED: REMARK  5 active torsions:
DOCKED: REMARK  status: ('A' for Active; 'I' for Inactive)
DOCKED: REMARK    1  A    between atoms: C_2  and  C_19 
DOCKED: REMARK    2  A    between atoms: C_2  and  C_11 
DOCKED: REMARK    3  A    between atoms: C_19  and  C_20 
DOCKED: REMARK    4  A    between atoms: C_20  and  C_21 
DOCKED: REMARK    5  A    between atoms: C_21  and  N_22 
DOCKED: USER                              x       y       z     vdW  Elec       q    Type
DOCKED: USER                           _______ _______ _______ _____ _____    ______ ____
DOCKED: ROOT
DOCKED: ATOM      1  O   UNL     1     -49.352 -31.439   8.938 -0.07 -0.00    -0.346 OA 
DOCKED: ATOM      2  C   UNL     1     -50.646 -30.761   8.863 -0.09 +0.00    +0.130 C  
DOCKED: ATOM      3  C   UNL     1     -51.478 -31.668   8.003 -0.18 +0.00    +0.004 A  
DOCKED: ATOM      4  C   UNL     1     -50.759 -32.817   7.704 -0.27 +0.00    +0.006 A  
DOCKED: ATOM      5  C   UNL     1     -49.427 -32.757   8.346 -0.15 +0.00    +0.169 C  
DOCKED: ATOM      6  C   UNL     1     -52.771 -31.496   7.532 -0.18 -0.00    -0.001 A  
DOCKED: ATOM      7  C   UNL     1     -51.302 -33.825   6.926 -0.37 +0.00    +0.008 A  
DOCKED: ATOM      8  C   UNL     1     -53.331 -32.501   6.742 -0.24 +0.00    +0.010 A  
DOCKED: ATOM      9  C   UNL     1     -52.600 -33.660   6.441 -0.30 +0.00    +0.068 A  
DOCKED: ATOM     10  N   UNL     1     -53.671 -35.510   4.977 -2.37 -0.00    -0.191 NA 
DOCKED: ATOM     11  C   UNL     1     -53.191 -34.680   5.633 -0.28 +0.00    +0.101 C  
DOCKED: ENDROOT
DOCKED: BRANCH   2  12
DOCKED: ATOM     12  C   UNL     1     -51.197 -30.614  10.276 -0.04 +0.00    +0.038 C  
DOCKED: BRANCH  12  13
DOCKED: ATOM     13  C   UNL     1     -51.642 -31.960  10.843 -0.06 +0.00    +0.038 C  
DOCKED: BRANCH  13  14
DOCKED: ATOM     14  C   UNL     1     -50.469 -32.703  11.480 -0.06 +0.00    +0.251 C  
DOCKED: BRANCH  14  15
DOCKED: ATOM     15  N   UNL     1     -50.624 -34.142  11.305 -0.15 +0.00    +0.141 N  
DOCKED: ATOM     16  C   UNL     1     -50.666 -34.819  12.602 -0.14 +0.00    +0.285 C  
DOCKED: ATOM     17  C   UNL     1     -51.835 -34.441  10.538 -0.15 +0.00    +0.285 C  
DOCKED: ENDBRANCH  14  15
DOCKED: ENDBRANCH  13  14
DOCKED: ENDBRANCH  12  13
DOCKED: ENDBRANCH   2  12
DOCKED: BRANCH   2  18
DOCKED: ATOM     18  C   UNL     1     -50.405 -29.427   8.238 -0.09 +0.00    +0.006 A  
DOCKED: ATOM     19  C   UNL     1     -50.671 -28.263   8.956 -0.03 +0.00    +0.001 A  
DOCKED: ATOM     20  C   UNL     1     -50.445 -27.016   8.371 -0.02 +0.00    +0.029 A  
DOCKED: ATOM     21  C   UNL     1     -49.953 -26.937   7.069 -0.04 +0.00    +0.140 A  
DOCKED: ATOM     22  C   UNL     1     -49.687 -28.102   6.350 -0.13 +0.00    +0.029 A  
DOCKED: ATOM     23  F   UNL     1     -49.735 -25.740   6.507 -0.00 -0.00    -0.204 F  
DOCKED: ATOM     24  C   UNL     1     -49.913 -29.349   6.935 -0.16 +0.00    +0.001 A  
DOCKED: ENDBRANCH   2  18
DOCKED: TORSDOF 5
DOCKED: TER
DOCKED: ENDMDL
________________________________________________________________________________


    FINAL DOCKED STATE:
    ________________________


Run:   275 / 512
Time taken for this run:   0.001s

DOCKED: MODEL        275
DOCKED: USER    Run = 275
DOCKED: USER
DOCKED: USER    Estimated Free Energy of Binding    =  -4.60 kcal/mol  [=(1)+(2)+(3)-(4)]
DOCKED: USER
DOCKED: USER    (1) Final Intermolecular Energy     =  -6.09 kcal/mol
DOCKED: USER        vdW + Hbond + desolv Energy     =  -6.09 kcal/mol
DOCKED: USER        Electrostatic Energy            =  +0.00 kcal/mol
DOCKED: USER        Moving Ligand-Fixed Receptor    =  -6.09 kcal/mol
DOCKED: USER        Moving Ligand-Moving Receptor   =  +0.00 kcal/mol
DOCKED: USER    (2) Final Total Internal Energy     =  -1.43 kcal/mol
DOCKED: USER    (3) Torsional Free Energy           =  +1.49 kcal/mol
DOCKED: USER    (4) Unbound System's Energy         =  -1.43 kcal/mol
DOCKED: USER
DOCKED: USER
DOCKED: REMARK  5 active torsions:
DOCKED: REMARK  status: ('A' for Active; 'I' for Inactive)
DOCKED: REMARK    1  A    between atoms: C_2  and  C_19 
DOCKED: REMARK    2  A    between atoms: C_2  and  C_11 
DOCKED: REMARK    3  A    between atoms: C_19  and  C_20 
DOCKED: REMARK    4  A    between atoms: C_20  and  C_21 
DOCKED: REMARK    5  A    between atoms: C_21  and  N_22 
DOCKED: USER                              x       y       z     vdW  Elec       q    Type
DOCKED: USER                           _______ _______ _______ _____ _____    ______ ____
DOCKED: ROOT
DOCKED: ATOM      1  O   UNL     1     -47.603 -26.027  -0.625 -0.02 -0.00    -0.346 OA 
DOCKED: ATOM      2  C   UNL     1     -48.868 -25.596  -0.028 -0.20 +0.00    +0.130 C  
DOCKED: ATOM      3  C   UNL     1     -49.454 -24.672  -1.056 -0.27 +0.00    +0.004 A  
DOCKED: ATOM      4  C   UNL     1     -48.651 -24.661  -2.187 -0.25 +0.00    +0.006 A  
DOCKED: ATOM      5  C   UNL     1     -47.501 -25.573  -1.995 -0.14 +0.00    +0.169 C  
DOCKED: ATOM      6  C   UNL     1     -50.613 -23.911  -0.999 -0.12 -0.00    -0.001 A  
DOCKED: ATOM      7  C   UNL     1     -48.972 -23.891  -3.292 -0.00 +0.00    +0.008 A  
DOCKED: ATOM      8  C   UNL     1     -50.948 -23.125  -2.103 -0.29 +0.00    +0.010 A  
DOCKED: ATOM      9  C   UNL     1     -50.131 -23.116  -3.244 -0.24 +0.00    +0.068 A  
DOCKED: ATOM     10  N   UNL     1     -50.785 -21.651  -5.279 -2.43 -0.00    -0.191 NA 
DOCKED: ATOM     11  C   UNL     1     -50.491 -22.308  -4.366 -0.29 +0.00    +0.101 C  
DOCKED: ENDROOT
DOCKED: BRANCH   2  12
DOCKED: ATOM     12  C   UNL     1     -49.729 -26.829   0.221 -0.24 +0.00    +0.038 C  
DOCKED: BRANCH  12  13
DOCKED: ATOM     13  C   UNL     1     -49.171 -27.675   1.364 -0.22 +0.00    +0.038 C  
DOCKED: BRANCH  13  14
DOCKED: ATOM     14  C   UNL     1     -48.426 -28.897   0.830 -0.19 +0.00    +0.251 C  
DOCKED: BRANCH  14  15
DOCKED: ATOM     15  N   UNL     1     -47.180 -29.091   1.563 -0.12 +0.00    +0.141 N  
DOCKED: ATOM     16  C   UNL     1     -46.102 -28.299   0.967 -0.03 +0.00    +0.285 C  
DOCKED: ATOM     17  C   UNL     1     -47.350 -28.736   2.973 -0.09 +0.00    +0.285 C  
DOCKED: ENDBRANCH  14  15
DOCKED: ENDBRANCH  13  14
DOCKED: ENDBRANCH  12  13
DOCKED: ENDBRANCH   2  12
DOCKED: BRANCH   2  18
DOCKED: ATOM     18  C   UNL     1     -48.534 -24.905   1.252 -0.18 +0.00    +0.006 A  
DOCKED: ATOM     19  C   UNL     1     -49.548 -24.346   2.027 -0.23 +0.00    +0.001 A  
DOCKED: ATOM     20  C   UNL     1     -49.234 -23.700   3.223 -0.18 +0.00    +0.029 A  
DOCKED: ATOM     21  C   UNL     1     -47.907 -23.615   3.642 -0.08 +0.00    +0.140 A  
DOCKED: ATOM     22  C   UNL     1     -46.893 -24.175   2.867 -0.11 +0.00    +0.029 A  
DOCKED: ATOM     23  F   UNL     1     -47.606 -22.997   4.792 -0.04 -0.00    -0.204 F  
DOCKED: ATOM     24  C   UNL     1     -47.206 -24.821   1.669 -0.12 +0.00    +0.001 A  
DOCKED: ENDBRANCH   2  18
DOCKED: TORSDOF 5
DOCKED: TER
DOCKED: ENDMDL
________________________________________________________________________________


    FINAL DOCKED STATE:
    ________________________


Run:   276 / 512
Time taken for this run:   0.001s

DOCKED: MODEL        276
DOCKED: USER    Run = 276
DOCKED: USER
DOCKED: USER    Estimated Free Energy of Binding    =  -4.37 kcal/mol  [=(1)+(2)+(3)-(4)]
DOCKED: USER
DOCKED: USER    (1) Final Intermolecular Energy     =  -5.86 kcal/mol
DOCKED: USER        vdW + Hbond + desolv Energy     =  -5.86 kcal/mol
DOCKED: USER        Electrostatic Energy            =  +0.00 kcal/mol
DOCKED: USER        Moving Ligand-Fixed Receptor    =  -5.86 kcal/mol
DOCKED: USER        Moving Ligand-Moving Receptor   =  +0.00 kcal/mol
DOCKED: USER    (2) Final Total Internal Energy     =  -1.11 kcal/mol
DOCKED: USER    (3) Torsional Free Energy           =  +1.49 kcal/mol
DOCKED: USER    (4) Unbound System's Energy         =  -1.11 kcal/mol
DOCKED: USER
DOCKED: USER
DOCKED: REMARK  5 active torsions:
DOCKED: REMARK  status: ('A' for Active; 'I' for Inactive)
DOCKED: REMARK    1  A    between atoms: C_2  and  C_19 
DOCKED: REMARK    2  A    between atoms: C_2  and  C_11 
DOCKED: REMARK    3  A    between atoms: C_19  and  C_20 
DOCKED: REMARK    4  A    between atoms: C_20  and  C_21 
DOCKED: REMARK    5  A    between atoms: C_21  and  N_22 
DOCKED: USER                              x       y       z     vdW  Elec       q    Type
DOCKED: USER                           _______ _______ _______ _____ _____    ______ ____
DOCKED: ROOT
DOCKED: ATOM      1  O   UNL     1     -51.261 -28.695   6.708 -0.08 -0.00    -0.346 OA 
DOCKED: ATOM      2  C   UNL     1     -52.585 -28.796   7.324 -0.15 +0.00    +0.130 C  
DOCKED: ATOM      3  C   UNL     1     -53.040 -30.183   6.973 -0.22 +0.00    +0.004 A  
DOCKED: ATOM      4  C   UNL     1     -52.023 -30.855   6.311 -0.26 +0.00    +0.006 A  
DOCKED: ATOM      5  C   UNL     1     -50.837 -29.978   6.190 -0.11 +0.00    +0.169 C  
DOCKED: ATOM      6  C   UNL     1     -54.254 -30.804   7.229 -0.21 -0.00    -0.001 A  
DOCKED: ATOM      7  C   UNL     1     -52.182 -32.161   5.881 -0.34 +0.00    +0.008 A  
DOCKED: ATOM      8  C   UNL     1     -54.432 -32.120   6.798 -0.22 +0.00    +0.010 A  
DOCKED: ATOM      9  C   UNL     1     -53.401 -32.795   6.128 -0.26 +0.00    +0.068 A  
DOCKED: ATOM     10  N   UNL     1     -53.762 -35.238   5.346 -2.56 -0.00    -0.191 NA 
DOCKED: ATOM     11  C   UNL     1     -53.600 -34.142   5.696 -0.36 +0.00    +0.101 C  
DOCKED: ENDROOT
DOCKED: BRANCH   2  12
DOCKED: ATOM     12  C   UNL     1     -52.437 -28.582   8.825 -0.05 +0.00    +0.038 C  
DOCKED: BRANCH  12  13
DOCKED: ATOM     13  C   UNL     1     -51.156 -27.818   9.155 -0.03 +0.00    +0.038 C  
DOCKED: BRANCH  13  14
DOCKED: ATOM     14  C   UNL     1     -51.420 -26.316   9.245 -0.00 +0.00    +0.251 C  
DOCKED: BRANCH  14  15
DOCKED: ATOM     15  N   UNL     1     -51.547 -25.906  10.638 +0.00 +0.00    +0.141 N  
DOCKED: ATOM     16  C   UNL     1     -52.956 -25.826  11.026 +0.00 +0.00    +0.285 C  
DOCKED: ATOM     17  C   UNL     1     -50.831 -26.833  11.516 +0.00 +0.00    +0.285 C  
DOCKED: ENDBRANCH  14  15
DOCKED: ENDBRANCH  13  14
DOCKED: ENDBRANCH  12  13
DOCKED: ENDBRANCH   2  12
DOCKED: BRANCH   2  18
DOCKED: ATOM     18  C   UNL     1     -53.434 -27.733   6.710 -0.19 +0.00    +0.006 A  
DOCKED: ATOM     19  C   UNL     1     -54.808 -27.715   6.946 -0.20 +0.00    +0.001 A  
DOCKED: ATOM     20  C   UNL     1     -55.600 -26.721   6.371 -0.17 +0.00    +0.029 A  
DOCKED: ATOM     21  C   UNL     1     -55.018 -25.746   5.562 -0.11 +0.00    +0.140 A  
DOCKED: ATOM     22  C   UNL     1     -53.644 -25.765   5.326 -0.16 +0.00    +0.029 A  
DOCKED: ATOM     23  F   UNL     1     -55.779 -24.791   5.012 -0.02 -0.00    -0.204 F  
DOCKED: ATOM     24  C   UNL     1     -52.850 -26.759   5.900 -0.16 +0.00    +0.001 A  
DOCKED: ENDBRANCH   2  18
DOCKED: TORSDOF 5
DOCKED: TER
DOCKED: ENDMDL
________________________________________________________________________________


    FINAL DOCKED STATE:
    ________________________


Run:   277 / 512
Time taken for this run:   0.001s

DOCKED: MODEL        277
DOCKED: USER    Run = 277
DOCKED: USER
DOCKED: USER    Estimated Free Energy of Binding    =  -3.83 kcal/mol  [=(1)+(2)+(3)-(4)]
DOCKED: USER
DOCKED: USER    (1) Final Intermolecular Energy     =  -5.32 kcal/mol
DOCKED: USER        vdW + Hbond + desolv Energy     =  -5.32 kcal/mol
DOCKED: USER        Electrostatic Energy            =  +0.00 kcal/mol
DOCKED: USER        Moving Ligand-Fixed Receptor    =  -5.32 kcal/mol
DOCKED: USER        Moving Ligand-Moving Receptor   =  +0.00 kcal/mol
DOCKED: USER    (2) Final Total Internal Energy     =  -1.24 kcal/mol
DOCKED: USER    (3) Torsional Free Energy           =  +1.49 kcal/mol
DOCKED: USER    (4) Unbound System's Energy         =  -1.24 kcal/mol
DOCKED: USER
DOCKED: USER
DOCKED: REMARK  5 active torsions:
DOCKED: REMARK  status: ('A' for Active; 'I' for Inactive)
DOCKED: REMARK    1  A    between atoms: C_2  and  C_19 
DOCKED: REMARK    2  A    between atoms: C_2  and  C_11 
DOCKED: REMARK    3  A    between atoms: C_19  and  C_20 
DOCKED: REMARK    4  A    between atoms: C_20  and  C_21 
DOCKED: REMARK    5  A    between atoms: C_21  and  N_22 
DOCKED: USER                              x       y       z     vdW  Elec       q    Type
DOCKED: USER                           _______ _______ _______ _____ _____    ______ ____
DOCKED: ROOT
DOCKED: ATOM      1  O   UNL     1     -43.906 -30.136   0.805 +0.01 -0.00    -0.346 OA 
DOCKED: ATOM      2  C   UNL     1     -44.217 -31.160  -0.194 -0.07 +0.00    +0.130 C  
DOCKED: ATOM      3  C   UNL     1     -44.685 -32.329   0.624 -0.12 +0.00    +0.004 A  
DOCKED: ATOM      4  C   UNL     1     -44.742 -31.969   1.963 -0.11 +0.00    +0.006 A  
DOCKED: ATOM      5  C   UNL     1     -44.335 -30.555   2.121 -0.04 +0.00    +0.169 C  
DOCKED: ATOM      6  C   UNL     1     -45.042 -33.605   0.214 -0.15 -0.00    -0.001 A  
DOCKED: ATOM      7  C   UNL     1     -45.151 -32.868   2.933 -0.22 +0.00    +0.008 A  
DOCKED: ATOM      8  C   UNL     1     -45.453 -34.524   1.181 -0.29 +0.00    +0.010 A  
DOCKED: ATOM      9  C   UNL     1     -45.507 -34.157   2.534 -0.30 +0.00    +0.068 A  
DOCKED: ATOM     10  N   UNL     1     -46.279 -35.885   4.303 -2.68 -0.00    -0.191 NA 
DOCKED: ATOM     11  C   UNL     1     -45.932 -35.110   3.509 -0.39 +0.00    +0.101 C  
DOCKED: ENDROOT
DOCKED: BRANCH   2  12
DOCKED: ATOM     12  C   UNL     1     -45.296 -30.615  -1.123 -0.14 +0.00    +0.038 C  
DOCKED: BRANCH  12  13
DOCKED: ATOM     13  C   UNL     1     -46.080 -29.483  -0.462 -0.15 +0.00    +0.038 C  
DOCKED: BRANCH  13  14
DOCKED: ATOM     14  C   UNL     1     -47.412 -29.987   0.090 -0.14 +0.00    +0.251 C  
DOCKED: BRANCH  14  15
DOCKED: ATOM     15  N   UNL     1     -47.812 -29.196   1.249 -0.19 +0.00    +0.141 N  
DOCKED: ATOM     16  C   UNL     1     -49.246 -28.904   1.204 -0.17 +0.00    +0.285 C  
DOCKED: ATOM     17  C   UNL     1     -47.475 -29.894   2.490 -0.12 +0.00    +0.285 C  
DOCKED: ENDBRANCH  14  15
DOCKED: ENDBRANCH  13  14
DOCKED: ENDBRANCH  12  13
DOCKED: ENDBRANCH   2  12
DOCKED: BRANCH   2  18
DOCKED: ATOM     18  C   UNL     1     -42.956 -31.439  -0.940 -0.02 +0.00    +0.006 A  
DOCKED: ATOM     19  C   UNL     1     -42.836 -31.056  -2.275 -0.02 +0.00    +0.001 A  
DOCKED: ATOM     20  C   UNL     1     -41.656 -31.318  -2.972 -0.00 +0.00    +0.029 A  
DOCKED: ATOM     21  C   UNL     1     -40.598 -31.963  -2.333 -0.00 +0.00    +0.140 A  
DOCKED: ATOM     22  C   UNL     1     -40.718 -32.346  -0.997 -0.00 +0.00    +0.029 A  
DOCKED: ATOM     23  F   UNL     1     -39.464 -32.213  -3.001 +0.00 -0.00    -0.204 F  
DOCKED: ATOM     24  C   UNL     1     -41.898 -32.084  -0.300 -0.01 +0.00    +0.001 A  
DOCKED: ENDBRANCH   2  18
DOCKED: TORSDOF 5
DOCKED: TER
DOCKED: ENDMDL
________________________________________________________________________________


    FINAL DOCKED STATE:
    ________________________


Run:   278 / 512
Time taken for this run:   0.001s

DOCKED: MODEL        278
DOCKED: USER    Run = 278
DOCKED: USER
DOCKED: USER    Estimated Free Energy of Binding    =  -3.91 kcal/mol  [=(1)+(2)+(3)-(4)]
DOCKED: USER
DOCKED: USER    (1) Final Intermolecular Energy     =  -5.40 kcal/mol
DOCKED: USER        vdW + Hbond + desolv Energy     =  -5.40 kcal/mol
DOCKED: USER        Electrostatic Energy            =  +0.00 kcal/mol
DOCKED: USER        Moving Ligand-Fixed Receptor    =  -5.40 kcal/mol
DOCKED: USER        Moving Ligand-Moving Receptor   =  +0.00 kcal/mol
DOCKED: USER    (2) Final Total Internal Energy     =  -1.22 kcal/mol
DOCKED: USER    (3) Torsional Free Energy           =  +1.49 kcal/mol
DOCKED: USER    (4) Unbound System's Energy         =  -1.22 kcal/mol
DOCKED: USER
DOCKED: USER
DOCKED: REMARK  5 active torsions:
DOCKED: REMARK  status: ('A' for Active; 'I' for Inactive)
DOCKED: REMARK    1  A    between atoms: C_2  and  C_19 
DOCKED: REMARK    2  A    between atoms: C_2  and  C_11 
DOCKED: REMARK    3  A    between atoms: C_19  and  C_20 
DOCKED: REMARK    4  A    between atoms: C_20  and  C_21 
DOCKED: REMARK    5  A    between atoms: C_21  and  N_22 
DOCKED: USER                              x       y       z     vdW  Elec       q    Type
DOCKED: USER                           _______ _______ _______ _____ _____    ______ ____
DOCKED: ROOT
DOCKED: ATOM      1  O   UNL     1     -44.393 -33.423  -1.645 -0.03 -0.00    -0.346 OA 
DOCKED: ATOM      2  C   UNL     1     -44.153 -32.349  -0.680 -0.09 +0.00    +0.130 C  
DOCKED: ATOM      3  C   UNL     1     -44.594 -32.937   0.629 -0.13 +0.00    +0.004 A  
DOCKED: ATOM      4  C   UNL     1     -44.950 -34.266   0.448 -0.20 +0.00    +0.006 A  
DOCKED: ATOM      5  C   UNL     1     -44.760 -34.648  -0.969 -0.07 +0.00    +0.169 C  
DOCKED: ATOM      6  C   UNL     1     -44.664 -32.346   1.882 -0.12 -0.00    -0.001 A  
DOCKED: ATOM      7  C   UNL     1     -45.389 -35.045   1.505 -0.33 +0.00    +0.008 A  
DOCKED: ATOM      8  C   UNL     1     -45.109 -33.117   2.958 -0.23 +0.00    +0.010 A  
DOCKED: ATOM      9  C   UNL     1     -45.469 -34.460   2.769 -0.32 +0.00    +0.068 A  
DOCKED: ATOM     10  N   UNL     1     -46.286 -35.864   4.788 -2.63 -0.00    -0.191 NA 
DOCKED: ATOM     11  C   UNL     1     -45.920 -35.234   3.882 -0.28 +0.00    +0.101 C  
DOCKED: ENDROOT
DOCKED: BRANCH   2  12
DOCKED: ATOM     12  C   UNL     1     -42.670 -32.000  -0.705 -0.03 +0.00    +0.038 C  
DOCKED: BRANCH  12  13
DOCKED: ATOM     13  C   UNL     1     -41.813 -33.179  -0.248 -0.02 +0.00    +0.038 C  
DOCKED: BRANCH  13  14
DOCKED: ATOM     14  C   UNL     1     -40.523 -32.698   0.412 -0.00 +0.00    +0.251 C  
DOCKED: BRANCH  14  15
DOCKED: ATOM     15  N   UNL     1     -40.663 -32.704   1.864 -0.01 +0.00    +0.141 N  
DOCKED: ATOM     16  C   UNL     1     -41.279 -31.461   2.328 +0.00 +0.00    +0.285 C  
DOCKED: ATOM     17  C   UNL     1     -41.453 -33.856   2.300 -0.02 +0.00    +0.285 C  
DOCKED: ENDBRANCH  14  15
DOCKED: ENDBRANCH  13  14
DOCKED: ENDBRANCH  12  13
DOCKED: ENDBRANCH   2  12
DOCKED: BRANCH   2  18
DOCKED: ATOM     18  C   UNL     1     -44.987 -31.186  -1.105 -0.11 +0.00    +0.006 A  
DOCKED: ATOM     19  C   UNL     1     -44.764 -30.585  -2.344 -0.12 +0.00    +0.001 A  
DOCKED: ATOM     20  C   UNL     1     -45.544 -29.498  -2.740 -0.13 +0.00    +0.029 A  
DOCKED: ATOM     21  C   UNL     1     -46.544 -29.014  -1.898 -0.17 +0.00    +0.140 A  
DOCKED: ATOM     22  C   UNL     1     -46.767 -29.616  -0.660 -0.18 +0.00    +0.029 A  
DOCKED: ATOM     23  F   UNL     1     -47.294 -27.971  -2.280 -0.08 -0.00    -0.204 F  
DOCKED: ATOM     24  C   UNL     1     -45.987 -30.703  -0.262 -0.12 +0.00    +0.001 A  
DOCKED: ENDBRANCH   2  18
DOCKED: TORSDOF 5
DOCKED: TER
DOCKED: ENDMDL
________________________________________________________________________________


    FINAL DOCKED STATE:
    ________________________


Run:   279 / 512
Time taken for this run:   0.001s

DOCKED: MODEL        279
DOCKED: USER    Run = 279
DOCKED: USER
DOCKED: USER    Estimated Free Energy of Binding    =  -3.80 kcal/mol  [=(1)+(2)+(3)-(4)]
DOCKED: USER
DOCKED: USER    (1) Final Intermolecular Energy     =  -5.29 kcal/mol
DOCKED: USER        vdW + Hbond + desolv Energy     =  -5.29 kcal/mol
DOCKED: USER        Electrostatic Energy            =  +0.00 kcal/mol
DOCKED: USER        Moving Ligand-Fixed Receptor    =  -5.29 kcal/mol
DOCKED: USER        Moving Ligand-Moving Receptor   =  +0.00 kcal/mol
DOCKED: USER    (2) Final Total Internal Energy     =  -1.28 kcal/mol
DOCKED: USER    (3) Torsional Free Energy           =  +1.49 kcal/mol
DOCKED: USER    (4) Unbound System's Energy         =  -1.28 kcal/mol
DOCKED: USER
DOCKED: USER
DOCKED: REMARK  5 active torsions:
DOCKED: REMARK  status: ('A' for Active; 'I' for Inactive)
DOCKED: REMARK    1  A    between atoms: C_2  and  C_19 
DOCKED: REMARK    2  A    between atoms: C_2  and  C_11 
DOCKED: REMARK    3  A    between atoms: C_19  and  C_20 
DOCKED: REMARK    4  A    between atoms: C_20  and  C_21 
DOCKED: REMARK    5  A    between atoms: C_21  and  N_22 
DOCKED: USER                              x       y       z     vdW  Elec       q    Type
DOCKED: USER                           _______ _______ _______ _____ _____    ______ ____
DOCKED: ROOT
DOCKED: ATOM      1  O   UNL     1     -44.988 -20.878  -2.453 -0.01 -0.00    -0.346 OA 
DOCKED: ATOM      2  C   UNL     1     -45.112 -20.618  -3.888 -0.09 +0.00    +0.130 C  
DOCKED: ATOM      3  C   UNL     1     -46.510 -21.058  -4.213 -0.13 +0.00    +0.004 A  
DOCKED: ATOM      4  C   UNL     1     -47.165 -21.432  -3.048 -0.22 +0.00    +0.006 A  
DOCKED: ATOM      5  C   UNL     1     -46.264 -21.257  -1.887 -0.15 +0.00    +0.169 C  
DOCKED: ATOM      6  C   UNL     1     -47.154 -21.112  -5.440 -0.20 -0.00    -0.001 A  
DOCKED: ATOM      7  C   UNL     1     -48.476 -21.875  -3.069 -0.33 +0.00    +0.008 A  
DOCKED: ATOM      8  C   UNL     1     -48.476 -21.561  -5.479 -0.33 +0.00    +0.010 A  
DOCKED: ATOM      9  C   UNL     1     -49.133 -21.940  -4.299 -0.38 +0.00    +0.068 A  
DOCKED: ATOM     10  N   UNL     1     -51.588 -22.762  -4.405 -2.36 -0.00    -0.191 NA 
DOCKED: ATOM     11  C   UNL     1     -50.487 -22.394  -4.358 -0.34 +0.00    +0.101 C  
DOCKED: ENDROOT
DOCKED: BRANCH   2  12
DOCKED: ATOM     12  C   UNL     1     -44.887 -19.130  -4.130 -0.10 +0.00    +0.038 C  
DOCKED: BRANCH  12  13
DOCKED: ATOM     13  C   UNL     1     -45.860 -18.280  -3.316 -0.14 +0.00    +0.038 C  
DOCKED: BRANCH  13  14
DOCKED: ATOM     14  C   UNL     1     -45.112 -17.309  -2.404 -0.07 +0.00    +0.251 C  
DOCKED: BRANCH  14  15
DOCKED: ATOM     15  N   UNL     1     -45.803 -17.179  -1.127 -0.07 +0.00    +0.141 N  
DOCKED: ATOM     16  C   UNL     1     -47.100 -17.857  -1.170 -0.18 +0.00    +0.285 C  
DOCKED: ATOM     17  C   UNL     1     -44.984 -17.718  -0.040 -0.05 +0.00    +0.285 C  
DOCKED: ENDBRANCH  14  15
DOCKED: ENDBRANCH  13  14
DOCKED: ENDBRANCH  12  13
DOCKED: ENDBRANCH   2  12
DOCKED: BRANCH   2  18
DOCKED: ATOM     18  C   UNL     1     -44.070 -21.439  -4.571 -0.04 +0.00    +0.006 A  
DOCKED: ATOM     19  C   UNL     1     -43.637 -22.634  -3.998 -0.01 +0.00    +0.001 A  
DOCKED: ATOM     20  C   UNL     1     -42.662 -23.400  -4.638 -0.00 +0.00    +0.029 A  
DOCKED: ATOM     21  C   UNL     1     -42.123 -22.971  -5.850 +0.00 +0.00    +0.140 A  
DOCKED: ATOM     22  C   UNL     1     -42.556 -21.775  -6.423 -0.02 +0.00    +0.029 A  
DOCKED: ATOM     23  F   UNL     1     -41.188 -23.707  -6.465 +0.00 -0.00    -0.204 F  
DOCKED: ATOM     24  C   UNL     1     -43.531 -21.008  -5.783 -0.05 +0.00    +0.001 A  
DOCKED: ENDBRANCH   2  18
DOCKED: TORSDOF 5
DOCKED: TER
DOCKED: ENDMDL
________________________________________________________________________________


    FINAL DOCKED STATE:
    ________________________


Run:   280 / 512
Time taken for this run:   0.001s

DOCKED: MODEL        280
DOCKED: USER    Run = 280
DOCKED: USER
DOCKED: USER    Estimated Free Energy of Binding    =  -3.91 kcal/mol  [=(1)+(2)+(3)-(4)]
DOCKED: USER
DOCKED: USER    (1) Final Intermolecular Energy     =  -5.41 kcal/mol
DOCKED: USER        vdW + Hbond + desolv Energy     =  -5.41 kcal/mol
DOCKED: USER        Electrostatic Energy            =  +0.00 kcal/mol
DOCKED: USER        Moving Ligand-Fixed Receptor    =  -5.41 kcal/mol
DOCKED: USER        Moving Ligand-Moving Receptor   =  +0.00 kcal/mol
DOCKED: USER    (2) Final Total Internal Energy     =  -1.39 kcal/mol
DOCKED: USER    (3) Torsional Free Energy           =  +1.49 kcal/mol
DOCKED: USER    (4) Unbound System's Energy         =  -1.39 kcal/mol
DOCKED: USER
DOCKED: USER
DOCKED: REMARK  5 active torsions:
DOCKED: REMARK  status: ('A' for Active; 'I' for Inactive)
DOCKED: REMARK    1  A    between atoms: C_2  and  C_19 
DOCKED: REMARK    2  A    between atoms: C_2  and  C_11 
DOCKED: REMARK    3  A    between atoms: C_19  and  C_20 
DOCKED: REMARK    4  A    between atoms: C_20  and  C_21 
DOCKED: REMARK    5  A    between atoms: C_21  and  N_22 
DOCKED: USER                              x       y       z     vdW  Elec       q    Type
DOCKED: USER                           _______ _______ _______ _____ _____    ______ ____
DOCKED: ROOT
DOCKED: ATOM      1  O   UNL     1     -43.134 -31.684  -0.824 +0.01 -0.00    -0.346 OA 
DOCKED: ATOM      2  C   UNL     1     -44.127 -30.873  -0.117 -0.05 +0.00    +0.130 C  
DOCKED: ATOM      3  C   UNL     1     -44.751 -31.835   0.853 -0.11 +0.00    +0.004 A  
DOCKED: ATOM      4  C   UNL     1     -44.097 -33.057   0.784 -0.10 +0.00    +0.006 A  
DOCKED: ATOM      5  C   UNL     1     -43.004 -32.987  -0.211 -0.03 +0.00    +0.169 C  
DOCKED: ATOM      6  C   UNL     1     -45.805 -31.640   1.734 -0.21 -0.00    -0.001 A  
DOCKED: ATOM      7  C   UNL     1     -44.475 -34.122   1.585 -0.18 +0.00    +0.008 A  
DOCKED: ATOM      8  C   UNL     1     -46.200 -32.705   2.545 -0.29 +0.00    +0.010 A  
DOCKED: ATOM      9  C   UNL     1     -45.538 -33.940   2.471 -0.28 +0.00    +0.068 A  
DOCKED: ATOM     10  N   UNL     1     -46.293 -35.895   3.993 -2.59 -0.00    -0.191 NA 
DOCKED: ATOM     11  C   UNL     1     -45.955 -35.018   3.310 -0.40 +0.00    +0.101 C  
DOCKED: ENDROOT
DOCKED: BRANCH   2  12
DOCKED: ATOM     12  C   UNL     1     -43.407 -29.720   0.572 -0.02 +0.00    +0.038 C  
DOCKED: BRANCH  12  13
DOCKED: ATOM     13  C   UNL     1     -41.890 -29.894   0.510 -0.00 +0.00    +0.038 C  
DOCKED: BRANCH  13  14
DOCKED: ATOM     14  C   UNL     1     -41.241 -28.772  -0.298 +0.00 +0.00    +0.251 C  
DOCKED: BRANCH  14  15
DOCKED: ATOM     15  N   UNL     1     -41.727 -28.789  -1.673 -0.00 +0.00    +0.141 N  
DOCKED: ATOM     16  C   UNL     1     -42.199 -27.462  -2.070 -0.00 +0.00    +0.285 C  
DOCKED: ATOM     17  C   UNL     1     -40.679 -29.250  -2.585 +0.00 +0.00    +0.285 C  
DOCKED: ENDBRANCH  14  15
DOCKED: ENDBRANCH  13  14
DOCKED: ENDBRANCH  12  13
DOCKED: ENDBRANCH   2  12
DOCKED: BRANCH   2  18
DOCKED: ATOM     18  C   UNL     1     -45.090 -30.372  -1.140 -0.11 +0.00    +0.006 A  
DOCKED: ATOM     19  C   UNL     1     -46.101 -29.486  -0.770 -0.15 +0.00    +0.001 A  
DOCKED: ATOM     20  C   UNL     1     -47.002 -29.019  -1.728 -0.20 +0.00    +0.029 A  
DOCKED: ATOM     21  C   UNL     1     -46.890 -29.437  -3.053 -0.20 +0.00    +0.140 A  
DOCKED: ATOM     22  C   UNL     1     -45.878 -30.323  -3.423 -0.20 +0.00    +0.029 A  
DOCKED: ATOM     23  F   UNL     1     -47.753 -28.987  -3.973 -0.14 -0.00    -0.204 F  
DOCKED: ATOM     24  C   UNL     1     -44.977 -30.792  -2.465 -0.14 +0.00    +0.001 A  
DOCKED: ENDBRANCH   2  18
DOCKED: TORSDOF 5
DOCKED: TER
DOCKED: ENDMDL
________________________________________________________________________________


    FINAL DOCKED STATE:
    ________________________


Run:   281 / 512
Time taken for this run:   0.001s

DOCKED: MODEL        281
DOCKED: USER    Run = 281
DOCKED: USER
DOCKED: USER    Estimated Free Energy of Binding    =  -5.63 kcal/mol  [=(1)+(2)+(3)-(4)]
DOCKED: USER
DOCKED: USER    (1) Final Intermolecular Energy     =  -7.12 kcal/mol
DOCKED: USER        vdW + Hbond + desolv Energy     =  -7.12 kcal/mol
DOCKED: USER        Electrostatic Energy            =  +0.00 kcal/mol
DOCKED: USER        Moving Ligand-Fixed Receptor    =  -7.12 kcal/mol
DOCKED: USER        Moving Ligand-Moving Receptor   =  +0.00 kcal/mol
DOCKED: USER    (2) Final Total Internal Energy     =  -1.26 kcal/mol
DOCKED: USER    (3) Torsional Free Energy           =  +1.49 kcal/mol
DOCKED: USER    (4) Unbound System's Energy         =  -1.26 kcal/mol
DOCKED: USER
DOCKED: USER
DOCKED: REMARK  5 active torsions:
DOCKED: REMARK  status: ('A' for Active; 'I' for Inactive)
DOCKED: REMARK    1  A    between atoms: C_2  and  C_19 
DOCKED: REMARK    2  A    between atoms: C_2  and  C_11 
DOCKED: REMARK    3  A    between atoms: C_19  and  C_20 
DOCKED: REMARK    4  A    between atoms: C_20  and  C_21 
DOCKED: REMARK    5  A    between atoms: C_21  and  N_22 
DOCKED: USER                              x       y       z     vdW  Elec       q    Type
DOCKED: USER                           _______ _______ _______ _____ _____    ______ ____
DOCKED: ROOT
DOCKED: ATOM      1  O   UNL     1     -51.953 -32.831   8.076 -0.05 -0.00    -0.346 OA 
DOCKED: ATOM      2  C   UNL     1     -53.344 -33.286   8.073 -0.15 +0.00    +0.130 C  
DOCKED: ATOM      3  C   UNL     1     -53.658 -33.475   6.617 -0.27 +0.00    +0.004 A  
DOCKED: ATOM      4  C   UNL     1     -52.516 -33.255   5.861 -0.38 +0.00    +0.006 A  
DOCKED: ATOM      5  C   UNL     1     -51.381 -32.923   6.751 -0.26 +0.00    +0.169 C  
DOCKED: ATOM      6  C   UNL     1     -54.856 -33.825   6.012 -0.30 -0.00    -0.001 A  
DOCKED: ATOM      7  C   UNL     1     -52.531 -33.372   4.482 -0.34 +0.00    +0.008 A  
DOCKED: ATOM      8  C   UNL     1     -54.889 -33.943   4.621 -0.30 +0.00    +0.010 A  
DOCKED: ATOM      9  C   UNL     1     -53.732 -33.718   3.860 -0.40 +0.00    +0.068 A  
DOCKED: ATOM     10  N   UNL     1     -53.827 -33.949   1.281 -3.08 -0.00    -0.191 NA 
DOCKED: ATOM     11  C   UNL     1     -53.784 -33.845   2.438 -0.28 +0.00    +0.101 C  
DOCKED: ENDROOT
DOCKED: BRANCH   2  12
DOCKED: ATOM     12  C   UNL     1     -53.430 -34.582   8.872 -0.26 +0.00    +0.038 C  
DOCKED: BRANCH  12  13
DOCKED: ATOM     13  C   UNL     1     -52.075 -34.960   9.466 -0.25 +0.00    +0.038 C  
DOCKED: BRANCH  13  14
DOCKED: ATOM     14  C   UNL     1     -51.962 -34.495  10.917 -0.15 +0.00    +0.251 C  
DOCKED: BRANCH  14  15
DOCKED: ATOM     15  N   UNL     1     -50.616 -34.004  11.189 -0.14 +0.00    +0.141 N  
DOCKED: ATOM     16  C   UNL     1     -50.565 -32.546  11.076 -0.05 +0.00    +0.285 C  
DOCKED: ATOM     17  C   UNL     1     -50.173 -34.426  12.519 -0.12 +0.00    +0.285 C  
DOCKED: ENDBRANCH  14  15
DOCKED: ENDBRANCH  13  14
DOCKED: ENDBRANCH  12  13
DOCKED: ENDBRANCH   2  12
DOCKED: BRANCH   2  18
DOCKED: ATOM     18  C   UNL     1     -54.157 -32.208   8.708 -0.09 +0.00    +0.006 A  
DOCKED: ATOM     19  C   UNL     1     -55.548 -32.237   8.615 -0.11 +0.00    +0.001 A  
DOCKED: ATOM     20  C   UNL     1     -56.307 -31.228   9.209 -0.07 +0.00    +0.029 A  
DOCKED: ATOM     21  C   UNL     1     -55.675 -30.192   9.895 -0.01 +0.00    +0.140 A  
DOCKED: ATOM     22  C   UNL     1     -54.284 -30.164   9.988 -0.03 +0.00    +0.029 A  
DOCKED: ATOM     23  F   UNL     1     -56.404 -29.225  10.466 +0.01 -0.00    -0.204 F  
DOCKED: ATOM     24  C   UNL     1     -53.523 -31.172   9.394 -0.05 +0.00    +0.001 A  
DOCKED: ENDBRANCH   2  18
DOCKED: TORSDOF 5
DOCKED: TER
DOCKED: ENDMDL
________________________________________________________________________________


    FINAL DOCKED STATE:
    ________________________


Run:   282 / 512
Time taken for this run:   0.001s

DOCKED: MODEL        282
DOCKED: USER    Run = 282
DOCKED: USER
DOCKED: USER    Estimated Free Energy of Binding    =  -4.32 kcal/mol  [=(1)+(2)+(3)-(4)]
DOCKED: USER
DOCKED: USER    (1) Final Intermolecular Energy     =  -5.81 kcal/mol
DOCKED: USER        vdW + Hbond + desolv Energy     =  -5.81 kcal/mol
DOCKED: USER        Electrostatic Energy            =  +0.00 kcal/mol
DOCKED: USER        Moving Ligand-Fixed Receptor    =  -5.81 kcal/mol
DOCKED: USER        Moving Ligand-Moving Receptor   =  +0.00 kcal/mol
DOCKED: USER    (2) Final Total Internal Energy     =  -1.29 kcal/mol
DOCKED: USER    (3) Torsional Free Energy           =  +1.49 kcal/mol
DOCKED: USER    (4) Unbound System's Energy         =  -1.29 kcal/mol
DOCKED: USER
DOCKED: USER
DOCKED: REMARK  5 active torsions:
DOCKED: REMARK  status: ('A' for Active; 'I' for Inactive)
DOCKED: REMARK    1  A    between atoms: C_2  and  C_19 
DOCKED: REMARK    2  A    between atoms: C_2  and  C_11 
DOCKED: REMARK    3  A    between atoms: C_19  and  C_20 
DOCKED: REMARK    4  A    between atoms: C_20  and  C_21 
DOCKED: REMARK    5  A    between atoms: C_21  and  N_22 
DOCKED: USER                              x       y       z     vdW  Elec       q    Type
DOCKED: USER                           _______ _______ _______ _____ _____    ______ ____
DOCKED: ROOT
DOCKED: ATOM      1  O   UNL     1     -50.980 -29.198   7.663 -0.04 -0.00    -0.346 OA 
DOCKED: ATOM      2  C   UNL     1     -52.439 -29.170   7.764 -0.12 +0.00    +0.130 C  
DOCKED: ATOM      3  C   UNL     1     -52.863 -30.511   7.239 -0.21 +0.00    +0.004 A  
DOCKED: ATOM      4  C   UNL     1     -51.741 -31.281   6.966 -0.26 +0.00    +0.006 A  
DOCKED: ATOM      5  C   UNL     1     -50.516 -30.519   7.298 -0.17 +0.00    +0.169 C  
DOCKED: ATOM      6  C   UNL     1     -54.138 -31.014   7.031 -0.22 -0.00    -0.001 A  
DOCKED: ATOM      7  C   UNL     1     -51.853 -32.570   6.474 -0.32 +0.00    +0.008 A  
DOCKED: ATOM      8  C   UNL     1     -54.269 -32.311   6.532 -0.24 +0.00    +0.010 A  
DOCKED: ATOM      9  C   UNL     1     -53.132 -33.085   6.255 -0.27 +0.00    +0.068 A  
DOCKED: ATOM     10  N   UNL     1     -53.409 -35.490   5.333 -2.60 -0.00    -0.191 NA 
DOCKED: ATOM     11  C   UNL     1     -53.285 -34.411   5.746 -0.36 +0.00    +0.101 C  
DOCKED: ENDROOT
DOCKED: BRANCH   2  12
DOCKED: ATOM     12  C   UNL     1     -52.818 -28.958   9.226 -0.04 +0.00    +0.038 C  
DOCKED: BRANCH  12  13
DOCKED: ATOM     13  C   UNL     1     -52.303 -27.617   9.746 -0.02 +0.00    +0.038 C  
DOCKED: BRANCH  13  14
DOCKED: ATOM     14  C   UNL     1     -51.174 -27.816  10.755 -0.00 +0.00    +0.251 C  
DOCKED: BRANCH  14  15
DOCKED: ATOM     15  N   UNL     1     -49.946 -27.196  10.271 -0.00 +0.00    +0.141 N  
DOCKED: ATOM     16  C   UNL     1     -49.288 -26.449  11.344 +0.00 +0.00    +0.285 C  
DOCKED: ATOM     17  C   UNL     1     -49.039 -28.206   9.725 -0.01 +0.00    +0.285 C  
DOCKED: ENDBRANCH  14  15
DOCKED: ENDBRANCH  13  14
DOCKED: ENDBRANCH  12  13
DOCKED: ENDBRANCH   2  12
DOCKED: BRANCH   2  18
DOCKED: ATOM     18  C   UNL     1     -52.914 -28.037   6.916 -0.17 +0.00    +0.006 A  
DOCKED: ATOM     19  C   UNL     1     -52.008 -27.334   6.123 -0.13 +0.00    +0.001 A  
DOCKED: ATOM     20  C   UNL     1     -52.453 -26.275   5.331 -0.14 +0.00    +0.029 A  
DOCKED: ATOM     21  C   UNL     1     -53.801 -25.921   5.332 -0.11 +0.00    +0.140 A  
DOCKED: ATOM     22  C   UNL     1     -54.707 -26.625   6.126 -0.18 +0.00    +0.029 A  
DOCKED: ATOM     23  F   UNL     1     -54.228 -24.906   4.570 -0.03 -0.00    -0.204 F  
DOCKED: ATOM     24  C   UNL     1     -54.263 -27.685   6.919 -0.20 +0.00    +0.001 A  
DOCKED: ENDBRANCH   2  18
DOCKED: TORSDOF 5
DOCKED: TER
DOCKED: ENDMDL
________________________________________________________________________________


    FINAL DOCKED STATE:
    ________________________


Run:   283 / 512
Time taken for this run:   0.001s

DOCKED: MODEL        283
DOCKED: USER    Run = 283
DOCKED: USER
DOCKED: USER    Estimated Free Energy of Binding    =  -4.38 kcal/mol  [=(1)+(2)+(3)-(4)]
DOCKED: USER
DOCKED: USER    (1) Final Intermolecular Energy     =  -5.87 kcal/mol
DOCKED: USER        vdW + Hbond + desolv Energy     =  -5.87 kcal/mol
DOCKED: USER        Electrostatic Energy            =  +0.00 kcal/mol
DOCKED: USER        Moving Ligand-Fixed Receptor    =  -5.87 kcal/mol
DOCKED: USER        Moving Ligand-Moving Receptor   =  +0.00 kcal/mol
DOCKED: USER    (2) Final Total Internal Energy     =  -1.36 kcal/mol
DOCKED: USER    (3) Torsional Free Energy           =  +1.49 kcal/mol
DOCKED: USER    (4) Unbound System's Energy         =  -1.36 kcal/mol
DOCKED: USER
DOCKED: USER
DOCKED: REMARK  5 active torsions:
DOCKED: REMARK  status: ('A' for Active; 'I' for Inactive)
DOCKED: REMARK    1  A    between atoms: C_2  and  C_19 
DOCKED: REMARK    2  A    between atoms: C_2  and  C_11 
DOCKED: REMARK    3  A    between atoms: C_19  and  C_20 
DOCKED: REMARK    4  A    between atoms: C_20  and  C_21 
DOCKED: REMARK    5  A    between atoms: C_21  and  N_22 
DOCKED: USER                              x       y       z     vdW  Elec       q    Type
DOCKED: USER                           _______ _______ _______ _____ _____    ______ ____
DOCKED: ROOT
DOCKED: ATOM      1  O   UNL     1     -47.799 -25.366   0.139 -0.04 -0.00    -0.346 OA 
DOCKED: ATOM      2  C   UNL     1     -49.223 -25.193   0.430 -0.22 +0.00    +0.130 C  
DOCKED: ATOM      3  C   UNL     1     -49.736 -24.404  -0.740 -0.29 +0.00    +0.004 A  
DOCKED: ATOM      4  C   UNL     1     -48.721 -24.235  -1.671 -0.27 +0.00    +0.006 A  
DOCKED: ATOM      5  C   UNL     1     -47.488 -24.902  -1.196 -0.13 +0.00    +0.169 C  
DOCKED: ATOM      6  C   UNL     1     -51.003 -23.886  -0.967 +0.26 -0.00    -0.001 A  
DOCKED: ATOM      7  C   UNL     1     -48.933 -23.544  -2.851 -0.30 +0.00    +0.008 A  
DOCKED: ATOM      8  C   UNL     1     -51.231 -23.182  -2.150 -0.39 +0.00    +0.010 A  
DOCKED: ATOM      9  C   UNL     1     -50.202 -23.013  -3.088 -0.32 +0.00    +0.068 A  
DOCKED: ATOM     10  N   UNL     1     -50.662 -21.706  -5.277 -2.20 -0.00    -0.191 NA 
DOCKED: ATOM     11  C   UNL     1     -50.455 -22.291  -4.295 -0.31 +0.00    +0.101 C  
DOCKED: ENDROOT
DOCKED: BRANCH   2  12
DOCKED: ATOM     12  C   UNL     1     -49.863 -26.572   0.541 -0.27 +0.00    +0.038 C  
DOCKED: BRANCH  12  13
DOCKED: ATOM     13  C   UNL     1     -48.907 -27.581   1.175 -0.21 +0.00    +0.038 C  
DOCKED: BRANCH  13  14
DOCKED: ATOM     14  C   UNL     1     -48.160 -28.376   0.106 -0.13 +0.00    +0.251 C  
DOCKED: BRANCH  14  15
DOCKED: ATOM     15  N   UNL     1     -46.738 -28.058   0.138 -0.07 +0.00    +0.141 N  
DOCKED: ATOM     16  C   UNL     1     -46.254 -27.993   1.518 -0.02 +0.00    +0.285 C  
DOCKED: ATOM     17  C   UNL     1     -45.971 -29.046  -0.623 -0.09 +0.00    +0.285 C  
DOCKED: ENDBRANCH  14  15
DOCKED: ENDBRANCH  13  14
DOCKED: ENDBRANCH  12  13
DOCKED: ENDBRANCH   2  12
DOCKED: BRANCH   2  18
DOCKED: ATOM     18  C   UNL     1     -49.317 -24.450   1.720 -0.22 +0.00    +0.006 A  
DOCKED: ATOM     19  C   UNL     1     -48.173 -23.888   2.285 -0.14 +0.00    +0.001 A  
DOCKED: ATOM     20  C   UNL     1     -48.263 -23.193   3.492 +0.11 +0.00    +0.029 A  
DOCKED: ATOM     21  C   UNL     1     -49.495 -23.061   4.131 -0.14 +0.00    +0.140 A  
DOCKED: ATOM     22  C   UNL     1     -50.639 -23.623   3.565 -0.19 +0.00    +0.029 A  
DOCKED: ATOM     23  F   UNL     1     -49.581 -22.392   5.289 -0.04 -0.00    -0.204 F  
DOCKED: ATOM     24  C   UNL     1     -50.550 -24.319   2.358 -0.25 +0.00    +0.001 A  
DOCKED: ENDBRANCH   2  18
DOCKED: TORSDOF 5
DOCKED: TER
DOCKED: ENDMDL
________________________________________________________________________________


    FINAL DOCKED STATE:
    ________________________


Run:   284 / 512
Time taken for this run:   0.001s

DOCKED: MODEL        284
DOCKED: USER    Run = 284
DOCKED: USER
DOCKED: USER    Estimated Free Energy of Binding    =  -4.33 kcal/mol  [=(1)+(2)+(3)-(4)]
DOCKED: USER
DOCKED: USER    (1) Final Intermolecular Energy     =  -5.82 kcal/mol
DOCKED: USER        vdW + Hbond + desolv Energy     =  -5.82 kcal/mol
DOCKED: USER        Electrostatic Energy            =  +0.00 kcal/mol
DOCKED: USER        Moving Ligand-Fixed Receptor    =  -5.82 kcal/mol
DOCKED: USER        Moving Ligand-Moving Receptor   =  +0.00 kcal/mol
DOCKED: USER    (2) Final Total Internal Energy     =  -1.37 kcal/mol
DOCKED: USER    (3) Torsional Free Energy           =  +1.49 kcal/mol
DOCKED: USER    (4) Unbound System's Energy         =  -1.37 kcal/mol
DOCKED: USER
DOCKED: USER
DOCKED: REMARK  5 active torsions:
DOCKED: REMARK  status: ('A' for Active; 'I' for Inactive)
DOCKED: REMARK    1  A    between atoms: C_2  and  C_19 
DOCKED: REMARK    2  A    between atoms: C_2  and  C_11 
DOCKED: REMARK    3  A    between atoms: C_19  and  C_20 
DOCKED: REMARK    4  A    between atoms: C_20  and  C_21 
DOCKED: REMARK    5  A    between atoms: C_21  and  N_22 
DOCKED: USER                              x       y       z     vdW  Elec       q    Type
DOCKED: USER                           _______ _______ _______ _____ _____    ______ ____
DOCKED: ROOT
DOCKED: ATOM      1  O   UNL     1     -48.953 -31.020   8.471 -0.07 -0.00    -0.346 OA 
DOCKED: ATOM      2  C   UNL     1     -50.014 -30.174   7.922 -0.13 +0.00    +0.130 C  
DOCKED: ATOM      3  C   UNL     1     -50.952 -31.149   7.272 -0.22 +0.00    +0.004 A  
DOCKED: ATOM      4  C   UNL     1     -50.524 -32.446   7.521 -0.22 +0.00    +0.006 A  
DOCKED: ATOM      5  C   UNL     1     -49.300 -32.420   8.352 -0.18 +0.00    +0.169 C  
DOCKED: ATOM      6  C   UNL     1     -52.098 -30.909   6.529 -0.28 -0.00    -0.001 A  
DOCKED: ATOM      7  C   UNL     1     -51.220 -33.540   7.036 -0.34 +0.00    +0.008 A  
DOCKED: ATOM      8  C   UNL     1     -52.809 -32.002   6.029 -0.31 +0.00    +0.010 A  
DOCKED: ATOM      9  C   UNL     1     -52.372 -33.311   6.282 -0.31 +0.00    +0.068 A  
DOCKED: ATOM     10  N   UNL     1     -53.716 -35.317   5.344 -2.55 -0.00    -0.191 NA 
DOCKED: ATOM     11  C   UNL     1     -53.113 -34.417   5.764 -0.35 +0.00    +0.101 C  
DOCKED: ENDROOT
DOCKED: BRANCH   2  12
DOCKED: ATOM     12  C   UNL     1     -50.659 -29.405   9.069 -0.05 +0.00    +0.038 C  
DOCKED: BRANCH  12  13
DOCKED: ATOM     13  C   UNL     1     -51.808 -30.195   9.693 -0.04 +0.00    +0.038 C  
DOCKED: BRANCH  13  14
DOCKED: ATOM     14  C   UNL     1     -51.440 -30.688  11.092 -0.01 +0.00    +0.251 C  
DOCKED: BRANCH  14  15
DOCKED: ATOM     15  N   UNL     1     -50.772 -31.982  11.015 -0.04 +0.00    +0.141 N  
DOCKED: ATOM     16  C   UNL     1     -50.101 -32.293  12.278 -0.03 +0.00    +0.285 C  
DOCKED: ATOM     17  C   UNL     1     -51.729 -33.036  10.675 -0.06 +0.00    +0.285 C  
DOCKED: ENDBRANCH  14  15
DOCKED: ENDBRANCH  13  14
DOCKED: ENDBRANCH  12  13
DOCKED: ENDBRANCH   2  12
DOCKED: BRANCH   2  18
DOCKED: ATOM     18  C   UNL     1     -49.371 -29.246   6.946 -0.14 +0.00    +0.006 A  
DOCKED: ATOM     19  C   UNL     1     -48.076 -29.496   6.497 -0.07 +0.00    +0.001 A  
DOCKED: ATOM     20  C   UNL     1     -47.476 -28.627   5.584 -0.11 +0.00    +0.029 A  
DOCKED: ATOM     21  C   UNL     1     -48.172 -27.511   5.123 -0.07 +0.00    +0.140 A  
DOCKED: ATOM     22  C   UNL     1     -49.468 -27.262   5.573 -0.10 +0.00    +0.029 A  
DOCKED: ATOM     23  F   UNL     1     -47.597 -26.678   4.246 -0.00 -0.00    -0.204 F  
DOCKED: ATOM     24  C   UNL     1     -50.069 -28.130   6.486 -0.14 +0.00    +0.001 A  
DOCKED: ENDBRANCH   2  18
DOCKED: TORSDOF 5
DOCKED: TER
DOCKED: ENDMDL
________________________________________________________________________________


    FINAL DOCKED STATE:
    ________________________


Run:   285 / 512
Time taken for this run:   0.001s

DOCKED: MODEL        285
DOCKED: USER    Run = 285
DOCKED: USER
DOCKED: USER    Estimated Free Energy of Binding    =  -5.58 kcal/mol  [=(1)+(2)+(3)-(4)]
DOCKED: USER
DOCKED: USER    (1) Final Intermolecular Energy     =  -7.07 kcal/mol
DOCKED: USER        vdW + Hbond + desolv Energy     =  -7.07 kcal/mol
DOCKED: USER        Electrostatic Energy            =  +0.00 kcal/mol
DOCKED: USER        Moving Ligand-Fixed Receptor    =  -7.07 kcal/mol
DOCKED: USER        Moving Ligand-Moving Receptor   =  +0.00 kcal/mol
DOCKED: USER    (2) Final Total Internal Energy     =  -1.54 kcal/mol
DOCKED: USER    (3) Torsional Free Energy           =  +1.49 kcal/mol
DOCKED: USER    (4) Unbound System's Energy         =  -1.54 kcal/mol
DOCKED: USER
DOCKED: USER
DOCKED: REMARK  5 active torsions:
DOCKED: REMARK  status: ('A' for Active; 'I' for Inactive)
DOCKED: REMARK    1  A    between atoms: C_2  and  C_19 
DOCKED: REMARK    2  A    between atoms: C_2  and  C_11 
DOCKED: REMARK    3  A    between atoms: C_19  and  C_20 
DOCKED: REMARK    4  A    between atoms: C_20  and  C_21 
DOCKED: REMARK    5  A    between atoms: C_21  and  N_22 
DOCKED: USER                              x       y       z     vdW  Elec       q    Type
DOCKED: USER                           _______ _______ _______ _____ _____    ______ ____
DOCKED: ROOT
DOCKED: ATOM      1  O   UNL     1     -51.330 -31.176   7.778 -0.06 -0.00    -0.346 OA 
DOCKED: ATOM      2  C   UNL     1     -51.140 -32.627   7.833 -0.23 +0.00    +0.130 C  
DOCKED: ATOM      3  C   UNL     1     -51.717 -33.114   6.535 -0.34 +0.00    +0.004 A  
DOCKED: ATOM      4  C   UNL     1     -52.101 -32.030   5.758 -0.32 +0.00    +0.006 A  
DOCKED: ATOM      5  C   UNL     1     -51.798 -30.769   6.471 -0.24 +0.00    +0.169 C  
DOCKED: ATOM      6  C   UNL     1     -51.879 -34.412   6.074 -0.41 -0.00    -0.001 A  
DOCKED: ATOM      7  C   UNL     1     -52.661 -32.204   4.504 -0.01 +0.00    +0.008 A  
DOCKED: ATOM      8  C   UNL     1     -52.445 -34.605   4.813 -0.47 +0.00    +0.010 A  
DOCKED: ATOM      9  C   UNL     1     -52.834 -33.506   4.032 -0.40 +0.00    +0.068 A  
DOCKED: ATOM     10  N   UNL     1     -53.877 -33.898   1.693 -2.92 -0.00    -0.191 NA 
DOCKED: ATOM     11  C   UNL     1     -53.410 -33.722   2.742 -0.45 +0.00    +0.101 C  
DOCKED: ENDROOT
DOCKED: BRANCH   2  12
DOCKED: ATOM     12  C   UNL     1     -49.649 -32.914   7.964 -0.20 +0.00    +0.038 C  
DOCKED: BRANCH  12  13
DOCKED: ATOM     13  C   UNL     1     -48.921 -31.768   8.663 -0.18 +0.00    +0.038 C  
DOCKED: BRANCH  13  14
DOCKED: ATOM     14  C   UNL     1     -48.616 -32.117  10.119 -0.07 +0.00    +0.251 C  
DOCKED: BRANCH  14  15
DOCKED: ATOM     15  N   UNL     1     -49.759 -31.801  10.966 -0.04 +0.00    +0.141 N  
DOCKED: ATOM     16  C   UNL     1     -49.432 -32.020  12.376 -0.02 +0.00    +0.285 C  
DOCKED: ATOM     17  C   UNL     1     -50.191 -30.418  10.755 -0.01 +0.00    +0.285 C  
DOCKED: ENDBRANCH  14  15
DOCKED: ENDBRANCH  13  14
DOCKED: ENDBRANCH  12  13
DOCKED: ENDBRANCH   2  12
DOCKED: BRANCH   2  18
DOCKED: ATOM     18  C   UNL     1     -51.891 -33.120   9.024 -0.17 +0.00    +0.006 A  
DOCKED: ATOM     19  C   UNL     1     -51.659 -34.406   9.511 -0.23 +0.00    +0.001 A  
DOCKED: ATOM     20  C   UNL     1     -52.362 -34.866  10.625 -0.04 +0.00    +0.029 A  
DOCKED: ATOM     21  C   UNL     1     -53.294 -34.040  11.251 -0.10 +0.00    +0.140 A  
DOCKED: ATOM     22  C   UNL     1     -53.525 -32.754  10.764 -0.06 +0.00    +0.029 A  
DOCKED: ATOM     23  F   UNL     1     -53.967 -34.481  12.322 -0.02 -0.00    -0.204 F  
DOCKED: ATOM     24  C   UNL     1     -52.823 -32.293   9.649 -0.08 +0.00    +0.001 A  
DOCKED: ENDBRANCH   2  18
DOCKED: TORSDOF 5
DOCKED: TER
DOCKED: ENDMDL
________________________________________________________________________________


    FINAL DOCKED STATE:
    ________________________


Run:   286 / 512
Time taken for this run:   0.001s

DOCKED: MODEL        286
DOCKED: USER    Run = 286
DOCKED: USER
DOCKED: USER    Estimated Free Energy of Binding    =  -5.36 kcal/mol  [=(1)+(2)+(3)-(4)]
DOCKED: USER
DOCKED: USER    (1) Final Intermolecular Energy     =  -6.85 kcal/mol
DOCKED: USER        vdW + Hbond + desolv Energy     =  -6.85 kcal/mol
DOCKED: USER        Electrostatic Energy            =  +0.00 kcal/mol
DOCKED: USER        Moving Ligand-Fixed Receptor    =  -6.85 kcal/mol
DOCKED: USER        Moving Ligand-Moving Receptor   =  +0.00 kcal/mol
DOCKED: USER    (2) Final Total Internal Energy     =  -1.34 kcal/mol
DOCKED: USER    (3) Torsional Free Energy           =  +1.49 kcal/mol
DOCKED: USER    (4) Unbound System's Energy         =  -1.34 kcal/mol
DOCKED: USER
DOCKED: USER
DOCKED: REMARK  5 active torsions:
DOCKED: REMARK  status: ('A' for Active; 'I' for Inactive)
DOCKED: REMARK    1  A    between atoms: C_2  and  C_19 
DOCKED: REMARK    2  A    between atoms: C_2  and  C_11 
DOCKED: REMARK    3  A    between atoms: C_19  and  C_20 
DOCKED: REMARK    4  A    between atoms: C_20  and  C_21 
DOCKED: REMARK    5  A    between atoms: C_21  and  N_22 
DOCKED: USER                              x       y       z     vdW  Elec       q    Type
DOCKED: USER                           _______ _______ _______ _____ _____    ______ ____
DOCKED: ROOT
DOCKED: ATOM      1  O   UNL     1     -51.646 -31.150   7.808 -0.05 -0.00    -0.346 OA 
DOCKED: ATOM      2  C   UNL     1     -51.247 -32.557   7.857 -0.22 +0.00    +0.130 C  
DOCKED: ATOM      3  C   UNL     1     -51.768 -33.124   6.568 -0.34 +0.00    +0.004 A  
DOCKED: ATOM      4  C   UNL     1     -52.318 -32.107   5.800 -0.34 +0.00    +0.006 A  
DOCKED: ATOM      5  C   UNL     1     -52.191 -30.815   6.511 -0.23 +0.00    +0.169 C  
DOCKED: ATOM      6  C   UNL     1     -51.745 -34.432   6.107 -0.41 -0.00    -0.001 A  
DOCKED: ATOM      7  C   UNL     1     -52.867 -32.362   4.555 -0.04 +0.00    +0.008 A  
DOCKED: ATOM      8  C   UNL     1     -52.298 -34.705   4.854 -0.45 +0.00    +0.010 A  
DOCKED: ATOM      9  C   UNL     1     -52.856 -33.675   4.082 -0.42 +0.00    +0.068 A  
DOCKED: ATOM     10  N   UNL     1     -53.869 -34.216   1.760 -2.65 -0.00    -0.191 NA 
DOCKED: ATOM     11  C   UNL     1     -53.415 -33.973   2.802 -0.45 +0.00    +0.101 C  
DOCKED: ENDROOT
DOCKED: BRANCH   2  12
DOCKED: ATOM     12  C   UNL     1     -49.728 -32.624   7.964 -0.22 +0.00    +0.038 C  
DOCKED: BRANCH  12  13
DOCKED: ATOM     13  C   UNL     1     -49.235 -32.022   9.278 -0.16 +0.00    +0.038 C  
DOCKED: BRANCH  13  14
DOCKED: ATOM     14  C   UNL     1     -48.801 -30.570   9.089 -0.06 +0.00    +0.251 C  
DOCKED: BRANCH  14  15
DOCKED: ATOM     15  N   UNL     1     -49.650 -29.681   9.873 -0.02 +0.00    +0.141 N  
DOCKED: ATOM     16  C   UNL     1     -48.912 -29.136  11.014 -0.00 +0.00    +0.285 C  
DOCKED: ATOM     17  C   UNL     1     -50.170 -28.596   9.040 -0.02 +0.00    +0.285 C  
DOCKED: ENDBRANCH  14  15
DOCKED: ENDBRANCH  13  14
DOCKED: ENDBRANCH  12  13
DOCKED: ENDBRANCH   2  12
DOCKED: BRANCH   2  18
DOCKED: ATOM     18  C   UNL     1     -51.898 -33.154   9.060 -0.17 +0.00    +0.006 A  
DOCKED: ATOM     19  C   UNL     1     -52.983 -32.512   9.655 -0.09 +0.00    +0.001 A  
DOCKED: ATOM     20  C   UNL     1     -53.590 -33.072  10.780 -0.08 +0.00    +0.029 A  
DOCKED: ATOM     21  C   UNL     1     -53.113 -34.271  11.307 -0.11 +0.00    +0.140 A  
DOCKED: ATOM     22  C   UNL     1     -52.028 -34.913  10.710 -0.14 +0.00    +0.029 A  
DOCKED: ATOM     23  F   UNL     1     -53.698 -34.809  12.385 -0.02 -0.00    -0.204 F  
DOCKED: ATOM     24  C   UNL     1     -51.419 -34.354   9.585 -0.15 +0.00    +0.001 A  
DOCKED: ENDBRANCH   2  18
DOCKED: TORSDOF 5
DOCKED: TER
DOCKED: ENDMDL
________________________________________________________________________________


    FINAL DOCKED STATE:
    ________________________


Run:   287 / 512
Time taken for this run:   0.001s

DOCKED: MODEL        287
DOCKED: USER    Run = 287
DOCKED: USER
DOCKED: USER    Estimated Free Energy of Binding    =  -4.54 kcal/mol  [=(1)+(2)+(3)-(4)]
DOCKED: USER
DOCKED: USER    (1) Final Intermolecular Energy     =  -6.03 kcal/mol
DOCKED: USER        vdW + Hbond + desolv Energy     =  -6.03 kcal/mol
DOCKED: USER        Electrostatic Energy            =  +0.00 kcal/mol
DOCKED: USER        Moving Ligand-Fixed Receptor    =  -6.03 kcal/mol
DOCKED: USER        Moving Ligand-Moving Receptor   =  +0.00 kcal/mol
DOCKED: USER    (2) Final Total Internal Energy     =  -1.10 kcal/mol
DOCKED: USER    (3) Torsional Free Energy           =  +1.49 kcal/mol
DOCKED: USER    (4) Unbound System's Energy         =  -1.10 kcal/mol
DOCKED: USER
DOCKED: USER
DOCKED: REMARK  5 active torsions:
DOCKED: REMARK  status: ('A' for Active; 'I' for Inactive)
DOCKED: REMARK    1  A    between atoms: C_2  and  C_19 
DOCKED: REMARK    2  A    between atoms: C_2  and  C_11 
DOCKED: REMARK    3  A    between atoms: C_19  and  C_20 
DOCKED: REMARK    4  A    between atoms: C_20  and  C_21 
DOCKED: REMARK    5  A    between atoms: C_21  and  N_22 
DOCKED: USER                              x       y       z     vdW  Elec       q    Type
DOCKED: USER                           _______ _______ _______ _____ _____    ______ ____
DOCKED: ROOT
DOCKED: ATOM      1  O   UNL     1     -49.096 -31.025   8.645 -0.07 -0.00    -0.346 OA 
DOCKED: ATOM      2  C   UNL     1     -49.987 -30.171   7.857 -0.13 +0.00    +0.130 C  
DOCKED: ATOM      3  C   UNL     1     -50.916 -31.142   7.188 -0.22 +0.00    +0.004 A  
DOCKED: ATOM      4  C   UNL     1     -50.653 -32.428   7.639 -0.25 +0.00    +0.006 A  
DOCKED: ATOM      5  C   UNL     1     -49.556 -32.396   8.633 -0.17 +0.00    +0.169 C  
DOCKED: ATOM      6  C   UNL     1     -51.922 -30.905   6.263 -0.27 -0.00    -0.001 A  
DOCKED: ATOM      7  C   UNL     1     -51.378 -33.515   7.182 -0.34 +0.00    +0.008 A  
DOCKED: ATOM      8  C   UNL     1     -52.659 -31.992   5.788 -0.33 +0.00    +0.010 A  
DOCKED: ATOM      9  C   UNL     1     -52.389 -33.290   6.246 -0.31 +0.00    +0.068 A  
DOCKED: ATOM     10  N   UNL     1     -53.779 -35.283   5.349 -2.56 -0.00    -0.191 NA 
DOCKED: ATOM     11  C   UNL     1     -53.155 -34.389   5.751 -0.37 +0.00    +0.101 C  
DOCKED: ENDROOT
DOCKED: BRANCH   2  12
DOCKED: ATOM     12  C   UNL     1     -50.705 -29.218   8.804 -0.06 +0.00    +0.038 C  
DOCKED: BRANCH  12  13
DOCKED: ATOM     13  C   UNL     1     -50.823 -27.819   8.203 -0.05 +0.00    +0.038 C  
DOCKED: BRANCH  13  14
DOCKED: ATOM     14  C   UNL     1     -52.214 -27.234   8.443 -0.02 +0.00    +0.251 C  
DOCKED: BRANCH  14  15
DOCKED: ATOM     15  N   UNL     1     -53.151 -27.727   7.440 -0.09 +0.00    +0.141 N  
DOCKED: ATOM     16  C   UNL     1     -54.477 -27.141   7.642 -0.07 +0.00    +0.285 C  
DOCKED: ATOM     17  C   UNL     1     -52.665 -27.431   6.091 -0.11 +0.00    +0.285 C  
DOCKED: ENDBRANCH  14  15
DOCKED: ENDBRANCH  13  14
DOCKED: ENDBRANCH  12  13
DOCKED: ENDBRANCH   2  12
DOCKED: BRANCH   2  18
DOCKED: ATOM     18  C   UNL     1     -49.131 -29.425   6.889 -0.14 +0.00    +0.006 A  
DOCKED: ATOM     19  C   UNL     1     -47.816 -29.104   7.224 -0.10 +0.00    +0.001 A  
DOCKED: ATOM     20  C   UNL     1     -47.017 -28.405   6.318 -0.07 +0.00    +0.029 A  
DOCKED: ATOM     21  C   UNL     1     -47.534 -28.029   5.079 -0.08 +0.00    +0.140 A  
DOCKED: ATOM     22  C   UNL     1     -48.848 -28.351   4.744 -0.14 +0.00    +0.029 A  
DOCKED: ATOM     23  F   UNL     1     -46.766 -27.360   4.209 -0.00 -0.00    -0.204 F  
DOCKED: ATOM     24  C   UNL     1     -49.649 -29.049   5.650 -0.10 +0.00    +0.001 A  
DOCKED: ENDBRANCH   2  18
DOCKED: TORSDOF 5
DOCKED: TER
DOCKED: ENDMDL
________________________________________________________________________________


    FINAL DOCKED STATE:
    ________________________


Run:   288 / 512
Time taken for this run:   0.001s

DOCKED: MODEL        288
DOCKED: USER    Run = 288
DOCKED: USER
DOCKED: USER    Estimated Free Energy of Binding    =  -4.41 kcal/mol  [=(1)+(2)+(3)-(4)]
DOCKED: USER
DOCKED: USER    (1) Final Intermolecular Energy     =  -5.90 kcal/mol
DOCKED: USER        vdW + Hbond + desolv Energy     =  -5.90 kcal/mol
DOCKED: USER        Electrostatic Energy            =  +0.00 kcal/mol
DOCKED: USER        Moving Ligand-Fixed Receptor    =  -5.90 kcal/mol
DOCKED: USER        Moving Ligand-Moving Receptor   =  +0.00 kcal/mol
DOCKED: USER    (2) Final Total Internal Energy     =  -1.09 kcal/mol
DOCKED: USER    (3) Torsional Free Energy           =  +1.49 kcal/mol
DOCKED: USER    (4) Unbound System's Energy         =  -1.09 kcal/mol
DOCKED: USER
DOCKED: USER
DOCKED: REMARK  5 active torsions:
DOCKED: REMARK  status: ('A' for Active; 'I' for Inactive)
DOCKED: REMARK    1  A    between atoms: C_2  and  C_19 
DOCKED: REMARK    2  A    between atoms: C_2  and  C_11 
DOCKED: REMARK    3  A    between atoms: C_19  and  C_20 
DOCKED: REMARK    4  A    between atoms: C_20  and  C_21 
DOCKED: REMARK    5  A    between atoms: C_21  and  N_22 
DOCKED: USER                              x       y       z     vdW  Elec       q    Type
DOCKED: USER                           _______ _______ _______ _____ _____    ______ ____
DOCKED: ROOT
DOCKED: ATOM      1  O   UNL     1     -51.119 -28.743   6.969 -0.06 -0.00    -0.346 OA 
DOCKED: ATOM      2  C   UNL     1     -52.533 -28.740   7.346 -0.15 +0.00    +0.130 C  
DOCKED: ATOM      3  C   UNL     1     -53.012 -30.107   6.954 -0.22 +0.00    +0.004 A  
DOCKED: ATOM      4  C   UNL     1     -51.943 -30.864   6.496 -0.28 +0.00    +0.006 A  
DOCKED: ATOM      5  C   UNL     1     -50.698 -30.066   6.564 -0.17 +0.00    +0.169 C  
DOCKED: ATOM      6  C   UNL     1     -54.291 -30.643   7.009 -0.22 -0.00    -0.001 A  
DOCKED: ATOM      7  C   UNL     1     -52.113 -32.172   6.076 -0.34 +0.00    +0.008 A  
DOCKED: ATOM      8  C   UNL     1     -54.480 -31.959   6.585 -0.22 +0.00    +0.010 A  
DOCKED: ATOM      9  C   UNL     1     -53.396 -32.720   6.121 -0.26 +0.00    +0.068 A  
DOCKED: ATOM     10  N   UNL     1     -53.780 -35.162   5.345 -2.56 -0.00    -0.191 NA 
DOCKED: ATOM     11  C   UNL     1     -53.608 -34.066   5.692 -0.36 +0.00    +0.101 C  
DOCKED: ENDROOT
DOCKED: BRANCH   2  12
DOCKED: ATOM     12  C   UNL     1     -52.632 -28.483   8.845 -0.05 +0.00    +0.038 C  
DOCKED: BRANCH  12  13
DOCKED: ATOM     13  C   UNL     1     -51.332 -28.846   9.560 -0.03 +0.00    +0.038 C  
DOCKED: BRANCH  13  14
DOCKED: ATOM     14  C   UNL     1     -51.289 -30.335   9.901 -0.02 +0.00    +0.251 C  
DOCKED: BRANCH  14  15
DOCKED: ATOM     15  N   UNL     1     -50.453 -30.563  11.074 -0.01 +0.00    +0.141 N  
DOCKED: ATOM     16  C   UNL     1     -49.394 -29.556  11.155 -0.00 +0.00    +0.285 C  
DOCKED: ATOM     17  C   UNL     1     -51.262 -30.549  12.294 -0.00 +0.00    +0.285 C  
DOCKED: ENDBRANCH  14  15
DOCKED: ENDBRANCH  13  14
DOCKED: ENDBRANCH  12  13
DOCKED: ENDBRANCH   2  12
DOCKED: BRANCH   2  18
DOCKED: ATOM     18  C   UNL     1     -53.189 -27.648   6.569 -0.19 +0.00    +0.006 A  
DOCKED: ATOM     19  C   UNL     1     -54.562 -27.434   6.691 -0.21 +0.00    +0.001 A  
DOCKED: ATOM     20  C   UNL     1     -55.174 -26.413   5.963 -0.15 +0.00    +0.029 A  
DOCKED: ATOM     21  C   UNL     1     -54.415 -25.608   5.115 -0.10 +0.00    +0.140 A  
DOCKED: ATOM     22  C   UNL     1     -53.042 -25.823   4.994 -0.16 +0.00    +0.029 A  
DOCKED: ATOM     23  F   UNL     1     -55.003 -24.627   4.418 -0.02 -0.00    -0.204 F  
DOCKED: ATOM     24  C   UNL     1     -52.428 -26.844   5.721 -0.13 +0.00    +0.001 A  
DOCKED: ENDBRANCH   2  18
DOCKED: TORSDOF 5
DOCKED: TER
DOCKED: ENDMDL
________________________________________________________________________________


    FINAL DOCKED STATE:
    ________________________


Run:   289 / 512
Time taken for this run:   0.001s

DOCKED: MODEL        289
DOCKED: USER    Run = 289
DOCKED: USER
DOCKED: USER    Estimated Free Energy of Binding    =  -5.50 kcal/mol  [=(1)+(2)+(3)-(4)]
DOCKED: USER
DOCKED: USER    (1) Final Intermolecular Energy     =  -6.99 kcal/mol
DOCKED: USER        vdW + Hbond + desolv Energy     =  -6.99 kcal/mol
DOCKED: USER        Electrostatic Energy            =  +0.00 kcal/mol
DOCKED: USER        Moving Ligand-Fixed Receptor    =  -6.99 kcal/mol
DOCKED: USER        Moving Ligand-Moving Receptor   =  +0.00 kcal/mol
DOCKED: USER    (2) Final Total Internal Energy     =  -1.04 kcal/mol
DOCKED: USER    (3) Torsional Free Energy           =  +1.49 kcal/mol
DOCKED: USER    (4) Unbound System's Energy         =  -1.04 kcal/mol
DOCKED: USER
DOCKED: USER
DOCKED: REMARK  5 active torsions:
DOCKED: REMARK  status: ('A' for Active; 'I' for Inactive)
DOCKED: REMARK    1  A    between atoms: C_2  and  C_19 
DOCKED: REMARK    2  A    between atoms: C_2  and  C_11 
DOCKED: REMARK    3  A    between atoms: C_19  and  C_20 
DOCKED: REMARK    4  A    between atoms: C_20  and  C_21 
DOCKED: REMARK    5  A    between atoms: C_21  and  N_22 
DOCKED: USER                              x       y       z     vdW  Elec       q    Type
DOCKED: USER                           _______ _______ _______ _____ _____    ______ ____
DOCKED: ROOT
DOCKED: ATOM      1  O   UNL     1     -51.402 -31.033   7.775 -0.06 -0.00    -0.346 OA 
DOCKED: ATOM      2  C   UNL     1     -51.169 -32.475   7.877 -0.22 +0.00    +0.130 C  
DOCKED: ATOM      3  C   UNL     1     -51.726 -33.020   6.594 -0.33 +0.00    +0.004 A  
DOCKED: ATOM      4  C   UNL     1     -52.140 -31.974   5.782 -0.32 +0.00    +0.006 A  
DOCKED: ATOM      5  C   UNL     1     -51.879 -30.682   6.455 -0.23 +0.00    +0.169 C  
DOCKED: ATOM      6  C   UNL     1     -51.845 -34.337   6.174 -0.42 -0.00    -0.001 A  
DOCKED: ATOM      7  C   UNL     1     -52.689 -32.206   4.533 -0.00 +0.00    +0.008 A  
DOCKED: ATOM      8  C   UNL     1     -52.401 -34.587   4.918 -0.47 +0.00    +0.010 A  
DOCKED: ATOM      9  C   UNL     1     -52.820 -33.527   4.102 -0.40 +0.00    +0.068 A  
DOCKED: ATOM     10  N   UNL     1     -53.843 -34.025   1.774 -2.77 -0.00    -0.191 NA 
DOCKED: ATOM     11  C   UNL     1     -53.385 -33.802   2.818 -0.44 +0.00    +0.101 C  
DOCKED: ENDROOT
DOCKED: BRANCH   2  12
DOCKED: ATOM     12  C   UNL     1     -49.670 -32.712   8.022 -0.22 +0.00    +0.038 C  
DOCKED: BRANCH  12  13
DOCKED: ATOM     13  C   UNL     1     -48.992 -31.556   8.754 -0.17 +0.00    +0.038 C  
DOCKED: BRANCH  13  14
DOCKED: ATOM     14  C   UNL     1     -48.580 -30.454   7.780 -0.04 +0.00    +0.251 C  
DOCKED: BRANCH  14  15
DOCKED: ATOM     15  N   UNL     1     -47.293 -29.889   8.167 -0.06 +0.00    +0.141 N  
DOCKED: ATOM     16  C   UNL     1     -46.581 -30.798   9.068 -0.04 +0.00    +0.285 C  
DOCKED: ATOM     17  C   UNL     1     -46.478 -29.605   6.985 -0.06 +0.00    +0.285 C  
DOCKED: ENDBRANCH  14  15
DOCKED: ENDBRANCH  13  14
DOCKED: ENDBRANCH  12  13
DOCKED: ENDBRANCH   2  12
DOCKED: BRANCH   2  18
DOCKED: ATOM     18  C   UNL     1     -51.908 -32.952   9.082 -0.15 +0.00    +0.006 A  
DOCKED: ATOM     19  C   UNL     1     -52.582 -32.040   9.893 -0.07 +0.00    +0.001 A  
DOCKED: ATOM     20  C   UNL     1     -53.273 -32.488  11.019 -0.05 +0.00    +0.029 A  
DOCKED: ATOM     21  C   UNL     1     -53.290 -33.847  11.333 -0.08 +0.00    +0.140 A  
DOCKED: ATOM     22  C   UNL     1     -52.615 -34.758  10.521 -0.11 +0.00    +0.029 A  
DOCKED: ATOM     23  F   UNL     1     -53.954 -34.277  12.413 -0.01 -0.00    -0.204 F  
DOCKED: ATOM     24  C   UNL     1     -51.924 -34.311   9.394 -0.26 +0.00    +0.001 A  
DOCKED: ENDBRANCH   2  18
DOCKED: TORSDOF 5
DOCKED: TER
DOCKED: ENDMDL
________________________________________________________________________________


    FINAL DOCKED STATE:
    ________________________


Run:   290 / 512
Time taken for this run:   0.001s

DOCKED: MODEL        290
DOCKED: USER    Run = 290
DOCKED: USER
DOCKED: USER    Estimated Free Energy of Binding    =  -4.36 kcal/mol  [=(1)+(2)+(3)-(4)]
DOCKED: USER
DOCKED: USER    (1) Final Intermolecular Energy     =  -5.85 kcal/mol
DOCKED: USER        vdW + Hbond + desolv Energy     =  -5.85 kcal/mol
DOCKED: USER        Electrostatic Energy            =  +0.00 kcal/mol
DOCKED: USER        Moving Ligand-Fixed Receptor    =  -5.85 kcal/mol
DOCKED: USER        Moving Ligand-Moving Receptor   =  +0.00 kcal/mol
DOCKED: USER    (2) Final Total Internal Energy     =  -1.46 kcal/mol
DOCKED: USER    (3) Torsional Free Energy           =  +1.49 kcal/mol
DOCKED: USER    (4) Unbound System's Energy         =  -1.46 kcal/mol
DOCKED: USER
DOCKED: USER
DOCKED: REMARK  5 active torsions:
DOCKED: REMARK  status: ('A' for Active; 'I' for Inactive)
DOCKED: REMARK    1  A    between atoms: C_2  and  C_19 
DOCKED: REMARK    2  A    between atoms: C_2  and  C_11 
DOCKED: REMARK    3  A    between atoms: C_19  and  C_20 
DOCKED: REMARK    4  A    between atoms: C_20  and  C_21 
DOCKED: REMARK    5  A    between atoms: C_21  and  N_22 
DOCKED: USER                              x       y       z     vdW  Elec       q    Type
DOCKED: USER                           _______ _______ _______ _____ _____    ______ ____
DOCKED: ROOT
DOCKED: ATOM      1  O   UNL     1     -50.378 -25.109   1.668 -0.10 -0.00    -0.346 OA 
DOCKED: ATOM      2  C   UNL     1     -49.047 -25.016   1.069 -0.20 +0.00    +0.130 C  
DOCKED: ATOM      3  C   UNL     1     -49.302 -24.415  -0.283 -0.24 +0.00    +0.004 A  
DOCKED: ATOM      4  C   UNL     1     -50.646 -24.090  -0.403 -0.09 +0.00    +0.006 A  
DOCKED: ATOM      5  C   UNL     1     -51.360 -24.437   0.846 -0.08 +0.00    +0.169 C  
DOCKED: ATOM      6  C   UNL     1     -48.414 -24.164  -1.319 -0.23 -0.00    -0.001 A  
DOCKED: ATOM      7  C   UNL     1     -51.147 -23.512  -1.557 -0.09 +0.00    +0.008 A  
DOCKED: ATOM      8  C   UNL     1     -48.905 -23.586  -2.491 -0.30 +0.00    +0.010 A  
DOCKED: ATOM      9  C   UNL     1     -50.265 -23.261  -2.609 -0.32 +0.00    +0.068 A  
DOCKED: ATOM     10  N   UNL     1     -51.142 -22.184  -4.796 -2.40 -0.00    -0.191 NA 
DOCKED: ATOM     11  C   UNL     1     -50.749 -22.668  -3.815 -0.29 +0.00    +0.101 C  
DOCKED: ENDROOT
DOCKED: BRANCH   2  12
DOCKED: ATOM     12  C   UNL     1     -48.179 -24.132   1.957 -0.17 +0.00    +0.038 C  
DOCKED: BRANCH  12  13
DOCKED: ATOM     13  C   UNL     1     -48.945 -23.659   3.191 -0.19 +0.00    +0.038 C  
DOCKED: BRANCH  13  14
DOCKED: ATOM     14  C   UNL     1     -49.086 -24.784   4.214 -0.07 +0.00    +0.251 C  
DOCKED: BRANCH  14  15
DOCKED: ATOM     15  N   UNL     1     -47.906 -25.640   4.193 -0.04 +0.00    +0.141 N  
DOCKED: ATOM     16  C   UNL     1     -46.919 -25.184   5.172 -0.02 +0.00    +0.285 C  
DOCKED: ATOM     17  C   UNL     1     -48.275 -27.033   4.455 -0.05 +0.00    +0.285 C  
DOCKED: ENDBRANCH  14  15
DOCKED: ENDBRANCH  13  14
DOCKED: ENDBRANCH  12  13
DOCKED: ENDBRANCH   2  12
DOCKED: BRANCH   2  18
DOCKED: ATOM     18  C   UNL     1     -48.503 -26.404   0.995 -0.14 +0.00    +0.006 A  
DOCKED: ATOM     19  C   UNL     1     -49.372 -27.494   1.021 -0.22 +0.00    +0.001 A  
DOCKED: ATOM     20  C   UNL     1     -48.862 -28.792   0.952 -0.24 +0.00    +0.029 A  
DOCKED: ATOM     21  C   UNL     1     -47.486 -28.996   0.856 -0.16 +0.00    +0.140 A  
DOCKED: ATOM     22  C   UNL     1     -46.619 -27.905   0.830 -0.07 +0.00    +0.029 A  
DOCKED: ATOM     23  F   UNL     1     -46.998 -30.241   0.788 -0.07 -0.00    -0.204 F  
DOCKED: ATOM     24  C   UNL     1     -47.127 -26.607   0.899 -0.07 +0.00    +0.001 A  
DOCKED: ENDBRANCH   2  18
DOCKED: TORSDOF 5
DOCKED: TER
DOCKED: ENDMDL
________________________________________________________________________________


    FINAL DOCKED STATE:
    ________________________


Run:   291 / 512
Time taken for this run:   0.001s

DOCKED: MODEL        291
DOCKED: USER    Run = 291
DOCKED: USER
DOCKED: USER    Estimated Free Energy of Binding    =  -3.67 kcal/mol  [=(1)+(2)+(3)-(4)]
DOCKED: USER
DOCKED: USER    (1) Final Intermolecular Energy     =  -5.17 kcal/mol
DOCKED: USER        vdW + Hbond + desolv Energy     =  -5.17 kcal/mol
DOCKED: USER        Electrostatic Energy            =  +0.00 kcal/mol
DOCKED: USER        Moving Ligand-Fixed Receptor    =  -5.17 kcal/mol
DOCKED: USER        Moving Ligand-Moving Receptor   =  +0.00 kcal/mol
DOCKED: USER    (2) Final Total Internal Energy     =  -1.31 kcal/mol
DOCKED: USER    (3) Torsional Free Energy           =  +1.49 kcal/mol
DOCKED: USER    (4) Unbound System's Energy         =  -1.31 kcal/mol
DOCKED: USER
DOCKED: USER
DOCKED: REMARK  5 active torsions:
DOCKED: REMARK  status: ('A' for Active; 'I' for Inactive)
DOCKED: REMARK    1  A    between atoms: C_2  and  C_19 
DOCKED: REMARK    2  A    between atoms: C_2  and  C_11 
DOCKED: REMARK    3  A    between atoms: C_19  and  C_20 
DOCKED: REMARK    4  A    between atoms: C_20  and  C_21 
DOCKED: REMARK    5  A    between atoms: C_21  and  N_22 
DOCKED: USER                              x       y       z     vdW  Elec       q    Type
DOCKED: USER                           _______ _______ _______ _____ _____    ______ ____
DOCKED: ROOT
DOCKED: ATOM      1  O   UNL     1     -44.843 -21.534  -1.873 -0.01 -0.00    -0.346 OA 
DOCKED: ATOM      2  C   UNL     1     -44.628 -21.220  -3.286 -0.05 +0.00    +0.130 C  
DOCKED: ATOM      3  C   UNL     1     -45.991 -21.365  -3.898 -0.13 +0.00    +0.004 A  
DOCKED: ATOM      4  C   UNL     1     -46.923 -21.629  -2.905 -0.20 +0.00    +0.006 A  
DOCKED: ATOM      5  C   UNL     1     -46.255 -21.664  -1.585 -0.14 +0.00    +0.169 C  
DOCKED: ATOM      6  C   UNL     1     -46.377 -21.259  -5.227 -0.19 -0.00    -0.001 A  
DOCKED: ATOM      7  C   UNL     1     -48.264 -21.800  -3.203 -0.32 +0.00    +0.008 A  
DOCKED: ATOM      8  C   UNL     1     -47.725 -21.434  -5.544 -0.26 +0.00    +0.010 A  
DOCKED: ATOM      9  C   UNL     1     -48.664 -21.702  -4.536 -0.34 +0.00    +0.068 A  
DOCKED: ATOM     10  N   UNL     1     -51.160 -22.016  -5.158 -2.55 -0.00    -0.191 NA 
DOCKED: ATOM     11  C   UNL     1     -50.040 -21.876  -4.879 -0.36 +0.00    +0.101 C  
DOCKED: ENDROOT
DOCKED: BRANCH   2  12
DOCKED: ATOM     12  C   UNL     1     -44.079 -19.802  -3.387 -0.08 +0.00    +0.038 C  
DOCKED: BRANCH  12  13
DOCKED: ATOM     13  C   UNL     1     -43.804 -19.211  -2.006 -0.05 +0.00    +0.038 C  
DOCKED: BRANCH  13  14
DOCKED: ATOM     14  C   UNL     1     -44.810 -18.113  -1.668 -0.04 +0.00    +0.251 C  
DOCKED: BRANCH  14  15
DOCKED: ATOM     15  N   UNL     1     -45.701 -18.553  -0.600 -0.12 +0.00    +0.141 N  
DOCKED: ATOM     16  C   UNL     1     -45.475 -17.770   0.616 -0.07 +0.00    +0.285 C  
DOCKED: ATOM     17  C   UNL     1     -47.099 -18.447  -1.020 -0.21 +0.00    +0.285 C  
DOCKED: ENDBRANCH  14  15
DOCKED: ENDBRANCH  13  14
DOCKED: ENDBRANCH  12  13
DOCKED: ENDBRANCH   2  12
DOCKED: BRANCH   2  18
DOCKED: ATOM     18  C   UNL     1     -43.647 -22.216  -3.810 -0.02 +0.00    +0.006 A  
DOCKED: ATOM     19  C   UNL     1     -42.304 -21.866  -3.946 -0.01 +0.00    +0.001 A  
DOCKED: ATOM     20  C   UNL     1     -41.388 -22.798  -4.436 -0.00 +0.00    +0.029 A  
DOCKED: ATOM     21  C   UNL     1     -41.815 -24.077  -4.788 -0.00 +0.00    +0.140 A  
DOCKED: ATOM     22  C   UNL     1     -43.159 -24.427  -4.651 -0.00 +0.00    +0.029 A  
DOCKED: ATOM     23  F   UNL     1     -40.936 -24.972  -5.256 +0.00 -0.00    -0.204 F  
DOCKED: ATOM     24  C   UNL     1     -44.076 -23.495  -4.161 -0.01 +0.00    +0.001 A  
DOCKED: ENDBRANCH   2  18
DOCKED: TORSDOF 5
DOCKED: TER
DOCKED: ENDMDL
________________________________________________________________________________


    FINAL DOCKED STATE:
    ________________________


Run:   292 / 512
Time taken for this run:   0.001s

DOCKED: MODEL        292
DOCKED: USER    Run = 292
DOCKED: USER
DOCKED: USER    Estimated Free Energy of Binding    =  -4.65 kcal/mol  [=(1)+(2)+(3)-(4)]
DOCKED: USER
DOCKED: USER    (1) Final Intermolecular Energy     =  -6.15 kcal/mol
DOCKED: USER        vdW + Hbond + desolv Energy     =  -6.15 kcal/mol
DOCKED: USER        Electrostatic Energy            =  +0.00 kcal/mol
DOCKED: USER        Moving Ligand-Fixed Receptor    =  -6.15 kcal/mol
DOCKED: USER        Moving Ligand-Moving Receptor   =  +0.00 kcal/mol
DOCKED: USER    (2) Final Total Internal Energy     =  -1.24 kcal/mol
DOCKED: USER    (3) Torsional Free Energy           =  +1.49 kcal/mol
DOCKED: USER    (4) Unbound System's Energy         =  -1.24 kcal/mol
DOCKED: USER
DOCKED: USER
DOCKED: REMARK  5 active torsions:
DOCKED: REMARK  status: ('A' for Active; 'I' for Inactive)
DOCKED: REMARK    1  A    between atoms: C_2  and  C_19 
DOCKED: REMARK    2  A    between atoms: C_2  and  C_11 
DOCKED: REMARK    3  A    between atoms: C_19  and  C_20 
DOCKED: REMARK    4  A    between atoms: C_20  and  C_21 
DOCKED: REMARK    5  A    between atoms: C_21  and  N_22 
DOCKED: USER                              x       y       z     vdW  Elec       q    Type
DOCKED: USER                           _______ _______ _______ _____ _____    ______ ____
DOCKED: ROOT
DOCKED: ATOM      1  O   UNL     1     -51.780 -33.778   8.882 -0.08 -0.00    -0.346 OA 
DOCKED: ATOM      2  C   UNL     1     -51.759 -32.436   8.299 -0.16 +0.00    +0.130 C  
DOCKED: ATOM      3  C   UNL     1     -52.166 -32.658   6.872 -0.29 +0.00    +0.004 A  
DOCKED: ATOM      4  C   UNL     1     -52.499 -33.992   6.683 -0.34 +0.00    +0.006 A  
DOCKED: ATOM      5  C   UNL     1     -52.349 -34.732   7.956 -0.11 +0.00    +0.169 C  
DOCKED: ATOM      6  C   UNL     1     -52.248 -31.750   5.826 -0.32 -0.00    -0.001 A  
DOCKED: ATOM      7  C   UNL     1     -52.917 -34.463   5.450 -0.42 +0.00    +0.008 A  
DOCKED: ATOM      8  C   UNL     1     -52.663 -32.210   4.576 -0.07 +0.00    +0.010 A  
DOCKED: ATOM      9  C   UNL     1     -52.997 -33.559   4.389 -0.42 +0.00    +0.068 A  
DOCKED: ATOM     10  N   UNL     1     -53.770 -34.380   2.056 -2.26 -0.00    -0.191 NA 
DOCKED: ATOM     11  C   UNL     1     -53.423 -34.012   3.102 -0.51 +0.00    +0.101 C  
DOCKED: ENDROOT
DOCKED: BRANCH   2  12
DOCKED: ATOM     12  C   UNL     1     -52.741 -31.560   9.068 -0.09 +0.00    +0.038 C  
DOCKED: BRANCH  12  13
DOCKED: ATOM     13  C   UNL     1     -52.715 -31.874  10.562 -0.05 +0.00    +0.038 C  
DOCKED: BRANCH  13  14
DOCKED: ATOM     14  C   UNL     1     -53.681 -33.007  10.903 -0.04 +0.00    +0.251 C  
DOCKED: BRANCH  14  15
DOCKED: ATOM     15  N   UNL     1     -53.434 -33.496  12.254 -0.05 +0.00    +0.141 N  
DOCKED: ATOM     16  C   UNL     1     -53.988 -34.840  12.427 -0.09 +0.00    +0.285 C  
DOCKED: ATOM     17  C   UNL     1     -51.999 -33.498  12.547 -0.04 +0.00    +0.285 C  
DOCKED: ENDBRANCH  14  15
DOCKED: ENDBRANCH  13  14
DOCKED: ENDBRANCH  12  13
DOCKED: ENDBRANCH   2  12
DOCKED: BRANCH   2  18
DOCKED: ATOM     18  C   UNL     1     -50.363 -31.924   8.433 -0.19 +0.00    +0.006 A  
DOCKED: ATOM     19  C   UNL     1     -49.378 -32.728   9.006 -0.12 +0.00    +0.001 A  
DOCKED: ATOM     20  C   UNL     1     -48.074 -32.248   9.130 -0.15 +0.00    +0.029 A  
DOCKED: ATOM     21  C   UNL     1     -47.756 -30.967   8.682 -0.09 +0.00    +0.140 A  
DOCKED: ATOM     22  C   UNL     1     -48.742 -30.164   8.108 -0.11 +0.00    +0.029 A  
DOCKED: ATOM     23  F   UNL     1     -46.504 -30.508   8.800 -0.01 -0.00    -0.204 F  
DOCKED: ATOM     24  C   UNL     1     -50.047 -30.643   7.984 -0.15 +0.00    +0.001 A  
DOCKED: ENDBRANCH   2  18
DOCKED: TORSDOF 5
DOCKED: TER
DOCKED: ENDMDL
________________________________________________________________________________


    FINAL DOCKED STATE:
    ________________________


Run:   293 / 512
Time taken for this run:   0.001s

DOCKED: MODEL        293
DOCKED: USER    Run = 293
DOCKED: USER
DOCKED: USER    Estimated Free Energy of Binding    =  -4.25 kcal/mol  [=(1)+(2)+(3)-(4)]
DOCKED: USER
DOCKED: USER    (1) Final Intermolecular Energy     =  -5.74 kcal/mol
DOCKED: USER        vdW + Hbond + desolv Energy     =  -5.74 kcal/mol
DOCKED: USER        Electrostatic Energy            =  +0.00 kcal/mol
DOCKED: USER        Moving Ligand-Fixed Receptor    =  -5.74 kcal/mol
DOCKED: USER        Moving Ligand-Moving Receptor   =  +0.00 kcal/mol
DOCKED: USER    (2) Final Total Internal Energy     =  -1.43 kcal/mol
DOCKED: USER    (3) Torsional Free Energy           =  +1.49 kcal/mol
DOCKED: USER    (4) Unbound System's Energy         =  -1.43 kcal/mol
DOCKED: USER
DOCKED: USER
DOCKED: REMARK  5 active torsions:
DOCKED: REMARK  status: ('A' for Active; 'I' for Inactive)
DOCKED: REMARK    1  A    between atoms: C_2  and  C_19 
DOCKED: REMARK    2  A    between atoms: C_2  and  C_11 
DOCKED: REMARK    3  A    between atoms: C_19  and  C_20 
DOCKED: REMARK    4  A    between atoms: C_20  and  C_21 
DOCKED: REMARK    5  A    between atoms: C_21  and  N_22 
DOCKED: USER                              x       y       z     vdW  Elec       q    Type
DOCKED: USER                           _______ _______ _______ _____ _____    ______ ____
DOCKED: ROOT
DOCKED: ATOM      1  O   UNL     1     -49.359 -30.453   8.322 -0.06 -0.00    -0.346 OA 
DOCKED: ATOM      2  C   UNL     1     -50.461 -29.781   7.631 -0.14 +0.00    +0.130 C  
DOCKED: ATOM      3  C   UNL     1     -51.244 -30.908   7.022 -0.24 +0.00    +0.004 A  
DOCKED: ATOM      4  C   UNL     1     -50.702 -32.122   7.421 -0.22 +0.00    +0.006 A  
DOCKED: ATOM      5  C   UNL     1     -49.549 -31.887   8.318 -0.16 +0.00    +0.169 C  
DOCKED: ATOM      6  C   UNL     1     -52.354 -30.863   6.191 -0.25 -0.00    -0.001 A  
DOCKED: ATOM      7  C   UNL     1     -51.244 -33.325   7.003 -0.33 +0.00    +0.008 A  
DOCKED: ATOM      8  C   UNL     1     -52.909 -32.068   5.757 -0.31 +0.00    +0.010 A  
DOCKED: ATOM      9  C   UNL     1     -52.357 -33.293   6.162 -0.32 +0.00    +0.068 A  
DOCKED: ATOM     10  N   UNL     1     -53.416 -35.511   5.342 -2.61 -0.00    -0.191 NA 
DOCKED: ATOM     11  C   UNL     1     -52.940 -34.516   5.709 -0.32 +0.00    +0.101 C  
DOCKED: ENDROOT
DOCKED: BRANCH   2  12
DOCKED: ATOM     12  C   UNL     1     -51.262 -28.989   8.657 -0.06 +0.00    +0.038 C  
DOCKED: BRANCH  12  13
DOCKED: ATOM     13  C   UNL     1     -50.408 -27.907   9.316 -0.02 +0.00    +0.038 C  
DOCKED: BRANCH  13  14
DOCKED: ATOM     14  C   UNL     1     -49.677 -28.454  10.540 -0.00 +0.00    +0.251 C  
DOCKED: BRANCH  14  15
DOCKED: ATOM     15  N   UNL     1     -48.295 -28.776  10.204 -0.01 +0.00    +0.141 N  
DOCKED: ATOM     16  C   UNL     1     -47.533 -27.556   9.932 -0.00 +0.00    +0.285 C  
DOCKED: ATOM     17  C   UNL     1     -47.665 -29.537  11.284 -0.00 +0.00    +0.285 C  
DOCKED: ENDBRANCH  14  15
DOCKED: ENDBRANCH  13  14
DOCKED: ENDBRANCH  12  13
DOCKED: ENDBRANCH   2  12
DOCKED: BRANCH   2  18
DOCKED: ATOM     18  C   UNL     1     -49.851 -28.879   6.611 -0.16 +0.00    +0.006 A  
DOCKED: ATOM     19  C   UNL     1     -48.569 -29.139   6.128 -0.12 +0.00    +0.001 A  
DOCKED: ATOM     20  C   UNL     1     -48.000 -28.294   5.174 -0.12 +0.00    +0.029 A  
DOCKED: ATOM     21  C   UNL     1     -48.713 -27.192   4.705 -0.08 +0.00    +0.140 A  
DOCKED: ATOM     22  C   UNL     1     -49.995 -26.933   5.188 -0.09 +0.00    +0.029 A  
DOCKED: ATOM     23  F   UNL     1     -48.167 -26.383   3.788 -0.01 -0.00    -0.204 F  
DOCKED: ATOM     24  C   UNL     1     -50.566 -27.777   6.142 -0.12 +0.00    +0.001 A  
DOCKED: ENDBRANCH   2  18
DOCKED: TORSDOF 5
DOCKED: TER
DOCKED: ENDMDL
________________________________________________________________________________


    FINAL DOCKED STATE:
    ________________________


Run:   294 / 512
Time taken for this run:   0.001s

DOCKED: MODEL        294
DOCKED: USER    Run = 294
DOCKED: USER
DOCKED: USER    Estimated Free Energy of Binding    =  -4.50 kcal/mol  [=(1)+(2)+(3)-(4)]
DOCKED: USER
DOCKED: USER    (1) Final Intermolecular Energy     =  -5.99 kcal/mol
DOCKED: USER        vdW + Hbond + desolv Energy     =  -5.99 kcal/mol
DOCKED: USER        Electrostatic Energy            =  +0.00 kcal/mol
DOCKED: USER        Moving Ligand-Fixed Receptor    =  -5.99 kcal/mol
DOCKED: USER        Moving Ligand-Moving Receptor   =  +0.00 kcal/mol
DOCKED: USER    (2) Final Total Internal Energy     =  -1.29 kcal/mol
DOCKED: USER    (3) Torsional Free Energy           =  +1.49 kcal/mol
DOCKED: USER    (4) Unbound System's Energy         =  -1.29 kcal/mol
DOCKED: USER
DOCKED: USER
DOCKED: REMARK  5 active torsions:
DOCKED: REMARK  status: ('A' for Active; 'I' for Inactive)
DOCKED: REMARK    1  A    between atoms: C_2  and  C_19 
DOCKED: REMARK    2  A    between atoms: C_2  and  C_11 
DOCKED: REMARK    3  A    between atoms: C_19  and  C_20 
DOCKED: REMARK    4  A    between atoms: C_20  and  C_21 
DOCKED: REMARK    5  A    between atoms: C_21  and  N_22 
DOCKED: USER                              x       y       z     vdW  Elec       q    Type
DOCKED: USER                           _______ _______ _______ _____ _____    ______ ____
DOCKED: ROOT
DOCKED: ATOM      1  O   UNL     1     -49.132 -25.132   0.432 -0.09 -0.00    -0.346 OA 
DOCKED: ATOM      2  C   UNL     1     -47.882 -24.853  -0.276 -0.16 +0.00    +0.130 C  
DOCKED: ATOM      3  C   UNL     1     -48.325 -24.144  -1.523 -0.23 +0.00    +0.004 A  
DOCKED: ATOM      4  C   UNL     1     -49.696 -23.937  -1.480 -0.29 +0.00    +0.006 A  
DOCKED: ATOM      5  C   UNL     1     -50.246 -24.474  -0.216 -0.24 +0.00    +0.169 C  
DOCKED: ATOM      6  C   UNL     1     -47.572 -23.708  -2.603 -0.19 -0.00    -0.001 A  
DOCKED: ATOM      7  C   UNL     1     -50.360 -23.294  -2.511 -0.38 +0.00    +0.008 A  
DOCKED: ATOM      8  C   UNL     1     -48.228 -23.062  -3.653 -0.26 +0.00    +0.010 A  
DOCKED: ATOM      9  C   UNL     1     -49.615 -22.856  -3.606 -0.31 +0.00    +0.068 A  
DOCKED: ATOM     10  N   UNL     1     -50.800 -21.649  -5.569 -2.54 -0.00    -0.191 NA 
DOCKED: ATOM     11  C   UNL     1     -50.268 -22.191  -4.689 -0.32 +0.00    +0.101 C  
DOCKED: ENDROOT
DOCKED: BRANCH   2  12
DOCKED: ATOM     12  C   UNL     1     -47.004 -23.987   0.619 -0.15 +0.00    +0.038 C  
DOCKED: BRANCH  12  13
DOCKED: ATOM     13  C   UNL     1     -46.772 -24.645   1.978 -0.12 +0.00    +0.038 C  
DOCKED: BRANCH  13  14
DOCKED: ATOM     14  C   UNL     1     -45.422 -24.237   2.563 -0.06 +0.00    +0.251 C  
DOCKED: BRANCH  14  15
DOCKED: ATOM     15  N   UNL     1     -44.498 -25.365   2.540 -0.01 +0.00    +0.141 N  
DOCKED: ATOM     16  C   UNL     1     -45.178 -26.598   2.942 -0.00 +0.00    +0.285 C  
DOCKED: ATOM     17  C   UNL     1     -43.908 -25.522   1.210 -0.00 +0.00    +0.285 C  
DOCKED: ENDBRANCH  14  15
DOCKED: ENDBRANCH  13  14
DOCKED: ENDBRANCH  12  13
DOCKED: ENDBRANCH   2  12
DOCKED: BRANCH   2  18
DOCKED: ATOM     18  C   UNL     1     -47.235 -26.169  -0.553 -0.10 +0.00    +0.006 A  
DOCKED: ATOM     19  C   UNL     1     -46.066 -26.225  -1.312 -0.04 +0.00    +0.001 A  
DOCKED: ATOM     20  C   UNL     1     -45.463 -27.456  -1.571 -0.03 +0.00    +0.029 A  
DOCKED: ATOM     21  C   UNL     1     -46.028 -28.628  -1.071 -0.09 +0.00    +0.140 A  
DOCKED: ATOM     22  C   UNL     1     -47.196 -28.572  -0.312 -0.17 +0.00    +0.029 A  
DOCKED: ATOM     23  F   UNL     1     -45.447 -29.810  -1.318 -0.04 -0.00    -0.204 F  
DOCKED: ATOM     24  C   UNL     1     -47.801 -27.341  -0.053 -0.15 +0.00    +0.001 A  
DOCKED: ENDBRANCH   2  18
DOCKED: TORSDOF 5
DOCKED: TER
DOCKED: ENDMDL
________________________________________________________________________________


    FINAL DOCKED STATE:
    ________________________


Run:   295 / 512
Time taken for this run:   0.001s

DOCKED: MODEL        295
DOCKED: USER    Run = 295
DOCKED: USER
DOCKED: USER    Estimated Free Energy of Binding    =  -4.67 kcal/mol  [=(1)+(2)+(3)-(4)]
DOCKED: USER
DOCKED: USER    (1) Final Intermolecular Energy     =  -6.16 kcal/mol
DOCKED: USER        vdW + Hbond + desolv Energy     =  -6.16 kcal/mol
DOCKED: USER        Electrostatic Energy            =  +0.00 kcal/mol
DOCKED: USER        Moving Ligand-Fixed Receptor    =  -6.16 kcal/mol
DOCKED: USER        Moving Ligand-Moving Receptor   =  +0.00 kcal/mol
DOCKED: USER    (2) Final Total Internal Energy     =  -1.21 kcal/mol
DOCKED: USER    (3) Torsional Free Energy           =  +1.49 kcal/mol
DOCKED: USER    (4) Unbound System's Energy         =  -1.21 kcal/mol
DOCKED: USER
DOCKED: USER
DOCKED: REMARK  5 active torsions:
DOCKED: REMARK  status: ('A' for Active; 'I' for Inactive)
DOCKED: REMARK    1  A    between atoms: C_2  and  C_19 
DOCKED: REMARK    2  A    between atoms: C_2  and  C_11 
DOCKED: REMARK    3  A    between atoms: C_19  and  C_20 
DOCKED: REMARK    4  A    between atoms: C_20  and  C_21 
DOCKED: REMARK    5  A    between atoms: C_21  and  N_22 
DOCKED: USER                              x       y       z     vdW  Elec       q    Type
DOCKED: USER                           _______ _______ _______ _____ _____    ______ ____
DOCKED: ROOT
DOCKED: ATOM      1  O   UNL     1     -49.297 -30.609   8.470 -0.06 -0.00    -0.346 OA 
DOCKED: ATOM      2  C   UNL     1     -50.114 -29.921   7.470 -0.15 +0.00    +0.130 C  
DOCKED: ATOM      3  C   UNL     1     -50.931 -31.020   6.855 -0.21 +0.00    +0.004 A  
DOCKED: ATOM      4  C   UNL     1     -50.684 -32.213   7.519 -0.23 +0.00    +0.006 A  
DOCKED: ATOM      5  C   UNL     1     -49.711 -31.988   8.611 -0.16 +0.00    +0.169 C  
DOCKED: ATOM      6  C   UNL     1     -51.829 -30.966   5.799 -0.09 -0.00    -0.001 A  
DOCKED: ATOM      7  C   UNL     1     -51.318 -33.387   7.151 -0.33 +0.00    +0.008 A  
DOCKED: ATOM      8  C   UNL     1     -52.474 -32.142   5.413 -0.33 +0.00    +0.010 A  
DOCKED: ATOM      9  C   UNL     1     -52.220 -33.347   6.086 -0.32 +0.00    +0.068 A  
DOCKED: ATOM     10  N   UNL     1     -53.437 -35.512   5.347 -2.61 -0.00    -0.191 NA 
DOCKED: ATOM     11  C   UNL     1     -52.890 -34.541   5.678 -0.32 +0.00    +0.101 C  
DOCKED: ENDROOT
DOCKED: BRANCH   2  12
DOCKED: ATOM     12  C   UNL     1     -50.966 -28.875   8.180 -0.08 +0.00    +0.038 C  
DOCKED: BRANCH  12  13
DOCKED: ATOM     13  C   UNL     1     -52.400 -29.363   8.374 -0.09 +0.00    +0.038 C  
DOCKED: BRANCH  13  14
DOCKED: ATOM     14  C   UNL     1     -53.403 -28.372   7.787 -0.09 +0.00    +0.251 C  
DOCKED: BRANCH  14  15
DOCKED: ATOM     15  N   UNL     1     -54.289 -29.044   6.845 -0.21 +0.00    +0.141 N  
DOCKED: ATOM     16  C   UNL     1     -54.691 -30.354   7.360 -0.12 +0.00    +0.285 C  
DOCKED: ATOM     17  C   UNL     1     -55.469 -28.223   6.571 -0.13 +0.00    +0.285 C  
DOCKED: ENDBRANCH  14  15
DOCKED: ENDBRANCH  13  14
DOCKED: ENDBRANCH  12  13
DOCKED: ENDBRANCH   2  12
DOCKED: BRANCH   2  18
DOCKED: ATOM     18  C   UNL     1     -49.174 -29.283   6.503 -0.13 +0.00    +0.006 A  
DOCKED: ATOM     19  C   UNL     1     -49.665 -28.431   5.514 -0.12 +0.00    +0.001 A  
DOCKED: ATOM     20  C   UNL     1     -48.784 -27.835   4.609 -0.13 +0.00    +0.029 A  
DOCKED: ATOM     21  C   UNL     1     -47.417 -28.092   4.695 -0.08 +0.00    +0.140 A  
DOCKED: ATOM     22  C   UNL     1     -46.927 -28.943   5.685 -0.10 +0.00    +0.029 A  
DOCKED: ATOM     23  F   UNL     1     -46.572 -27.518   3.828 -0.00 -0.00    -0.204 F  
DOCKED: ATOM     24  C   UNL     1     -47.807 -29.540   6.590 -0.06 +0.00    +0.001 A  
DOCKED: ENDBRANCH   2  18
DOCKED: TORSDOF 5
DOCKED: TER
DOCKED: ENDMDL
________________________________________________________________________________


    FINAL DOCKED STATE:
    ________________________


Run:   296 / 512
Time taken for this run:   0.001s

DOCKED: MODEL        296
DOCKED: USER    Run = 296
DOCKED: USER
DOCKED: USER    Estimated Free Energy of Binding    =  -4.23 kcal/mol  [=(1)+(2)+(3)-(4)]
DOCKED: USER
DOCKED: USER    (1) Final Intermolecular Energy     =  -5.72 kcal/mol
DOCKED: USER        vdW + Hbond + desolv Energy     =  -5.72 kcal/mol
DOCKED: USER        Electrostatic Energy            =  +0.00 kcal/mol
DOCKED: USER        Moving Ligand-Fixed Receptor    =  -5.72 kcal/mol
DOCKED: USER        Moving Ligand-Moving Receptor   =  +0.00 kcal/mol
DOCKED: USER    (2) Final Total Internal Energy     =  -1.12 kcal/mol
DOCKED: USER    (3) Torsional Free Energy           =  +1.49 kcal/mol
DOCKED: USER    (4) Unbound System's Energy         =  -1.12 kcal/mol
DOCKED: USER
DOCKED: USER
DOCKED: REMARK  5 active torsions:
DOCKED: REMARK  status: ('A' for Active; 'I' for Inactive)
DOCKED: REMARK    1  A    between atoms: C_2  and  C_19 
DOCKED: REMARK    2  A    between atoms: C_2  and  C_11 
DOCKED: REMARK    3  A    between atoms: C_19  and  C_20 
DOCKED: REMARK    4  A    between atoms: C_20  and  C_21 
DOCKED: REMARK    5  A    between atoms: C_21  and  N_22 
DOCKED: USER                              x       y       z     vdW  Elec       q    Type
DOCKED: USER                           _______ _______ _______ _____ _____    ______ ____
DOCKED: ROOT
DOCKED: ATOM      1  O   UNL     1     -50.193 -25.024   1.772 -0.09 -0.00    -0.346 OA 
DOCKED: ATOM      2  C   UNL     1     -48.899 -25.053   1.089 -0.18 +0.00    +0.130 C  
DOCKED: ATOM      3  C   UNL     1     -49.198 -24.492  -0.271 -0.24 +0.00    +0.004 A  
DOCKED: ATOM      4  C   UNL     1     -50.521 -24.077  -0.325 -0.11 +0.00    +0.006 A  
DOCKED: ATOM      5  C   UNL     1     -51.176 -24.318   0.980 -0.25 +0.00    +0.169 C  
DOCKED: ATOM      6  C   UNL     1     -48.362 -24.351  -1.369 -0.24 -0.00    -0.001 A  
DOCKED: ATOM      7  C   UNL     1     -51.053 -23.514  -1.472 -0.05 +0.00    +0.008 A  
DOCKED: ATOM      8  C   UNL     1     -48.885 -23.788  -2.535 -0.29 +0.00    +0.010 A  
DOCKED: ATOM      9  C   UNL     1     -50.224 -23.371  -2.585 -0.29 +0.00    +0.068 A  
DOCKED: ATOM     10  N   UNL     1     -51.162 -22.327  -4.763 -2.47 -0.00    -0.191 NA 
DOCKED: ATOM     11  C   UNL     1     -50.741 -22.796  -3.786 -0.24 +0.00    +0.101 C  
DOCKED: ENDROOT
DOCKED: BRANCH   2  12
DOCKED: ATOM     12  C   UNL     1     -47.917 -24.197   1.881 -0.17 +0.00    +0.038 C  
DOCKED: BRANCH  12  13
DOCKED: ATOM     13  C   UNL     1     -48.472 -23.842   3.259 -0.16 +0.00    +0.038 C  
DOCKED: BRANCH  13  14
DOCKED: ATOM     14  C   UNL     1     -47.514 -24.278   4.366 -0.07 +0.00    +0.251 C  
DOCKED: BRANCH  14  15
DOCKED: ATOM     15  N   UNL     1     -48.249 -24.539   5.598 -0.03 +0.00    +0.141 N  
DOCKED: ATOM     16  C   UNL     1     -47.435 -24.201   6.766 -0.01 +0.00    +0.285 C  
DOCKED: ATOM     17  C   UNL     1     -49.504 -23.787   5.620 -0.04 +0.00    +0.285 C  
DOCKED: ENDBRANCH  14  15
DOCKED: ENDBRANCH  13  14
DOCKED: ENDBRANCH  12  13
DOCKED: ENDBRANCH   2  12
DOCKED: BRANCH   2  18
DOCKED: ATOM     18  C   UNL     1     -48.459 -26.478   1.047 -0.14 +0.00    +0.006 A  
DOCKED: ATOM     19  C   UNL     1     -49.312 -27.456   0.538 -0.22 +0.00    +0.001 A  
DOCKED: ATOM     20  C   UNL     1     -48.900 -28.788   0.499 -0.02 +0.00    +0.029 A  
DOCKED: ATOM     21  C   UNL     1     -47.636 -29.141   0.969 -0.18 +0.00    +0.140 A  
DOCKED: ATOM     22  C   UNL     1     -46.782 -28.162   1.478 -0.07 +0.00    +0.029 A  
DOCKED: ATOM     23  F   UNL     1     -47.239 -30.420   0.931 -0.09 -0.00    -0.204 F  
DOCKED: ATOM     24  C   UNL     1     -47.194 -26.829   1.518 -0.06 +0.00    +0.001 A  
DOCKED: ENDBRANCH   2  18
DOCKED: TORSDOF 5
DOCKED: TER
DOCKED: ENDMDL
________________________________________________________________________________


    FINAL DOCKED STATE:
    ________________________


Run:   297 / 512
Time taken for this run:   0.001s

DOCKED: MODEL        297
DOCKED: USER    Run = 297
DOCKED: USER
DOCKED: USER    Estimated Free Energy of Binding    =  -4.48 kcal/mol  [=(1)+(2)+(3)-(4)]
DOCKED: USER
DOCKED: USER    (1) Final Intermolecular Energy     =  -5.97 kcal/mol
DOCKED: USER        vdW + Hbond + desolv Energy     =  -5.97 kcal/mol
DOCKED: USER        Electrostatic Energy            =  +0.00 kcal/mol
DOCKED: USER        Moving Ligand-Fixed Receptor    =  -5.97 kcal/mol
DOCKED: USER        Moving Ligand-Moving Receptor   =  +0.00 kcal/mol
DOCKED: USER    (2) Final Total Internal Energy     =  -1.21 kcal/mol
DOCKED: USER    (3) Torsional Free Energy           =  +1.49 kcal/mol
DOCKED: USER    (4) Unbound System's Energy         =  -1.21 kcal/mol
DOCKED: USER
DOCKED: USER
DOCKED: REMARK  5 active torsions:
DOCKED: REMARK  status: ('A' for Active; 'I' for Inactive)
DOCKED: REMARK    1  A    between atoms: C_2  and  C_19 
DOCKED: REMARK    2  A    between atoms: C_2  and  C_11 
DOCKED: REMARK    3  A    between atoms: C_19  and  C_20 
DOCKED: REMARK    4  A    between atoms: C_20  and  C_21 
DOCKED: REMARK    5  A    between atoms: C_21  and  N_22 
DOCKED: USER                              x       y       z     vdW  Elec       q    Type
DOCKED: USER                           _______ _______ _______ _____ _____    ______ ____
DOCKED: ROOT
DOCKED: ATOM      1  O   UNL     1     -49.272 -30.704   8.737 -0.05 -0.00    -0.346 OA 
DOCKED: ATOM      2  C   UNL     1     -50.295 -29.922   8.041 -0.11 +0.00    +0.130 C  
DOCKED: ATOM      3  C   UNL     1     -51.128 -30.959   7.345 -0.21 +0.00    +0.004 A  
DOCKED: ATOM      4  C   UNL     1     -50.690 -32.226   7.700 -0.24 +0.00    +0.006 A  
DOCKED: ATOM      5  C   UNL     1     -49.561 -32.119   8.652 -0.16 +0.00    +0.169 C  
DOCKED: ATOM      6  C   UNL     1     -52.197 -30.793   6.476 -0.27 -0.00    -0.001 A  
DOCKED: ATOM      7  C   UNL     1     -51.296 -33.366   7.200 -0.33 +0.00    +0.008 A  
DOCKED: ATOM      8  C   UNL     1     -52.816 -31.932   5.959 -0.31 +0.00    +0.010 A  
DOCKED: ATOM      9  C   UNL     1     -52.368 -33.212   6.319 -0.30 +0.00    +0.068 A  
DOCKED: ATOM     10  N   UNL     1     -53.544 -35.305   5.345 -2.52 -0.00    -0.191 NA 
DOCKED: ATOM     11  C   UNL     1     -53.016 -34.366   5.782 -0.37 +0.00    +0.101 C  
DOCKED: ENDROOT
DOCKED: BRANCH   2  12
DOCKED: ATOM     12  C   UNL     1     -51.081 -29.126   9.076 -0.05 +0.00    +0.038 C  
DOCKED: BRANCH  12  13
DOCKED: ATOM     13  C   UNL     1     -51.729 -27.891   8.453 -0.05 +0.00    +0.038 C  
DOCKED: BRANCH  13  14
DOCKED: ATOM     14  C   UNL     1     -53.250 -28.029   8.415 -0.04 +0.00    +0.251 C  
DOCKED: BRANCH  14  15
DOCKED: ATOM     15  N   UNL     1     -53.700 -28.309   7.057 -0.17 +0.00    +0.141 N  
DOCKED: ATOM     16  C   UNL     1     -55.154 -28.464   7.016 -0.15 +0.00    +0.285 C  
DOCKED: ATOM     17  C   UNL     1     -53.277 -27.245   6.144 -0.13 +0.00    +0.285 C  
DOCKED: ENDBRANCH  14  15
DOCKED: ENDBRANCH  13  14
DOCKED: ENDBRANCH  12  13
DOCKED: ENDBRANCH   2  12
DOCKED: BRANCH   2  18
DOCKED: ATOM     18  C   UNL     1     -49.582 -29.017   7.093 -0.14 +0.00    +0.006 A  
DOCKED: ATOM     19  C   UNL     1     -49.802 -29.131   5.721 -0.11 +0.00    +0.001 A  
DOCKED: ATOM     20  C   UNL     1     -49.134 -28.284   4.836 -0.11 +0.00    +0.029 A  
DOCKED: ATOM     21  C   UNL     1     -48.248 -27.325   5.323 -0.06 +0.00    +0.140 A  
DOCKED: ATOM     22  C   UNL     1     -48.029 -27.210   6.696 -0.04 +0.00    +0.029 A  
DOCKED: ATOM     23  F   UNL     1     -47.609 -26.511   4.473 -0.00 -0.00    -0.204 F  
DOCKED: ATOM     24  C   UNL     1     -48.696 -28.057   7.582 -0.06 +0.00    +0.001 A  
DOCKED: ENDBRANCH   2  18
DOCKED: TORSDOF 5
DOCKED: TER
DOCKED: ENDMDL
________________________________________________________________________________


    FINAL DOCKED STATE:
    ________________________


Run:   298 / 512
Time taken for this run:   0.001s

DOCKED: MODEL        298
DOCKED: USER    Run = 298
DOCKED: USER
DOCKED: USER    Estimated Free Energy of Binding    =  -5.41 kcal/mol  [=(1)+(2)+(3)-(4)]
DOCKED: USER
DOCKED: USER    (1) Final Intermolecular Energy     =  -6.90 kcal/mol
DOCKED: USER        vdW + Hbond + desolv Energy     =  -6.90 kcal/mol
DOCKED: USER        Electrostatic Energy            =  +0.00 kcal/mol
DOCKED: USER        Moving Ligand-Fixed Receptor    =  -6.90 kcal/mol
DOCKED: USER        Moving Ligand-Moving Receptor   =  +0.00 kcal/mol
DOCKED: USER    (2) Final Total Internal Energy     =  -1.16 kcal/mol
DOCKED: USER    (3) Torsional Free Energy           =  +1.49 kcal/mol
DOCKED: USER    (4) Unbound System's Energy         =  -1.16 kcal/mol
DOCKED: USER
DOCKED: USER
DOCKED: REMARK  5 active torsions:
DOCKED: REMARK  status: ('A' for Active; 'I' for Inactive)
DOCKED: REMARK    1  A    between atoms: C_2  and  C_19 
DOCKED: REMARK    2  A    between atoms: C_2  and  C_11 
DOCKED: REMARK    3  A    between atoms: C_19  and  C_20 
DOCKED: REMARK    4  A    between atoms: C_20  and  C_21 
DOCKED: REMARK    5  A    between atoms: C_21  and  N_22 
DOCKED: USER                              x       y       z     vdW  Elec       q    Type
DOCKED: USER                           _______ _______ _______ _____ _____    ______ ____
DOCKED: ROOT
DOCKED: ATOM      1  O   UNL     1     -51.382 -31.139   7.917 -0.05 -0.00    -0.346 OA 
DOCKED: ATOM      2  C   UNL     1     -51.363 -32.598   8.031 -0.20 +0.00    +0.130 C  
DOCKED: ATOM      3  C   UNL     1     -51.905 -33.068   6.712 -0.33 +0.00    +0.004 A  
DOCKED: ATOM      4  C   UNL     1     -52.112 -31.980   5.877 -0.32 +0.00    +0.006 A  
DOCKED: ATOM      5  C   UNL     1     -51.715 -30.733   6.570 -0.23 +0.00    +0.169 C  
DOCKED: ATOM      6  C   UNL     1     -52.183 -34.358   6.282 -0.35 -0.00    -0.001 A  
DOCKED: ATOM      7  C   UNL     1     -52.604 -32.139   4.593 -0.02 +0.00    +0.008 A  
DOCKED: ATOM      8  C   UNL     1     -52.684 -34.535   4.991 -0.49 +0.00    +0.010 A  
DOCKED: ATOM      9  C   UNL     1     -52.893 -33.431   4.151 -0.40 +0.00    +0.068 A  
DOCKED: ATOM     10  N   UNL     1     -53.819 -33.796   1.759 -2.86 -0.00    -0.191 NA 
DOCKED: ATOM     11  C   UNL     1     -53.404 -33.632   2.832 -0.47 +0.00    +0.101 C  
DOCKED: ENDROOT
DOCKED: BRANCH   2  12
DOCKED: ATOM     12  C   UNL     1     -49.926 -33.045   8.275 -0.19 +0.00    +0.038 C  
DOCKED: BRANCH  12  13
DOCKED: ATOM     13  C   UNL     1     -48.935 -31.921   7.975 -0.05 +0.00    +0.038 C  
DOCKED: BRANCH  13  14
DOCKED: ATOM     14  C   UNL     1     -47.694 -32.034   8.858 -0.11 +0.00    +0.251 C  
DOCKED: BRANCH  14  15
DOCKED: ATOM     15  N   UNL     1     -48.065 -31.969  10.267 -0.07 +0.00    +0.141 N  
DOCKED: ATOM     16  C   UNL     1     -47.619 -33.170  10.974 -0.05 +0.00    +0.285 C  
DOCKED: ATOM     17  C   UNL     1     -47.502 -30.772  10.894 -0.01 +0.00    +0.285 C  
DOCKED: ENDBRANCH  14  15
DOCKED: ENDBRANCH  13  14
DOCKED: ENDBRANCH  12  13
DOCKED: ENDBRANCH   2  12
DOCKED: BRANCH   2  18
DOCKED: ATOM     18  C   UNL     1     -52.241 -32.958   9.183 -0.14 +0.00    +0.006 A  
DOCKED: ATOM     19  C   UNL     1     -51.685 -33.510  10.336 -0.16 +0.00    +0.001 A  
DOCKED: ATOM     20  C   UNL     1     -52.508 -33.846  11.412 -0.13 +0.00    +0.029 A  
DOCKED: ATOM     21  C   UNL     1     -53.883 -33.629  11.334 -0.07 +0.00    +0.140 A  
DOCKED: ATOM     22  C   UNL     1     -54.437 -33.077  10.180 -0.08 +0.00    +0.029 A  
DOCKED: ATOM     23  F   UNL     1     -54.672 -33.950  12.367 +0.00 -0.00    -0.204 F  
DOCKED: ATOM     24  C   UNL     1     -53.616 -32.741   9.102 -0.10 +0.00    +0.001 A  
DOCKED: ENDBRANCH   2  18
DOCKED: TORSDOF 5
DOCKED: TER
DOCKED: ENDMDL
________________________________________________________________________________


    FINAL DOCKED STATE:
    ________________________


Run:   299 / 512
Time taken for this run:   0.001s

DOCKED: MODEL        299
DOCKED: USER    Run = 299
DOCKED: USER
DOCKED: USER    Estimated Free Energy of Binding    =  -4.82 kcal/mol  [=(1)+(2)+(3)-(4)]
DOCKED: USER
DOCKED: USER    (1) Final Intermolecular Energy     =  -6.31 kcal/mol
DOCKED: USER        vdW + Hbond + desolv Energy     =  -6.31 kcal/mol
DOCKED: USER        Electrostatic Energy            =  +0.00 kcal/mol
DOCKED: USER        Moving Ligand-Fixed Receptor    =  -6.31 kcal/mol
DOCKED: USER        Moving Ligand-Moving Receptor   =  +0.00 kcal/mol
DOCKED: USER    (2) Final Total Internal Energy     =  -1.17 kcal/mol
DOCKED: USER    (3) Torsional Free Energy           =  +1.49 kcal/mol
DOCKED: USER    (4) Unbound System's Energy         =  -1.17 kcal/mol
DOCKED: USER
DOCKED: USER
DOCKED: REMARK  5 active torsions:
DOCKED: REMARK  status: ('A' for Active; 'I' for Inactive)
DOCKED: REMARK    1  A    between atoms: C_2  and  C_19 
DOCKED: REMARK    2  A    between atoms: C_2  and  C_11 
DOCKED: REMARK    3  A    between atoms: C_19  and  C_20 
DOCKED: REMARK    4  A    between atoms: C_20  and  C_21 
DOCKED: REMARK    5  A    between atoms: C_21  and  N_22 
DOCKED: USER                              x       y       z     vdW  Elec       q    Type
DOCKED: USER                           _______ _______ _______ _____ _____    ______ ____
DOCKED: ROOT
DOCKED: ATOM      1  O   UNL     1     -53.265 -33.504   8.610 -0.04 -0.00    -0.346 OA 
DOCKED: ATOM      2  C   UNL     1     -52.712 -32.344   7.909 -0.14 +0.00    +0.130 C  
DOCKED: ATOM      3  C   UNL     1     -52.893 -32.681   6.457 -0.30 +0.00    +0.004 A  
DOCKED: ATOM      4  C   UNL     1     -53.588 -33.876   6.338 -0.31 +0.00    +0.006 A  
DOCKED: ATOM      5  C   UNL     1     -53.921 -34.399   7.682 -0.19 +0.00    +0.169 C  
DOCKED: ATOM      6  C   UNL     1     -52.485 -31.979   5.332 -0.28 -0.00    -0.001 A  
DOCKED: ATOM      7  C   UNL     1     -53.893 -34.411   5.099 -0.41 +0.00    +0.008 A  
DOCKED: ATOM      8  C   UNL     1     -52.782 -32.508   4.075 -0.14 +0.00    +0.010 A  
DOCKED: ATOM      9  C   UNL     1     -53.483 -33.718   3.959 -0.43 +0.00    +0.068 A  
DOCKED: ATOM     10  N   UNL     1     -54.022 -34.670   1.610 -2.39 -0.00    -0.191 NA 
DOCKED: ATOM     11  C   UNL     1     -53.780 -34.243   2.664 -0.33 +0.00    +0.101 C  
DOCKED: ENDROOT
DOCKED: BRANCH   2  12
DOCKED: ATOM     12  C   UNL     1     -53.494 -31.106   8.333 -0.11 +0.00    +0.038 C  
DOCKED: BRANCH  12  13
DOCKED: ATOM     13  C   UNL     1     -54.884 -31.082   7.700 -0.18 +0.00    +0.038 C  
DOCKED: BRANCH  13  14
DOCKED: ATOM     14  C   UNL     1     -55.054 -29.865   6.792 -0.13 +0.00    +0.251 C  
DOCKED: BRANCH  14  15
DOCKED: ATOM     15  N   UNL     1     -54.552 -28.666   7.452 -0.14 +0.00    +0.141 N  
DOCKED: ATOM     16  C   UNL     1     -54.255 -27.622   6.470 -0.16 +0.00    +0.285 C  
DOCKED: ATOM     17  C   UNL     1     -55.519 -28.176   8.436 -0.03 +0.00    +0.285 C  
DOCKED: ENDBRANCH  14  15
DOCKED: ENDBRANCH  13  14
DOCKED: ENDBRANCH  12  13
DOCKED: ENDBRANCH   2  12
DOCKED: BRANCH   2  18
DOCKED: ATOM     18  C   UNL     1     -51.278 -32.237   8.307 -0.18 +0.00    +0.006 A  
DOCKED: ATOM     19  C   UNL     1     -50.843 -31.146   9.059 -0.10 +0.00    +0.001 A  
DOCKED: ATOM     20  C   UNL     1     -49.501 -31.047   9.430 -0.08 +0.00    +0.029 A  
DOCKED: ATOM     21  C   UNL     1     -48.598 -32.038   9.050 -0.12 +0.00    +0.140 A  
DOCKED: ATOM     22  C   UNL     1     -49.034 -33.129   8.299 +0.19 +0.00    +0.029 A  
DOCKED: ATOM     23  F   UNL     1     -47.311 -31.944   9.409 -0.02 -0.00    -0.204 F  
DOCKED: ATOM     24  C   UNL     1     -50.375 -33.229   7.926 -0.27 +0.00    +0.001 A  
DOCKED: ENDBRANCH   2  18
DOCKED: TORSDOF 5
DOCKED: TER
DOCKED: ENDMDL
________________________________________________________________________________


    FINAL DOCKED STATE:
    ________________________


Run:   300 / 512
Time taken for this run:   0.001s

DOCKED: MODEL        300
DOCKED: USER    Run = 300
DOCKED: USER
DOCKED: USER    Estimated Free Energy of Binding    =  -4.84 kcal/mol  [=(1)+(2)+(3)-(4)]
DOCKED: USER
DOCKED: USER    (1) Final Intermolecular Energy     =  -6.33 kcal/mol
DOCKED: USER        vdW + Hbond + desolv Energy     =  -6.33 kcal/mol
DOCKED: USER        Electrostatic Energy            =  +0.00 kcal/mol
DOCKED: USER        Moving Ligand-Fixed Receptor    =  -6.33 kcal/mol
DOCKED: USER        Moving Ligand-Moving Receptor   =  +0.00 kcal/mol
DOCKED: USER    (2) Final Total Internal Energy     =  -1.07 kcal/mol
DOCKED: USER    (3) Torsional Free Energy           =  +1.49 kcal/mol
DOCKED: USER    (4) Unbound System's Energy         =  -1.07 kcal/mol
DOCKED: USER
DOCKED: USER
DOCKED: REMARK  5 active torsions:
DOCKED: REMARK  status: ('A' for Active; 'I' for Inactive)
DOCKED: REMARK    1  A    between atoms: C_2  and  C_19 
DOCKED: REMARK    2  A    between atoms: C_2  and  C_11 
DOCKED: REMARK    3  A    between atoms: C_19  and  C_20 
DOCKED: REMARK    4  A    between atoms: C_20  and  C_21 
DOCKED: REMARK    5  A    between atoms: C_21  and  N_22 
DOCKED: USER                              x       y       z     vdW  Elec       q    Type
DOCKED: USER                           _______ _______ _______ _____ _____    ______ ____
DOCKED: ROOT
DOCKED: ATOM      1  O   UNL     1     -53.685 -33.591   8.667 -0.04 -0.00    -0.346 OA 
DOCKED: ATOM      2  C   UNL     1     -52.903 -32.505   8.073 -0.13 +0.00    +0.130 C  
DOCKED: ATOM      3  C   UNL     1     -53.004 -32.754   6.596 -0.28 +0.00    +0.004 A  
DOCKED: ATOM      4  C   UNL     1     -53.858 -33.822   6.361 -0.29 +0.00    +0.006 A  
DOCKED: ATOM      5  C   UNL     1     -54.384 -34.338   7.645 -0.17 +0.00    +0.169 C  
DOCKED: ATOM      6  C   UNL     1     -52.398 -32.083   5.545 -0.33 -0.00    -0.001 A  
DOCKED: ATOM      7  C   UNL     1     -54.131 -34.257   5.075 -0.40 +0.00    +0.008 A  
DOCKED: ATOM      8  C   UNL     1     -52.660 -32.511   4.243 -0.23 +0.00    +0.010 A  
DOCKED: ATOM      9  C   UNL     1     -53.522 -33.593   4.009 -0.41 +0.00    +0.068 A  
DOCKED: ATOM     10  N   UNL     1     -53.990 -34.360   1.579 -2.77 -0.00    -0.191 NA 
DOCKED: ATOM     11  C   UNL     1     -53.780 -34.016   2.669 -0.29 +0.00    +0.101 C  
DOCKED: ENDROOT
DOCKED: BRANCH   2  12
DOCKED: ATOM     12  C   UNL     1     -53.523 -31.178   8.495 -0.10 +0.00    +0.038 C  
DOCKED: BRANCH  12  13
DOCKED: ATOM     13  C   UNL     1     -54.569 -31.375   9.590 -0.06 +0.00    +0.038 C  
DOCKED: BRANCH  13  14
DOCKED: ATOM     14  C   UNL     1     -53.912 -31.473  10.966 -0.01 +0.00    +0.251 C  
DOCKED: BRANCH  14  15
DOCKED: ATOM     15  N   UNL     1     -54.406 -32.644  11.682 -0.03 +0.00    +0.141 N  
DOCKED: ATOM     16  C   UNL     1     -55.555 -33.227  10.986 -0.02 +0.00    +0.285 C  
DOCKED: ATOM     17  C   UNL     1     -53.345 -33.640  11.834 -0.05 +0.00    +0.285 C  
DOCKED: ENDBRANCH  14  15
DOCKED: ENDBRANCH  13  14
DOCKED: ENDBRANCH  12  13
DOCKED: ENDBRANCH   2  12
DOCKED: BRANCH   2  18
DOCKED: ATOM     18  C   UNL     1     -51.510 -32.636   8.591 -0.17 +0.00    +0.006 A  
DOCKED: ATOM     19  C   UNL     1     -50.428 -32.344   7.762 -0.23 +0.00    +0.001 A  
DOCKED: ATOM     20  C   UNL     1     -49.126 -32.468   8.248 -0.16 +0.00    +0.029 A  
DOCKED: ATOM     21  C   UNL     1     -48.907 -32.883   9.561 +0.06 +0.00    +0.140 A  
DOCKED: ATOM     22  C   UNL     1     -49.990 -33.174  10.390 -0.06 +0.00    +0.029 A  
DOCKED: ATOM     23  F   UNL     1     -47.657 -33.000  10.027 -0.02 -0.00    -0.204 F  
DOCKED: ATOM     24  C   UNL     1     -51.293 -33.051   9.905 -0.14 +0.00    +0.001 A  
DOCKED: ENDBRANCH   2  18
DOCKED: TORSDOF 5
DOCKED: TER
DOCKED: ENDMDL
________________________________________________________________________________


    FINAL DOCKED STATE:
    ________________________


Run:   301 / 512
Time taken for this run:   0.001s

DOCKED: MODEL        301
DOCKED: USER    Run = 301
DOCKED: USER
DOCKED: USER    Estimated Free Energy of Binding    =  -4.58 kcal/mol  [=(1)+(2)+(3)-(4)]
DOCKED: USER
DOCKED: USER    (1) Final Intermolecular Energy     =  -6.07 kcal/mol
DOCKED: USER        vdW + Hbond + desolv Energy     =  -6.07 kcal/mol
DOCKED: USER        Electrostatic Energy            =  +0.00 kcal/mol
DOCKED: USER        Moving Ligand-Fixed Receptor    =  -6.07 kcal/mol
DOCKED: USER        Moving Ligand-Moving Receptor   =  +0.00 kcal/mol
DOCKED: USER    (2) Final Total Internal Energy     =  -1.04 kcal/mol
DOCKED: USER    (3) Torsional Free Energy           =  +1.49 kcal/mol
DOCKED: USER    (4) Unbound System's Energy         =  -1.04 kcal/mol
DOCKED: USER
DOCKED: USER
DOCKED: REMARK  5 active torsions:
DOCKED: REMARK  status: ('A' for Active; 'I' for Inactive)
DOCKED: REMARK    1  A    between atoms: C_2  and  C_19 
DOCKED: REMARK    2  A    between atoms: C_2  and  C_11 
DOCKED: REMARK    3  A    between atoms: C_19  and  C_20 
DOCKED: REMARK    4  A    between atoms: C_20  and  C_21 
DOCKED: REMARK    5  A    between atoms: C_21  and  N_22 
DOCKED: USER                              x       y       z     vdW  Elec       q    Type
DOCKED: USER                           _______ _______ _______ _____ _____    ______ ____
DOCKED: ROOT
DOCKED: ATOM      1  O   UNL     1     -49.474 -30.256   8.093 -0.06 -0.00    -0.346 OA 
DOCKED: ATOM      2  C   UNL     1     -50.632 -29.638   7.446 -0.15 +0.00    +0.130 C  
DOCKED: ATOM      3  C   UNL     1     -51.395 -30.803   6.886 -0.25 +0.00    +0.004 A  
DOCKED: ATOM      4  C   UNL     1     -50.787 -31.989   7.272 -0.23 +0.00    +0.006 A  
DOCKED: ATOM      5  C   UNL     1     -49.605 -31.697   8.113 -0.14 +0.00    +0.169 C  
DOCKED: ATOM      6  C   UNL     1     -52.542 -30.813   6.106 -0.22 -0.00    -0.001 A  
DOCKED: ATOM      7  C   UNL     1     -51.298 -33.218   6.892 -0.33 +0.00    +0.008 A  
DOCKED: ATOM      8  C   UNL     1     -53.067 -32.045   5.710 -0.28 +0.00    +0.010 A  
DOCKED: ATOM      9  C   UNL     1     -52.448 -33.241   6.102 -0.32 +0.00    +0.068 A  
DOCKED: ATOM     10  N   UNL     1     -53.451 -35.510   5.354 -2.61 -0.00    -0.191 NA 
DOCKED: ATOM     11  C   UNL     1     -53.001 -34.492   5.689 -0.33 +0.00    +0.101 C  
DOCKED: ENDROOT
DOCKED: BRANCH   2  12
DOCKED: ATOM     12  C   UNL     1     -51.418 -28.866   8.500 -0.07 +0.00    +0.038 C  
DOCKED: BRANCH  12  13
DOCKED: ATOM     13  C   UNL     1     -52.834 -28.554   8.020 -0.10 +0.00    +0.038 C  
DOCKED: BRANCH  13  14
DOCKED: ATOM     14  C   UNL     1     -53.875 -29.270   8.879 -0.03 +0.00    +0.251 C  
DOCKED: BRANCH  14  15
DOCKED: ATOM     15  N   UNL     1     -55.099 -29.487   8.116 -0.08 +0.00    +0.141 N  
DOCKED: ATOM     16  C   UNL     1     -55.008 -28.850   6.802 -0.15 +0.00    +0.285 C  
DOCKED: ATOM     17  C   UNL     1     -55.367 -30.919   7.969 -0.06 +0.00    +0.285 C  
DOCKED: ENDBRANCH  14  15
DOCKED: ENDBRANCH  13  14
DOCKED: ENDBRANCH  12  13
DOCKED: ENDBRANCH   2  12
DOCKED: BRANCH   2  18
DOCKED: ATOM     18  C   UNL     1     -50.106 -28.725   6.390 -0.16 +0.00    +0.006 A  
DOCKED: ATOM     19  C   UNL     1     -50.738 -27.507   6.144 -0.12 +0.00    +0.001 A  
DOCKED: ATOM     20  C   UNL     1     -50.246 -26.654   5.156 -0.08 +0.00    +0.029 A  
DOCKED: ATOM     21  C   UNL     1     -49.123 -27.020   4.416 -0.07 +0.00    +0.140 A  
DOCKED: ATOM     22  C   UNL     1     -48.491 -28.238   4.662 -0.14 +0.00    +0.029 A  
DOCKED: ATOM     23  F   UNL     1     -48.649 -26.200   3.468 -0.01 -0.00    -0.204 F  
DOCKED: ATOM     24  C   UNL     1     -48.983 -29.092   5.650 -0.08 +0.00    +0.001 A  
DOCKED: ENDBRANCH   2  18
DOCKED: TORSDOF 5
DOCKED: TER
DOCKED: ENDMDL
________________________________________________________________________________


    FINAL DOCKED STATE:
    ________________________


Run:   302 / 512
Time taken for this run:   0.001s

DOCKED: MODEL        302
DOCKED: USER    Run = 302
DOCKED: USER
DOCKED: USER    Estimated Free Energy of Binding    =  -3.35 kcal/mol  [=(1)+(2)+(3)-(4)]
DOCKED: USER
DOCKED: USER    (1) Final Intermolecular Energy     =  -4.84 kcal/mol
DOCKED: USER        vdW + Hbond + desolv Energy     =  -4.84 kcal/mol
DOCKED: USER        Electrostatic Energy            =  +0.00 kcal/mol
DOCKED: USER        Moving Ligand-Fixed Receptor    =  -4.84 kcal/mol
DOCKED: USER        Moving Ligand-Moving Receptor   =  +0.00 kcal/mol
DOCKED: USER    (2) Final Total Internal Energy     =  -0.83 kcal/mol
DOCKED: USER    (3) Torsional Free Energy           =  +1.49 kcal/mol
DOCKED: USER    (4) Unbound System's Energy         =  -0.83 kcal/mol
DOCKED: USER
DOCKED: USER
DOCKED: REMARK  5 active torsions:
DOCKED: REMARK  status: ('A' for Active; 'I' for Inactive)
DOCKED: REMARK    1  A    between atoms: C_2  and  C_19 
DOCKED: REMARK    2  A    between atoms: C_2  and  C_11 
DOCKED: REMARK    3  A    between atoms: C_19  and  C_20 
DOCKED: REMARK    4  A    between atoms: C_20  and  C_21 
DOCKED: REMARK    5  A    between atoms: C_21  and  N_22 
DOCKED: USER                              x       y       z     vdW  Elec       q    Type
DOCKED: USER                           _______ _______ _______ _____ _____    ______ ____
DOCKED: ROOT
DOCKED: ATOM      1  O   UNL     1     -46.698 -24.360   0.629 -0.06 -0.00    -0.346 OA 
DOCKED: ATOM      2  C   UNL     1     -47.971 -24.865   0.112 -0.16 +0.00    +0.130 C  
DOCKED: ATOM      3  C   UNL     1     -48.244 -23.995  -1.081 -0.19 +0.00    +0.004 A  
DOCKED: ATOM      4  C   UNL     1     -47.170 -23.143  -1.294 -0.13 +0.00    +0.006 A  
DOCKED: ATOM      5  C   UNL     1     -46.122 -23.393  -0.280 -0.12 +0.00    +0.169 C  
DOCKED: ATOM      6  C   UNL     1     -49.350 -23.969  -1.918 -0.32 -0.00    -0.001 A  
DOCKED: ATOM      7  C   UNL     1     -47.165 -22.237  -2.341 -0.19 +0.00    +0.008 A  
DOCKED: ATOM      8  C   UNL     1     -49.363 -23.058  -2.976 -0.37 +0.00    +0.010 A  
DOCKED: ATOM      9  C   UNL     1     -48.275 -22.197  -3.186 -0.26 +0.00    +0.068 A  
DOCKED: ATOM     10  N   UNL     1     -48.328 -20.522  -5.162 -0.82 -0.00    -0.191 NA 
DOCKED: ATOM     11  C   UNL     1     -48.305 -21.273  -4.275 -0.29 +0.00    +0.101 C  
DOCKED: ENDROOT
DOCKED: BRANCH   2  12
DOCKED: ATOM     12  C   UNL     1     -47.795 -26.334  -0.252 -0.15 +0.00    +0.038 C  
DOCKED: BRANCH  12  13
DOCKED: ATOM     13  C   UNL     1     -46.362 -26.633  -0.687 -0.06 +0.00    +0.038 C  
DOCKED: BRANCH  13  14
DOCKED: ATOM     14  C   UNL     1     -45.906 -27.998  -0.177 -0.04 +0.00    +0.251 C  
DOCKED: BRANCH  14  15
DOCKED: ATOM     15  N   UNL     1     -46.645 -29.062  -0.844 -0.16 +0.00    +0.141 N  
DOCKED: ATOM     16  C   UNL     1     -47.785 -29.489  -0.030 -0.11 +0.00    +0.285 C  
DOCKED: ATOM     17  C   UNL     1     -47.101 -28.624  -2.165 -0.17 +0.00    +0.285 C  
DOCKED: ENDBRANCH  14  15
DOCKED: ENDBRANCH  13  14
DOCKED: ENDBRANCH  12  13
DOCKED: ENDBRANCH   2  12
DOCKED: BRANCH   2  18
DOCKED: ATOM     18  C   UNL     1     -48.980 -24.696   1.198 -0.21 +0.00    +0.006 A  
DOCKED: ATOM     19  C   UNL     1     -48.564 -24.418   2.499 -0.17 +0.00    +0.001 A  
DOCKED: ATOM     20  C   UNL     1     -49.509 -24.261   3.514 -0.16 +0.00    +0.029 A  
DOCKED: ATOM     21  C   UNL     1     -50.867 -24.381   3.226 -0.14 +0.00    +0.140 A  
DOCKED: ATOM     22  C   UNL     1     -51.283 -24.659   1.925 -0.28 +0.00    +0.029 A  
DOCKED: ATOM     23  F   UNL     1     -51.774 -24.229   4.200 -0.01 -0.00    -0.204 F  
DOCKED: ATOM     24  C   UNL     1     -50.339 -24.817   0.909 -0.30 +0.00    +0.001 A  
DOCKED: ENDBRANCH   2  18
DOCKED: TORSDOF 5
DOCKED: TER
DOCKED: ENDMDL
________________________________________________________________________________


    FINAL DOCKED STATE:
    ________________________


Run:   303 / 512
Time taken for this run:   0.001s

DOCKED: MODEL        303
DOCKED: USER    Run = 303
DOCKED: USER
DOCKED: USER    Estimated Free Energy of Binding    =  -4.90 kcal/mol  [=(1)+(2)+(3)-(4)]
DOCKED: USER
DOCKED: USER    (1) Final Intermolecular Energy     =  -6.39 kcal/mol
DOCKED: USER        vdW + Hbond + desolv Energy     =  -6.39 kcal/mol
DOCKED: USER        Electrostatic Energy            =  +0.00 kcal/mol
DOCKED: USER        Moving Ligand-Fixed Receptor    =  -6.39 kcal/mol
DOCKED: USER        Moving Ligand-Moving Receptor   =  +0.00 kcal/mol
DOCKED: USER    (2) Final Total Internal Energy     =  -1.11 kcal/mol
DOCKED: USER    (3) Torsional Free Energy           =  +1.49 kcal/mol
DOCKED: USER    (4) Unbound System's Energy         =  -1.11 kcal/mol
DOCKED: USER
DOCKED: USER
DOCKED: REMARK  5 active torsions:
DOCKED: REMARK  status: ('A' for Active; 'I' for Inactive)
DOCKED: REMARK    1  A    between atoms: C_2  and  C_19 
DOCKED: REMARK    2  A    between atoms: C_2  and  C_11 
DOCKED: REMARK    3  A    between atoms: C_19  and  C_20 
DOCKED: REMARK    4  A    between atoms: C_20  and  C_21 
DOCKED: REMARK    5  A    between atoms: C_21  and  N_22 
DOCKED: USER                              x       y       z     vdW  Elec       q    Type
DOCKED: USER                           _______ _______ _______ _____ _____    ______ ____
DOCKED: ROOT
DOCKED: ATOM      1  O   UNL     1     -52.504 -31.050   8.204 -0.02 -0.00    -0.346 OA 
DOCKED: ATOM      2  C   UNL     1     -51.567 -32.171   8.119 -0.17 +0.00    +0.130 C  
DOCKED: ATOM      3  C   UNL     1     -51.924 -32.841   6.824 -0.31 +0.00    +0.004 A  
DOCKED: ATOM      4  C   UNL     1     -52.903 -32.106   6.172 -0.31 +0.00    +0.006 A  
DOCKED: ATOM      5  C   UNL     1     -53.248 -30.908   6.971 -0.19 +0.00    +0.169 C  
DOCKED: ATOM      6  C   UNL     1     -51.415 -34.003   6.263 -0.37 -0.00    -0.001 A  
DOCKED: ATOM      7  C   UNL     1     -53.408 -32.505   4.946 -0.11 +0.00    +0.008 A  
DOCKED: ATOM      8  C   UNL     1     -51.917 -34.422   5.030 -0.28 +0.00    +0.010 A  
DOCKED: ATOM      9  C   UNL     1     -52.908 -33.676   4.374 -0.42 +0.00    +0.068 A  
DOCKED: ATOM     10  N   UNL     1     -53.814 -34.477   2.083 -2.14 -0.00    -0.191 NA 
DOCKED: ATOM     11  C   UNL     1     -53.408 -34.118   3.111 -0.51 +0.00    +0.101 C  
DOCKED: ENDROOT
DOCKED: BRANCH   2  12
DOCKED: ATOM     12  C   UNL     1     -50.148 -31.615   8.128 -0.20 +0.00    +0.038 C  
DOCKED: BRANCH  12  13
DOCKED: ATOM     13  C   UNL     1     -50.136 -30.121   8.446 -0.11 +0.00    +0.038 C  
DOCKED: BRANCH  13  14
DOCKED: ATOM     14  C   UNL     1     -48.959 -29.424   7.768 -0.08 +0.00    +0.251 C  
DOCKED: BRANCH  14  15
DOCKED: ATOM     15  N   UNL     1     -49.413 -28.229   7.066 -0.07 +0.00    +0.141 N  
DOCKED: ATOM     16  C   UNL     1     -48.299 -27.305   6.847 -0.03 +0.00    +0.285 C  
DOCKED: ATOM     17  C   UNL     1     -50.034 -28.586   5.789 -0.07 +0.00    +0.285 C  
DOCKED: ENDBRANCH  14  15
DOCKED: ENDBRANCH  13  14
DOCKED: ENDBRANCH  12  13
DOCKED: ENDBRANCH   2  12
DOCKED: BRANCH   2  18
DOCKED: ATOM     18  C   UNL     1     -51.814 -33.036   9.310 -0.15 +0.00    +0.006 A  
DOCKED: ATOM     19  C   UNL     1     -50.784 -33.283  10.217 -0.15 +0.00    +0.001 A  
DOCKED: ATOM     20  C   UNL     1     -51.017 -34.093  11.330 -0.18 +0.00    +0.029 A  
DOCKED: ATOM     21  C   UNL     1     -52.277 -34.653  11.534 -0.15 +0.00    +0.140 A  
DOCKED: ATOM     22  C   UNL     1     -53.306 -34.405  10.626 -0.15 +0.00    +0.029 A  
DOCKED: ATOM     23  F   UNL     1     -52.500 -35.429  12.602 -0.05 -0.00    -0.204 F  
DOCKED: ATOM     24  C   UNL     1     -53.075 -33.596   9.512 -0.16 +0.00    +0.001 A  
DOCKED: ENDBRANCH   2  18
DOCKED: TORSDOF 5
DOCKED: TER
DOCKED: ENDMDL
________________________________________________________________________________


    FINAL DOCKED STATE:
    ________________________


Run:   304 / 512
Time taken for this run:   0.001s

DOCKED: MODEL        304
DOCKED: USER    Run = 304
DOCKED: USER
DOCKED: USER    Estimated Free Energy of Binding    =  -4.05 kcal/mol  [=(1)+(2)+(3)-(4)]
DOCKED: USER
DOCKED: USER    (1) Final Intermolecular Energy     =  -5.54 kcal/mol
DOCKED: USER        vdW + Hbond + desolv Energy     =  -5.54 kcal/mol
DOCKED: USER        Electrostatic Energy            =  +0.00 kcal/mol
DOCKED: USER        Moving Ligand-Fixed Receptor    =  -5.54 kcal/mol
DOCKED: USER        Moving Ligand-Moving Receptor   =  +0.00 kcal/mol
DOCKED: USER    (2) Final Total Internal Energy     =  -1.38 kcal/mol
DOCKED: USER    (3) Torsional Free Energy           =  +1.49 kcal/mol
DOCKED: USER    (4) Unbound System's Energy         =  -1.38 kcal/mol
DOCKED: USER
DOCKED: USER
DOCKED: REMARK  5 active torsions:
DOCKED: REMARK  status: ('A' for Active; 'I' for Inactive)
DOCKED: REMARK    1  A    between atoms: C_2  and  C_19 
DOCKED: REMARK    2  A    between atoms: C_2  and  C_11 
DOCKED: REMARK    3  A    between atoms: C_19  and  C_20 
DOCKED: REMARK    4  A    between atoms: C_20  and  C_21 
DOCKED: REMARK    5  A    between atoms: C_21  and  N_22 
DOCKED: USER                              x       y       z     vdW  Elec       q    Type
DOCKED: USER                           _______ _______ _______ _____ _____    ______ ____
DOCKED: ROOT
DOCKED: ATOM      1  O   UNL     1     -49.149 -31.480   8.651 -0.08 -0.00    -0.346 OA 
DOCKED: ATOM      2  C   UNL     1     -50.403 -30.731   8.548 -0.11 +0.00    +0.130 C  
DOCKED: ATOM      3  C   UNL     1     -51.296 -31.635   7.749 -0.20 +0.00    +0.004 A  
DOCKED: ATOM      4  C   UNL     1     -50.650 -32.840   7.511 -0.26 +0.00    +0.006 A  
DOCKED: ATOM      5  C   UNL     1     -49.309 -32.822   8.137 -0.09 +0.00    +0.169 C  
DOCKED: ATOM      6  C   UNL     1     -52.583 -31.414   7.280 -0.21 -0.00    -0.001 A  
DOCKED: ATOM      7  C   UNL     1     -51.260 -33.857   6.798 -0.38 +0.00    +0.008 A  
DOCKED: ATOM      8  C   UNL     1     -53.210 -32.428   6.555 -0.27 +0.00    +0.010 A  
DOCKED: ATOM      9  C   UNL     1     -52.552 -33.644   6.315 -0.31 +0.00    +0.068 A  
DOCKED: ATOM     10  N   UNL     1     -53.748 -35.508   4.970 -2.36 -0.00    -0.191 NA 
DOCKED: ATOM     11  C   UNL     1     -53.211 -34.671   5.573 -0.31 +0.00    +0.101 C  
DOCKED: ENDROOT
DOCKED: BRANCH   2  12
DOCKED: ATOM     12  C   UNL     1     -50.927 -30.471   9.955 -0.04 +0.00    +0.038 C  
DOCKED: BRANCH  12  13
DOCKED: ATOM     13  C   UNL     1     -51.865 -31.585  10.415 -0.05 +0.00    +0.038 C  
DOCKED: BRANCH  13  14
DOCKED: ATOM     14  C   UNL     1     -51.479 -32.090  11.804 -0.02 +0.00    +0.251 C  
DOCKED: BRANCH  14  15
DOCKED: ATOM     15  N   UNL     1     -51.100 -33.497  11.745 -0.09 +0.00    +0.141 N  
DOCKED: ATOM     16  C   UNL     1     -51.688 -34.141  10.570 -0.13 +0.00    +0.285 C  
DOCKED: ATOM     17  C   UNL     1     -49.643 -33.638  11.726 -0.09 +0.00    +0.285 C  
DOCKED: ENDBRANCH  14  15
DOCKED: ENDBRANCH  13  14
DOCKED: ENDBRANCH  12  13
DOCKED: ENDBRANCH   2  12
DOCKED: BRANCH   2  18
DOCKED: ATOM     18  C   UNL     1     -50.091 -29.453   7.844 -0.12 +0.00    +0.006 A  
DOCKED: ATOM     19  C   UNL     1     -49.045 -29.401   6.924 -0.13 +0.00    +0.001 A  
DOCKED: ATOM     20  C   UNL     1     -48.754 -28.205   6.267 -0.11 +0.00    +0.029 A  
DOCKED: ATOM     21  C   UNL     1     -49.509 -27.063   6.531 -0.05 +0.00    +0.140 A  
DOCKED: ATOM     22  C   UNL     1     -50.555 -27.115   7.452 -0.05 +0.00    +0.029 A  
DOCKED: ATOM     23  F   UNL     1     -49.231 -25.915   5.899 -0.00 -0.00    -0.204 F  
DOCKED: ATOM     24  C   UNL     1     -50.847 -28.311   8.110 -0.06 +0.00    +0.001 A  
DOCKED: ENDBRANCH   2  18
DOCKED: TORSDOF 5
DOCKED: TER
DOCKED: ENDMDL
________________________________________________________________________________


    FINAL DOCKED STATE:
    ________________________


Run:   305 / 512
Time taken for this run:   0.001s

DOCKED: MODEL        305
DOCKED: USER    Run = 305
DOCKED: USER
DOCKED: USER    Estimated Free Energy of Binding    =  -4.29 kcal/mol  [=(1)+(2)+(3)-(4)]
DOCKED: USER
DOCKED: USER    (1) Final Intermolecular Energy     =  -5.78 kcal/mol
DOCKED: USER        vdW + Hbond + desolv Energy     =  -5.78 kcal/mol
DOCKED: USER        Electrostatic Energy            =  +0.00 kcal/mol
DOCKED: USER        Moving Ligand-Fixed Receptor    =  -5.78 kcal/mol
DOCKED: USER        Moving Ligand-Moving Receptor   =  +0.00 kcal/mol
DOCKED: USER    (2) Final Total Internal Energy     =  -1.47 kcal/mol
DOCKED: USER    (3) Torsional Free Energy           =  +1.49 kcal/mol
DOCKED: USER    (4) Unbound System's Energy         =  -1.47 kcal/mol
DOCKED: USER
DOCKED: USER
DOCKED: REMARK  5 active torsions:
DOCKED: REMARK  status: ('A' for Active; 'I' for Inactive)
DOCKED: REMARK    1  A    between atoms: C_2  and  C_19 
DOCKED: REMARK    2  A    between atoms: C_2  and  C_11 
DOCKED: REMARK    3  A    between atoms: C_19  and  C_20 
DOCKED: REMARK    4  A    between atoms: C_20  and  C_21 
DOCKED: REMARK    5  A    between atoms: C_21  and  N_22 
DOCKED: USER                              x       y       z     vdW  Elec       q    Type
DOCKED: USER                           _______ _______ _______ _____ _____    ______ ____
DOCKED: ROOT
DOCKED: ATOM      1  O   UNL     1     -49.507 -30.685   8.513 -0.06 -0.00    -0.346 OA 
DOCKED: ATOM      2  C   UNL     1     -50.677 -29.992   7.972 -0.12 +0.00    +0.130 C  
DOCKED: ATOM      3  C   UNL     1     -51.424 -31.067   7.238 -0.23 +0.00    +0.004 A  
DOCKED: ATOM      4  C   UNL     1     -50.797 -32.289   7.435 -0.25 +0.00    +0.006 A  
DOCKED: ATOM      5  C   UNL     1     -49.616 -32.113   8.310 -0.17 +0.00    +0.169 C  
DOCKED: ATOM      6  C   UNL     1     -52.574 -30.973   6.467 -0.28 -0.00    -0.001 A  
DOCKED: ATOM      7  C   UNL     1     -51.291 -33.452   6.869 -0.34 +0.00    +0.008 A  
DOCKED: ATOM      8  C   UNL     1     -53.082 -32.136   5.886 -0.31 +0.00    +0.010 A  
DOCKED: ATOM      9  C   UNL     1     -52.444 -33.369   6.086 -0.32 +0.00    +0.068 A  
DOCKED: ATOM     10  N   UNL     1     -53.416 -35.510   4.997 -2.40 -0.00    -0.191 NA 
DOCKED: ATOM     11  C   UNL     1     -52.979 -34.550   5.485 -0.38 +0.00    +0.101 C  
DOCKED: ENDROOT
DOCKED: BRANCH   2  12
DOCKED: ATOM     12  C   UNL     1     -51.470 -29.404   9.133 -0.05 +0.00    +0.038 C  
DOCKED: BRANCH  12  13
DOCKED: ATOM     13  C   UNL     1     -52.539 -30.378   9.626 -0.05 +0.00    +0.038 C  
DOCKED: BRANCH  13  14
DOCKED: ATOM     14  C   UNL     1     -51.986 -31.294  10.716 -0.01 +0.00    +0.251 C  
DOCKED: BRANCH  14  15
DOCKED: ATOM     15  N   UNL     1     -52.673 -32.581  10.693 -0.04 +0.00    +0.141 N  
DOCKED: ATOM     16  C   UNL     1     -53.669 -32.615   9.621 -0.03 +0.00    +0.285 C  
DOCKED: ATOM     17  C   UNL     1     -51.713 -33.674  10.529 -0.10 +0.00    +0.285 C  
DOCKED: ENDBRANCH  14  15
DOCKED: ENDBRANCH  13  14
DOCKED: ENDBRANCH  12  13
DOCKED: ENDBRANCH   2  12
DOCKED: BRANCH   2  18
DOCKED: ATOM     18  C   UNL     1     -50.168 -28.918   7.069 -0.14 +0.00    +0.006 A  
DOCKED: ATOM     19  C   UNL     1     -50.807 -27.679   7.032 -0.10 +0.00    +0.001 A  
DOCKED: ATOM     20  C   UNL     1     -50.330 -26.676   6.187 -0.08 +0.00    +0.029 A  
DOCKED: ATOM     21  C   UNL     1     -49.217 -26.912   5.383 -0.07 +0.00    +0.140 A  
DOCKED: ATOM     22  C   UNL     1     -48.578 -28.151   5.421 -0.12 +0.00    +0.029 A  
DOCKED: ATOM     23  F   UNL     1     -48.758 -25.948   4.573 -0.01 -0.00    -0.204 F  
DOCKED: ATOM     24  C   UNL     1     -49.054 -29.156   6.265 -0.14 +0.00    +0.001 A  
DOCKED: ENDBRANCH   2  18
DOCKED: TORSDOF 5
DOCKED: TER
DOCKED: ENDMDL
________________________________________________________________________________


    FINAL DOCKED STATE:
    ________________________


Run:   306 / 512
Time taken for this run:   0.001s

DOCKED: MODEL        306
DOCKED: USER    Run = 306
DOCKED: USER
DOCKED: USER    Estimated Free Energy of Binding    =  -5.54 kcal/mol  [=(1)+(2)+(3)-(4)]
DOCKED: USER
DOCKED: USER    (1) Final Intermolecular Energy     =  -7.03 kcal/mol
DOCKED: USER        vdW + Hbond + desolv Energy     =  -7.03 kcal/mol
DOCKED: USER        Electrostatic Energy            =  +0.00 kcal/mol
DOCKED: USER        Moving Ligand-Fixed Receptor    =  -7.03 kcal/mol
DOCKED: USER        Moving Ligand-Moving Receptor   =  +0.00 kcal/mol
DOCKED: USER    (2) Final Total Internal Energy     =  -1.51 kcal/mol
DOCKED: USER    (3) Torsional Free Energy           =  +1.49 kcal/mol
DOCKED: USER    (4) Unbound System's Energy         =  -1.51 kcal/mol
DOCKED: USER
DOCKED: USER
DOCKED: REMARK  5 active torsions:
DOCKED: REMARK  status: ('A' for Active; 'I' for Inactive)
DOCKED: REMARK    1  A    between atoms: C_2  and  C_19 
DOCKED: REMARK    2  A    between atoms: C_2  and  C_11 
DOCKED: REMARK    3  A    between atoms: C_19  and  C_20 
DOCKED: REMARK    4  A    between atoms: C_20  and  C_21 
DOCKED: REMARK    5  A    between atoms: C_21  and  N_22 
DOCKED: USER                              x       y       z     vdW  Elec       q    Type
DOCKED: USER                           _______ _______ _______ _____ _____    ______ ____
DOCKED: ROOT
DOCKED: ATOM      1  O   UNL     1     -51.348 -31.228   7.715 -0.07 -0.00    -0.346 OA 
DOCKED: ATOM      2  C   UNL     1     -51.440 -32.683   7.844 -0.22 +0.00    +0.130 C  
DOCKED: ATOM      3  C   UNL     1     -52.022 -33.124   6.532 -0.34 +0.00    +0.004 A  
DOCKED: ATOM      4  C   UNL     1     -52.149 -32.032   5.686 -0.31 +0.00    +0.006 A  
DOCKED: ATOM      5  C   UNL     1     -51.656 -30.812   6.364 -0.22 +0.00    +0.169 C  
DOCKED: ATOM      6  C   UNL     1     -52.398 -34.393   6.117 -0.34 -0.00    -0.001 A  
DOCKED: ATOM      7  C   UNL     1     -52.658 -32.167   4.406 +0.11 +0.00    +0.008 A  
DOCKED: ATOM      8  C   UNL     1     -52.917 -34.545   4.830 -0.50 +0.00    +0.010 A  
DOCKED: ATOM      9  C   UNL     1     -53.046 -33.438   3.979 -0.43 +0.00    +0.068 A  
DOCKED: ATOM     10  N   UNL     1     -54.007 -33.756   1.594 -3.10 -0.00    -0.191 NA 
DOCKED: ATOM     11  C   UNL     1     -53.577 -33.613   2.664 -0.35 +0.00    +0.101 C  
DOCKED: ENDROOT
DOCKED: BRANCH   2  12
DOCKED: ATOM     12  C   UNL     1     -50.040 -33.234   8.087 -0.22 +0.00    +0.038 C  
DOCKED: BRANCH  12  13
DOCKED: ATOM     13  C   UNL     1     -49.144 -32.200   8.766 -0.20 +0.00    +0.038 C  
DOCKED: BRANCH  13  14
DOCKED: ATOM     14  C   UNL     1     -49.086 -32.429  10.275 -0.07 +0.00    +0.251 C  
DOCKED: BRANCH  14  15
DOCKED: ATOM     15  N   UNL     1     -49.944 -31.473  10.966 -0.03 +0.00    +0.141 N  
DOCKED: ATOM     16  C   UNL     1     -49.527 -31.320  12.361 -0.01 +0.00    +0.285 C  
DOCKED: ATOM     17  C   UNL     1     -49.924 -30.177  10.286 -0.01 +0.00    +0.285 C  
DOCKED: ENDBRANCH  14  15
DOCKED: ENDBRANCH  13  14
DOCKED: ENDBRANCH  12  13
DOCKED: ENDBRANCH   2  12
DOCKED: BRANCH   2  18
DOCKED: ATOM     18  C   UNL     1     -52.338 -32.962   9.002 -0.14 +0.00    +0.006 A  
DOCKED: ATOM     19  C   UNL     1     -52.169 -34.128   9.749 -0.22 +0.00    +0.001 A  
DOCKED: ATOM     20  C   UNL     1     -53.010 -34.388  10.832 -0.16 +0.00    +0.029 A  
DOCKED: ATOM     21  C   UNL     1     -54.016 -33.483  11.167 -0.06 +0.00    +0.140 A  
DOCKED: ATOM     22  C   UNL     1     -54.184 -32.318  10.420 -0.05 +0.00    +0.029 A  
DOCKED: ATOM     23  F   UNL     1     -54.822 -33.733  12.208 +0.00 -0.00    -0.204 F  
DOCKED: ATOM     24  C   UNL     1     -53.344 -32.056   9.336 -0.07 +0.00    +0.001 A  
DOCKED: ENDBRANCH   2  18
DOCKED: TORSDOF 5
DOCKED: TER
DOCKED: ENDMDL
________________________________________________________________________________


    FINAL DOCKED STATE:
    ________________________


Run:   307 / 512
Time taken for this run:   0.001s

DOCKED: MODEL        307
DOCKED: USER    Run = 307
DOCKED: USER
DOCKED: USER    Estimated Free Energy of Binding    =  -4.32 kcal/mol  [=(1)+(2)+(3)-(4)]
DOCKED: USER
DOCKED: USER    (1) Final Intermolecular Energy     =  -5.82 kcal/mol
DOCKED: USER        vdW + Hbond + desolv Energy     =  -5.82 kcal/mol
DOCKED: USER        Electrostatic Energy            =  +0.00 kcal/mol
DOCKED: USER        Moving Ligand-Fixed Receptor    =  -5.82 kcal/mol
DOCKED: USER        Moving Ligand-Moving Receptor   =  +0.00 kcal/mol
DOCKED: USER    (2) Final Total Internal Energy     =  -1.44 kcal/mol
DOCKED: USER    (3) Torsional Free Energy           =  +1.49 kcal/mol
DOCKED: USER    (4) Unbound System's Energy         =  -1.44 kcal/mol
DOCKED: USER
DOCKED: USER
DOCKED: REMARK  5 active torsions:
DOCKED: REMARK  status: ('A' for Active; 'I' for Inactive)
DOCKED: REMARK    1  A    between atoms: C_2  and  C_19 
DOCKED: REMARK    2  A    between atoms: C_2  and  C_11 
DOCKED: REMARK    3  A    between atoms: C_19  and  C_20 
DOCKED: REMARK    4  A    between atoms: C_20  and  C_21 
DOCKED: REMARK    5  A    between atoms: C_21  and  N_22 
DOCKED: USER                              x       y       z     vdW  Elec       q    Type
DOCKED: USER                           _______ _______ _______ _____ _____    ______ ____
DOCKED: ROOT
DOCKED: ATOM      1  O   UNL     1     -51.279 -28.929   7.040 -0.06 -0.00    -0.346 OA 
DOCKED: ATOM      2  C   UNL     1     -52.594 -29.132   7.648 -0.13 +0.00    +0.130 C  
DOCKED: ATOM      3  C   UNL     1     -52.979 -30.519   7.221 -0.21 +0.00    +0.004 A  
DOCKED: ATOM      4  C   UNL     1     -51.929 -31.100   6.523 -0.28 +0.00    +0.006 A  
DOCKED: ATOM      5  C   UNL     1     -50.790 -30.157   6.452 -0.17 +0.00    +0.169 C  
DOCKED: ATOM      6  C   UNL     1     -54.158 -31.215   7.442 -0.18 -0.00    -0.001 A  
DOCKED: ATOM      7  C   UNL     1     -52.023 -32.386   6.020 -0.34 +0.00    +0.008 A  
DOCKED: ATOM      8  C   UNL     1     -54.270 -32.512   6.938 -0.21 +0.00    +0.010 A  
DOCKED: ATOM      9  C   UNL     1     -53.207 -33.094   6.231 -0.26 +0.00    +0.068 A  
DOCKED: ATOM     10  N   UNL     1     -53.445 -35.506   5.314 -2.59 -0.00    -0.191 NA 
DOCKED: ATOM     11  C   UNL     1     -53.339 -34.424   5.725 -0.36 +0.00    +0.101 C  
DOCKED: ENDROOT
DOCKED: BRANCH   2  12
DOCKED: ATOM     12  C   UNL     1     -52.453 -28.994   9.160 -0.04 +0.00    +0.038 C  
DOCKED: BRANCH  12  13
DOCKED: ATOM     13  C   UNL     1     -51.002 -29.170   9.602 -0.03 +0.00    +0.038 C  
DOCKED: BRANCH  13  14
DOCKED: ATOM     14  C   UNL     1     -50.266 -27.832   9.618 -0.01 +0.00    +0.251 C  
DOCKED: BRANCH  14  15
DOCKED: ATOM     15  N   UNL     1     -51.197 -26.739   9.363 -0.01 +0.00    +0.141 N  
DOCKED: ATOM     16  C   UNL     1     -51.480 -26.004  10.596 +0.00 +0.00    +0.285 C  
DOCKED: ATOM     17  C   UNL     1     -50.662 -25.833   8.344 -0.00 +0.00    +0.285 C  
DOCKED: ENDBRANCH  14  15
DOCKED: ENDBRANCH  13  14
DOCKED: ENDBRANCH  12  13
DOCKED: ENDBRANCH   2  12
DOCKED: BRANCH   2  18
DOCKED: ATOM     18  C   UNL     1     -53.498 -28.081   7.095 -0.18 +0.00    +0.006 A  
DOCKED: ATOM     19  C   UNL     1     -53.040 -27.225   6.093 -0.18 +0.00    +0.001 A  
DOCKED: ATOM     20  C   UNL     1     -53.886 -26.243   5.577 -0.13 +0.00    +0.029 A  
DOCKED: ATOM     21  C   UNL     1     -55.187 -26.118   6.061 -0.12 +0.00    +0.140 A  
DOCKED: ATOM     22  C   UNL     1     -55.644 -26.975   7.062 -0.15 +0.00    +0.029 A  
DOCKED: ATOM     23  F   UNL     1     -55.999 -25.177   5.563 -0.02 -0.00    -0.204 F  
DOCKED: ATOM     24  C   UNL     1     -54.799 -27.957   7.580 -0.15 +0.00    +0.001 A  
DOCKED: ENDBRANCH   2  18
DOCKED: TORSDOF 5
DOCKED: TER
DOCKED: ENDMDL
________________________________________________________________________________


    FINAL DOCKED STATE:
    ________________________


Run:   308 / 512
Time taken for this run:   0.001s

DOCKED: MODEL        308
DOCKED: USER    Run = 308
DOCKED: USER
DOCKED: USER    Estimated Free Energy of Binding    =  -3.60 kcal/mol  [=(1)+(2)+(3)-(4)]
DOCKED: USER
DOCKED: USER    (1) Final Intermolecular Energy     =  -5.09 kcal/mol
DOCKED: USER        vdW + Hbond + desolv Energy     =  -5.09 kcal/mol
DOCKED: USER        Electrostatic Energy            =  +0.00 kcal/mol
DOCKED: USER        Moving Ligand-Fixed Receptor    =  -5.09 kcal/mol
DOCKED: USER        Moving Ligand-Moving Receptor   =  +0.00 kcal/mol
DOCKED: USER    (2) Final Total Internal Energy     =  -1.32 kcal/mol
DOCKED: USER    (3) Torsional Free Energy           =  +1.49 kcal/mol
DOCKED: USER    (4) Unbound System's Energy         =  -1.32 kcal/mol
DOCKED: USER
DOCKED: USER
DOCKED: REMARK  5 active torsions:
DOCKED: REMARK  status: ('A' for Active; 'I' for Inactive)
DOCKED: REMARK    1  A    between atoms: C_2  and  C_19 
DOCKED: REMARK    2  A    between atoms: C_2  and  C_11 
DOCKED: REMARK    3  A    between atoms: C_19  and  C_20 
DOCKED: REMARK    4  A    between atoms: C_20  and  C_21 
DOCKED: REMARK    5  A    between atoms: C_21  and  N_22 
DOCKED: USER                              x       y       z     vdW  Elec       q    Type
DOCKED: USER                           _______ _______ _______ _____ _____    ______ ____
DOCKED: ROOT
DOCKED: ATOM      1  O   UNL     1     -45.503 -23.603  -0.666 -0.03 -0.00    -0.346 OA 
DOCKED: ATOM      2  C   UNL     1     -45.014 -22.946  -1.879 -0.04 +0.00    +0.130 C  
DOCKED: ATOM      3  C   UNL     1     -46.255 -22.724  -2.693 -0.10 +0.00    +0.004 A  
DOCKED: ATOM      4  C   UNL     1     -47.368 -23.117  -1.964 -0.17 +0.00    +0.006 A  
DOCKED: ATOM      5  C   UNL     1     -46.949 -23.608  -0.632 -0.12 +0.00    +0.169 C  
DOCKED: ATOM      6  C   UNL     1     -46.389 -22.204  -3.972 -0.12 -0.00    -0.001 A  
DOCKED: ATOM      7  C   UNL     1     -48.646 -23.010  -2.486 -0.28 +0.00    +0.008 A  
DOCKED: ATOM      8  C   UNL     1     -47.671 -22.093  -4.514 -0.26 +0.00    +0.010 A  
DOCKED: ATOM      9  C   UNL     1     -48.794 -22.494  -3.774 -0.32 +0.00    +0.068 A  
DOCKED: ATOM     10  N   UNL     1     -51.159 -22.271  -4.808 -2.46 -0.00    -0.191 NA 
DOCKED: ATOM     11  C   UNL     1     -50.098 -22.371  -4.345 -0.43 +0.00    +0.101 C  
DOCKED: ENDROOT
DOCKED: BRANCH   2  12
DOCKED: ATOM     12  C   UNL     1     -44.325 -21.647  -1.479 -0.06 +0.00    +0.038 C  
DOCKED: BRANCH  12  13
DOCKED: ATOM     13  C   UNL     1     -45.283 -20.713  -0.742 -0.15 +0.00    +0.038 C  
DOCKED: BRANCH  13  14
DOCKED: ATOM     14  C   UNL     1     -45.739 -19.569  -1.645 -0.12 +0.00    +0.251 C  
DOCKED: BRANCH  14  15
DOCKED: ATOM     15  N   UNL     1     -46.972 -18.981  -1.136 -0.25 +0.00    +0.141 N  
DOCKED: ATOM     16  C   UNL     1     -46.980 -17.533  -1.350 -0.15 +0.00    +0.285 C  
DOCKED: ATOM     17  C   UNL     1     -48.138 -19.595  -1.774 +0.00 +0.00    +0.285 C  
DOCKED: ENDBRANCH  14  15
DOCKED: ENDBRANCH  13  14
DOCKED: ENDBRANCH  12  13
DOCKED: ENDBRANCH   2  12
DOCKED: BRANCH   2  18
DOCKED: ATOM     18  C   UNL     1     -44.053 -23.887  -2.527 -0.01 +0.00    +0.006 A  
DOCKED: ATOM     19  C   UNL     1     -44.063 -25.238  -2.184 -0.01 +0.00    +0.001 A  
DOCKED: ATOM     20  C   UNL     1     -43.164 -26.116  -2.791 -0.00 +0.00    +0.029 A  
DOCKED: ATOM     21  C   UNL     1     -42.259 -25.643  -3.740 +0.00 +0.00    +0.140 A  
DOCKED: ATOM     22  C   UNL     1     -42.251 -24.291  -4.083 -0.00 +0.00    +0.029 A  
DOCKED: ATOM     23  F   UNL     1     -41.398 -26.486  -4.324 +0.00 -0.00    -0.204 F  
DOCKED: ATOM     24  C   UNL     1     -43.149 -23.411  -3.476 -0.01 +0.00    +0.001 A  
DOCKED: ENDBRANCH   2  18
DOCKED: TORSDOF 5
DOCKED: TER
DOCKED: ENDMDL
________________________________________________________________________________


    FINAL DOCKED STATE:
    ________________________


Run:   309 / 512
Time taken for this run:   0.001s

DOCKED: MODEL        309
DOCKED: USER    Run = 309
DOCKED: USER
DOCKED: USER    Estimated Free Energy of Binding    =  -3.72 kcal/mol  [=(1)+(2)+(3)-(4)]
DOCKED: USER
DOCKED: USER    (1) Final Intermolecular Energy     =  -5.21 kcal/mol
DOCKED: USER        vdW + Hbond + desolv Energy     =  -5.21 kcal/mol
DOCKED: USER        Electrostatic Energy            =  +0.00 kcal/mol
DOCKED: USER        Moving Ligand-Fixed Receptor    =  -5.21 kcal/mol
DOCKED: USER        Moving Ligand-Moving Receptor   =  +0.00 kcal/mol
DOCKED: USER    (2) Final Total Internal Energy     =  -1.12 kcal/mol
DOCKED: USER    (3) Torsional Free Energy           =  +1.49 kcal/mol
DOCKED: USER    (4) Unbound System's Energy         =  -1.12 kcal/mol
DOCKED: USER
DOCKED: USER
DOCKED: REMARK  5 active torsions:
DOCKED: REMARK  status: ('A' for Active; 'I' for Inactive)
DOCKED: REMARK    1  A    between atoms: C_2  and  C_19 
DOCKED: REMARK    2  A    between atoms: C_2  and  C_11 
DOCKED: REMARK    3  A    between atoms: C_19  and  C_20 
DOCKED: REMARK    4  A    between atoms: C_20  and  C_21 
DOCKED: REMARK    5  A    between atoms: C_21  and  N_22 
DOCKED: USER                              x       y       z     vdW  Elec       q    Type
DOCKED: USER                           _______ _______ _______ _____ _____    ______ ____
DOCKED: ROOT
DOCKED: ATOM      1  O   UNL     1     -49.183 -31.608   8.802 -0.08 -0.00    -0.346 OA 
DOCKED: ATOM      2  C   UNL     1     -50.484 -30.941   8.872 -0.09 +0.00    +0.130 C  
DOCKED: ATOM      3  C   UNL     1     -51.378 -31.806   8.031 -0.18 +0.00    +0.004 A  
DOCKED: ATOM      4  C   UNL     1     -50.679 -32.927   7.607 -0.28 +0.00    +0.006 A  
DOCKED: ATOM      5  C   UNL     1     -49.299 -32.890   8.141 -0.07 +0.00    +0.169 C  
DOCKED: ATOM      6  C   UNL     1     -52.706 -31.620   7.678 -0.17 -0.00    -0.001 A  
DOCKED: ATOM      7  C   UNL     1     -51.278 -33.894   6.818 -0.38 +0.00    +0.008 A  
DOCKED: ATOM      8  C   UNL     1     -53.323 -32.584   6.879 -0.23 +0.00    +0.010 A  
DOCKED: ATOM      9  C   UNL     1     -52.612 -33.715   6.451 -0.30 +0.00    +0.068 A  
DOCKED: ATOM     10  N   UNL     1     -53.789 -35.488   4.973 -2.34 -0.00    -0.191 NA 
DOCKED: ATOM     11  C   UNL     1     -53.261 -34.693   5.636 -0.28 +0.00    +0.101 C  
DOCKED: ENDROOT
DOCKED: BRANCH   2  12
DOCKED: ATOM     12  C   UNL     1     -50.918 -30.883  10.332 -0.05 +0.00    +0.038 C  
DOCKED: BRANCH  12  13
DOCKED: ATOM     13  C   UNL     1     -50.047 -31.781  11.208 -0.06 +0.00    +0.038 C  
DOCKED: BRANCH  13  14
DOCKED: ATOM     14  C   UNL     1     -50.735 -32.087  12.537 -0.02 +0.00    +0.251 C  
DOCKED: BRANCH  14  15
DOCKED: ATOM     15  N   UNL     1     -50.731 -33.522  12.793 -0.06 +0.00    +0.141 N  
DOCKED: ATOM     16  C   UNL     1     -51.698 -33.864  13.836 -0.02 +0.00    +0.285 C  
DOCKED: ATOM     17  C   UNL     1     -51.024 -34.265  11.566 -0.13 +0.00    +0.285 C  
DOCKED: ENDBRANCH  14  15
DOCKED: ENDBRANCH  13  14
DOCKED: ENDBRANCH  12  13
DOCKED: ENDBRANCH   2  12
DOCKED: BRANCH   2  18
DOCKED: ATOM     18  C   UNL     1     -50.303 -29.571   8.309 -0.09 +0.00    +0.006 A  
DOCKED: ATOM     19  C   UNL     1     -49.880 -29.410   6.990 -0.16 +0.00    +0.001 A  
DOCKED: ATOM     20  C   UNL     1     -49.711 -28.128   6.466 -0.12 +0.00    +0.029 A  
DOCKED: ATOM     21  C   UNL     1     -49.964 -27.010   7.259 -0.04 +0.00    +0.140 A  
DOCKED: ATOM     22  C   UNL     1     -50.387 -27.172   8.578 -0.02 +0.00    +0.029 A  
DOCKED: ATOM     23  F   UNL     1     -49.803 -25.780   6.755 -0.00 -0.00    -0.204 F  
DOCKED: ATOM     24  C   UNL     1     -50.556 -28.454   9.105 -0.03 +0.00    +0.001 A  
DOCKED: ENDBRANCH   2  18
DOCKED: TORSDOF 5
DOCKED: TER
DOCKED: ENDMDL
________________________________________________________________________________


    FINAL DOCKED STATE:
    ________________________


Run:   310 / 512
Time taken for this run:   0.001s

DOCKED: MODEL        310
DOCKED: USER    Run = 310
DOCKED: USER
DOCKED: USER    Estimated Free Energy of Binding    =  -4.13 kcal/mol  [=(1)+(2)+(3)-(4)]
DOCKED: USER
DOCKED: USER    (1) Final Intermolecular Energy     =  -5.62 kcal/mol
DOCKED: USER        vdW + Hbond + desolv Energy     =  -5.62 kcal/mol
DOCKED: USER        Electrostatic Energy            =  +0.00 kcal/mol
DOCKED: USER        Moving Ligand-Fixed Receptor    =  -5.62 kcal/mol
DOCKED: USER        Moving Ligand-Moving Receptor   =  +0.00 kcal/mol
DOCKED: USER    (2) Final Total Internal Energy     =  -1.44 kcal/mol
DOCKED: USER    (3) Torsional Free Energy           =  +1.49 kcal/mol
DOCKED: USER    (4) Unbound System's Energy         =  -1.44 kcal/mol
DOCKED: USER
DOCKED: USER
DOCKED: REMARK  5 active torsions:
DOCKED: REMARK  status: ('A' for Active; 'I' for Inactive)
DOCKED: REMARK    1  A    between atoms: C_2  and  C_19 
DOCKED: REMARK    2  A    between atoms: C_2  and  C_11 
DOCKED: REMARK    3  A    between atoms: C_19  and  C_20 
DOCKED: REMARK    4  A    between atoms: C_20  and  C_21 
DOCKED: REMARK    5  A    between atoms: C_21  and  N_22 
DOCKED: USER                              x       y       z     vdW  Elec       q    Type
DOCKED: USER                           _______ _______ _______ _____ _____    ______ ____
DOCKED: ROOT
DOCKED: ATOM      1  O   UNL     1     -53.076 -29.346   8.553 -0.01 -0.00    -0.346 OA 
DOCKED: ATOM      2  C   UNL     1     -54.471 -29.546   8.156 -0.10 +0.00    +0.130 C  
DOCKED: ATOM      3  C   UNL     1     -54.446 -30.842   7.399 -0.19 +0.00    +0.004 A  
DOCKED: ATOM      4  C   UNL     1     -53.173 -31.390   7.453 -0.18 +0.00    +0.006 A  
DOCKED: ATOM      5  C   UNL     1     -52.282 -30.516   8.248 -0.09 +0.00    +0.169 C  
DOCKED: ATOM      6  C   UNL     1     -55.472 -31.489   6.726 -0.22 -0.00    -0.001 A  
DOCKED: ATOM      7  C   UNL     1     -52.881 -32.595   6.836 -0.26 +0.00    +0.008 A  
DOCKED: ATOM      8  C   UNL     1     -55.192 -32.702   6.095 -0.27 +0.00    +0.010 A  
DOCKED: ATOM      9  C   UNL     1     -53.903 -33.253   6.151 -0.24 +0.00    +0.068 A  
DOCKED: ATOM     10  N   UNL     1     -53.418 -35.509   4.974 -2.38 -0.00    -0.191 NA 
DOCKED: ATOM     11  C   UNL     1     -53.636 -34.497   5.501 -0.36 +0.00    +0.101 C  
DOCKED: ENDROOT
DOCKED: BRANCH   2  12
DOCKED: ATOM     12  C   UNL     1     -55.327 -29.610   9.415 -0.05 +0.00    +0.038 C  
DOCKED: BRANCH  12  13
DOCKED: ATOM     13  C   UNL     1     -55.634 -31.054   9.806 -0.06 +0.00    +0.038 C  
DOCKED: BRANCH  13  14
DOCKED: ATOM     14  C   UNL     1     -54.522 -31.637  10.676 -0.01 +0.00    +0.251 C  
DOCKED: BRANCH  14  15
DOCKED: ATOM     15  N   UNL     1     -54.588 -33.093  10.676 -0.05 +0.00    +0.141 N  
DOCKED: ATOM     16  C   UNL     1     -55.591 -33.564   9.719 -0.04 +0.00    +0.285 C  
DOCKED: ATOM     17  C   UNL     1     -53.279 -33.669  10.365 -0.07 +0.00    +0.285 C  
DOCKED: ENDBRANCH  14  15
DOCKED: ENDBRANCH  13  14
DOCKED: ENDBRANCH  12  13
DOCKED: ENDBRANCH   2  12
DOCKED: BRANCH   2  18
DOCKED: ATOM     18  C   UNL     1     -54.853 -28.381   7.305 -0.20 +0.00    +0.006 A  
DOCKED: ATOM     19  C   UNL     1     -56.194 -28.021   7.179 -0.20 +0.00    +0.001 A  
DOCKED: ATOM     20  C   UNL     1     -56.550 -26.932   6.382 -0.19 +0.00    +0.029 A  
DOCKED: ATOM     21  C   UNL     1     -55.565 -26.206   5.713 -0.08 +0.00    +0.140 A  
DOCKED: ATOM     22  C   UNL     1     -54.224 -26.567   5.839 -0.14 +0.00    +0.029 A  
DOCKED: ATOM     23  F   UNL     1     -55.907 -25.160   4.949 -0.03 -0.00    -0.204 F  
DOCKED: ATOM     24  C   UNL     1     -53.867 -27.656   6.636 -0.21 +0.00    +0.001 A  
DOCKED: ENDBRANCH   2  18
DOCKED: TORSDOF 5
DOCKED: TER
DOCKED: ENDMDL
________________________________________________________________________________


    FINAL DOCKED STATE:
    ________________________


Run:   311 / 512
Time taken for this run:   0.001s

DOCKED: MODEL        311
DOCKED: USER    Run = 311
DOCKED: USER
DOCKED: USER    Estimated Free Energy of Binding    =  -6.28 kcal/mol  [=(1)+(2)+(3)-(4)]
DOCKED: USER
DOCKED: USER    (1) Final Intermolecular Energy     =  -7.77 kcal/mol
DOCKED: USER        vdW + Hbond + desolv Energy     =  -7.77 kcal/mol
DOCKED: USER        Electrostatic Energy            =  +0.00 kcal/mol
DOCKED: USER        Moving Ligand-Fixed Receptor    =  -7.77 kcal/mol
DOCKED: USER        Moving Ligand-Moving Receptor   =  +0.00 kcal/mol
DOCKED: USER    (2) Final Total Internal Energy     =  -1.22 kcal/mol
DOCKED: USER    (3) Torsional Free Energy           =  +1.49 kcal/mol
DOCKED: USER    (4) Unbound System's Energy         =  -1.22 kcal/mol
DOCKED: USER
DOCKED: USER
DOCKED: REMARK  5 active torsions:
DOCKED: REMARK  status: ('A' for Active; 'I' for Inactive)
DOCKED: REMARK    1  A    between atoms: C_2  and  C_19 
DOCKED: REMARK    2  A    between atoms: C_2  and  C_11 
DOCKED: REMARK    3  A    between atoms: C_19  and  C_20 
DOCKED: REMARK    4  A    between atoms: C_20  and  C_21 
DOCKED: REMARK    5  A    between atoms: C_21  and  N_22 
DOCKED: USER                              x       y       z     vdW  Elec       q    Type
DOCKED: USER                           _______ _______ _______ _____ _____    ______ ____
DOCKED: ROOT
DOCKED: ATOM      1  O   UNL     1     -50.626 -34.816   7.567 -0.30 -0.00    -0.346 OA 
DOCKED: ATOM      2  C   UNL     1     -51.521 -33.668   7.718 -0.28 +0.00    +0.130 C  
DOCKED: ATOM      3  C   UNL     1     -52.196 -33.560   6.381 -0.37 +0.00    +0.004 A  
DOCKED: ATOM      4  C   UNL     1     -51.805 -34.619   5.574 -0.38 +0.00    +0.006 A  
DOCKED: ATOM      5  C   UNL     1     -50.869 -35.495   6.313 -0.18 +0.00    +0.169 C  
DOCKED: ATOM      6  C   UNL     1     -53.093 -32.607   5.920 -0.34 -0.00    -0.001 A  
DOCKED: ATOM      7  C   UNL     1     -52.290 -34.760   4.285 -0.38 +0.00    +0.008 A  
DOCKED: ATOM      8  C   UNL     1     -53.588 -32.733   4.621 +0.03 +0.00    +0.010 A  
DOCKED: ATOM      9  C   UNL     1     -53.189 -33.804   3.808 -0.46 +0.00    +0.068 A  
DOCKED: ATOM     10  N   UNL     1     -54.130 -34.010   1.403 -3.20 -0.00    -0.191 NA 
DOCKED: ATOM     11  C   UNL     1     -53.708 -33.917   2.481 -0.28 +0.00    +0.101 C  
DOCKED: ENDROOT
DOCKED: BRANCH   2  12
DOCKED: ATOM     12  C   UNL     1     -52.495 -33.961   8.853 -0.25 +0.00    +0.038 C  
DOCKED: BRANCH  12  13
DOCKED: ATOM     13  C   UNL     1     -53.301 -32.719   9.229 -0.12 +0.00    +0.038 C  
DOCKED: BRANCH  13  14
DOCKED: ATOM     14  C   UNL     1     -54.774 -32.887   8.860 -0.04 +0.00    +0.251 C  
DOCKED: BRANCH  14  15
DOCKED: ATOM     15  N   UNL     1     -54.989 -34.171   8.204 -0.15 +0.00    +0.141 N  
DOCKED: ATOM     16  C   UNL     1     -55.605 -35.126   9.126 -0.07 +0.00    +0.285 C  
DOCKED: ATOM     17  C   UNL     1     -55.822 -34.008   7.011 -0.08 +0.00    +0.285 C  
DOCKED: ENDBRANCH  14  15
DOCKED: ENDBRANCH  13  14
DOCKED: ENDBRANCH  12  13
DOCKED: ENDBRANCH   2  12
DOCKED: BRANCH   2  18
DOCKED: ATOM     18  C   UNL     1     -50.665 -32.487   8.034 -0.24 +0.00    +0.006 A  
DOCKED: ATOM     19  C   UNL     1     -50.706 -31.358   7.217 -0.20 +0.00    +0.001 A  
DOCKED: ATOM     20  C   UNL     1     -49.905 -30.255   7.514 -0.15 +0.00    +0.029 A  
DOCKED: ATOM     21  C   UNL     1     -49.066 -30.281   8.627 -0.08 +0.00    +0.140 A  
DOCKED: ATOM     22  C   UNL     1     -49.026 -31.411   9.444 -0.11 +0.00    +0.029 A  
DOCKED: ATOM     23  F   UNL     1     -48.299 -29.221   8.912 -0.00 -0.00    -0.204 F  
DOCKED: ATOM     24  C   UNL     1     -49.827 -32.515   9.148 -0.17 +0.00    +0.001 A  
DOCKED: ENDBRANCH   2  18
DOCKED: TORSDOF 5
DOCKED: TER
DOCKED: ENDMDL
________________________________________________________________________________


    FINAL DOCKED STATE:
    ________________________


Run:   312 / 512
Time taken for this run:   0.001s

DOCKED: MODEL        312
DOCKED: USER    Run = 312
DOCKED: USER
DOCKED: USER    Estimated Free Energy of Binding    =  -4.21 kcal/mol  [=(1)+(2)+(3)-(4)]
DOCKED: USER
DOCKED: USER    (1) Final Intermolecular Energy     =  -5.70 kcal/mol
DOCKED: USER        vdW + Hbond + desolv Energy     =  -5.70 kcal/mol
DOCKED: USER        Electrostatic Energy            =  +0.00 kcal/mol
DOCKED: USER        Moving Ligand-Fixed Receptor    =  -5.70 kcal/mol
DOCKED: USER        Moving Ligand-Moving Receptor   =  +0.00 kcal/mol
DOCKED: USER    (2) Final Total Internal Energy     =  -1.07 kcal/mol
DOCKED: USER    (3) Torsional Free Energy           =  +1.49 kcal/mol
DOCKED: USER    (4) Unbound System's Energy         =  -1.07 kcal/mol
DOCKED: USER
DOCKED: USER
DOCKED: REMARK  5 active torsions:
DOCKED: REMARK  status: ('A' for Active; 'I' for Inactive)
DOCKED: REMARK    1  A    between atoms: C_2  and  C_19 
DOCKED: REMARK    2  A    between atoms: C_2  and  C_11 
DOCKED: REMARK    3  A    between atoms: C_19  and  C_20 
DOCKED: REMARK    4  A    between atoms: C_20  and  C_21 
DOCKED: REMARK    5  A    between atoms: C_21  and  N_22 
DOCKED: USER                              x       y       z     vdW  Elec       q    Type
DOCKED: USER                           _______ _______ _______ _____ _____    ______ ____
DOCKED: ROOT
DOCKED: ATOM      1  O   UNL     1     -43.931 -33.157  -1.955 -0.02 -0.00    -0.346 OA 
DOCKED: ATOM      2  C   UNL     1     -44.079 -32.048  -1.012 -0.09 +0.00    +0.130 C  
DOCKED: ATOM      3  C   UNL     1     -44.593 -32.704   0.237 -0.12 +0.00    +0.004 A  
DOCKED: ATOM      4  C   UNL     1     -44.630 -34.080   0.060 -0.16 +0.00    +0.006 A  
DOCKED: ATOM      5  C   UNL     1     -44.138 -34.426  -1.292 -0.09 +0.00    +0.169 C  
DOCKED: ATOM      6  C   UNL     1     -44.986 -32.131   1.437 -0.14 -0.00    -0.001 A  
DOCKED: ATOM      7  C   UNL     1     -45.062 -34.925   1.068 -0.27 +0.00    +0.008 A  
DOCKED: ATOM      8  C   UNL     1     -45.429 -32.969   2.462 -0.25 +0.00    +0.010 A  
DOCKED: ATOM      9  C   UNL     1     -45.465 -34.359   2.278 -0.30 +0.00    +0.068 A  
DOCKED: ATOM     10  N   UNL     1     -46.287 -35.887   4.203 -2.68 -0.00    -0.191 NA 
DOCKED: ATOM     11  C   UNL     1     -45.919 -35.202   3.340 -0.41 +0.00    +0.101 C  
DOCKED: ENDROOT
DOCKED: BRANCH   2  12
DOCKED: ATOM     12  C   UNL     1     -42.717 -31.392  -0.820 -0.02 +0.00    +0.038 C  
DOCKED: BRANCH  12  13
DOCKED: ATOM     13  C   UNL     1     -41.770 -31.729  -1.969 -0.01 +0.00    +0.038 C  
DOCKED: BRANCH  13  14
DOCKED: ATOM     14  C   UNL     1     -40.313 -31.512  -1.562 -0.00 +0.00    +0.251 C  
DOCKED: BRANCH  14  15
DOCKED: ATOM     15  N   UNL     1     -39.785 -32.705  -0.912 -0.00 +0.00    +0.141 N  
DOCKED: ATOM     16  C   UNL     1     -39.957 -32.620   0.540 -0.00 +0.00    +0.285 C  
DOCKED: ATOM     17  C   UNL     1     -40.439 -33.907  -1.431 -0.00 +0.00    +0.285 C  
DOCKED: ENDBRANCH  14  15
DOCKED: ENDBRANCH  13  14
DOCKED: ENDBRANCH  12  13
DOCKED: ENDBRANCH   2  12
DOCKED: BRANCH   2  18
DOCKED: ATOM     18  C   UNL     1     -45.057 -31.093  -1.612 -0.11 +0.00    +0.006 A  
DOCKED: ATOM     19  C   UNL     1     -45.832 -30.280  -0.787 -0.15 +0.00    +0.001 A  
DOCKED: ATOM     20  C   UNL     1     -46.747 -29.388  -1.349 -0.18 +0.00    +0.029 A  
DOCKED: ATOM     21  C   UNL     1     -46.883 -29.311  -2.734 -0.19 +0.00    +0.140 A  
DOCKED: ATOM     22  C   UNL     1     -46.107 -30.124  -3.559 -0.22 +0.00    +0.029 A  
DOCKED: ATOM     23  F   UNL     1     -47.759 -28.453  -3.274 -0.13 -0.00    -0.204 F  
DOCKED: ATOM     24  C   UNL     1     -45.193 -31.017  -2.997 -0.16 +0.00    +0.001 A  
DOCKED: ENDBRANCH   2  18
DOCKED: TORSDOF 5
DOCKED: TER
DOCKED: ENDMDL
________________________________________________________________________________


    FINAL DOCKED STATE:
    ________________________


Run:   313 / 512
Time taken for this run:   0.001s

DOCKED: MODEL        313
DOCKED: USER    Run = 313
DOCKED: USER
DOCKED: USER    Estimated Free Energy of Binding    =  -4.21 kcal/mol  [=(1)+(2)+(3)-(4)]
DOCKED: USER
DOCKED: USER    (1) Final Intermolecular Energy     =  -5.70 kcal/mol
DOCKED: USER        vdW + Hbond + desolv Energy     =  -5.70 kcal/mol
DOCKED: USER        Electrostatic Energy            =  +0.00 kcal/mol
DOCKED: USER        Moving Ligand-Fixed Receptor    =  -5.70 kcal/mol
DOCKED: USER        Moving Ligand-Moving Receptor   =  +0.00 kcal/mol
DOCKED: USER    (2) Final Total Internal Energy     =  -1.15 kcal/mol
DOCKED: USER    (3) Torsional Free Energy           =  +1.49 kcal/mol
DOCKED: USER    (4) Unbound System's Energy         =  -1.15 kcal/mol
DOCKED: USER
DOCKED: USER
DOCKED: REMARK  5 active torsions:
DOCKED: REMARK  status: ('A' for Active; 'I' for Inactive)
DOCKED: REMARK    1  A    between atoms: C_2  and  C_19 
DOCKED: REMARK    2  A    between atoms: C_2  and  C_11 
DOCKED: REMARK    3  A    between atoms: C_19  and  C_20 
DOCKED: REMARK    4  A    between atoms: C_20  and  C_21 
DOCKED: REMARK    5  A    between atoms: C_21  and  N_22 
DOCKED: USER                              x       y       z     vdW  Elec       q    Type
DOCKED: USER                           _______ _______ _______ _____ _____    ______ ____
DOCKED: ROOT
DOCKED: ATOM      1  O   UNL     1     -49.585 -30.534   8.845 -0.04 -0.00    -0.346 OA 
DOCKED: ATOM      2  C   UNL     1     -50.504 -29.818   7.959 -0.11 +0.00    +0.130 C  
DOCKED: ATOM      3  C   UNL     1     -51.247 -30.913   7.251 -0.22 +0.00    +0.004 A  
DOCKED: ATOM      4  C   UNL     1     -50.866 -32.144   7.765 -0.23 +0.00    +0.006 A  
DOCKED: ATOM      5  C   UNL     1     -49.869 -31.952   8.842 -0.14 +0.00    +0.169 C  
DOCKED: ATOM      6  C   UNL     1     -52.194 -30.827   6.240 -0.25 -0.00    -0.001 A  
DOCKED: ATOM      7  C   UNL     1     -51.410 -33.325   7.288 -0.32 +0.00    +0.008 A  
DOCKED: ATOM      8  C   UNL     1     -52.748 -32.008   5.745 -0.32 +0.00    +0.010 A  
DOCKED: ATOM      9  C   UNL     1     -52.359 -33.251   6.267 -0.31 +0.00    +0.068 A  
DOCKED: ATOM     10  N   UNL     1     -53.411 -35.424   5.329 -2.56 -0.00    -0.191 NA 
DOCKED: ATOM     11  C   UNL     1     -52.939 -34.449   5.749 -0.34 +0.00    +0.101 C  
DOCKED: ENDROOT
DOCKED: BRANCH   2  12
DOCKED: ATOM     12  C   UNL     1     -51.412 -28.941   8.813 -0.05 +0.00    +0.038 C  
DOCKED: BRANCH  12  13
DOCKED: ATOM     13  C   UNL     1     -52.544 -28.337   7.984 -0.10 +0.00    +0.038 C  
DOCKED: BRANCH  13  14
DOCKED: ATOM     14  C   UNL     1     -52.845 -26.906   8.425 -0.02 +0.00    +0.251 C  
DOCKED: BRANCH  14  15
DOCKED: ATOM     15  N   UNL     1     -52.673 -25.984   7.308 -0.04 +0.00    +0.141 N  
DOCKED: ATOM     16  C   UNL     1     -51.268 -25.601   7.166 -0.02 +0.00    +0.285 C  
DOCKED: ATOM     17  C   UNL     1     -53.164 -26.583   6.065 -0.13 +0.00    +0.285 C  
DOCKED: ENDBRANCH  14  15
DOCKED: ENDBRANCH  13  14
DOCKED: ENDBRANCH  12  13
DOCKED: ENDBRANCH   2  12
DOCKED: BRANCH   2  18
DOCKED: ATOM     18  C   UNL     1     -49.669 -28.992   7.039 -0.14 +0.00    +0.006 A  
DOCKED: ATOM     19  C   UNL     1     -49.820 -29.120   5.658 -0.07 +0.00    +0.001 A  
DOCKED: ATOM     20  C   UNL     1     -49.038 -28.347   4.798 -0.12 +0.00    +0.029 A  
DOCKED: ATOM     21  C   UNL     1     -48.108 -27.449   5.319 -0.06 +0.00    +0.140 A  
DOCKED: ATOM     22  C   UNL     1     -47.958 -27.322   6.700 -0.04 +0.00    +0.029 A  
DOCKED: ATOM     23  F   UNL     1     -47.359 -26.706   4.494 -0.00 -0.00    -0.204 F  
DOCKED: ATOM     24  C   UNL     1     -48.739 -28.094   7.561 -0.06 +0.00    +0.001 A  
DOCKED: ENDBRANCH   2  18
DOCKED: TORSDOF 5
DOCKED: TER
DOCKED: ENDMDL
________________________________________________________________________________


    FINAL DOCKED STATE:
    ________________________


Run:   314 / 512
Time taken for this run:   0.001s

DOCKED: MODEL        314
DOCKED: USER    Run = 314
DOCKED: USER
DOCKED: USER    Estimated Free Energy of Binding    =  -5.32 kcal/mol  [=(1)+(2)+(3)-(4)]
DOCKED: USER
DOCKED: USER    (1) Final Intermolecular Energy     =  -6.81 kcal/mol
DOCKED: USER        vdW + Hbond + desolv Energy     =  -6.81 kcal/mol
DOCKED: USER        Electrostatic Energy            =  +0.00 kcal/mol
DOCKED: USER        Moving Ligand-Fixed Receptor    =  -6.81 kcal/mol
DOCKED: USER        Moving Ligand-Moving Receptor   =  +0.00 kcal/mol
DOCKED: USER    (2) Final Total Internal Energy     =  -1.51 kcal/mol
DOCKED: USER    (3) Torsional Free Energy           =  +1.49 kcal/mol
DOCKED: USER    (4) Unbound System's Energy         =  -1.51 kcal/mol
DOCKED: USER
DOCKED: USER
DOCKED: REMARK  5 active torsions:
DOCKED: REMARK  status: ('A' for Active; 'I' for Inactive)
DOCKED: REMARK    1  A    between atoms: C_2  and  C_19 
DOCKED: REMARK    2  A    between atoms: C_2  and  C_11 
DOCKED: REMARK    3  A    between atoms: C_19  and  C_20 
DOCKED: REMARK    4  A    between atoms: C_20  and  C_21 
DOCKED: REMARK    5  A    between atoms: C_21  and  N_22 
DOCKED: USER                              x       y       z     vdW  Elec       q    Type
DOCKED: USER                           _______ _______ _______ _____ _____    ______ ____
DOCKED: ROOT
DOCKED: ATOM      1  O   UNL     1     -51.699 -31.168   7.936 -0.04 -0.00    -0.346 OA 
DOCKED: ATOM      2  C   UNL     1     -51.280 -32.570   7.926 -0.22 +0.00    +0.130 C  
DOCKED: ATOM      3  C   UNL     1     -51.788 -33.088   6.612 -0.33 +0.00    +0.004 A  
DOCKED: ATOM      4  C   UNL     1     -52.350 -32.047   5.885 -0.34 +0.00    +0.006 A  
DOCKED: ATOM      5  C   UNL     1     -52.243 -30.785   6.651 -0.23 +0.00    +0.169 C  
DOCKED: ATOM      6  C   UNL     1     -51.746 -34.375   6.095 -0.43 -0.00    -0.001 A  
DOCKED: ATOM      7  C   UNL     1     -52.889 -32.255   4.628 +0.07 +0.00    +0.008 A  
DOCKED: ATOM      8  C   UNL     1     -52.290 -34.601   4.829 -0.45 +0.00    +0.010 A  
DOCKED: ATOM      9  C   UNL     1     -52.858 -33.547   4.099 -0.41 +0.00    +0.068 A  
DOCKED: ATOM     10  N   UNL     1     -53.855 -34.001   1.751 -2.81 -0.00    -0.191 NA 
DOCKED: ATOM     11  C   UNL     1     -53.409 -33.797   2.805 -0.46 +0.00    +0.101 C  
DOCKED: ENDROOT
DOCKED: BRANCH   2  12
DOCKED: ATOM     12  C   UNL     1     -49.761 -32.621   8.037 -0.23 +0.00    +0.038 C  
DOCKED: BRANCH  12  13
DOCKED: ATOM     13  C   UNL     1     -49.184 -31.258   8.414 -0.17 +0.00    +0.038 C  
DOCKED: BRANCH  13  14
DOCKED: ATOM     14  C   UNL     1     -49.158 -31.072   9.930 -0.04 +0.00    +0.251 C  
DOCKED: BRANCH  14  15
DOCKED: ATOM     15  N   UNL     1     -50.245 -30.197  10.352 -0.02 +0.00    +0.141 N  
DOCKED: ATOM     16  C   UNL     1     -50.331 -30.149  11.813 -0.00 +0.00    +0.285 C  
DOCKED: ATOM     17  C   UNL     1     -50.063 -28.850   9.810 -0.01 +0.00    +0.285 C  
DOCKED: ENDBRANCH  14  15
DOCKED: ENDBRANCH  13  14
DOCKED: ENDBRANCH  12  13
DOCKED: ENDBRANCH   2  12
DOCKED: BRANCH   2  18
DOCKED: ATOM     18  C   UNL     1     -51.928 -33.227   9.099 -0.17 +0.00    +0.006 A  
DOCKED: ATOM     19  C   UNL     1     -51.426 -34.433   9.588 -0.13 +0.00    +0.001 A  
DOCKED: ATOM     20  C   UNL     1     -52.033 -35.046  10.685 -0.08 +0.00    +0.029 A  
DOCKED: ATOM     21  C   UNL     1     -53.140 -34.454  11.291 -0.10 +0.00    +0.140 A  
DOCKED: ATOM     22  C   UNL     1     -53.642 -33.248  10.801 -0.09 +0.00    +0.029 A  
DOCKED: ATOM     23  F   UNL     1     -53.721 -35.042  12.344 -0.03 -0.00    -0.204 F  
DOCKED: ATOM     24  C   UNL     1     -53.035 -32.634   9.704 -0.09 +0.00    +0.001 A  
DOCKED: ENDBRANCH   2  18
DOCKED: TORSDOF 5
DOCKED: TER
DOCKED: ENDMDL
________________________________________________________________________________


    FINAL DOCKED STATE:
    ________________________


Run:   315 / 512
Time taken for this run:   0.001s

DOCKED: MODEL        315
DOCKED: USER    Run = 315
DOCKED: USER
DOCKED: USER    Estimated Free Energy of Binding    =  -6.32 kcal/mol  [=(1)+(2)+(3)-(4)]
DOCKED: USER
DOCKED: USER    (1) Final Intermolecular Energy     =  -7.81 kcal/mol
DOCKED: USER        vdW + Hbond + desolv Energy     =  -7.81 kcal/mol
DOCKED: USER        Electrostatic Energy            =  +0.00 kcal/mol
DOCKED: USER        Moving Ligand-Fixed Receptor    =  -7.81 kcal/mol
DOCKED: USER        Moving Ligand-Moving Receptor   =  +0.00 kcal/mol
DOCKED: USER    (2) Final Total Internal Energy     =  -0.98 kcal/mol
DOCKED: USER    (3) Torsional Free Energy           =  +1.49 kcal/mol
DOCKED: USER    (4) Unbound System's Energy         =  -0.98 kcal/mol
DOCKED: USER
DOCKED: USER
DOCKED: REMARK  5 active torsions:
DOCKED: REMARK  status: ('A' for Active; 'I' for Inactive)
DOCKED: REMARK    1  A    between atoms: C_2  and  C_19 
DOCKED: REMARK    2  A    between atoms: C_2  and  C_11 
DOCKED: REMARK    3  A    between atoms: C_19  and  C_20 
DOCKED: REMARK    4  A    between atoms: C_20  and  C_21 
DOCKED: REMARK    5  A    between atoms: C_21  and  N_22 
DOCKED: USER                              x       y       z     vdW  Elec       q    Type
DOCKED: USER                           _______ _______ _______ _____ _____    ______ ____
DOCKED: ROOT
DOCKED: ATOM      1  O   UNL     1     -51.329 -31.475   7.874 -0.06 -0.00    -0.346 OA 
DOCKED: ATOM      2  C   UNL     1     -51.164 -32.928   7.830 -0.24 +0.00    +0.130 C  
DOCKED: ATOM      3  C   UNL     1     -51.737 -33.315   6.497 -0.35 +0.00    +0.004 A  
DOCKED: ATOM      4  C   UNL     1     -52.097 -32.173   5.795 -0.33 +0.00    +0.006 A  
DOCKED: ATOM      5  C   UNL     1     -51.781 -30.970   6.596 -0.24 +0.00    +0.169 C  
DOCKED: ATOM      6  C   UNL     1     -51.915 -34.575   5.946 -0.36 -0.00    -0.001 A  
DOCKED: ATOM      7  C   UNL     1     -52.649 -32.251   4.527 -0.06 +0.00    +0.008 A  
DOCKED: ATOM      8  C   UNL     1     -52.474 -34.671   4.670 -0.47 +0.00    +0.010 A  
DOCKED: ATOM      9  C   UNL     1     -52.838 -33.514   3.965 -0.40 +0.00    +0.068 A  
DOCKED: ATOM     10  N   UNL     1     -53.868 -33.726   1.597 -3.12 -0.00    -0.191 NA 
DOCKED: ATOM     11  C   UNL     1     -53.407 -33.631   2.659 -0.42 +0.00    +0.101 C  
DOCKED: ENDROOT
DOCKED: BRANCH   2  12
DOCKED: ATOM     12  C   UNL     1     -49.679 -33.249   7.952 -0.12 +0.00    +0.038 C  
DOCKED: BRANCH  12  13
DOCKED: ATOM     13  C   UNL     1     -48.933 -32.151   8.709 -0.20 +0.00    +0.038 C  
DOCKED: BRANCH  13  14
DOCKED: ATOM     14  C   UNL     1     -47.439 -32.183   8.392 -0.12 +0.00    +0.251 C  
DOCKED: BRANCH  14  15
DOCKED: ATOM     15  N   UNL     1     -46.788 -33.266   9.121 -0.14 +0.00    +0.141 N  
DOCKED: ATOM     16  C   UNL     1     -45.708 -33.849   8.323 -0.13 +0.00    +0.285 C  
DOCKED: ATOM     17  C   UNL     1     -46.271 -32.786  10.403 -0.05 +0.00    +0.285 C  
DOCKED: ENDBRANCH  14  15
DOCKED: ENDBRANCH  13  14
DOCKED: ENDBRANCH  12  13
DOCKED: ENDBRANCH   2  12
DOCKED: BRANCH   2  18
DOCKED: ATOM     18  C   UNL     1     -51.932 -33.490   8.979 -0.20 +0.00    +0.006 A  
DOCKED: ATOM     19  C   UNL     1     -51.267 -33.859  10.148 -0.18 +0.00    +0.001 A  
DOCKED: ATOM     20  C   UNL     1     -51.987 -34.385  11.221 -0.20 +0.00    +0.029 A  
DOCKED: ATOM     21  C   UNL     1     -53.369 -34.541  11.125 -0.06 +0.00    +0.140 A  
DOCKED: ATOM     22  C   UNL     1     -54.033 -34.172   9.955 -0.15 +0.00    +0.029 A  
DOCKED: ATOM     23  F   UNL     1     -54.060 -35.044  12.156 -0.03 -0.00    -0.204 F  
DOCKED: ATOM     24  C   UNL     1     -53.314 -33.646   8.881 -0.18 +0.00    +0.001 A  
DOCKED: ENDBRANCH   2  18
DOCKED: TORSDOF 5
DOCKED: TER
DOCKED: ENDMDL
________________________________________________________________________________


    FINAL DOCKED STATE:
    ________________________


Run:   316 / 512
Time taken for this run:   0.001s

DOCKED: MODEL        316
DOCKED: USER    Run = 316
DOCKED: USER
DOCKED: USER    Estimated Free Energy of Binding    =  -3.82 kcal/mol  [=(1)+(2)+(3)-(4)]
DOCKED: USER
DOCKED: USER    (1) Final Intermolecular Energy     =  -5.31 kcal/mol
DOCKED: USER        vdW + Hbond + desolv Energy     =  -5.31 kcal/mol
DOCKED: USER        Electrostatic Energy            =  +0.00 kcal/mol
DOCKED: USER        Moving Ligand-Fixed Receptor    =  -5.31 kcal/mol
DOCKED: USER        Moving Ligand-Moving Receptor   =  +0.00 kcal/mol
DOCKED: USER    (2) Final Total Internal Energy     =  -1.51 kcal/mol
DOCKED: USER    (3) Torsional Free Energy           =  +1.49 kcal/mol
DOCKED: USER    (4) Unbound System's Energy         =  -1.51 kcal/mol
DOCKED: USER
DOCKED: USER
DOCKED: REMARK  5 active torsions:
DOCKED: REMARK  status: ('A' for Active; 'I' for Inactive)
DOCKED: REMARK    1  A    between atoms: C_2  and  C_19 
DOCKED: REMARK    2  A    between atoms: C_2  and  C_11 
DOCKED: REMARK    3  A    between atoms: C_19  and  C_20 
DOCKED: REMARK    4  A    between atoms: C_20  and  C_21 
DOCKED: REMARK    5  A    between atoms: C_21  and  N_22 
DOCKED: USER                              x       y       z     vdW  Elec       q    Type
DOCKED: USER                           _______ _______ _______ _____ _____    ______ ____
DOCKED: ROOT
DOCKED: ATOM      1  O   UNL     1     -47.631 -25.111   0.582 -0.04 -0.00    -0.346 OA 
DOCKED: ATOM      2  C   UNL     1     -48.995 -25.261   0.072 -0.22 +0.00    +0.130 C  
DOCKED: ATOM      3  C   UNL     1     -49.077 -24.251  -1.036 -0.28 +0.00    +0.004 A  
DOCKED: ATOM      4  C   UNL     1     -47.838 -23.655  -1.218 -0.13 +0.00    +0.006 A  
DOCKED: ATOM      5  C   UNL     1     -46.860 -24.228  -0.266 -0.12 +0.00    +0.169 C  
DOCKED: ATOM      6  C   UNL     1     -50.160 -23.898  -1.827 -0.31 -0.00    -0.001 A  
DOCKED: ATOM      7  C   UNL     1     -47.639 -22.687  -2.187 -0.20 +0.00    +0.008 A  
DOCKED: ATOM      8  C   UNL     1     -49.977 -22.920  -2.807 -0.40 +0.00    +0.010 A  
DOCKED: ATOM      9  C   UNL     1     -48.722 -22.318  -2.986 -0.29 +0.00    +0.068 A  
DOCKED: ATOM     10  N   UNL     1     -48.415 -20.510  -4.816 -0.87 -0.00    -0.191 NA 
DOCKED: ATOM     11  C   UNL     1     -48.553 -21.321  -3.995 -0.33 +0.00    +0.101 C  
DOCKED: ENDROOT
DOCKED: BRANCH   2  12
DOCKED: ATOM     12  C   UNL     1     -49.173 -26.694  -0.416 -0.18 +0.00    +0.038 C  
DOCKED: BRANCH  12  13
DOCKED: ATOM     13  C   UNL     1     -48.221 -27.649   0.302 -0.19 +0.00    +0.038 C  
DOCKED: BRANCH  13  14
DOCKED: ATOM     14  C   UNL     1     -48.926 -28.366   1.452 -0.17 +0.00    +0.251 C  
DOCKED: BRANCH  14  15
DOCKED: ATOM     15  N   UNL     1     -48.137 -28.262   2.674 -0.12 +0.00    +0.141 N  
DOCKED: ATOM     16  C   UNL     1     -46.744 -27.937   2.363 -0.03 +0.00    +0.285 C  
DOCKED: ATOM     17  C   UNL     1     -48.705 -27.254   3.570 -0.07 +0.00    +0.285 C  
DOCKED: ENDBRANCH  14  15
DOCKED: ENDBRANCH  13  14
DOCKED: ENDBRANCH  12  13
DOCKED: ENDBRANCH   2  12
DOCKED: BRANCH   2  18
DOCKED: ATOM     18  C   UNL     1     -49.919 -24.959   1.204 -0.26 +0.00    +0.006 A  
DOCKED: ATOM     19  C   UNL     1     -51.195 -25.522   1.231 -0.28 +0.00    +0.001 A  
DOCKED: ATOM     20  C   UNL     1     -52.058 -25.238   2.290 -0.26 +0.00    +0.029 A  
DOCKED: ATOM     21  C   UNL     1     -51.645 -24.394   3.320 -0.14 +0.00    +0.140 A  
DOCKED: ATOM     22  C   UNL     1     -50.369 -23.833   3.292 -0.20 +0.00    +0.029 A  
DOCKED: ATOM     23  F   UNL     1     -52.474 -24.124   4.337 -0.01 -0.00    -0.204 F  
DOCKED: ATOM     24  C   UNL     1     -49.505 -24.115   2.233 -0.22 +0.00    +0.001 A  
DOCKED: ENDBRANCH   2  18
DOCKED: TORSDOF 5
DOCKED: TER
DOCKED: ENDMDL
________________________________________________________________________________


    FINAL DOCKED STATE:
    ________________________


Run:   317 / 512
Time taken for this run:   0.001s

DOCKED: MODEL        317
DOCKED: USER    Run = 317
DOCKED: USER
DOCKED: USER    Estimated Free Energy of Binding    =  -3.89 kcal/mol  [=(1)+(2)+(3)-(4)]
DOCKED: USER
DOCKED: USER    (1) Final Intermolecular Energy     =  -5.38 kcal/mol
DOCKED: USER        vdW + Hbond + desolv Energy     =  -5.38 kcal/mol
DOCKED: USER        Electrostatic Energy            =  +0.00 kcal/mol
DOCKED: USER        Moving Ligand-Fixed Receptor    =  -5.38 kcal/mol
DOCKED: USER        Moving Ligand-Moving Receptor   =  +0.00 kcal/mol
DOCKED: USER    (2) Final Total Internal Energy     =  -1.46 kcal/mol
DOCKED: USER    (3) Torsional Free Energy           =  +1.49 kcal/mol
DOCKED: USER    (4) Unbound System's Energy         =  -1.46 kcal/mol
DOCKED: USER
DOCKED: USER
DOCKED: REMARK  5 active torsions:
DOCKED: REMARK  status: ('A' for Active; 'I' for Inactive)
DOCKED: REMARK    1  A    between atoms: C_2  and  C_19 
DOCKED: REMARK    2  A    between atoms: C_2  and  C_11 
DOCKED: REMARK    3  A    between atoms: C_19  and  C_20 
DOCKED: REMARK    4  A    between atoms: C_20  and  C_21 
DOCKED: REMARK    5  A    between atoms: C_21  and  N_22 
DOCKED: USER                              x       y       z     vdW  Elec       q    Type
DOCKED: USER                           _______ _______ _______ _____ _____    ______ ____
DOCKED: ROOT
DOCKED: ATOM      1  O   UNL     1     -52.529 -28.672   7.174 -0.07 -0.00    -0.346 OA 
DOCKED: ATOM      2  C   UNL     1     -51.274 -29.387   7.409 -0.14 +0.00    +0.130 C  
DOCKED: ATOM      3  C   UNL     1     -51.588 -30.803   7.023 -0.24 +0.00    +0.004 A  
DOCKED: ATOM      4  C   UNL     1     -52.875 -30.872   6.507 -0.26 +0.00    +0.006 A  
DOCKED: ATOM      5  C   UNL     1     -53.487 -29.524   6.504 -0.16 +0.00    +0.169 C  
DOCKED: ATOM      6  C   UNL     1     -50.795 -31.938   7.110 -0.20 -0.00    -0.001 A  
DOCKED: ATOM      7  C   UNL     1     -53.412 -32.069   6.067 -0.27 +0.00    +0.008 A  
DOCKED: ATOM      8  C   UNL     1     -51.324 -33.154   6.674 -0.32 +0.00    +0.010 A  
DOCKED: ATOM      9  C   UNL     1     -52.626 -33.219   6.155 -0.31 +0.00    +0.068 A  
DOCKED: ATOM     10  N   UNL     1     -53.575 -35.492   5.351 -2.58 -0.00    -0.191 NA 
DOCKED: ATOM     11  C   UNL     1     -53.149 -34.473   5.712 -0.34 +0.00    +0.101 C  
DOCKED: ENDROOT
DOCKED: BRANCH   2  12
DOCKED: ATOM     12  C   UNL     1     -50.191 -28.760   6.539 -0.17 +0.00    +0.038 C  
DOCKED: BRANCH  12  13
DOCKED: ATOM     13  C   UNL     1     -50.641 -27.415   5.972 -0.11 +0.00    +0.038 C  
DOCKED: BRANCH  13  14
DOCKED: ATOM     14  C   UNL     1     -50.473 -26.301   7.004 -0.03 +0.00    +0.251 C  
DOCKED: BRANCH  14  15
DOCKED: ATOM     15  N   UNL     1     -51.750 -25.645   7.255 -0.03 +0.00    +0.141 N  
DOCKED: ATOM     16  C   UNL     1     -51.964 -25.463   8.691 -0.00 +0.00    +0.285 C  
DOCKED: ATOM     17  C   UNL     1     -51.811 -24.355   6.566 -0.01 +0.00    +0.285 C  
DOCKED: ENDBRANCH  14  15
DOCKED: ENDBRANCH  13  14
DOCKED: ENDBRANCH  12  13
DOCKED: ENDBRANCH   2  12
DOCKED: BRANCH   2  18
DOCKED: ATOM     18  C   UNL     1     -50.952 -29.238   8.859 -0.05 +0.00    +0.006 A  
DOCKED: ATOM     19  C   UNL     1     -51.975 -29.271   9.806 -0.02 +0.00    +0.001 A  
DOCKED: ATOM     20  C   UNL     1     -51.673 -29.131  11.161 -0.00 +0.00    +0.029 A  
DOCKED: ATOM     21  C   UNL     1     -50.350 -28.958  11.567 -0.00 +0.00    +0.140 A  
DOCKED: ATOM     22  C   UNL     1     -49.328 -28.926  10.619 -0.01 +0.00    +0.029 A  
DOCKED: ATOM     23  F   UNL     1     -50.061 -28.826  12.868 +0.00 -0.00    -0.204 F  
DOCKED: ATOM     24  C   UNL     1     -49.629 -29.065   9.263 -0.03 +0.00    +0.001 A  
DOCKED: ENDBRANCH   2  18
DOCKED: TORSDOF 5
DOCKED: TER
DOCKED: ENDMDL
________________________________________________________________________________


    FINAL DOCKED STATE:
    ________________________


Run:   318 / 512
Time taken for this run:   0.001s

DOCKED: MODEL        318
DOCKED: USER    Run = 318
DOCKED: USER
DOCKED: USER    Estimated Free Energy of Binding    =  -3.84 kcal/mol  [=(1)+(2)+(3)-(4)]
DOCKED: USER
DOCKED: USER    (1) Final Intermolecular Energy     =  -5.33 kcal/mol
DOCKED: USER        vdW + Hbond + desolv Energy     =  -5.33 kcal/mol
DOCKED: USER        Electrostatic Energy            =  +0.00 kcal/mol
DOCKED: USER        Moving Ligand-Fixed Receptor    =  -5.33 kcal/mol
DOCKED: USER        Moving Ligand-Moving Receptor   =  +0.00 kcal/mol
DOCKED: USER    (2) Final Total Internal Energy     =  -1.36 kcal/mol
DOCKED: USER    (3) Torsional Free Energy           =  +1.49 kcal/mol
DOCKED: USER    (4) Unbound System's Energy         =  -1.36 kcal/mol
DOCKED: USER
DOCKED: USER
DOCKED: REMARK  5 active torsions:
DOCKED: REMARK  status: ('A' for Active; 'I' for Inactive)
DOCKED: REMARK    1  A    between atoms: C_2  and  C_19 
DOCKED: REMARK    2  A    between atoms: C_2  and  C_11 
DOCKED: REMARK    3  A    between atoms: C_19  and  C_20 
DOCKED: REMARK    4  A    between atoms: C_20  and  C_21 
DOCKED: REMARK    5  A    between atoms: C_21  and  N_22 
DOCKED: USER                              x       y       z     vdW  Elec       q    Type
DOCKED: USER                           _______ _______ _______ _____ _____    ______ ____
DOCKED: ROOT
DOCKED: ATOM      1  O   UNL     1     -45.364 -28.892   1.560 +0.01 -0.00    -0.346 OA 
DOCKED: ATOM      2  C   UNL     1     -46.519 -29.569   0.969 -0.14 +0.00    +0.130 C  
DOCKED: ATOM      3  C   UNL     1     -46.470 -30.947   1.563 -0.23 +0.00    +0.004 A  
DOCKED: ATOM      4  C   UNL     1     -45.445 -31.018   2.495 -0.14 +0.00    +0.006 A  
DOCKED: ATOM      5  C   UNL     1     -44.762 -29.709   2.592 -0.04 +0.00    +0.169 C  
DOCKED: ATOM      6  C   UNL     1     -47.276 -32.047   1.307 -0.25 -0.00    -0.001 A  
DOCKED: ATOM      7  C   UNL     1     -45.188 -32.184   3.197 -0.19 +0.00    +0.008 A  
DOCKED: ATOM      8  C   UNL     1     -47.027 -33.231   2.003 -0.22 +0.00    +0.010 A  
DOCKED: ATOM      9  C   UNL     1     -45.988 -33.299   2.943 -0.25 +0.00    +0.068 A  
DOCKED: ATOM     10  N   UNL     1     -45.556 -35.511   4.221 -1.99 -0.00    -0.191 NA 
DOCKED: ATOM     11  C   UNL     1     -45.749 -34.519   3.648 -0.30 +0.00    +0.101 C  
DOCKED: ENDROOT
DOCKED: BRANCH   2  12
DOCKED: ATOM     12  C   UNL     1     -47.778 -28.801   1.354 -0.21 +0.00    +0.038 C  
DOCKED: BRANCH  12  13
DOCKED: ATOM     13  C   UNL     1     -47.975 -28.778   2.869 -0.18 +0.00    +0.038 C  
DOCKED: BRANCH  13  14
DOCKED: ATOM     14  C   UNL     1     -47.990 -27.345   3.399 -0.06 +0.00    +0.251 C  
DOCKED: BRANCH  14  15
DOCKED: ATOM     15  N   UNL     1     -47.029 -27.196   4.485 -0.03 +0.00    +0.141 N  
DOCKED: ATOM     16  C   UNL     1     -46.837 -28.469   5.182 -0.06 +0.00    +0.285 C  
DOCKED: ATOM     17  C   UNL     1     -45.750 -26.698   3.977 -0.01 +0.00    +0.285 C  
DOCKED: ENDBRANCH  14  15
DOCKED: ENDBRANCH  13  14
DOCKED: ENDBRANCH  12  13
DOCKED: ENDBRANCH   2  12
DOCKED: BRANCH   2  18
DOCKED: ATOM     18  C   UNL     1     -46.317 -29.566  -0.509 -0.16 +0.00    +0.006 A  
DOCKED: ATOM     19  C   UNL     1     -45.252 -30.271  -1.069 -0.12 +0.00    +0.001 A  
DOCKED: ATOM     20  C   UNL     1     -45.064 -30.267  -2.451 -0.13 +0.00    +0.029 A  
DOCKED: ATOM     21  C   UNL     1     -45.941 -29.558  -3.272 -0.16 +0.00    +0.140 A  
DOCKED: ATOM     22  C   UNL     1     -47.005 -28.853  -2.712 -0.23 +0.00    +0.029 A  
DOCKED: ATOM     23  F   UNL     1     -45.761 -29.555  -4.599 -0.03 -0.00    -0.204 F  
DOCKED: ATOM     24  C   UNL     1     -47.194 -28.856  -1.329 -0.19 +0.00    +0.001 A  
DOCKED: ENDBRANCH   2  18
DOCKED: TORSDOF 5
DOCKED: TER
DOCKED: ENDMDL
________________________________________________________________________________


    FINAL DOCKED STATE:
    ________________________


Run:   319 / 512
Time taken for this run:   0.001s

DOCKED: MODEL        319
DOCKED: USER    Run = 319
DOCKED: USER
DOCKED: USER    Estimated Free Energy of Binding    =  -4.10 kcal/mol  [=(1)+(2)+(3)-(4)]
DOCKED: USER
DOCKED: USER    (1) Final Intermolecular Energy     =  -5.59 kcal/mol
DOCKED: USER        vdW + Hbond + desolv Energy     =  -5.59 kcal/mol
DOCKED: USER        Electrostatic Energy            =  +0.00 kcal/mol
DOCKED: USER        Moving Ligand-Fixed Receptor    =  -5.59 kcal/mol
DOCKED: USER        Moving Ligand-Moving Receptor   =  +0.00 kcal/mol
DOCKED: USER    (2) Final Total Internal Energy     =  -1.28 kcal/mol
DOCKED: USER    (3) Torsional Free Energy           =  +1.49 kcal/mol
DOCKED: USER    (4) Unbound System's Energy         =  -1.28 kcal/mol
DOCKED: USER
DOCKED: USER
DOCKED: REMARK  5 active torsions:
DOCKED: REMARK  status: ('A' for Active; 'I' for Inactive)
DOCKED: REMARK    1  A    between atoms: C_2  and  C_19 
DOCKED: REMARK    2  A    between atoms: C_2  and  C_11 
DOCKED: REMARK    3  A    between atoms: C_19  and  C_20 
DOCKED: REMARK    4  A    between atoms: C_20  and  C_21 
DOCKED: REMARK    5  A    between atoms: C_21  and  N_22 
DOCKED: USER                              x       y       z     vdW  Elec       q    Type
DOCKED: USER                           _______ _______ _______ _____ _____    ______ ____
DOCKED: ROOT
DOCKED: ATOM      1  O   UNL     1     -52.076 -31.006   9.219 -0.01 -0.00    -0.346 OA 
DOCKED: ATOM      2  C   UNL     1     -51.133 -32.106   9.017 -0.12 +0.00    +0.130 C  
DOCKED: ATOM      3  C   UNL     1     -51.500 -32.652   7.667 -0.25 +0.00    +0.004 A  
DOCKED: ATOM      4  C   UNL     1     -52.492 -31.864   7.100 -0.24 +0.00    +0.006 A  
DOCKED: ATOM      5  C   UNL     1     -52.835 -30.752   8.014 -0.10 +0.00    +0.169 C  
DOCKED: ATOM      6  C   UNL     1     -50.990 -33.750   6.991 -0.35 -0.00    -0.001 A  
DOCKED: ATOM      7  C   UNL     1     -53.008 -32.147   5.847 -0.32 +0.00    +0.008 A  
DOCKED: ATOM      8  C   UNL     1     -51.503 -34.051   5.728 -0.26 +0.00    +0.010 A  
DOCKED: ATOM      9  C   UNL     1     -52.507 -33.254   5.159 -0.35 +0.00    +0.068 A  
DOCKED: ATOM     10  N   UNL     1     -53.433 -33.838   2.811 -1.68 -0.00    -0.191 NA 
DOCKED: ATOM     11  C   UNL     1     -53.018 -33.576   3.865 -0.50 +0.00    +0.101 C  
DOCKED: ENDROOT
DOCKED: BRANCH   2  12
DOCKED: ATOM     12  C   UNL     1     -49.717 -31.543   9.064 -0.15 +0.00    +0.038 C  
DOCKED: BRANCH  12  13
DOCKED: ATOM     13  C   UNL     1     -49.376 -30.787   7.782 -0.11 +0.00    +0.038 C  
DOCKED: BRANCH  13  14
DOCKED: ATOM     14  C   UNL     1     -49.396 -29.277   8.013 -0.07 +0.00    +0.251 C  
DOCKED: BRANCH  14  15
DOCKED: ATOM     15  N   UNL     1     -49.649 -28.575   6.759 -0.11 +0.00    +0.141 N  
DOCKED: ATOM     16  C   UNL     1     -48.818 -29.122   5.686 -0.03 +0.00    +0.285 C  
DOCKED: ATOM     17  C   UNL     1     -51.065 -28.659   6.398 -0.09 +0.00    +0.285 C  
DOCKED: ENDBRANCH  14  15
DOCKED: ENDBRANCH  13  14
DOCKED: ENDBRANCH  12  13
DOCKED: ENDBRANCH   2  12
DOCKED: BRANCH   2  18
DOCKED: ATOM     18  C   UNL     1     -51.360 -33.084  10.121 -0.14 +0.00    +0.006 A  
DOCKED: ATOM     19  C   UNL     1     -52.472 -33.925  10.089 -0.19 +0.00    +0.001 A  
DOCKED: ATOM     20  C   UNL     1     -52.683 -34.839  11.123 -0.04 +0.00    +0.029 A  
DOCKED: ATOM     21  C   UNL     1     -51.783 -34.911  12.185 -0.17 +0.00    +0.140 A  
DOCKED: ATOM     22  C   UNL     1     -50.671 -34.070  12.215 -0.15 +0.00    +0.029 A  
DOCKED: ATOM     23  F   UNL     1     -51.985 -35.790  13.175 -0.05 -0.00    -0.204 F  
DOCKED: ATOM     24  C   UNL     1     -50.459 -33.155  11.183 -0.13 +0.00    +0.001 A  
DOCKED: ENDBRANCH   2  18
DOCKED: TORSDOF 5
DOCKED: TER
DOCKED: ENDMDL
________________________________________________________________________________


    FINAL DOCKED STATE:
    ________________________


Run:   320 / 512
Time taken for this run:   0.001s

DOCKED: MODEL        320
DOCKED: USER    Run = 320
DOCKED: USER
DOCKED: USER    Estimated Free Energy of Binding    =  -4.15 kcal/mol  [=(1)+(2)+(3)-(4)]
DOCKED: USER
DOCKED: USER    (1) Final Intermolecular Energy     =  -5.65 kcal/mol
DOCKED: USER        vdW + Hbond + desolv Energy     =  -5.65 kcal/mol
DOCKED: USER        Electrostatic Energy            =  +0.00 kcal/mol
DOCKED: USER        Moving Ligand-Fixed Receptor    =  -5.65 kcal/mol
DOCKED: USER        Moving Ligand-Moving Receptor   =  +0.00 kcal/mol
DOCKED: USER    (2) Final Total Internal Energy     =  -1.04 kcal/mol
DOCKED: USER    (3) Torsional Free Energy           =  +1.49 kcal/mol
DOCKED: USER    (4) Unbound System's Energy         =  -1.04 kcal/mol
DOCKED: USER
DOCKED: USER
DOCKED: REMARK  5 active torsions:
DOCKED: REMARK  status: ('A' for Active; 'I' for Inactive)
DOCKED: REMARK    1  A    between atoms: C_2  and  C_19 
DOCKED: REMARK    2  A    between atoms: C_2  and  C_11 
DOCKED: REMARK    3  A    between atoms: C_19  and  C_20 
DOCKED: REMARK    4  A    between atoms: C_20  and  C_21 
DOCKED: REMARK    5  A    between atoms: C_21  and  N_22 
DOCKED: USER                              x       y       z     vdW  Elec       q    Type
DOCKED: USER                           _______ _______ _______ _____ _____    ______ ____
DOCKED: ROOT
DOCKED: ATOM      1  O   UNL     1     -55.456 -29.055   7.654 -0.06 -0.00    -0.346 OA 
DOCKED: ATOM      2  C   UNL     1     -54.038 -28.966   7.302 -0.19 +0.00    +0.130 C  
DOCKED: ATOM      3  C   UNL     1     -53.692 -30.355   6.851 -0.23 +0.00    +0.004 A  
DOCKED: ATOM      4  C   UNL     1     -54.835 -31.141   6.840 -0.22 +0.00    +0.006 A  
DOCKED: ATOM      5  C   UNL     1     -56.003 -30.336   7.264 -0.18 +0.00    +0.169 C  
DOCKED: ATOM      6  C   UNL     1     -52.465 -30.878   6.471 -0.27 -0.00    -0.001 A  
DOCKED: ATOM      7  C   UNL     1     -54.792 -32.470   6.455 -0.25 +0.00    +0.008 A  
DOCKED: ATOM      8  C   UNL     1     -52.404 -32.218   6.083 -0.34 +0.00    +0.010 A  
DOCKED: ATOM      9  C   UNL     1     -53.562 -33.010   6.075 -0.26 +0.00    +0.068 A  
DOCKED: ATOM     10  N   UNL     1     -53.415 -35.492   5.346 -2.61 -0.00    -0.191 NA 
DOCKED: ATOM     11  C   UNL     1     -53.481 -34.379   5.674 -0.37 +0.00    +0.101 C  
DOCKED: ENDROOT
DOCKED: BRANCH   2  12
DOCKED: ATOM     12  C   UNL     1     -53.879 -27.927   6.199 -0.16 +0.00    +0.038 C  
DOCKED: BRANCH  12  13
DOCKED: ATOM     13  C   UNL     1     -52.432 -27.450   6.088 -0.15 +0.00    +0.038 C  
DOCKED: BRANCH  13  14
DOCKED: ATOM     14  C   UNL     1     -52.345 -26.135   5.315 -0.11 +0.00    +0.251 C  
DOCKED: BRANCH  14  15
DOCKED: ATOM     15  N   UNL     1     -51.177 -25.373   5.740 -0.06 +0.00    +0.141 N  
DOCKED: ATOM     16  C   UNL     1     -51.427 -23.936   5.621 -0.02 +0.00    +0.285 C  
DOCKED: ATOM     17  C   UNL     1     -50.813 -25.712   7.117 -0.02 +0.00    +0.285 C  
DOCKED: ENDBRANCH  14  15
DOCKED: ENDBRANCH  13  14
DOCKED: ENDBRANCH  12  13
DOCKED: ENDBRANCH   2  12
DOCKED: BRANCH   2  18
DOCKED: ATOM     18  C   UNL     1     -53.308 -28.556   8.537 -0.06 +0.00    +0.006 A  
DOCKED: ATOM     19  C   UNL     1     -53.538 -27.301   9.099 -0.03 +0.00    +0.001 A  
DOCKED: ATOM     20  C   UNL     1     -52.854 -26.919  10.254 -0.01 +0.00    +0.029 A  
DOCKED: ATOM     21  C   UNL     1     -51.942 -27.792  10.845 -0.00 +0.00    +0.140 A  
DOCKED: ATOM     22  C   UNL     1     -51.712 -29.047  10.282 -0.01 +0.00    +0.029 A  
DOCKED: ATOM     23  F   UNL     1     -51.287 -27.425  11.954 +0.00 -0.00    -0.204 F  
DOCKED: ATOM     24  C   UNL     1     -52.395 -29.430   9.127 -0.04 +0.00    +0.001 A  
DOCKED: ENDBRANCH   2  18
DOCKED: TORSDOF 5
DOCKED: TER
DOCKED: ENDMDL
________________________________________________________________________________


    FINAL DOCKED STATE:
    ________________________


Run:   321 / 512
Time taken for this run:   0.001s

DOCKED: MODEL        321
DOCKED: USER    Run = 321
DOCKED: USER
DOCKED: USER    Estimated Free Energy of Binding    =  -5.42 kcal/mol  [=(1)+(2)+(3)-(4)]
DOCKED: USER
DOCKED: USER    (1) Final Intermolecular Energy     =  -6.92 kcal/mol
DOCKED: USER        vdW + Hbond + desolv Energy     =  -6.92 kcal/mol
DOCKED: USER        Electrostatic Energy            =  +0.00 kcal/mol
DOCKED: USER        Moving Ligand-Fixed Receptor    =  -6.92 kcal/mol
DOCKED: USER        Moving Ligand-Moving Receptor   =  +0.00 kcal/mol
DOCKED: USER    (2) Final Total Internal Energy     =  -1.05 kcal/mol
DOCKED: USER    (3) Torsional Free Energy           =  +1.49 kcal/mol
DOCKED: USER    (4) Unbound System's Energy         =  -1.05 kcal/mol
DOCKED: USER
DOCKED: USER
DOCKED: REMARK  5 active torsions:
DOCKED: REMARK  status: ('A' for Active; 'I' for Inactive)
DOCKED: REMARK    1  A    between atoms: C_2  and  C_19 
DOCKED: REMARK    2  A    between atoms: C_2  and  C_11 
DOCKED: REMARK    3  A    between atoms: C_19  and  C_20 
DOCKED: REMARK    4  A    between atoms: C_20  and  C_21 
DOCKED: REMARK    5  A    between atoms: C_21  and  N_22 
DOCKED: USER                              x       y       z     vdW  Elec       q    Type
DOCKED: USER                           _______ _______ _______ _____ _____    ______ ____
DOCKED: ROOT
DOCKED: ATOM      1  O   UNL     1     -50.773 -34.301   8.371 -0.10 -0.00    -0.346 OA 
DOCKED: ATOM      2  C   UNL     1     -51.322 -32.955   8.203 -0.21 +0.00    +0.130 C  
DOCKED: ATOM      3  C   UNL     1     -51.912 -32.977   6.822 -0.32 +0.00    +0.004 A  
DOCKED: ATOM      4  C   UNL     1     -51.809 -34.254   6.291 -0.40 +0.00    +0.006 A  
DOCKED: ATOM      5  C   UNL     1     -51.165 -35.156   7.272 -0.17 +0.00    +0.169 C  
DOCKED: ATOM      6  C   UNL     1     -52.503 -31.951   6.100 -0.33 -0.00    -0.001 A  
DOCKED: ATOM      7  C   UNL     1     -52.286 -34.549   5.025 -0.47 +0.00    +0.008 A  
DOCKED: ATOM      8  C   UNL     1     -52.985 -32.231   4.820 +0.02 +0.00    +0.010 A  
DOCKED: ATOM      9  C   UNL     1     -52.877 -33.523   4.286 -0.41 +0.00    +0.068 A  
DOCKED: ATOM     10  N   UNL     1     -53.786 -34.010   1.909 -2.63 -0.00    -0.191 NA 
DOCKED: ATOM     11  C   UNL     1     -53.378 -33.792   2.974 -0.48 +0.00    +0.101 C  
DOCKED: ENDROOT
DOCKED: BRANCH   2  12
DOCKED: ATOM     12  C   UNL     1     -52.364 -32.719   9.290 -0.13 +0.00    +0.038 C  
DOCKED: BRANCH  12  13
DOCKED: ATOM     13  C   UNL     1     -51.907 -33.289  10.631 -0.15 +0.00    +0.038 C  
DOCKED: BRANCH  13  14
DOCKED: ATOM     14  C   UNL     1     -52.653 -34.581  10.962 -0.09 +0.00    +0.251 C  
DOCKED: BRANCH  14  15
DOCKED: ATOM     15  N   UNL     1     -53.477 -34.400  12.151 -0.11 +0.00    +0.141 N  
DOCKED: ATOM     16  C   UNL     1     -54.651 -35.273  12.103 -0.07 +0.00    +0.285 C  
DOCKED: ATOM     17  C   UNL     1     -52.698 -34.664  13.363 -0.07 +0.00    +0.285 C  
DOCKED: ENDBRANCH  14  15
DOCKED: ENDBRANCH  13  14
DOCKED: ENDBRANCH  12  13
DOCKED: ENDBRANCH   2  12
DOCKED: BRANCH   2  18
DOCKED: ATOM     18  C   UNL     1     -50.182 -32.000   8.333 -0.20 +0.00    +0.006 A  
DOCKED: ATOM     19  C   UNL     1     -50.429 -30.633   8.455 -0.12 +0.00    +0.001 A  
DOCKED: ATOM     20  C   UNL     1     -49.363 -29.742   8.576 -0.08 +0.00    +0.029 A  
DOCKED: ATOM     21  C   UNL     1     -48.052 -30.217   8.576 -0.07 +0.00    +0.140 A  
DOCKED: ATOM     22  C   UNL     1     -47.806 -31.585   8.454 -0.14 +0.00    +0.029 A  
DOCKED: ATOM     23  F   UNL     1     -47.029 -29.361   8.694 -0.00 -0.00    -0.204 F  
DOCKED: ATOM     24  C   UNL     1     -48.872 -32.478   8.332 -0.19 +0.00    +0.001 A  
DOCKED: ENDBRANCH   2  18
DOCKED: TORSDOF 5
DOCKED: TER
DOCKED: ENDMDL
________________________________________________________________________________


    FINAL DOCKED STATE:
    ________________________


Run:   322 / 512
Time taken for this run:   0.001s

DOCKED: MODEL        322
DOCKED: USER    Run = 322
DOCKED: USER
DOCKED: USER    Estimated Free Energy of Binding    =  -3.76 kcal/mol  [=(1)+(2)+(3)-(4)]
DOCKED: USER
DOCKED: USER    (1) Final Intermolecular Energy     =  -5.25 kcal/mol
DOCKED: USER        vdW + Hbond + desolv Energy     =  -5.25 kcal/mol
DOCKED: USER        Electrostatic Energy            =  +0.00 kcal/mol
DOCKED: USER        Moving Ligand-Fixed Receptor    =  -5.25 kcal/mol
DOCKED: USER        Moving Ligand-Moving Receptor   =  +0.00 kcal/mol
DOCKED: USER    (2) Final Total Internal Energy     =  -1.28 kcal/mol
DOCKED: USER    (3) Torsional Free Energy           =  +1.49 kcal/mol
DOCKED: USER    (4) Unbound System's Energy         =  -1.28 kcal/mol
DOCKED: USER
DOCKED: USER
DOCKED: REMARK  5 active torsions:
DOCKED: REMARK  status: ('A' for Active; 'I' for Inactive)
DOCKED: REMARK    1  A    between atoms: C_2  and  C_19 
DOCKED: REMARK    2  A    between atoms: C_2  and  C_11 
DOCKED: REMARK    3  A    between atoms: C_19  and  C_20 
DOCKED: REMARK    4  A    between atoms: C_20  and  C_21 
DOCKED: REMARK    5  A    between atoms: C_21  and  N_22 
DOCKED: USER                              x       y       z     vdW  Elec       q    Type
DOCKED: USER                           _______ _______ _______ _____ _____    ______ ____
DOCKED: ROOT
DOCKED: ATOM      1  O   UNL     1     -47.598 -24.853   0.529 -0.05 -0.00    -0.346 OA 
DOCKED: ATOM      2  C   UNL     1     -48.984 -24.926   0.067 -0.22 +0.00    +0.130 C  
DOCKED: ATOM      3  C   UNL     1     -49.012 -24.020  -1.130 -0.21 +0.00    +0.004 A  
DOCKED: ATOM      4  C   UNL     1     -47.731 -23.557  -1.395 -0.17 +0.00    +0.006 A  
DOCKED: ATOM      5  C   UNL     1     -46.779 -24.126  -0.415 -0.11 +0.00    +0.169 C  
DOCKED: ATOM      6  C   UNL     1     -50.084 -23.644  -1.927 -0.29 -0.00    -0.001 A  
DOCKED: ATOM      7  C   UNL     1     -47.478 -22.705  -2.456 -0.19 +0.00    +0.008 A  
DOCKED: ATOM      8  C   UNL     1     -49.846 -22.782  -2.998 -0.43 +0.00    +0.010 A  
DOCKED: ATOM      9  C   UNL     1     -48.549 -22.315  -3.262 -0.29 +0.00    +0.068 A  
DOCKED: ATOM     10  N   UNL     1     -48.141 -20.719  -5.262 -0.77 -0.00    -0.191 NA 
DOCKED: ATOM     11  C   UNL     1     -48.324 -21.434  -4.364 -0.32 +0.00    +0.101 C  
DOCKED: ENDROOT
DOCKED: BRANCH   2  12
DOCKED: ATOM     12  C   UNL     1     -49.303 -26.376  -0.279 -0.23 +0.00    +0.038 C  
DOCKED: BRANCH  12  13
DOCKED: ATOM     13  C   UNL     1     -48.063 -27.261  -0.164 -0.18 +0.00    +0.038 C  
DOCKED: BRANCH  13  14
DOCKED: ATOM     14  C   UNL     1     -48.269 -28.362   0.874 -0.16 +0.00    +0.251 C  
DOCKED: BRANCH  14  15
DOCKED: ATOM     15  N   UNL     1     -47.920 -27.877   2.204 -0.09 +0.00    +0.141 N  
DOCKED: ATOM     16  C   UNL     1     -48.470 -28.759   3.235 -0.11 +0.00    +0.285 C  
DOCKED: ATOM     17  C   UNL     1     -46.467 -27.771   2.350 -0.02 +0.00    +0.285 C  
DOCKED: ENDBRANCH  14  15
DOCKED: ENDBRANCH  13  14
DOCKED: ENDBRANCH  12  13
DOCKED: ENDBRANCH   2  12
DOCKED: BRANCH   2  18
DOCKED: ATOM     18  C   UNL     1     -49.843 -24.438   1.186 -0.26 +0.00    +0.006 A  
DOCKED: ATOM     19  C   UNL     1     -51.211 -24.258   0.986 -0.29 +0.00    +0.001 A  
DOCKED: ATOM     20  C   UNL     1     -52.013 -23.801   2.033 -0.30 +0.00    +0.029 A  
DOCKED: ATOM     21  C   UNL     1     -51.447 -23.527   3.277 -0.17 +0.00    +0.140 A  
DOCKED: ATOM     22  C   UNL     1     -50.079 -23.709   3.476 -0.19 +0.00    +0.029 A  
DOCKED: ATOM     23  F   UNL     1     -52.217 -23.091   4.282 -0.00 -0.00    -0.204 F  
DOCKED: ATOM     24  C   UNL     1     -49.275 -24.165   2.429 -0.21 +0.00    +0.001 A  
DOCKED: ENDBRANCH   2  18
DOCKED: TORSDOF 5
DOCKED: TER
DOCKED: ENDMDL
________________________________________________________________________________


    FINAL DOCKED STATE:
    ________________________


Run:   323 / 512
Time taken for this run:   0.001s

DOCKED: MODEL        323
DOCKED: USER    Run = 323
DOCKED: USER
DOCKED: USER    Estimated Free Energy of Binding    =  -3.78 kcal/mol  [=(1)+(2)+(3)-(4)]
DOCKED: USER
DOCKED: USER    (1) Final Intermolecular Energy     =  -5.27 kcal/mol
DOCKED: USER        vdW + Hbond + desolv Energy     =  -5.27 kcal/mol
DOCKED: USER        Electrostatic Energy            =  +0.00 kcal/mol
DOCKED: USER        Moving Ligand-Fixed Receptor    =  -5.27 kcal/mol
DOCKED: USER        Moving Ligand-Moving Receptor   =  +0.00 kcal/mol
DOCKED: USER    (2) Final Total Internal Energy     =  -1.42 kcal/mol
DOCKED: USER    (3) Torsional Free Energy           =  +1.49 kcal/mol
DOCKED: USER    (4) Unbound System's Energy         =  -1.42 kcal/mol
DOCKED: USER
DOCKED: USER
DOCKED: REMARK  5 active torsions:
DOCKED: REMARK  status: ('A' for Active; 'I' for Inactive)
DOCKED: REMARK    1  A    between atoms: C_2  and  C_19 
DOCKED: REMARK    2  A    between atoms: C_2  and  C_11 
DOCKED: REMARK    3  A    between atoms: C_19  and  C_20 
DOCKED: REMARK    4  A    between atoms: C_20  and  C_21 
DOCKED: REMARK    5  A    between atoms: C_21  and  N_22 
DOCKED: USER                              x       y       z     vdW  Elec       q    Type
DOCKED: USER                           _______ _______ _______ _____ _____    ______ ____
DOCKED: ROOT
DOCKED: ATOM      1  O   UNL     1     -50.489 -30.571   9.523 -0.01 -0.00    -0.346 OA 
DOCKED: ATOM      2  C   UNL     1     -50.640 -29.961   8.201 -0.10 +0.00    +0.130 C  
DOCKED: ATOM      3  C   UNL     1     -51.318 -31.027   7.389 -0.21 +0.00    +0.004 A  
DOCKED: ATOM      4  C   UNL     1     -51.628 -32.107   8.202 -0.17 +0.00    +0.006 A  
DOCKED: ATOM      5  C   UNL     1     -51.195 -31.831   9.590 -0.07 +0.00    +0.169 C  
DOCKED: ATOM      6  C   UNL     1     -51.644 -31.034   6.040 -0.22 -0.00    -0.001 A  
DOCKED: ATOM      7  C   UNL     1     -52.267 -33.228   7.699 -0.24 +0.00    +0.008 A  
DOCKED: ATOM      8  C   UNL     1     -52.285 -32.158   5.517 -0.33 +0.00    +0.010 A  
DOCKED: ATOM      9  C   UNL     1     -52.595 -33.249   6.343 -0.29 +0.00    +0.068 A  
DOCKED: ATOM     10  N   UNL     1     -53.789 -35.319   5.341 -2.55 -0.00    -0.191 NA 
DOCKED: ATOM     11  C   UNL     1     -53.253 -34.391   5.790 -0.36 +0.00    +0.101 C  
DOCKED: ENDROOT
DOCKED: BRANCH   2  12
DOCKED: ATOM     12  C   UNL     1     -51.481 -28.699   8.344 -0.07 +0.00    +0.038 C  
DOCKED: BRANCH  12  13
DOCKED: ATOM     13  C   UNL     1     -52.511 -28.840   9.463 -0.03 +0.00    +0.038 C  
DOCKED: BRANCH  13  14
DOCKED: ATOM     14  C   UNL     1     -51.993 -28.234  10.766 -0.00 +0.00    +0.251 C  
DOCKED: BRANCH  14  15
DOCKED: ATOM     15  N   UNL     1     -50.668 -27.659  10.567 -0.00 +0.00    +0.141 N  
DOCKED: ATOM     16  C   UNL     1     -50.664 -26.238  10.917 +0.00 +0.00    +0.285 C  
DOCKED: ATOM     17  C   UNL     1     -49.669 -28.380  11.358 -0.00 +0.00    +0.285 C  
DOCKED: ENDBRANCH  14  15
DOCKED: ENDBRANCH  13  14
DOCKED: ENDBRANCH  12  13
DOCKED: ENDBRANCH   2  12
DOCKED: BRANCH   2  18
DOCKED: ATOM     18  C   UNL     1     -49.268 -29.641   7.710 -0.12 +0.00    +0.006 A  
DOCKED: ATOM     19  C   UNL     1     -49.098 -28.757   6.644 -0.13 +0.00    +0.001 A  
DOCKED: ATOM     20  C   UNL     1     -47.814 -28.459   6.186 -0.10 +0.00    +0.029 A  
DOCKED: ATOM     21  C   UNL     1     -46.703 -29.043   6.793 -0.06 +0.00    +0.140 A  
DOCKED: ATOM     22  C   UNL     1     -46.874 -29.926   7.859 -0.08 +0.00    +0.029 A  
DOCKED: ATOM     23  F   UNL     1     -45.471 -28.754   6.354 -0.01 -0.00    -0.204 F  
DOCKED: ATOM     24  C   UNL     1     -48.158 -30.225   8.318 -0.10 +0.00    +0.001 A  
DOCKED: ENDBRANCH   2  18
DOCKED: TORSDOF 5
DOCKED: TER
DOCKED: ENDMDL
________________________________________________________________________________


    FINAL DOCKED STATE:
    ________________________


Run:   324 / 512
Time taken for this run:   0.001s

DOCKED: MODEL        324
DOCKED: USER    Run = 324
DOCKED: USER
DOCKED: USER    Estimated Free Energy of Binding    =  -4.72 kcal/mol  [=(1)+(2)+(3)-(4)]
DOCKED: USER
DOCKED: USER    (1) Final Intermolecular Energy     =  -6.21 kcal/mol
DOCKED: USER        vdW + Hbond + desolv Energy     =  -6.21 kcal/mol
DOCKED: USER        Electrostatic Energy            =  +0.00 kcal/mol
DOCKED: USER        Moving Ligand-Fixed Receptor    =  -6.21 kcal/mol
DOCKED: USER        Moving Ligand-Moving Receptor   =  +0.00 kcal/mol
DOCKED: USER    (2) Final Total Internal Energy     =  -1.17 kcal/mol
DOCKED: USER    (3) Torsional Free Energy           =  +1.49 kcal/mol
DOCKED: USER    (4) Unbound System's Energy         =  -1.17 kcal/mol
DOCKED: USER
DOCKED: USER
DOCKED: REMARK  5 active torsions:
DOCKED: REMARK  status: ('A' for Active; 'I' for Inactive)
DOCKED: REMARK    1  A    between atoms: C_2  and  C_19 
DOCKED: REMARK    2  A    between atoms: C_2  and  C_11 
DOCKED: REMARK    3  A    between atoms: C_19  and  C_20 
DOCKED: REMARK    4  A    between atoms: C_20  and  C_21 
DOCKED: REMARK    5  A    between atoms: C_21  and  N_22 
DOCKED: USER                              x       y       z     vdW  Elec       q    Type
DOCKED: USER                           _______ _______ _______ _____ _____    ______ ____
DOCKED: ROOT
DOCKED: ATOM      1  O   UNL     1     -53.835 -33.450   8.586 -0.03 -0.00    -0.346 OA 
DOCKED: ATOM      2  C   UNL     1     -53.028 -32.389   7.981 -0.13 +0.00    +0.130 C  
DOCKED: ATOM      3  C   UNL     1     -53.093 -32.681   6.510 -0.28 +0.00    +0.004 A  
DOCKED: ATOM      4  C   UNL     1     -53.951 -33.748   6.284 -0.30 +0.00    +0.006 A  
DOCKED: ATOM      5  C   UNL     1     -54.515 -34.221   7.568 -0.16 +0.00    +0.169 C  
DOCKED: ATOM      6  C   UNL     1     -52.453 -32.047   5.456 -0.32 -0.00    -0.001 A  
DOCKED: ATOM      7  C   UNL     1     -54.195 -34.218   5.004 -0.40 +0.00    +0.008 A  
DOCKED: ATOM      8  C   UNL     1     -52.685 -32.511   4.160 -0.20 +0.00    +0.010 A  
DOCKED: ATOM      9  C   UNL     1     -53.552 -33.591   3.936 -0.41 +0.00    +0.068 A  
DOCKED: ATOM     10  N   UNL     1     -53.964 -34.426   1.518 -2.69 -0.00    -0.191 NA 
DOCKED: ATOM     11  C   UNL     1     -53.779 -34.052   2.602 -0.30 +0.00    +0.101 C  
DOCKED: ENDROOT
DOCKED: BRANCH   2  12
DOCKED: ATOM     12  C   UNL     1     -53.646 -31.045   8.347 -0.11 +0.00    +0.038 C  
DOCKED: BRANCH  12  13
DOCKED: ATOM     13  C   UNL     1     -52.687 -30.200   9.184 -0.06 +0.00    +0.038 C  
DOCKED: BRANCH  13  14
DOCKED: ATOM     14  C   UNL     1     -53.100 -30.195  10.655 -0.00 +0.00    +0.251 C  
DOCKED: BRANCH  14  15
DOCKED: ATOM     15  N   UNL     1     -51.973 -30.574  11.499 -0.01 +0.00    +0.141 N  
DOCKED: ATOM     16  C   UNL     1     -50.917 -29.563  11.435 -0.00 +0.00    +0.285 C  
DOCKED: ATOM     17  C   UNL     1     -52.408 -30.767  12.883 -0.00 +0.00    +0.285 C  
DOCKED: ENDBRANCH  14  15
DOCKED: ENDBRANCH  13  14
DOCKED: ENDBRANCH  12  13
DOCKED: ENDBRANCH   2  12
DOCKED: BRANCH   2  18
DOCKED: ATOM     18  C   UNL     1     -51.650 -32.518   8.539 -0.17 +0.00    +0.006 A  
DOCKED: ATOM     19  C   UNL     1     -50.561 -32.016   7.828 -0.22 +0.00    +0.001 A  
DOCKED: ATOM     20  C   UNL     1     -49.272 -32.137   8.351 -0.19 +0.00    +0.029 A  
DOCKED: ATOM     21  C   UNL     1     -49.076 -32.759   9.583 -0.00 +0.00    +0.140 A  
DOCKED: ATOM     22  C   UNL     1     -50.166 -33.260  10.294 -0.06 +0.00    +0.029 A  
DOCKED: ATOM     23  F   UNL     1     -47.840 -32.874  10.086 -0.03 -0.00    -0.204 F  
DOCKED: ATOM     24  C   UNL     1     -51.455 -33.140   9.772 -0.15 +0.00    +0.001 A  
DOCKED: ENDBRANCH   2  18
DOCKED: TORSDOF 5
DOCKED: TER
DOCKED: ENDMDL
________________________________________________________________________________


    FINAL DOCKED STATE:
    ________________________


Run:   325 / 512
Time taken for this run:   0.001s

DOCKED: MODEL        325
DOCKED: USER    Run = 325
DOCKED: USER
DOCKED: USER    Estimated Free Energy of Binding    =  -4.34 kcal/mol  [=(1)+(2)+(3)-(4)]
DOCKED: USER
DOCKED: USER    (1) Final Intermolecular Energy     =  -5.83 kcal/mol
DOCKED: USER        vdW + Hbond + desolv Energy     =  -5.83 kcal/mol
DOCKED: USER        Electrostatic Energy            =  +0.00 kcal/mol
DOCKED: USER        Moving Ligand-Fixed Receptor    =  -5.83 kcal/mol
DOCKED: USER        Moving Ligand-Moving Receptor   =  +0.00 kcal/mol
DOCKED: USER    (2) Final Total Internal Energy     =  -1.37 kcal/mol
DOCKED: USER    (3) Torsional Free Energy           =  +1.49 kcal/mol
DOCKED: USER    (4) Unbound System's Energy         =  -1.37 kcal/mol
DOCKED: USER
DOCKED: USER
DOCKED: REMARK  5 active torsions:
DOCKED: REMARK  status: ('A' for Active; 'I' for Inactive)
DOCKED: REMARK    1  A    between atoms: C_2  and  C_19 
DOCKED: REMARK    2  A    between atoms: C_2  and  C_11 
DOCKED: REMARK    3  A    between atoms: C_19  and  C_20 
DOCKED: REMARK    4  A    between atoms: C_20  and  C_21 
DOCKED: REMARK    5  A    between atoms: C_21  and  N_22 
DOCKED: USER                              x       y       z     vdW  Elec       q    Type
DOCKED: USER                           _______ _______ _______ _____ _____    ______ ____
DOCKED: ROOT
DOCKED: ATOM      1  O   UNL     1     -51.167 -28.687   6.618 -0.08 -0.00    -0.346 OA 
DOCKED: ATOM      2  C   UNL     1     -52.479 -28.764   7.262 -0.15 +0.00    +0.130 C  
DOCKED: ATOM      3  C   UNL     1     -52.960 -30.148   6.934 -0.22 +0.00    +0.004 A  
DOCKED: ATOM      4  C   UNL     1     -51.964 -30.840   6.258 -0.26 +0.00    +0.006 A  
DOCKED: ATOM      5  C   UNL     1     -50.770 -29.980   6.105 -0.08 +0.00    +0.169 C  
DOCKED: ATOM      6  C   UNL     1     -54.176 -30.751   7.221 -0.21 -0.00    -0.001 A  
DOCKED: ATOM      7  C   UNL     1     -52.150 -32.148   5.844 -0.33 +0.00    +0.008 A  
DOCKED: ATOM      8  C   UNL     1     -54.380 -32.068   6.806 -0.22 +0.00    +0.010 A  
DOCKED: ATOM      9  C   UNL     1     -53.371 -32.763   6.122 -0.26 +0.00    +0.068 A  
DOCKED: ATOM     10  N   UNL     1     -53.781 -35.209   5.371 -2.55 -0.00    -0.191 NA 
DOCKED: ATOM     11  C   UNL     1     -53.597 -34.112   5.707 -0.36 +0.00    +0.101 C  
DOCKED: ENDROOT
DOCKED: BRANCH   2  12
DOCKED: ATOM     12  C   UNL     1     -52.298 -28.538   8.758 -0.05 +0.00    +0.038 C  
DOCKED: BRANCH  12  13
DOCKED: ATOM     13  C   UNL     1     -50.846 -28.209   9.099 -0.03 +0.00    +0.038 C  
DOCKED: BRANCH  13  14
DOCKED: ATOM     14  C   UNL     1     -50.756 -26.960   9.974 -0.00 +0.00    +0.251 C  
DOCKED: BRANCH  14  15
DOCKED: ATOM     15  N   UNL     1     -50.474 -25.787   9.156 -0.00 +0.00    +0.141 N  
DOCKED: ATOM     16  C   UNL     1     -49.869 -26.179   7.882 -0.01 +0.00    +0.285 C  
DOCKED: ATOM     17  C   UNL     1     -51.695 -25.015   8.921 -0.00 +0.00    +0.285 C  
DOCKED: ENDBRANCH  14  15
DOCKED: ENDBRANCH  13  14
DOCKED: ENDBRANCH  12  13
DOCKED: ENDBRANCH   2  12
DOCKED: BRANCH   2  18
DOCKED: ATOM     18  C   UNL     1     -53.326 -27.696   6.655 -0.19 +0.00    +0.006 A  
DOCKED: ATOM     19  C   UNL     1     -52.752 -26.750   5.806 -0.15 +0.00    +0.001 A  
DOCKED: ATOM     20  C   UNL     1     -53.546 -25.751   5.240 -0.16 +0.00    +0.029 A  
DOCKED: ATOM     21  C   UNL     1     -54.910 -25.700   5.521 -0.11 +0.00    +0.140 A  
DOCKED: ATOM     22  C   UNL     1     -55.483 -26.647   6.370 -0.17 +0.00    +0.029 A  
DOCKED: ATOM     23  F   UNL     1     -55.671 -24.743   4.976 -0.02 -0.00    -0.204 F  
DOCKED: ATOM     24  C   UNL     1     -54.691 -27.646   6.938 -0.20 +0.00    +0.001 A  
DOCKED: ENDBRANCH   2  18
DOCKED: TORSDOF 5
DOCKED: TER
DOCKED: ENDMDL
________________________________________________________________________________


    FINAL DOCKED STATE:
    ________________________


Run:   326 / 512
Time taken for this run:   0.001s

DOCKED: MODEL        326
DOCKED: USER    Run = 326
DOCKED: USER
DOCKED: USER    Estimated Free Energy of Binding    =  -4.48 kcal/mol  [=(1)+(2)+(3)-(4)]
DOCKED: USER
DOCKED: USER    (1) Final Intermolecular Energy     =  -5.97 kcal/mol
DOCKED: USER        vdW + Hbond + desolv Energy     =  -5.97 kcal/mol
DOCKED: USER        Electrostatic Energy            =  +0.00 kcal/mol
DOCKED: USER        Moving Ligand-Fixed Receptor    =  -5.97 kcal/mol
DOCKED: USER        Moving Ligand-Moving Receptor   =  +0.00 kcal/mol
DOCKED: USER    (2) Final Total Internal Energy     =  -0.87 kcal/mol
DOCKED: USER    (3) Torsional Free Energy           =  +1.49 kcal/mol
DOCKED: USER    (4) Unbound System's Energy         =  -0.87 kcal/mol
DOCKED: USER
DOCKED: USER
DOCKED: REMARK  5 active torsions:
DOCKED: REMARK  status: ('A' for Active; 'I' for Inactive)
DOCKED: REMARK    1  A    between atoms: C_2  and  C_19 
DOCKED: REMARK    2  A    between atoms: C_2  and  C_11 
DOCKED: REMARK    3  A    between atoms: C_19  and  C_20 
DOCKED: REMARK    4  A    between atoms: C_20  and  C_21 
DOCKED: REMARK    5  A    between atoms: C_21  and  N_22 
DOCKED: USER                              x       y       z     vdW  Elec       q    Type
DOCKED: USER                           _______ _______ _______ _____ _____    ______ ____
DOCKED: ROOT
DOCKED: ATOM      1  O   UNL     1     -49.351 -30.479   8.383 -0.06 -0.00    -0.346 OA 
DOCKED: ATOM      2  C   UNL     1     -50.387 -29.796   7.608 -0.14 +0.00    +0.130 C  
DOCKED: ATOM      3  C   UNL     1     -51.175 -30.917   6.994 -0.24 +0.00    +0.004 A  
DOCKED: ATOM      4  C   UNL     1     -50.700 -32.133   7.465 -0.22 +0.00    +0.006 A  
DOCKED: ATOM      5  C   UNL     1     -49.591 -31.905   8.418 -0.16 +0.00    +0.169 C  
DOCKED: ATOM      6  C   UNL     1     -52.234 -30.865   6.100 -0.24 -0.00    -0.001 A  
DOCKED: ATOM      7  C   UNL     1     -51.260 -33.332   7.057 -0.33 +0.00    +0.008 A  
DOCKED: ATOM      8  C   UNL     1     -52.807 -32.065   5.676 -0.31 +0.00    +0.010 A  
DOCKED: ATOM      9  C   UNL     1     -52.323 -33.292   6.153 -0.32 +0.00    +0.068 A  
DOCKED: ATOM     10  N   UNL     1     -53.412 -35.502   5.350 -2.61 -0.00    -0.191 NA 
DOCKED: ATOM     11  C   UNL     1     -52.923 -34.511   5.710 -0.32 +0.00    +0.101 C  
DOCKED: ENDROOT
DOCKED: BRANCH   2  12
DOCKED: ATOM     12  C   UNL     1     -51.216 -28.940   8.559 -0.06 +0.00    +0.038 C  
DOCKED: BRANCH  12  13
DOCKED: ATOM     13  C   UNL     1     -52.690 -28.933   8.160 -0.10 +0.00    +0.038 C  
DOCKED: BRANCH  13  14
DOCKED: ATOM     14  C   UNL     1     -53.467 -27.878   8.946 -0.02 +0.00    +0.251 C  
DOCKED: BRANCH  14  15
DOCKED: ATOM     15  N   UNL     1     -53.988 -26.856   8.046 -0.04 +0.00    +0.141 N  
DOCKED: ATOM     16  C   UNL     1     -53.654 -27.173   6.657 -0.13 +0.00    +0.285 C  
DOCKED: ATOM     17  C   UNL     1     -55.437 -26.721   8.202 -0.02 +0.00    +0.285 C  
DOCKED: ENDBRANCH  14  15
DOCKED: ENDBRANCH  13  14
DOCKED: ENDBRANCH  12  13
DOCKED: ENDBRANCH   2  12
DOCKED: BRANCH   2  18
DOCKED: ATOM     18  C   UNL     1     -49.689 -28.952   6.594 -0.16 +0.00    +0.006 A  
DOCKED: ATOM     19  C   UNL     1     -48.343 -29.178   6.308 -0.11 +0.00    +0.001 A  
DOCKED: ATOM     20  C   UNL     1     -47.692 -28.388   5.360 -0.11 +0.00    +0.029 A  
DOCKED: ATOM     21  C   UNL     1     -48.386 -27.376   4.700 -0.08 +0.00    +0.140 A  
DOCKED: ATOM     22  C   UNL     1     -49.732 -27.151   4.986 -0.08 +0.00    +0.029 A  
DOCKED: ATOM     23  F   UNL     1     -47.760 -26.619   3.788 -0.00 -0.00    -0.204 F  
DOCKED: ATOM     24  C   UNL     1     -50.385 -27.940   5.935 -0.10 +0.00    +0.001 A  
DOCKED: ENDBRANCH   2  18
DOCKED: TORSDOF 5
DOCKED: TER
DOCKED: ENDMDL
________________________________________________________________________________


    FINAL DOCKED STATE:
    ________________________


Run:   327 / 512
Time taken for this run:   0.001s

DOCKED: MODEL        327
DOCKED: USER    Run = 327
DOCKED: USER
DOCKED: USER    Estimated Free Energy of Binding    =  -3.81 kcal/mol  [=(1)+(2)+(3)-(4)]
DOCKED: USER
DOCKED: USER    (1) Final Intermolecular Energy     =  -5.30 kcal/mol
DOCKED: USER        vdW + Hbond + desolv Energy     =  -5.30 kcal/mol
DOCKED: USER        Electrostatic Energy            =  +0.00 kcal/mol
DOCKED: USER        Moving Ligand-Fixed Receptor    =  -5.30 kcal/mol
DOCKED: USER        Moving Ligand-Moving Receptor   =  +0.00 kcal/mol
DOCKED: USER    (2) Final Total Internal Energy     =  -1.16 kcal/mol
DOCKED: USER    (3) Torsional Free Energy           =  +1.49 kcal/mol
DOCKED: USER    (4) Unbound System's Energy         =  -1.16 kcal/mol
DOCKED: USER
DOCKED: USER
DOCKED: REMARK  5 active torsions:
DOCKED: REMARK  status: ('A' for Active; 'I' for Inactive)
DOCKED: REMARK    1  A    between atoms: C_2  and  C_19 
DOCKED: REMARK    2  A    between atoms: C_2  and  C_11 
DOCKED: REMARK    3  A    between atoms: C_19  and  C_20 
DOCKED: REMARK    4  A    between atoms: C_20  and  C_21 
DOCKED: REMARK    5  A    between atoms: C_21  and  N_22 
DOCKED: USER                              x       y       z     vdW  Elec       q    Type
DOCKED: USER                           _______ _______ _______ _____ _____    ______ ____
DOCKED: ROOT
DOCKED: ATOM      1  O   UNL     1     -50.831 -30.497   9.882 -0.01 -0.00    -0.346 OA 
DOCKED: ATOM      2  C   UNL     1     -51.575 -29.781   8.845 -0.05 +0.00    +0.130 C  
DOCKED: ATOM      3  C   UNL     1     -52.059 -30.871   7.932 -0.14 +0.00    +0.004 A  
DOCKED: ATOM      4  C   UNL     1     -51.717 -32.108   8.460 -0.15 +0.00    +0.006 A  
DOCKED: ATOM      5  C   UNL     1     -51.005 -31.926   9.745 -0.07 +0.00    +0.169 C  
DOCKED: ATOM      6  C   UNL     1     -52.757 -30.775   6.737 -0.25 -0.00    -0.001 A  
DOCKED: ATOM      7  C   UNL     1     -52.053 -33.285   7.814 -0.24 +0.00    +0.008 A  
DOCKED: ATOM      8  C   UNL     1     -53.099 -31.953   6.071 -0.29 +0.00    +0.010 A  
DOCKED: ATOM      9  C   UNL     1     -52.750 -33.201   6.607 -0.26 +0.00    +0.068 A  
DOCKED: ATOM     10  N   UNL     1     -53.406 -35.368   5.348 -2.53 -0.00    -0.191 NA 
DOCKED: ATOM     11  C   UNL     1     -53.111 -34.396   5.912 -0.32 +0.00    +0.101 C  
DOCKED: ENDROOT
DOCKED: BRANCH   2  12
DOCKED: ATOM     12  C   UNL     1     -52.713 -29.015   9.509 -0.03 +0.00    +0.038 C  
DOCKED: BRANCH  12  13
DOCKED: ATOM     13  C   UNL     1     -53.050 -27.740   8.739 -0.04 +0.00    +0.038 C  
DOCKED: BRANCH  13  14
DOCKED: ATOM     14  C   UNL     1     -54.540 -27.675   8.408 -0.04 +0.00    +0.251 C  
DOCKED: BRANCH  14  15
DOCKED: ATOM     15  N   UNL     1     -54.771 -28.073   7.025 -0.17 +0.00    +0.141 N  
DOCKED: ATOM     16  C   UNL     1     -56.183 -28.388   6.806 -0.14 +0.00    +0.285 C  
DOCKED: ATOM     17  C   UNL     1     -54.338 -27.017   6.106 -0.12 +0.00    +0.285 C  
DOCKED: ENDBRANCH  14  15
DOCKED: ENDBRANCH  13  14
DOCKED: ENDBRANCH  12  13
DOCKED: ENDBRANCH   2  12
DOCKED: BRANCH   2  18
DOCKED: ATOM     18  C   UNL     1     -50.615 -28.851   8.182 -0.07 +0.00    +0.006 A  
DOCKED: ATOM     19  C   UNL     1     -50.553 -28.789   6.790 -0.16 +0.00    +0.001 A  
DOCKED: ATOM     20  C   UNL     1     -49.655 -27.919   6.171 -0.12 +0.00    +0.029 A  
DOCKED: ATOM     21  C   UNL     1     -48.820 -27.113   6.944 -0.03 +0.00    +0.140 A  
DOCKED: ATOM     22  C   UNL     1     -48.883 -27.175   8.336 -0.02 +0.00    +0.029 A  
DOCKED: ATOM     23  F   UNL     1     -47.959 -26.277   6.350 +0.00 -0.00    -0.204 F  
DOCKED: ATOM     24  C   UNL     1     -49.781 -28.045   8.956 -0.03 +0.00    +0.001 A  
DOCKED: ENDBRANCH   2  18
DOCKED: TORSDOF 5
DOCKED: TER
DOCKED: ENDMDL
________________________________________________________________________________


    FINAL DOCKED STATE:
    ________________________


Run:   328 / 512
Time taken for this run:   0.001s

DOCKED: MODEL        328
DOCKED: USER    Run = 328
DOCKED: USER
DOCKED: USER    Estimated Free Energy of Binding    =  -5.45 kcal/mol  [=(1)+(2)+(3)-(4)]
DOCKED: USER
DOCKED: USER    (1) Final Intermolecular Energy     =  -6.94 kcal/mol
DOCKED: USER        vdW + Hbond + desolv Energy     =  -6.94 kcal/mol
DOCKED: USER        Electrostatic Energy            =  +0.00 kcal/mol
DOCKED: USER        Moving Ligand-Fixed Receptor    =  -6.94 kcal/mol
DOCKED: USER        Moving Ligand-Moving Receptor   =  +0.00 kcal/mol
DOCKED: USER    (2) Final Total Internal Energy     =  -1.22 kcal/mol
DOCKED: USER    (3) Torsional Free Energy           =  +1.49 kcal/mol
DOCKED: USER    (4) Unbound System's Energy         =  -1.22 kcal/mol
DOCKED: USER
DOCKED: USER
DOCKED: REMARK  5 active torsions:
DOCKED: REMARK  status: ('A' for Active; 'I' for Inactive)
DOCKED: REMARK    1  A    between atoms: C_2  and  C_19 
DOCKED: REMARK    2  A    between atoms: C_2  and  C_11 
DOCKED: REMARK    3  A    between atoms: C_19  and  C_20 
DOCKED: REMARK    4  A    between atoms: C_20  and  C_21 
DOCKED: REMARK    5  A    between atoms: C_21  and  N_22 
DOCKED: USER                              x       y       z     vdW  Elec       q    Type
DOCKED: USER                           _______ _______ _______ _____ _____    ______ ____
DOCKED: ROOT
DOCKED: ATOM      1  O   UNL     1     -52.207 -31.223   7.841 -0.04 -0.00    -0.346 OA 
DOCKED: ATOM      2  C   UNL     1     -51.578 -32.545   7.838 -0.21 +0.00    +0.130 C  
DOCKED: ATOM      3  C   UNL     1     -52.011 -33.146   6.532 -0.34 +0.00    +0.004 A  
DOCKED: ATOM      4  C   UNL     1     -52.732 -32.210   5.804 -0.34 +0.00    +0.006 A  
DOCKED: ATOM      5  C   UNL     1     -52.814 -30.940   6.559 -0.22 +0.00    +0.169 C  
DOCKED: ATOM      6  C   UNL     1     -51.776 -34.415   6.024 -0.41 -0.00    -0.001 A  
DOCKED: ATOM      7  C   UNL     1     -53.244 -32.510   4.553 +0.00 +0.00    +0.008 A  
DOCKED: ATOM      8  C   UNL     1     -52.289 -34.734   4.766 -0.44 +0.00    +0.010 A  
DOCKED: ATOM      9  C   UNL     1     -53.019 -33.786   4.034 -0.45 +0.00    +0.068 A  
DOCKED: ATOM     10  N   UNL     1     -53.954 -34.409   1.699 -2.59 -0.00    -0.191 NA 
DOCKED: ATOM     11  C   UNL     1     -53.535 -34.130   2.747 -0.38 +0.00    +0.101 C  
DOCKED: ENDROOT
DOCKED: BRANCH   2  12
DOCKED: ATOM     12  C   UNL     1     -50.068 -32.360   7.934 -0.24 +0.00    +0.038 C  
DOCKED: BRANCH  12  13
DOCKED: ATOM     13  C   UNL     1     -49.710 -31.058   8.648 -0.15 +0.00    +0.038 C  
DOCKED: BRANCH  13  14
DOCKED: ATOM     14  C   UNL     1     -49.007 -30.087   7.701 -0.09 +0.00    +0.251 C  
DOCKED: BRANCH  14  15
DOCKED: ATOM     15  N   UNL     1     -49.704 -28.807   7.678 -0.07 +0.00    +0.141 N  
DOCKED: ATOM     16  C   UNL     1     -48.754 -27.700   7.807 -0.02 +0.00    +0.285 C  
DOCKED: ATOM     17  C   UNL     1     -50.484 -28.665   6.448 -0.12 +0.00    +0.285 C  
DOCKED: ENDBRANCH  14  15
DOCKED: ENDBRANCH  13  14
DOCKED: ENDBRANCH  12  13
DOCKED: ENDBRANCH   2  12
DOCKED: BRANCH   2  18
DOCKED: ATOM     18  C   UNL     1     -52.106 -33.283   9.022 -0.17 +0.00    +0.006 A  
DOCKED: ATOM     19  C   UNL     1     -53.416 -33.067   9.450 -0.12 +0.00    +0.001 A  
DOCKED: ATOM     20  C   UNL     1     -53.909 -33.757  10.558 -0.12 +0.00    +0.029 A  
DOCKED: ATOM     21  C   UNL     1     -53.093 -34.663  11.234 -0.06 +0.00    +0.140 A  
DOCKED: ATOM     22  C   UNL     1     -51.784 -34.879  10.805 -0.21 +0.00    +0.029 A  
DOCKED: ATOM     23  F   UNL     1     -53.567 -35.328  12.296 -0.03 -0.00    -0.204 F  
DOCKED: ATOM     24  C   UNL     1     -51.290 -34.189   9.698 -0.12 +0.00    +0.001 A  
DOCKED: ENDBRANCH   2  18
DOCKED: TORSDOF 5
DOCKED: TER
DOCKED: ENDMDL
________________________________________________________________________________


    FINAL DOCKED STATE:
    ________________________


Run:   329 / 512
Time taken for this run:   0.001s

DOCKED: MODEL        329
DOCKED: USER    Run = 329
DOCKED: USER
DOCKED: USER    Estimated Free Energy of Binding    =  -5.01 kcal/mol  [=(1)+(2)+(3)-(4)]
DOCKED: USER
DOCKED: USER    (1) Final Intermolecular Energy     =  -6.50 kcal/mol
DOCKED: USER        vdW + Hbond + desolv Energy     =  -6.50 kcal/mol
DOCKED: USER        Electrostatic Energy            =  +0.00 kcal/mol
DOCKED: USER        Moving Ligand-Fixed Receptor    =  -6.50 kcal/mol
DOCKED: USER        Moving Ligand-Moving Receptor   =  +0.00 kcal/mol
DOCKED: USER    (2) Final Total Internal Energy     =  -1.04 kcal/mol
DOCKED: USER    (3) Torsional Free Energy           =  +1.49 kcal/mol
DOCKED: USER    (4) Unbound System's Energy         =  -1.04 kcal/mol
DOCKED: USER
DOCKED: USER
DOCKED: REMARK  5 active torsions:
DOCKED: REMARK  status: ('A' for Active; 'I' for Inactive)
DOCKED: REMARK    1  A    between atoms: C_2  and  C_19 
DOCKED: REMARK    2  A    between atoms: C_2  and  C_11 
DOCKED: REMARK    3  A    between atoms: C_19  and  C_20 
DOCKED: REMARK    4  A    between atoms: C_20  and  C_21 
DOCKED: REMARK    5  A    between atoms: C_21  and  N_22 
DOCKED: USER                              x       y       z     vdW  Elec       q    Type
DOCKED: USER                           _______ _______ _______ _____ _____    ______ ____
DOCKED: ROOT
DOCKED: ATOM      1  O   UNL     1     -50.892 -34.339   8.672 -0.07 -0.00    -0.346 OA 
DOCKED: ATOM      2  C   UNL     1     -51.580 -33.052   8.552 -0.18 +0.00    +0.130 C  
DOCKED: ATOM      3  C   UNL     1     -52.133 -33.069   7.156 -0.29 +0.00    +0.004 A  
DOCKED: ATOM      4  C   UNL     1     -51.880 -34.299   6.568 -0.37 +0.00    +0.006 A  
DOCKED: ATOM      5  C   UNL     1     -51.164 -35.175   7.523 -0.14 +0.00    +0.169 C  
DOCKED: ATOM      6  C   UNL     1     -52.816 -32.077   6.467 -0.30 -0.00    -0.001 A  
DOCKED: ATOM      7  C   UNL     1     -52.293 -34.580   5.277 -0.46 +0.00    +0.008 A  
DOCKED: ATOM      8  C   UNL     1     -53.235 -32.343   5.162 -0.11 +0.00    +0.010 A  
DOCKED: ATOM      9  C   UNL     1     -52.975 -33.588   4.571 -0.41 +0.00    +0.068 A  
DOCKED: ATOM     10  N   UNL     1     -53.773 -34.050   2.149 -2.32 -0.00    -0.191 NA 
DOCKED: ATOM     11  C   UNL     1     -53.414 -33.842   3.235 -0.51 +0.00    +0.101 C  
DOCKED: ENDROOT
DOCKED: BRANCH   2  12
DOCKED: ATOM     12  C   UNL     1     -52.666 -32.985   9.620 -0.13 +0.00    +0.038 C  
DOCKED: BRANCH  12  13
DOCKED: ATOM     13  C   UNL     1     -53.090 -34.381  10.072 -0.21 +0.00    +0.038 C  
DOCKED: BRANCH  13  14
DOCKED: ATOM     14  C   UNL     1     -52.596 -34.673  11.488 -0.11 +0.00    +0.251 C  
DOCKED: BRANCH  14  15
DOCKED: ATOM     15  N   UNL     1     -53.725 -34.925  12.376 -0.14 +0.00    +0.141 N  
DOCKED: ATOM     16  C   UNL     1     -54.942 -35.181  11.605 -0.05 +0.00    +0.285 C  
DOCKED: ATOM     17  C   UNL     1     -53.440 -36.054  13.264 -0.16 +0.00    +0.285 C  
DOCKED: ENDBRANCH  14  15
DOCKED: ENDBRANCH  13  14
DOCKED: ENDBRANCH  12  13
DOCKED: ENDBRANCH   2  12
DOCKED: BRANCH   2  18
DOCKED: ATOM     18  C   UNL     1     -50.555 -31.988   8.759 -0.16 +0.00    +0.006 A  
DOCKED: ATOM     19  C   UNL     1     -50.764 -30.995   9.715 -0.06 +0.00    +0.001 A  
DOCKED: ATOM     20  C   UNL     1     -49.805 -30.000   9.907 -0.03 +0.00    +0.029 A  
DOCKED: ATOM     21  C   UNL     1     -48.637 -30.001   9.145 -0.05 +0.00    +0.140 A  
DOCKED: ATOM     22  C   UNL     1     -48.428 -30.995   8.189 -0.11 +0.00    +0.029 A  
DOCKED: ATOM     23  F   UNL     1     -47.716 -29.047   9.331 -0.00 -0.00    -0.204 F  
DOCKED: ATOM     24  C   UNL     1     -49.388 -31.990   7.996 -0.13 +0.00    +0.001 A  
DOCKED: ENDBRANCH   2  18
DOCKED: TORSDOF 5
DOCKED: TER
DOCKED: ENDMDL
________________________________________________________________________________


    FINAL DOCKED STATE:
    ________________________


Run:   330 / 512
Time taken for this run:   0.001s

DOCKED: MODEL        330
DOCKED: USER    Run = 330
DOCKED: USER
DOCKED: USER    Estimated Free Energy of Binding    =  -3.36 kcal/mol  [=(1)+(2)+(3)-(4)]
DOCKED: USER
DOCKED: USER    (1) Final Intermolecular Energy     =  -4.85 kcal/mol
DOCKED: USER        vdW + Hbond + desolv Energy     =  -4.85 kcal/mol
DOCKED: USER        Electrostatic Energy            =  +0.00 kcal/mol
DOCKED: USER        Moving Ligand-Fixed Receptor    =  -4.85 kcal/mol
DOCKED: USER        Moving Ligand-Moving Receptor   =  +0.00 kcal/mol
DOCKED: USER    (2) Final Total Internal Energy     =  -1.20 kcal/mol
DOCKED: USER    (3) Torsional Free Energy           =  +1.49 kcal/mol
DOCKED: USER    (4) Unbound System's Energy         =  -1.20 kcal/mol
DOCKED: USER
DOCKED: USER
DOCKED: REMARK  5 active torsions:
DOCKED: REMARK  status: ('A' for Active; 'I' for Inactive)
DOCKED: REMARK    1  A    between atoms: C_2  and  C_19 
DOCKED: REMARK    2  A    between atoms: C_2  and  C_11 
DOCKED: REMARK    3  A    between atoms: C_19  and  C_20 
DOCKED: REMARK    4  A    between atoms: C_20  and  C_21 
DOCKED: REMARK    5  A    between atoms: C_21  and  N_22 
DOCKED: USER                              x       y       z     vdW  Elec       q    Type
DOCKED: USER                           _______ _______ _______ _____ _____    ______ ____
DOCKED: ROOT
DOCKED: ATOM      1  O   UNL     1     -44.145 -21.544  -4.127 +0.01 -0.00    -0.346 OA 
DOCKED: ATOM      2  C   UNL     1     -44.670 -22.609  -3.272 -0.02 +0.00    +0.130 C  
DOCKED: ATOM      3  C   UNL     1     -46.140 -22.624  -3.578 -0.09 +0.00    +0.004 A  
DOCKED: ATOM      4  C   UNL     1     -46.414 -21.723  -4.598 -0.16 +0.00    +0.006 A  
DOCKED: ATOM      5  C   UNL     1     -45.162 -21.069  -5.040 -0.08 +0.00    +0.169 C  
DOCKED: ATOM      6  C   UNL     1     -47.152 -23.382  -3.007 -0.15 -0.00    -0.001 A  
DOCKED: ATOM      7  C   UNL     1     -47.701 -21.546  -5.076 -0.28 +0.00    +0.008 A  
DOCKED: ATOM      8  C   UNL     1     -48.456 -23.212  -3.476 -0.28 +0.00    +0.010 A  
DOCKED: ATOM      9  C   UNL     1     -48.728 -22.299  -4.506 -0.33 +0.00    +0.068 A  
DOCKED: ATOM     10  N   UNL     1     -51.159 -22.011  -5.357 -2.57 -0.00    -0.191 NA 
DOCKED: ATOM     11  C   UNL     1     -50.069 -22.139  -4.975 -0.34 +0.00    +0.101 C  
DOCKED: ENDROOT
DOCKED: BRANCH   2  12
DOCKED: ATOM     12  C   UNL     1     -43.974 -23.913  -3.644 -0.01 +0.00    +0.038 C  
DOCKED: BRANCH  12  13
DOCKED: ATOM     13  C   UNL     1     -43.578 -23.933  -5.118 -0.01 +0.00    +0.038 C  
DOCKED: BRANCH  13  14
DOCKED: ATOM     14  C   UNL     1     -44.788 -24.206  -6.009 -0.01 +0.00    +0.251 C  
DOCKED: BRANCH  14  15
DOCKED: ATOM     15  N   UNL     1     -45.050 -25.638  -6.084 -0.03 +0.00    +0.141 N  
DOCKED: ATOM     16  C   UNL     1     -43.831 -26.401  -5.809 -0.00 +0.00    +0.285 C  
DOCKED: ATOM     17  C   UNL     1     -46.109 -26.019  -5.148 -0.09 +0.00    +0.285 C  
DOCKED: ENDBRANCH  14  15
DOCKED: ENDBRANCH  13  14
DOCKED: ENDBRANCH  12  13
DOCKED: ENDBRANCH   2  12
DOCKED: BRANCH   2  18
DOCKED: ATOM     18  C   UNL     1     -44.373 -22.223  -1.862 -0.04 +0.00    +0.006 A  
DOCKED: ATOM     19  C   UNL     1     -45.142 -21.246  -1.230 -0.12 +0.00    +0.001 A  
DOCKED: ATOM     20  C   UNL     1     -44.863 -20.886   0.089 -0.11 +0.00    +0.029 A  
DOCKED: ATOM     21  C   UNL     1     -43.818 -21.503   0.774 -0.06 +0.00    +0.140 A  
DOCKED: ATOM     22  C   UNL     1     -43.049 -22.480   0.142 -0.02 +0.00    +0.029 A  
DOCKED: ATOM     23  F   UNL     1     -43.551 -21.158   2.040 -0.03 -0.00    -0.204 F  
DOCKED: ATOM     24  C   UNL     1     -43.327 -22.841  -1.178 -0.02 +0.00    +0.001 A  
DOCKED: ENDBRANCH   2  18
DOCKED: TORSDOF 5
DOCKED: TER
DOCKED: ENDMDL
________________________________________________________________________________


    FINAL DOCKED STATE:
    ________________________


Run:   331 / 512
Time taken for this run:   0.001s

DOCKED: MODEL        331
DOCKED: USER    Run = 331
DOCKED: USER
DOCKED: USER    Estimated Free Energy of Binding    =  -4.10 kcal/mol  [=(1)+(2)+(3)-(4)]
DOCKED: USER
DOCKED: USER    (1) Final Intermolecular Energy     =  -5.59 kcal/mol
DOCKED: USER        vdW + Hbond + desolv Energy     =  -5.59 kcal/mol
DOCKED: USER        Electrostatic Energy            =  +0.00 kcal/mol
DOCKED: USER        Moving Ligand-Fixed Receptor    =  -5.59 kcal/mol
DOCKED: USER        Moving Ligand-Moving Receptor   =  +0.00 kcal/mol
DOCKED: USER    (2) Final Total Internal Energy     =  -1.24 kcal/mol
DOCKED: USER    (3) Torsional Free Energy           =  +1.49 kcal/mol
DOCKED: USER    (4) Unbound System's Energy         =  -1.24 kcal/mol
DOCKED: USER
DOCKED: USER
DOCKED: REMARK  5 active torsions:
DOCKED: REMARK  status: ('A' for Active; 'I' for Inactive)
DOCKED: REMARK    1  A    between atoms: C_2  and  C_19 
DOCKED: REMARK    2  A    between atoms: C_2  and  C_11 
DOCKED: REMARK    3  A    between atoms: C_19  and  C_20 
DOCKED: REMARK    4  A    between atoms: C_20  and  C_21 
DOCKED: REMARK    5  A    between atoms: C_21  and  N_22 
DOCKED: USER                              x       y       z     vdW  Elec       q    Type
DOCKED: USER                           _______ _______ _______ _____ _____    ______ ____
DOCKED: ROOT
DOCKED: ATOM      1  O   UNL     1     -43.801 -29.981   0.754 +0.01 -0.00    -0.346 OA 
DOCKED: ATOM      2  C   UNL     1     -45.261 -29.948   0.659 -0.07 +0.00    +0.130 C  
DOCKED: ATOM      3  C   UNL     1     -45.693 -31.230   1.312 -0.16 +0.00    +0.004 A  
DOCKED: ATOM      4  C   UNL     1     -44.586 -31.885   1.832 -0.10 +0.00    +0.006 A  
DOCKED: ATOM      5  C   UNL     1     -43.365 -31.089   1.576 -0.02 +0.00    +0.169 C  
DOCKED: ATOM      6  C   UNL     1     -46.965 -31.767   1.444 -0.31 -0.00    -0.001 A  
DOCKED: ATOM      7  C   UNL     1     -44.710 -33.094   2.495 -0.17 +0.00    +0.008 A  
DOCKED: ATOM      8  C   UNL     1     -47.106 -32.988   2.106 -0.18 +0.00    +0.010 A  
DOCKED: ATOM      9  C   UNL     1     -45.984 -33.647   2.629 -0.30 +0.00    +0.068 A  
DOCKED: ATOM     10  N   UNL     1     -46.281 -35.910   3.857 -2.54 -0.00    -0.191 NA 
DOCKED: ATOM     11  C   UNL     1     -46.148 -34.895   3.306 -0.33 +0.00    +0.101 C  
DOCKED: ENDROOT
DOCKED: BRANCH   2  12
DOCKED: ATOM     12  C   UNL     1     -45.765 -28.710   1.392 -0.05 +0.00    +0.038 C  
DOCKED: BRANCH  12  13
DOCKED: ATOM     13  C   UNL     1     -46.270 -29.058   2.791 -0.10 +0.00    +0.038 C  
DOCKED: BRANCH  13  14
DOCKED: ATOM     14  C   UNL     1     -45.537 -28.247   3.857 -0.02 +0.00    +0.251 C  
DOCKED: BRANCH  14  15
DOCKED: ATOM     15  N   UNL     1     -45.248 -29.080   5.019 -0.04 +0.00    +0.141 N  
DOCKED: ATOM     16  C   UNL     1     -45.979 -28.600   6.192 -0.04 +0.00    +0.285 C  
DOCKED: ATOM     17  C   UNL     1     -45.587 -30.478   4.747 -0.07 +0.00    +0.285 C  
DOCKED: ENDBRANCH  14  15
DOCKED: ENDBRANCH  13  14
DOCKED: ENDBRANCH  12  13
DOCKED: ENDBRANCH   2  12
DOCKED: BRANCH   2  18
DOCKED: ATOM     18  C   UNL     1     -45.603 -29.891  -0.792 -0.13 +0.00    +0.006 A  
DOCKED: ATOM     19  C   UNL     1     -44.828 -30.587  -1.719 -0.11 +0.00    +0.001 A  
DOCKED: ATOM     20  C   UNL     1     -45.148 -30.532  -3.076 -0.15 +0.00    +0.029 A  
DOCKED: ATOM     21  C   UNL     1     -46.243 -29.783  -3.504 -0.20 +0.00    +0.140 A  
DOCKED: ATOM     22  C   UNL     1     -47.018 -29.087  -2.577 -0.23 +0.00    +0.029 A  
DOCKED: ATOM     23  F   UNL     1     -46.552 -29.732  -4.806 -0.08 -0.00    -0.204 F  
DOCKED: ATOM     24  C   UNL     1     -46.698 -29.141  -1.219 -0.19 +0.00    +0.001 A  
DOCKED: ENDBRANCH   2  18
DOCKED: TORSDOF 5
DOCKED: TER
DOCKED: ENDMDL
________________________________________________________________________________


    FINAL DOCKED STATE:
    ________________________


Run:   332 / 512
Time taken for this run:   0.001s

DOCKED: MODEL        332
DOCKED: USER    Run = 332
DOCKED: USER
DOCKED: USER    Estimated Free Energy of Binding    =  -4.08 kcal/mol  [=(1)+(2)+(3)-(4)]
DOCKED: USER
DOCKED: USER    (1) Final Intermolecular Energy     =  -5.58 kcal/mol
DOCKED: USER        vdW + Hbond + desolv Energy     =  -5.58 kcal/mol
DOCKED: USER        Electrostatic Energy            =  +0.00 kcal/mol
DOCKED: USER        Moving Ligand-Fixed Receptor    =  -5.58 kcal/mol
DOCKED: USER        Moving Ligand-Moving Receptor   =  +0.00 kcal/mol
DOCKED: USER    (2) Final Total Internal Energy     =  -1.28 kcal/mol
DOCKED: USER    (3) Torsional Free Energy           =  +1.49 kcal/mol
DOCKED: USER    (4) Unbound System's Energy         =  -1.28 kcal/mol
DOCKED: USER
DOCKED: USER
DOCKED: REMARK  5 active torsions:
DOCKED: REMARK  status: ('A' for Active; 'I' for Inactive)
DOCKED: REMARK    1  A    between atoms: C_2  and  C_19 
DOCKED: REMARK    2  A    between atoms: C_2  and  C_11 
DOCKED: REMARK    3  A    between atoms: C_19  and  C_20 
DOCKED: REMARK    4  A    between atoms: C_20  and  C_21 
DOCKED: REMARK    5  A    between atoms: C_21  and  N_22 
DOCKED: USER                              x       y       z     vdW  Elec       q    Type
DOCKED: USER                           _______ _______ _______ _____ _____    ______ ____
DOCKED: ROOT
DOCKED: ATOM      1  O   UNL     1     -51.130 -28.991   7.314 -0.05 -0.00    -0.346 OA 
DOCKED: ATOM      2  C   UNL     1     -52.433 -29.208   7.944 -0.10 +0.00    +0.130 C  
DOCKED: ATOM      3  C   UNL     1     -52.843 -30.569   7.464 -0.18 +0.00    +0.004 A  
DOCKED: ATOM      4  C   UNL     1     -51.817 -31.129   6.715 -0.27 +0.00    +0.006 A  
DOCKED: ATOM      5  C   UNL     1     -50.669 -30.196   6.659 -0.16 +0.00    +0.169 C  
DOCKED: ATOM      6  C   UNL     1     -54.025 -31.263   7.681 -0.16 -0.00    -0.001 A  
DOCKED: ATOM      7  C   UNL     1     -51.937 -32.390   6.157 -0.34 +0.00    +0.008 A  
DOCKED: ATOM      8  C   UNL     1     -54.163 -32.534   7.122 -0.20 +0.00    +0.010 A  
DOCKED: ATOM      9  C   UNL     1     -53.124 -33.095   6.364 -0.26 +0.00    +0.068 A  
DOCKED: ATOM     10  N   UNL     1     -53.411 -35.459   5.344 -2.59 -0.00    -0.191 NA 
DOCKED: ATOM     11  C   UNL     1     -53.282 -34.399   5.801 -0.35 +0.00    +0.101 C  
DOCKED: ENDROOT
DOCKED: BRANCH   2  12
DOCKED: ATOM     12  C   UNL     1     -52.254 -29.141   9.457 -0.03 +0.00    +0.038 C  
DOCKED: BRANCH  12  13
DOCKED: ATOM     13  C   UNL     1     -50.806 -29.409   9.859 -0.03 +0.00    +0.038 C  
DOCKED: BRANCH  13  14
DOCKED: ATOM     14  C   UNL     1     -50.539 -30.908   9.985 -0.03 +0.00    +0.251 C  
DOCKED: BRANCH  14  15
DOCKED: ATOM     15  N   UNL     1     -49.167 -31.213   9.598 -0.06 +0.00    +0.141 N  
DOCKED: ATOM     16  C   UNL     1     -48.361 -29.992   9.546 -0.03 +0.00    +0.285 C  
DOCKED: ATOM     17  C   UNL     1     -48.571 -32.175  10.527 -0.06 +0.00    +0.285 C  
DOCKED: ENDBRANCH  14  15
DOCKED: ENDBRANCH  13  14
DOCKED: ENDBRANCH  12  13
DOCKED: ENDBRANCH   2  12
DOCKED: BRANCH   2  18
DOCKED: ATOM     18  C   UNL     1     -53.337 -28.123   7.461 -0.15 +0.00    +0.006 A  
DOCKED: ATOM     19  C   UNL     1     -54.326 -27.615   8.301 -0.07 +0.00    +0.001 A  
DOCKED: ATOM     20  C   UNL     1     -55.171 -26.601   7.847 -0.07 +0.00    +0.029 A  
DOCKED: ATOM     21  C   UNL     1     -55.025 -26.098   6.555 -0.10 +0.00    +0.140 A  
DOCKED: ATOM     22  C   UNL     1     -54.035 -26.607   5.715 -0.12 +0.00    +0.029 A  
DOCKED: ATOM     23  F   UNL     1     -55.835 -25.124   6.121 -0.01 -0.00    -0.204 F  
DOCKED: ATOM     24  C   UNL     1     -53.190 -27.621   6.168 -0.17 +0.00    +0.001 A  
DOCKED: ENDBRANCH   2  18
DOCKED: TORSDOF 5
DOCKED: TER
DOCKED: ENDMDL
________________________________________________________________________________


    FINAL DOCKED STATE:
    ________________________


Run:   333 / 512
Time taken for this run:   0.001s

DOCKED: MODEL        333
DOCKED: USER    Run = 333
DOCKED: USER
DOCKED: USER    Estimated Free Energy of Binding    =  -3.60 kcal/mol  [=(1)+(2)+(3)-(4)]
DOCKED: USER
DOCKED: USER    (1) Final Intermolecular Energy     =  -5.09 kcal/mol
DOCKED: USER        vdW + Hbond + desolv Energy     =  -5.09 kcal/mol
DOCKED: USER        Electrostatic Energy            =  +0.00 kcal/mol
DOCKED: USER        Moving Ligand-Fixed Receptor    =  -5.09 kcal/mol
DOCKED: USER        Moving Ligand-Moving Receptor   =  +0.00 kcal/mol
DOCKED: USER    (2) Final Total Internal Energy     =  -1.14 kcal/mol
DOCKED: USER    (3) Torsional Free Energy           =  +1.49 kcal/mol
DOCKED: USER    (4) Unbound System's Energy         =  -1.14 kcal/mol
DOCKED: USER
DOCKED: USER
DOCKED: REMARK  5 active torsions:
DOCKED: REMARK  status: ('A' for Active; 'I' for Inactive)
DOCKED: REMARK    1  A    between atoms: C_2  and  C_19 
DOCKED: REMARK    2  A    between atoms: C_2  and  C_11 
DOCKED: REMARK    3  A    between atoms: C_19  and  C_20 
DOCKED: REMARK    4  A    between atoms: C_20  and  C_21 
DOCKED: REMARK    5  A    between atoms: C_21  and  N_22 
DOCKED: USER                              x       y       z     vdW  Elec       q    Type
DOCKED: USER                           _______ _______ _______ _____ _____    ______ ____
DOCKED: ROOT
DOCKED: ATOM      1  O   UNL     1     -46.320 -30.088   0.061 -0.01 -0.00    -0.346 OA 
DOCKED: ATOM      2  C   UNL     1     -45.140 -30.877  -0.295 -0.11 +0.00    +0.130 C  
DOCKED: ATOM      3  C   UNL     1     -45.202 -32.056   0.633 -0.14 +0.00    +0.004 A  
DOCKED: ATOM      4  C   UNL     1     -46.372 -32.003   1.378 -0.27 +0.00    +0.006 A  
DOCKED: ATOM      5  C   UNL     1     -47.160 -30.811   0.991 -0.24 +0.00    +0.169 C  
DOCKED: ATOM      6  C   UNL     1     -44.300 -33.097   0.797 -0.11 -0.00    -0.001 A  
DOCKED: ATOM      7  C   UNL     1     -46.677 -32.980   2.309 -0.32 +0.00    +0.008 A  
DOCKED: ATOM      8  C   UNL     1     -44.592 -34.088   1.736 -0.19 +0.00    +0.010 A  
DOCKED: ATOM      9  C   UNL     1     -45.775 -34.030   2.488 -0.31 +0.00    +0.068 A  
DOCKED: ATOM     10  N   UNL     1     -46.289 -35.888   4.219 -2.68 -0.00    -0.191 NA 
DOCKED: ATOM     11  C   UNL     1     -46.058 -35.054   3.443 -0.35 +0.00    +0.101 C  
DOCKED: ENDROOT
DOCKED: BRANCH   2  12
DOCKED: ATOM     12  C   UNL     1     -45.249 -31.272  -1.763 -0.03 +0.00    +0.038 C  
DOCKED: BRANCH  12  13
DOCKED: ATOM     13  C   UNL     1     -43.934 -31.849  -2.284 -0.10 +0.00    +0.038 C  
DOCKED: BRANCH  13  14
DOCKED: ATOM     14  C   UNL     1     -44.043 -33.357  -2.500 -0.06 +0.00    +0.251 C  
DOCKED: BRANCH  14  15
DOCKED: ATOM     15  N   UNL     1     -42.967 -34.049  -1.801 -0.05 +0.00    +0.141 N  
DOCKED: ATOM     16  C   UNL     1     -42.837 -35.424  -2.287 -0.03 +0.00    +0.285 C  
DOCKED: ATOM     17  C   UNL     1     -41.701 -33.332  -1.964 -0.01 +0.00    +0.285 C  
DOCKED: ENDBRANCH  14  15
DOCKED: ENDBRANCH  13  14
DOCKED: ENDBRANCH  12  13
DOCKED: ENDBRANCH   2  12
DOCKED: BRANCH   2  18
DOCKED: ATOM     18  C   UNL     1     -43.948 -30.011  -0.057 -0.03 +0.00    +0.006 A  
DOCKED: ATOM     19  C   UNL     1     -43.495 -29.158  -1.063 -0.01 +0.00    +0.001 A  
DOCKED: ATOM     20  C   UNL     1     -42.380 -28.349  -0.839 -0.00 +0.00    +0.029 A  
DOCKED: ATOM     21  C   UNL     1     -41.721 -28.394   0.388 +0.00 +0.00    +0.140 A  
DOCKED: ATOM     22  C   UNL     1     -42.175 -29.247   1.394 -0.00 +0.00    +0.029 A  
DOCKED: ATOM     23  F   UNL     1     -40.652 -27.616   0.603 +0.00 -0.00    -0.204 F  
DOCKED: ATOM     24  C   UNL     1     -43.290 -30.057   1.171 -0.02 +0.00    +0.001 A  
DOCKED: ENDBRANCH   2  18
DOCKED: TORSDOF 5
DOCKED: TER
DOCKED: ENDMDL
________________________________________________________________________________


    FINAL DOCKED STATE:
    ________________________


Run:   334 / 512
Time taken for this run:   0.001s

DOCKED: MODEL        334
DOCKED: USER    Run = 334
DOCKED: USER
DOCKED: USER    Estimated Free Energy of Binding    =  -3.87 kcal/mol  [=(1)+(2)+(3)-(4)]
DOCKED: USER
DOCKED: USER    (1) Final Intermolecular Energy     =  -5.36 kcal/mol
DOCKED: USER        vdW + Hbond + desolv Energy     =  -5.36 kcal/mol
DOCKED: USER        Electrostatic Energy            =  +0.00 kcal/mol
DOCKED: USER        Moving Ligand-Fixed Receptor    =  -5.36 kcal/mol
DOCKED: USER        Moving Ligand-Moving Receptor   =  +0.00 kcal/mol
DOCKED: USER    (2) Final Total Internal Energy     =  -1.40 kcal/mol
DOCKED: USER    (3) Torsional Free Energy           =  +1.49 kcal/mol
DOCKED: USER    (4) Unbound System's Energy         =  -1.40 kcal/mol
DOCKED: USER
DOCKED: USER
DOCKED: REMARK  5 active torsions:
DOCKED: REMARK  status: ('A' for Active; 'I' for Inactive)
DOCKED: REMARK    1  A    between atoms: C_2  and  C_19 
DOCKED: REMARK    2  A    between atoms: C_2  and  C_11 
DOCKED: REMARK    3  A    between atoms: C_19  and  C_20 
DOCKED: REMARK    4  A    between atoms: C_20  and  C_21 
DOCKED: REMARK    5  A    between atoms: C_21  and  N_22 
DOCKED: USER                              x       y       z     vdW  Elec       q    Type
DOCKED: USER                           _______ _______ _______ _____ _____    ______ ____
DOCKED: ROOT
DOCKED: ATOM      1  O   UNL     1     -45.074 -21.044  -5.441 -0.03 -0.00    -0.346 OA 
DOCKED: ATOM      2  C   UNL     1     -45.214 -21.469  -4.048 -0.07 +0.00    +0.130 C  
DOCKED: ATOM      3  C   UNL     1     -46.675 -21.787  -3.913 -0.16 +0.00    +0.004 A  
DOCKED: ATOM      4  C   UNL     1     -47.296 -21.662  -5.148 -0.25 +0.00    +0.006 A  
DOCKED: ATOM      5  C   UNL     1     -46.302 -21.271  -6.173 -0.14 +0.00    +0.169 C  
DOCKED: ATOM      6  C   UNL     1     -47.395 -22.167  -2.790 -0.21 -0.00    -0.001 A  
DOCKED: ATOM      7  C   UNL     1     -48.650 -21.907  -5.302 -0.37 +0.00    +0.008 A  
DOCKED: ATOM      8  C   UNL     1     -48.762 -22.413  -2.929 -0.33 +0.00    +0.010 A  
DOCKED: ATOM      9  C   UNL     1     -49.386 -22.284  -4.179 -0.39 +0.00    +0.068 A  
DOCKED: ATOM     10  N   UNL     1     -51.924 -22.754  -4.402 -2.48 -0.00    -0.191 NA 
DOCKED: ATOM     11  C   UNL     1     -50.786 -22.542  -4.301 -0.09 +0.00    +0.101 C  
DOCKED: ENDROOT
DOCKED: BRANCH   2  12
DOCKED: ATOM     12  C   UNL     1     -44.320 -22.682  -3.821 -0.03 +0.00    +0.038 C  
DOCKED: BRANCH  12  13
DOCKED: ATOM     13  C   UNL     1     -44.872 -23.920  -4.524 -0.03 +0.00    +0.038 C  
DOCKED: BRANCH  13  14
DOCKED: ATOM     14  C   UNL     1     -45.508 -24.883  -3.522 -0.02 +0.00    +0.251 C  
DOCKED: BRANCH  14  15
DOCKED: ATOM     15  N   UNL     1     -46.763 -25.406  -4.048 -0.12 +0.00    +0.141 N  
DOCKED: ATOM     16  C   UNL     1     -46.831 -25.221  -5.499 -0.12 +0.00    +0.285 C  
DOCKED: ATOM     17  C   UNL     1     -46.912 -26.823  -3.710 -0.11 +0.00    +0.285 C  
DOCKED: ENDBRANCH  14  15
DOCKED: ENDBRANCH  13  14
DOCKED: ENDBRANCH  12  13
DOCKED: ENDBRANCH   2  12
DOCKED: BRANCH   2  18
DOCKED: ATOM     18  C   UNL     1     -44.788 -20.319  -3.196 -0.09 +0.00    +0.006 A  
DOCKED: ATOM     19  C   UNL     1     -45.687 -19.292  -2.913 -0.14 +0.00    +0.001 A  
DOCKED: ATOM     20  C   UNL     1     -45.288 -18.217  -2.118 -0.12 +0.00    +0.029 A  
DOCKED: ATOM     21  C   UNL     1     -43.991 -18.172  -1.606 -0.02 +0.00    +0.140 A  
DOCKED: ATOM     22  C   UNL     1     -43.093 -19.200  -1.890 -0.02 +0.00    +0.029 A  
DOCKED: ATOM     23  F   UNL     1     -43.609 -17.142  -0.841 +0.01 -0.00    -0.204 F  
DOCKED: ATOM     24  C   UNL     1     -43.492 -20.275  -2.686 -0.03 +0.00    +0.001 A  
DOCKED: ENDBRANCH   2  18
DOCKED: TORSDOF 5
DOCKED: TER
DOCKED: ENDMDL
________________________________________________________________________________


    FINAL DOCKED STATE:
    ________________________


Run:   335 / 512
Time taken for this run:   0.001s

DOCKED: MODEL        335
DOCKED: USER    Run = 335
DOCKED: USER
DOCKED: USER    Estimated Free Energy of Binding    =  -4.41 kcal/mol  [=(1)+(2)+(3)-(4)]
DOCKED: USER
DOCKED: USER    (1) Final Intermolecular Energy     =  -5.90 kcal/mol
DOCKED: USER        vdW + Hbond + desolv Energy     =  -5.90 kcal/mol
DOCKED: USER        Electrostatic Energy            =  +0.00 kcal/mol
DOCKED: USER        Moving Ligand-Fixed Receptor    =  -5.90 kcal/mol
DOCKED: USER        Moving Ligand-Moving Receptor   =  +0.00 kcal/mol
DOCKED: USER    (2) Final Total Internal Energy     =  -1.35 kcal/mol
DOCKED: USER    (3) Torsional Free Energy           =  +1.49 kcal/mol
DOCKED: USER    (4) Unbound System's Energy         =  -1.35 kcal/mol
DOCKED: USER
DOCKED: USER
DOCKED: REMARK  5 active torsions:
DOCKED: REMARK  status: ('A' for Active; 'I' for Inactive)
DOCKED: REMARK    1  A    between atoms: C_2  and  C_19 
DOCKED: REMARK    2  A    between atoms: C_2  and  C_11 
DOCKED: REMARK    3  A    between atoms: C_19  and  C_20 
DOCKED: REMARK    4  A    between atoms: C_20  and  C_21 
DOCKED: REMARK    5  A    between atoms: C_21  and  N_22 
DOCKED: USER                              x       y       z     vdW  Elec       q    Type
DOCKED: USER                           _______ _______ _______ _____ _____    ______ ____
DOCKED: ROOT
DOCKED: ATOM      1  O   UNL     1     -51.189 -28.982   7.181 -0.06 -0.00    -0.346 OA 
DOCKED: ATOM      2  C   UNL     1     -52.588 -29.098   7.595 -0.14 +0.00    +0.130 C  
DOCKED: ATOM      3  C   UNL     1     -52.981 -30.478   7.152 -0.21 +0.00    +0.004 A  
DOCKED: ATOM      4  C   UNL     1     -51.874 -31.134   6.631 -0.28 +0.00    +0.006 A  
DOCKED: ATOM      5  C   UNL     1     -50.687 -30.253   6.704 -0.17 +0.00    +0.169 C  
DOCKED: ATOM      6  C   UNL     1     -54.216 -31.106   7.215 -0.20 -0.00    -0.001 A  
DOCKED: ATOM      7  C   UNL     1     -51.964 -32.431   6.154 -0.34 +0.00    +0.008 A  
DOCKED: ATOM      8  C   UNL     1     -54.323 -32.412   6.734 -0.22 +0.00    +0.010 A  
DOCKED: ATOM      9  C   UNL     1     -53.202 -33.071   6.207 -0.27 +0.00    +0.068 A  
DOCKED: ATOM     10  N   UNL     1     -53.435 -35.497   5.328 -2.60 -0.00    -0.191 NA 
DOCKED: ATOM     11  C   UNL     1     -53.331 -34.409   5.722 -0.36 +0.00    +0.101 C  
DOCKED: ENDROOT
DOCKED: BRANCH   2  12
DOCKED: ATOM     12  C   UNL     1     -52.661 -28.917   9.106 -0.04 +0.00    +0.038 C  
DOCKED: BRANCH  12  13
DOCKED: ATOM     13  C   UNL     1     -51.409 -28.228   9.646 -0.02 +0.00    +0.038 C  
DOCKED: BRANCH  13  14
DOCKED: ATOM     14  C   UNL     1     -51.383 -26.751   9.256 -0.01 +0.00    +0.251 C  
DOCKED: BRANCH  14  15
DOCKED: ATOM     15  N   UNL     1     -50.055 -26.374   8.787 -0.01 +0.00    +0.141 N  
DOCKED: ATOM     16  C   UNL     1     -50.040 -24.978   8.348 -0.00 +0.00    +0.285 C  
DOCKED: ATOM     17  C   UNL     1     -49.058 -26.586   9.837 -0.00 +0.00    +0.285 C  
DOCKED: ENDBRANCH  14  15
DOCKED: ENDBRANCH  13  14
DOCKED: ENDBRANCH  12  13
DOCKED: ENDBRANCH   2  12
DOCKED: BRANCH   2  18
DOCKED: ATOM     18  C   UNL     1     -53.342 -28.023   6.886 -0.19 +0.00    +0.006 A  
DOCKED: ATOM     19  C   UNL     1     -52.674 -27.154   6.025 -0.15 +0.00    +0.001 A  
DOCKED: ATOM     20  C   UNL     1     -53.380 -26.149   5.364 -0.15 +0.00    +0.029 A  
DOCKED: ATOM     21  C   UNL     1     -54.753 -26.015   5.564 -0.09 +0.00    +0.140 A  
DOCKED: ATOM     22  C   UNL     1     -55.422 -26.884   6.425 -0.18 +0.00    +0.029 A  
DOCKED: ATOM     23  F   UNL     1     -55.432 -25.051   4.928 -0.03 -0.00    -0.204 F  
DOCKED: ATOM     24  C   UNL     1     -54.716 -27.890   7.088 -0.20 +0.00    +0.001 A  
DOCKED: ENDBRANCH   2  18
DOCKED: TORSDOF 5
DOCKED: TER
DOCKED: ENDMDL
________________________________________________________________________________


    FINAL DOCKED STATE:
    ________________________


Run:   336 / 512
Time taken for this run:   0.001s

DOCKED: MODEL        336
DOCKED: USER    Run = 336
DOCKED: USER
DOCKED: USER    Estimated Free Energy of Binding    =  -4.26 kcal/mol  [=(1)+(2)+(3)-(4)]
DOCKED: USER
DOCKED: USER    (1) Final Intermolecular Energy     =  -5.75 kcal/mol
DOCKED: USER        vdW + Hbond + desolv Energy     =  -5.75 kcal/mol
DOCKED: USER        Electrostatic Energy            =  +0.00 kcal/mol
DOCKED: USER        Moving Ligand-Fixed Receptor    =  -5.75 kcal/mol
DOCKED: USER        Moving Ligand-Moving Receptor   =  +0.00 kcal/mol
DOCKED: USER    (2) Final Total Internal Energy     =  -1.32 kcal/mol
DOCKED: USER    (3) Torsional Free Energy           =  +1.49 kcal/mol
DOCKED: USER    (4) Unbound System's Energy         =  -1.32 kcal/mol
DOCKED: USER
DOCKED: USER
DOCKED: REMARK  5 active torsions:
DOCKED: REMARK  status: ('A' for Active; 'I' for Inactive)
DOCKED: REMARK    1  A    between atoms: C_2  and  C_19 
DOCKED: REMARK    2  A    between atoms: C_2  and  C_11 
DOCKED: REMARK    3  A    between atoms: C_19  and  C_20 
DOCKED: REMARK    4  A    between atoms: C_20  and  C_21 
DOCKED: REMARK    5  A    between atoms: C_21  and  N_22 
DOCKED: USER                              x       y       z     vdW  Elec       q    Type
DOCKED: USER                           _______ _______ _______ _____ _____    ______ ____
DOCKED: ROOT
DOCKED: ATOM      1  O   UNL     1     -43.809 -29.993   0.659 +0.01 -0.00    -0.346 OA 
DOCKED: ATOM      2  C   UNL     1     -45.271 -29.929   0.634 -0.07 +0.00    +0.130 C  
DOCKED: ATOM      3  C   UNL     1     -45.698 -31.205   1.299 -0.16 +0.00    +0.004 A  
DOCKED: ATOM      4  C   UNL     1     -44.581 -31.887   1.762 -0.10 +0.00    +0.006 A  
DOCKED: ATOM      5  C   UNL     1     -43.357 -31.114   1.452 -0.02 +0.00    +0.169 C  
DOCKED: ATOM      6  C   UNL     1     -46.973 -31.717   1.490 -0.31 -0.00    -0.001 A  
DOCKED: ATOM      7  C   UNL     1     -44.699 -33.097   2.423 -0.17 +0.00    +0.008 A  
DOCKED: ATOM      8  C   UNL     1     -47.108 -32.939   2.151 -0.17 +0.00    +0.010 A  
DOCKED: ATOM      9  C   UNL     1     -45.976 -33.625   2.615 -0.30 +0.00    +0.068 A  
DOCKED: ATOM     10  N   UNL     1     -46.262 -35.889   3.843 -2.53 -0.00    -0.191 NA 
DOCKED: ATOM     11  C   UNL     1     -46.133 -34.874   3.292 -0.33 +0.00    +0.101 C  
DOCKED: ENDROOT
DOCKED: BRANCH   2  12
DOCKED: ATOM     12  C   UNL     1     -45.713 -28.686   1.398 -0.05 +0.00    +0.038 C  
DOCKED: BRANCH  12  13
DOCKED: ATOM     13  C   UNL     1     -45.641 -28.904   2.908 -0.07 +0.00    +0.038 C  
DOCKED: BRANCH  13  14
DOCKED: ATOM     14  C   UNL     1     -47.013 -28.722   3.555 -0.09 +0.00    +0.251 C  
DOCKED: BRANCH  14  15
DOCKED: ATOM     15  N   UNL     1     -47.113 -29.528   4.766 -0.10 +0.00    +0.141 N  
DOCKED: ATOM     16  C   UNL     1     -45.813 -30.106   5.110 -0.07 +0.00    +0.285 C  
DOCKED: ATOM     17  C   UNL     1     -47.622 -28.724   5.879 -0.08 +0.00    +0.285 C  
DOCKED: ENDBRANCH  14  15
DOCKED: ENDBRANCH  13  14
DOCKED: ENDBRANCH  12  13
DOCKED: ENDBRANCH   2  12
DOCKED: BRANCH   2  18
DOCKED: ATOM     18  C   UNL     1     -45.681 -29.854  -0.799 -0.13 +0.00    +0.006 A  
DOCKED: ATOM     19  C   UNL     1     -46.575 -28.870  -1.218 -0.17 +0.00    +0.001 A  
DOCKED: ATOM     20  C   UNL     1     -46.957 -28.802  -2.558 -0.23 +0.00    +0.029 A  
DOCKED: ATOM     21  C   UNL     1     -46.446 -29.717  -3.476 -0.21 +0.00    +0.140 A  
DOCKED: ATOM     22  C   UNL     1     -45.552 -30.701  -3.057 -0.17 +0.00    +0.029 A  
DOCKED: ATOM     23  F   UNL     1     -46.812 -29.650  -4.763 -0.10 -0.00    -0.204 F  
DOCKED: ATOM     24  C   UNL     1     -45.169 -30.771  -1.716 -0.13 +0.00    +0.001 A  
DOCKED: ENDBRANCH   2  18
DOCKED: TORSDOF 5
DOCKED: TER
DOCKED: ENDMDL
________________________________________________________________________________


    FINAL DOCKED STATE:
    ________________________


Run:   337 / 512
Time taken for this run:   0.001s

DOCKED: MODEL        337
DOCKED: USER    Run = 337
DOCKED: USER
DOCKED: USER    Estimated Free Energy of Binding    =  -4.44 kcal/mol  [=(1)+(2)+(3)-(4)]
DOCKED: USER
DOCKED: USER    (1) Final Intermolecular Energy     =  -5.93 kcal/mol
DOCKED: USER        vdW + Hbond + desolv Energy     =  -5.93 kcal/mol
DOCKED: USER        Electrostatic Energy            =  +0.00 kcal/mol
DOCKED: USER        Moving Ligand-Fixed Receptor    =  -5.93 kcal/mol
DOCKED: USER        Moving Ligand-Moving Receptor   =  +0.00 kcal/mol
DOCKED: USER    (2) Final Total Internal Energy     =  -1.04 kcal/mol
DOCKED: USER    (3) Torsional Free Energy           =  +1.49 kcal/mol
DOCKED: USER    (4) Unbound System's Energy         =  -1.04 kcal/mol
DOCKED: USER
DOCKED: USER
DOCKED: REMARK  5 active torsions:
DOCKED: REMARK  status: ('A' for Active; 'I' for Inactive)
DOCKED: REMARK    1  A    between atoms: C_2  and  C_19 
DOCKED: REMARK    2  A    between atoms: C_2  and  C_11 
DOCKED: REMARK    3  A    between atoms: C_19  and  C_20 
DOCKED: REMARK    4  A    between atoms: C_20  and  C_21 
DOCKED: REMARK    5  A    between atoms: C_21  and  N_22 
DOCKED: USER                              x       y       z     vdW  Elec       q    Type
DOCKED: USER                           _______ _______ _______ _____ _____    ______ ____
DOCKED: ROOT
DOCKED: ATOM      1  O   UNL     1     -49.006 -25.550   0.978 -0.06 -0.00    -0.346 OA 
DOCKED: ATOM      2  C   UNL     1     -47.854 -25.435   0.083 -0.13 +0.00    +0.130 C  
DOCKED: ATOM      3  C   UNL     1     -48.397 -24.703  -1.110 -0.23 +0.00    +0.004 A  
DOCKED: ATOM      4  C   UNL     1     -49.714 -24.335  -0.872 -0.29 +0.00    +0.006 A  
DOCKED: ATOM      5  C   UNL     1     -50.123 -24.779   0.479 -0.26 +0.00    +0.169 C  
DOCKED: ATOM      6  C   UNL     1     -47.772 -24.378  -2.305 -0.20 -0.00    -0.001 A  
DOCKED: ATOM      7  C   UNL     1     -50.449 -23.638  -1.816 -0.27 +0.00    +0.008 A  
DOCKED: ATOM      8  C   UNL     1     -48.502 -23.680  -3.269 -0.25 +0.00    +0.010 A  
DOCKED: ATOM      9  C   UNL     1     -49.833 -23.312  -3.025 -0.18 +0.00    +0.068 A  
DOCKED: ATOM     10  N   UNL     1     -51.157 -22.011  -4.833 -2.35 -0.00    -0.191 NA 
DOCKED: ATOM     11  C   UNL     1     -50.563 -22.595  -4.022 -0.30 +0.00    +0.101 C  
DOCKED: ENDROOT
DOCKED: BRANCH   2  12
DOCKED: ATOM     12  C   UNL     1     -46.757 -24.660   0.806 -0.13 +0.00    +0.038 C  
DOCKED: BRANCH  12  13
DOCKED: ATOM     13  C   UNL     1     -45.527 -24.479  -0.081 -0.07 +0.00    +0.038 C  
DOCKED: BRANCH  13  14
DOCKED: ATOM     14  C   UNL     1     -44.652 -23.332   0.422 -0.06 +0.00    +0.251 C  
DOCKED: BRANCH  14  15
DOCKED: ATOM     15  N   UNL     1     -45.298 -22.051   0.165 -0.11 +0.00    +0.141 N  
DOCKED: ATOM     16  C   UNL     1     -44.496 -20.951   0.704 -0.06 +0.00    +0.285 C  
DOCKED: ATOM     17  C   UNL     1     -45.517 -21.863  -1.270 -0.08 +0.00    +0.285 C  
DOCKED: ENDBRANCH  14  15
DOCKED: ENDBRANCH  13  14
DOCKED: ENDBRANCH  12  13
DOCKED: ENDBRANCH   2  12
DOCKED: BRANCH   2  18
DOCKED: ATOM     18  C   UNL     1     -47.410 -26.823  -0.238 -0.11 +0.00    +0.006 A  
DOCKED: ATOM     19  C   UNL     1     -47.020 -27.685   0.786 -0.09 +0.00    +0.001 A  
DOCKED: ATOM     20  C   UNL     1     -46.605 -28.982   0.484 -0.13 +0.00    +0.029 A  
DOCKED: ATOM     21  C   UNL     1     -46.581 -29.415  -0.841 -0.15 +0.00    +0.140 A  
DOCKED: ATOM     22  C   UNL     1     -46.971 -28.553  -1.865 -0.20 +0.00    +0.029 A  
DOCKED: ATOM     23  F   UNL     1     -46.184 -30.662  -1.131 -0.05 -0.00    -0.204 F  
DOCKED: ATOM     24  C   UNL     1     -47.386 -27.254  -1.564 -0.18 +0.00    +0.001 A  
DOCKED: ENDBRANCH   2  18
DOCKED: TORSDOF 5
DOCKED: TER
DOCKED: ENDMDL
________________________________________________________________________________


    FINAL DOCKED STATE:
    ________________________


Run:   338 / 512
Time taken for this run:   0.001s

DOCKED: MODEL        338
DOCKED: USER    Run = 338
DOCKED: USER
DOCKED: USER    Estimated Free Energy of Binding    =  -4.08 kcal/mol  [=(1)+(2)+(3)-(4)]
DOCKED: USER
DOCKED: USER    (1) Final Intermolecular Energy     =  -5.57 kcal/mol
DOCKED: USER        vdW + Hbond + desolv Energy     =  -5.57 kcal/mol
DOCKED: USER        Electrostatic Energy            =  +0.00 kcal/mol
DOCKED: USER        Moving Ligand-Fixed Receptor    =  -5.57 kcal/mol
DOCKED: USER        Moving Ligand-Moving Receptor   =  +0.00 kcal/mol
DOCKED: USER    (2) Final Total Internal Energy     =  -1.14 kcal/mol
DOCKED: USER    (3) Torsional Free Energy           =  +1.49 kcal/mol
DOCKED: USER    (4) Unbound System's Energy         =  -1.14 kcal/mol
DOCKED: USER
DOCKED: USER
DOCKED: REMARK  5 active torsions:
DOCKED: REMARK  status: ('A' for Active; 'I' for Inactive)
DOCKED: REMARK    1  A    between atoms: C_2  and  C_19 
DOCKED: REMARK    2  A    between atoms: C_2  and  C_11 
DOCKED: REMARK    3  A    between atoms: C_19  and  C_20 
DOCKED: REMARK    4  A    between atoms: C_20  and  C_21 
DOCKED: REMARK    5  A    between atoms: C_21  and  N_22 
DOCKED: USER                              x       y       z     vdW  Elec       q    Type
DOCKED: USER                           _______ _______ _______ _____ _____    ______ ____
DOCKED: ROOT
DOCKED: ATOM      1  O   UNL     1     -44.357 -32.332  -1.687 -0.02 -0.00    -0.346 OA 
DOCKED: ATOM      2  C   UNL     1     -44.450 -31.362  -0.595 -0.09 +0.00    +0.130 C  
DOCKED: ATOM      3  C   UNL     1     -44.877 -32.187   0.584 -0.13 +0.00    +0.004 A  
DOCKED: ATOM      4  C   UNL     1     -44.917 -33.528   0.226 -0.15 +0.00    +0.006 A  
DOCKED: ATOM      5  C   UNL     1     -44.513 -33.682  -1.189 -0.06 +0.00    +0.169 C  
DOCKED: ATOM      6  C   UNL     1     -45.194 -31.786   1.874 -0.15 -0.00    -0.001 A  
DOCKED: ATOM      7  C   UNL     1     -45.276 -34.506   1.137 -0.27 +0.00    +0.008 A  
DOCKED: ATOM      8  C   UNL     1     -45.562 -32.760   2.803 -0.25 +0.00    +0.010 A  
DOCKED: ATOM      9  C   UNL     1     -45.603 -34.114   2.436 -0.30 +0.00    +0.068 A  
DOCKED: ATOM     10  N   UNL     1     -46.286 -35.898   4.186 -2.66 -0.00    -0.191 NA 
DOCKED: ATOM     11  C   UNL     1     -45.980 -35.098   3.401 -0.39 +0.00    +0.101 C  
DOCKED: ENDROOT
DOCKED: BRANCH   2  12
DOCKED: ATOM     12  C   UNL     1     -43.083 -30.717  -0.404 -0.02 +0.00    +0.038 C  
DOCKED: BRANCH  12  13
DOCKED: ATOM     13  C   UNL     1     -42.830 -29.629  -1.446 -0.01 +0.00    +0.038 C  
DOCKED: BRANCH  13  14
DOCKED: ATOM     14  C   UNL     1     -42.355 -28.336  -0.786 -0.00 +0.00    +0.251 C  
DOCKED: BRANCH  14  15
DOCKED: ATOM     15  N   UNL     1     -42.031 -28.571   0.616 -0.00 +0.00    +0.141 N  
DOCKED: ATOM     16  C   UNL     1     -40.673 -28.114   0.916 +0.00 +0.00    +0.285 C  
DOCKED: ATOM     17  C   UNL     1     -42.997 -27.901   1.487 -0.00 +0.00    +0.285 C  
DOCKED: ENDBRANCH  14  15
DOCKED: ENDBRANCH  13  14
DOCKED: ENDBRANCH  12  13
DOCKED: ENDBRANCH   2  12
DOCKED: BRANCH   2  18
DOCKED: ATOM     18  C   UNL     1     -45.471 -30.350  -0.997 -0.13 +0.00    +0.006 A  
DOCKED: ATOM     19  C   UNL     1     -45.870 -30.254  -2.329 -0.18 +0.00    +0.001 A  
DOCKED: ATOM     20  C   UNL     1     -46.824 -29.307  -2.703 -0.22 +0.00    +0.029 A  
DOCKED: ATOM     21  C   UNL     1     -47.379 -28.460  -1.745 -0.16 +0.00    +0.140 A  
DOCKED: ATOM     22  C   UNL     1     -46.980 -28.557  -0.413 -0.16 +0.00    +0.029 A  
DOCKED: ATOM     23  F   UNL     1     -48.296 -27.552  -2.105 -0.09 -0.00    -0.204 F  
DOCKED: ATOM     24  C   UNL     1     -46.025 -29.503  -0.037 -0.13 +0.00    +0.001 A  
DOCKED: ENDBRANCH   2  18
DOCKED: TORSDOF 5
DOCKED: TER
DOCKED: ENDMDL
________________________________________________________________________________


    FINAL DOCKED STATE:
    ________________________


Run:   339 / 512
Time taken for this run:   0.001s

DOCKED: MODEL        339
DOCKED: USER    Run = 339
DOCKED: USER
DOCKED: USER    Estimated Free Energy of Binding    =  -3.24 kcal/mol  [=(1)+(2)+(3)-(4)]
DOCKED: USER
DOCKED: USER    (1) Final Intermolecular Energy     =  -4.74 kcal/mol
DOCKED: USER        vdW + Hbond + desolv Energy     =  -4.74 kcal/mol
DOCKED: USER        Electrostatic Energy            =  +0.00 kcal/mol
DOCKED: USER        Moving Ligand-Fixed Receptor    =  -4.74 kcal/mol
DOCKED: USER        Moving Ligand-Moving Receptor   =  +0.00 kcal/mol
DOCKED: USER    (2) Final Total Internal Energy     =  -1.45 kcal/mol
DOCKED: USER    (3) Torsional Free Energy           =  +1.49 kcal/mol
DOCKED: USER    (4) Unbound System's Energy         =  -1.45 kcal/mol
DOCKED: USER
DOCKED: USER
DOCKED: REMARK  5 active torsions:
DOCKED: REMARK  status: ('A' for Active; 'I' for Inactive)
DOCKED: REMARK    1  A    between atoms: C_2  and  C_19 
DOCKED: REMARK    2  A    between atoms: C_2  and  C_11 
DOCKED: REMARK    3  A    between atoms: C_19  and  C_20 
DOCKED: REMARK    4  A    between atoms: C_20  and  C_21 
DOCKED: REMARK    5  A    between atoms: C_21  and  N_22 
DOCKED: USER                              x       y       z     vdW  Elec       q    Type
DOCKED: USER                           _______ _______ _______ _____ _____    ______ ____
DOCKED: ROOT
DOCKED: ATOM      1  O   UNL     1     -49.626 -31.100  10.093 -0.02 -0.00    -0.346 OA 
DOCKED: ATOM      2  C   UNL     1     -49.196 -31.638   8.801 -0.15 +0.00    +0.130 C  
DOCKED: ATOM      3  C   UNL     1     -50.272 -32.621   8.444 -0.22 +0.00    +0.004 A  
DOCKED: ATOM      4  C   UNL     1     -51.284 -32.571   9.392 -0.13 +0.00    +0.006 A  
DOCKED: ATOM      5  C   UNL     1     -50.959 -31.557  10.420 -0.04 +0.00    +0.169 C  
DOCKED: ATOM      6  C   UNL     1     -50.354 -33.484   7.361 -0.20 -0.00    -0.001 A  
DOCKED: ATOM      7  C   UNL     1     -52.404 -33.378   9.294 -0.16 +0.00    +0.008 A  
DOCKED: ATOM      8  C   UNL     1     -51.476 -34.308   7.250 -0.38 +0.00    +0.010 A  
DOCKED: ATOM      9  C   UNL     1     -52.496 -34.254   8.212 -0.23 +0.00    +0.068 A  
DOCKED: ATOM     10  N   UNL     1     -54.566 -35.793   7.973 -1.66 -0.00    -0.191 NA 
DOCKED: ATOM     11  C   UNL     1     -53.637 -35.104   8.081 -0.01 +0.00    +0.101 C  
DOCKED: ENDROOT
DOCKED: BRANCH   2  12
DOCKED: ATOM     12  C   UNL     1     -49.092 -30.485   7.810 -0.12 +0.00    +0.038 C  
DOCKED: BRANCH  12  13
DOCKED: ATOM     13  C   UNL     1     -50.357 -30.364   6.962 -0.18 +0.00    +0.038 C  
DOCKED: BRANCH  13  14
DOCKED: ATOM     14  C   UNL     1     -51.394 -29.476   7.647 -0.10 +0.00    +0.251 C  
DOCKED: BRANCH  14  15
DOCKED: ATOM     15  N   UNL     1     -52.663 -30.184   7.776 -0.10 +0.00    +0.141 N  
DOCKED: ATOM     16  C   UNL     1     -53.703 -29.290   8.286 -0.05 +0.00    +0.285 C  
DOCKED: ATOM     17  C   UNL     1     -53.069 -30.752   6.489 -0.16 +0.00    +0.285 C  
DOCKED: ENDBRANCH  14  15
DOCKED: ENDBRANCH  13  14
DOCKED: ENDBRANCH  12  13
DOCKED: ENDBRANCH   2  12
DOCKED: BRANCH   2  18
DOCKED: ATOM     18  C   UNL     1     -47.867 -32.282   9.018 -0.16 +0.00    +0.006 A  
DOCKED: ATOM     19  C   UNL     1     -46.923 -32.294   7.992 -0.15 +0.00    +0.001 A  
DOCKED: ATOM     20  C   UNL     1     -45.681 -32.897   8.196 -0.16 +0.00    +0.029 A  
DOCKED: ATOM     21  C   UNL     1     -45.386 -33.487   9.424 -0.10 +0.00    +0.140 A  
DOCKED: ATOM     22  C   UNL     1     -46.331 -33.475  10.450 -0.12 +0.00    +0.029 A  
DOCKED: ATOM     23  F   UNL     1     -44.193 -34.064   9.620 -0.01 -0.00    -0.204 F  
DOCKED: ATOM     24  C   UNL     1     -47.573 -32.872  10.247 -0.11 +0.00    +0.001 A  
DOCKED: ENDBRANCH   2  18
DOCKED: TORSDOF 5
DOCKED: TER
DOCKED: ENDMDL
________________________________________________________________________________


    FINAL DOCKED STATE:
    ________________________


Run:   340 / 512
Time taken for this run:   0.001s

DOCKED: MODEL        340
DOCKED: USER    Run = 340
DOCKED: USER
DOCKED: USER    Estimated Free Energy of Binding    =  -3.88 kcal/mol  [=(1)+(2)+(3)-(4)]
DOCKED: USER
DOCKED: USER    (1) Final Intermolecular Energy     =  -5.37 kcal/mol
DOCKED: USER        vdW + Hbond + desolv Energy     =  -5.37 kcal/mol
DOCKED: USER        Electrostatic Energy            =  +0.00 kcal/mol
DOCKED: USER        Moving Ligand-Fixed Receptor    =  -5.37 kcal/mol
DOCKED: USER        Moving Ligand-Moving Receptor   =  +0.00 kcal/mol
DOCKED: USER    (2) Final Total Internal Energy     =  -1.43 kcal/mol
DOCKED: USER    (3) Torsional Free Energy           =  +1.49 kcal/mol
DOCKED: USER    (4) Unbound System's Energy         =  -1.43 kcal/mol
DOCKED: USER
DOCKED: USER
DOCKED: REMARK  5 active torsions:
DOCKED: REMARK  status: ('A' for Active; 'I' for Inactive)
DOCKED: REMARK    1  A    between atoms: C_2  and  C_19 
DOCKED: REMARK    2  A    between atoms: C_2  and  C_11 
DOCKED: REMARK    3  A    between atoms: C_19  and  C_20 
DOCKED: REMARK    4  A    between atoms: C_20  and  C_21 
DOCKED: REMARK    5  A    between atoms: C_21  and  N_22 
DOCKED: USER                              x       y       z     vdW  Elec       q    Type
DOCKED: USER                           _______ _______ _______ _____ _____    ______ ____
DOCKED: ROOT
DOCKED: ATOM      1  O   UNL     1     -50.781 -29.698   8.249 -0.03 -0.00    -0.346 OA 
DOCKED: ATOM      2  C   UNL     1     -52.230 -29.695   8.453 -0.07 +0.00    +0.130 C  
DOCKED: ATOM      3  C   UNL     1     -52.697 -30.928   7.735 -0.16 +0.00    +0.004 A  
DOCKED: ATOM      4  C   UNL     1     -51.601 -31.633   7.257 -0.24 +0.00    +0.006 A  
DOCKED: ATOM      5  C   UNL     1     -50.352 -30.934   7.631 -0.15 +0.00    +0.169 C  
DOCKED: ATOM      6  C   UNL     1     -53.987 -31.394   7.531 -0.17 -0.00    -0.001 A  
DOCKED: ATOM      7  C   UNL     1     -51.756 -32.818   6.559 -0.32 +0.00    +0.008 A  
DOCKED: ATOM      8  C   UNL     1     -54.160 -32.586   6.825 -0.22 +0.00    +0.010 A  
DOCKED: ATOM      9  C   UNL     1     -53.050 -33.294   6.342 -0.27 +0.00    +0.068 A  
DOCKED: ATOM     10  N   UNL     1     -53.406 -35.506   5.041 -2.42 -0.00    -0.191 NA 
DOCKED: ATOM     11  C   UNL     1     -53.246 -34.514   5.624 -0.34 +0.00    +0.101 C  
DOCKED: ENDROOT
DOCKED: BRANCH   2  12
DOCKED: ATOM     12  C   UNL     1     -52.506 -29.740   9.951 -0.03 +0.00    +0.038 C  
DOCKED: BRANCH  12  13
DOCKED: ATOM     13  C   UNL     1     -51.686 -30.831  10.636 -0.03 +0.00    +0.038 C  
DOCKED: BRANCH  13  14
DOCKED: ATOM     14  C   UNL     1     -52.487 -32.127  10.756 -0.02 +0.00    +0.251 C  
DOCKED: BRANCH  14  15
DOCKED: ATOM     15  N   UNL     1     -51.590 -33.262  10.941 -0.09 +0.00    +0.141 N  
DOCKED: ATOM     16  C   UNL     1     -52.042 -34.410  10.153 -0.15 +0.00    +0.285 C  
DOCKED: ATOM     17  C   UNL     1     -50.220 -32.902  10.574 -0.07 +0.00    +0.285 C  
DOCKED: ENDBRANCH  14  15
DOCKED: ENDBRANCH  13  14
DOCKED: ENDBRANCH  12  13
DOCKED: ENDBRANCH   2  12
DOCKED: BRANCH   2  18
DOCKED: ATOM     18  C   UNL     1     -52.753 -28.435   7.847 -0.11 +0.00    +0.006 A  
DOCKED: ATOM     19  C   UNL     1     -52.917 -28.343   6.465 -0.19 +0.00    +0.001 A  
DOCKED: ATOM     20  C   UNL     1     -53.406 -27.165   5.900 -0.11 +0.00    +0.029 A  
DOCKED: ATOM     21  C   UNL     1     -53.730 -26.082   6.716 -0.09 +0.00    +0.140 A  
DOCKED: ATOM     22  C   UNL     1     -53.566 -26.175   8.098 -0.04 +0.00    +0.029 A  
DOCKED: ATOM     23  F   UNL     1     -54.201 -24.951   6.173 -0.01 -0.00    -0.204 F  
DOCKED: ATOM     24  C   UNL     1     -53.076 -27.353   8.664 -0.04 +0.00    +0.001 A  
DOCKED: ENDBRANCH   2  18
DOCKED: TORSDOF 5
DOCKED: TER
DOCKED: ENDMDL
________________________________________________________________________________


    FINAL DOCKED STATE:
    ________________________


Run:   341 / 512
Time taken for this run:   0.001s

DOCKED: MODEL        341
DOCKED: USER    Run = 341
DOCKED: USER
DOCKED: USER    Estimated Free Energy of Binding    =  -4.24 kcal/mol  [=(1)+(2)+(3)-(4)]
DOCKED: USER
DOCKED: USER    (1) Final Intermolecular Energy     =  -5.73 kcal/mol
DOCKED: USER        vdW + Hbond + desolv Energy     =  -5.73 kcal/mol
DOCKED: USER        Electrostatic Energy            =  +0.00 kcal/mol
DOCKED: USER        Moving Ligand-Fixed Receptor    =  -5.73 kcal/mol
DOCKED: USER        Moving Ligand-Moving Receptor   =  +0.00 kcal/mol
DOCKED: USER    (2) Final Total Internal Energy     =  -1.37 kcal/mol
DOCKED: USER    (3) Torsional Free Energy           =  +1.49 kcal/mol
DOCKED: USER    (4) Unbound System's Energy         =  -1.37 kcal/mol
DOCKED: USER
DOCKED: USER
DOCKED: REMARK  5 active torsions:
DOCKED: REMARK  status: ('A' for Active; 'I' for Inactive)
DOCKED: REMARK    1  A    between atoms: C_2  and  C_19 
DOCKED: REMARK    2  A    between atoms: C_2  and  C_11 
DOCKED: REMARK    3  A    between atoms: C_19  and  C_20 
DOCKED: REMARK    4  A    between atoms: C_20  and  C_21 
DOCKED: REMARK    5  A    between atoms: C_21  and  N_22 
DOCKED: USER                              x       y       z     vdW  Elec       q    Type
DOCKED: USER                           _______ _______ _______ _____ _____    ______ ____
DOCKED: ROOT
DOCKED: ATOM      1  O   UNL     1     -54.197 -31.353   8.648 -0.00 -0.00    -0.346 OA 
DOCKED: ATOM      2  C   UNL     1     -52.804 -31.755   8.453 -0.09 +0.00    +0.130 C  
DOCKED: ATOM      3  C   UNL     1     -52.812 -32.440   7.117 -0.23 +0.00    +0.004 A  
DOCKED: ATOM      4  C   UNL     1     -54.074 -32.341   6.548 -0.24 +0.00    +0.006 A  
DOCKED: ATOM      5  C   UNL     1     -54.972 -31.584   7.449 -0.14 +0.00    +0.169 C  
DOCKED: ATOM      6  C   UNL     1     -51.781 -33.089   6.452 -0.34 -0.00    -0.001 A  
DOCKED: ATOM      7  C   UNL     1     -54.350 -32.887   5.307 -0.25 +0.00    +0.008 A  
DOCKED: ATOM      8  C   UNL     1     -52.045 -33.649   5.201 -0.27 +0.00    +0.010 A  
DOCKED: ATOM      9  C   UNL     1     -53.323 -33.548   4.631 -0.39 +0.00    +0.068 A  
DOCKED: ATOM     10  N   UNL     1     -53.777 -34.594   2.305 -1.87 -0.00    -0.191 NA 
DOCKED: ATOM     11  C   UNL     1     -53.574 -34.125   3.348 -0.47 +0.00    +0.101 C  
DOCKED: ENDROOT
DOCKED: BRANCH   2  12
DOCKED: ATOM     12  C   UNL     1     -51.933 -30.504   8.473 -0.10 +0.00    +0.038 C  
DOCKED: BRANCH  12  13
DOCKED: ATOM     13  C   UNL     1     -52.135 -29.665   7.213 -0.20 +0.00    +0.038 C  
DOCKED: BRANCH  13  14
DOCKED: ATOM     14  C   UNL     1     -52.790 -28.325   7.545 -0.10 +0.00    +0.251 C  
DOCKED: BRANCH  14  15
DOCKED: ATOM     15  N   UNL     1     -54.223 -28.499   7.752 -0.10 +0.00    +0.141 N  
DOCKED: ATOM     16  C   UNL     1     -54.710 -27.581   8.783 -0.02 +0.00    +0.285 C  
DOCKED: ATOM     17  C   UNL     1     -54.954 -28.291   6.501 -0.15 +0.00    +0.285 C  
DOCKED: ENDBRANCH  14  15
DOCKED: ENDBRANCH  13  14
DOCKED: ENDBRANCH  12  13
DOCKED: ENDBRANCH   2  12
DOCKED: BRANCH   2  18
DOCKED: ATOM     18  C   UNL     1     -52.453 -32.674   9.575 -0.10 +0.00    +0.006 A  
DOCKED: ATOM     19  C   UNL     1     -51.478 -32.303  10.500 -0.08 +0.00    +0.001 A  
DOCKED: ATOM     20  C   UNL     1     -51.150 -33.163  11.549 -0.10 +0.00    +0.029 A  
DOCKED: ATOM     21  C   UNL     1     -51.799 -34.391  11.672 -0.15 +0.00    +0.140 A  
DOCKED: ATOM     22  C   UNL     1     -52.775 -34.761  10.747 -0.08 +0.00    +0.029 A  
DOCKED: ATOM     23  F   UNL     1     -51.486 -35.216  12.680 -0.06 -0.00    -0.204 F  
DOCKED: ATOM     24  C   UNL     1     -53.103 -33.901   9.697 -0.18 +0.00    +0.001 A  
DOCKED: ENDBRANCH   2  18
DOCKED: TORSDOF 5
DOCKED: TER
DOCKED: ENDMDL
________________________________________________________________________________


    FINAL DOCKED STATE:
    ________________________


Run:   342 / 512
Time taken for this run:   0.001s

DOCKED: MODEL        342
DOCKED: USER    Run = 342
DOCKED: USER
DOCKED: USER    Estimated Free Energy of Binding    =  -4.75 kcal/mol  [=(1)+(2)+(3)-(4)]
DOCKED: USER
DOCKED: USER    (1) Final Intermolecular Energy     =  -6.24 kcal/mol
DOCKED: USER        vdW + Hbond + desolv Energy     =  -6.24 kcal/mol
DOCKED: USER        Electrostatic Energy            =  +0.00 kcal/mol
DOCKED: USER        Moving Ligand-Fixed Receptor    =  -6.24 kcal/mol
DOCKED: USER        Moving Ligand-Moving Receptor   =  +0.00 kcal/mol
DOCKED: USER    (2) Final Total Internal Energy     =  -1.32 kcal/mol
DOCKED: USER    (3) Torsional Free Energy           =  +1.49 kcal/mol
DOCKED: USER    (4) Unbound System's Energy         =  -1.32 kcal/mol
DOCKED: USER
DOCKED: USER
DOCKED: REMARK  5 active torsions:
DOCKED: REMARK  status: ('A' for Active; 'I' for Inactive)
DOCKED: REMARK    1  A    between atoms: C_2  and  C_19 
DOCKED: REMARK    2  A    between atoms: C_2  and  C_11 
DOCKED: REMARK    3  A    between atoms: C_19  and  C_20 
DOCKED: REMARK    4  A    between atoms: C_20  and  C_21 
DOCKED: REMARK    5  A    between atoms: C_21  and  N_22 
DOCKED: USER                              x       y       z     vdW  Elec       q    Type
DOCKED: USER                           _______ _______ _______ _____ _____    ______ ____
DOCKED: ROOT
DOCKED: ATOM      1  O   UNL     1     -53.633 -33.727   8.698 -0.06 -0.00    -0.346 OA 
DOCKED: ATOM      2  C   UNL     1     -52.974 -32.521   8.195 -0.12 +0.00    +0.130 C  
DOCKED: ATOM      3  C   UNL     1     -53.030 -32.677   6.702 -0.27 +0.00    +0.004 A  
DOCKED: ATOM      4  C   UNL     1     -53.755 -33.815   6.379 -0.30 +0.00    +0.006 A  
DOCKED: ATOM      5  C   UNL     1     -54.232 -34.475   7.614 -0.15 +0.00    +0.169 C  
DOCKED: ATOM      6  C   UNL     1     -52.493 -31.869   5.711 -0.32 -0.00    -0.001 A  
DOCKED: ATOM      7  C   UNL     1     -53.963 -34.186   5.061 -0.41 +0.00    +0.008 A  
DOCKED: ATOM      8  C   UNL     1     -52.691 -32.232   4.377 +0.10 +0.00    +0.010 A  
DOCKED: ATOM      9  C   UNL     1     -53.423 -33.385   4.055 -0.39 +0.00    +0.068 A  
DOCKED: ATOM     10  N   UNL     1     -53.775 -34.027   1.570 -2.93 -0.00    -0.191 NA 
DOCKED: ATOM     11  C   UNL     1     -53.616 -33.740   2.684 -0.33 +0.00    +0.101 C  
DOCKED: ENDROOT
DOCKED: BRANCH   2  12
DOCKED: ATOM     12  C   UNL     1     -53.745 -31.306   8.694 -0.09 +0.00    +0.038 C  
DOCKED: BRANCH  12  13
DOCKED: ATOM     13  C   UNL     1     -53.546 -31.098  10.195 -0.04 +0.00    +0.038 C  
DOCKED: BRANCH  13  14
DOCKED: ATOM     14  C   UNL     1     -54.634 -31.809  10.997 -0.01 +0.00    +0.251 C  
DOCKED: BRANCH  14  15
DOCKED: ATOM     15  N   UNL     1     -54.109 -33.034  11.589 -0.04 +0.00    +0.141 N  
DOCKED: ATOM     16  C   UNL     1     -53.817 -32.836  13.010 -0.01 +0.00    +0.285 C  
DOCKED: ATOM     17  C   UNL     1     -55.053 -34.138  11.414 -0.05 +0.00    +0.285 C  
DOCKED: ENDBRANCH  14  15
DOCKED: ENDBRANCH  13  14
DOCKED: ENDBRANCH  12  13
DOCKED: ENDBRANCH   2  12
DOCKED: BRANCH   2  18
DOCKED: ATOM     18  C   UNL     1     -51.580 -32.531   8.728 -0.16 +0.00    +0.006 A  
DOCKED: ATOM     19  C   UNL     1     -50.578 -31.817   8.072 -0.20 +0.00    +0.001 A  
DOCKED: ATOM     20  C   UNL     1     -49.275 -31.827   8.571 -0.17 +0.00    +0.029 A  
DOCKED: ATOM     21  C   UNL     1     -48.976 -32.550   9.725 -0.08 +0.00    +0.140 A  
DOCKED: ATOM     22  C   UNL     1     -49.979 -33.264  10.381 -0.03 +0.00    +0.029 A  
DOCKED: ATOM     23  F   UNL     1     -47.726 -32.558  10.205 -0.02 -0.00    -0.204 F  
DOCKED: ATOM     24  C   UNL     1     -51.282 -33.255   9.882 -0.16 +0.00    +0.001 A  
DOCKED: ENDBRANCH   2  18
DOCKED: TORSDOF 5
DOCKED: TER
DOCKED: ENDMDL
________________________________________________________________________________


    FINAL DOCKED STATE:
    ________________________


Run:   343 / 512
Time taken for this run:   0.001s

DOCKED: MODEL        343
DOCKED: USER    Run = 343
DOCKED: USER
DOCKED: USER    Estimated Free Energy of Binding    =  -5.74 kcal/mol  [=(1)+(2)+(3)-(4)]
DOCKED: USER
DOCKED: USER    (1) Final Intermolecular Energy     =  -7.23 kcal/mol
DOCKED: USER        vdW + Hbond + desolv Energy     =  -7.23 kcal/mol
DOCKED: USER        Electrostatic Energy            =  +0.00 kcal/mol
DOCKED: USER        Moving Ligand-Fixed Receptor    =  -7.23 kcal/mol
DOCKED: USER        Moving Ligand-Moving Receptor   =  +0.00 kcal/mol
DOCKED: USER    (2) Final Total Internal Energy     =  -1.17 kcal/mol
DOCKED: USER    (3) Torsional Free Energy           =  +1.49 kcal/mol
DOCKED: USER    (4) Unbound System's Energy         =  -1.17 kcal/mol
DOCKED: USER
DOCKED: USER
DOCKED: REMARK  5 active torsions:
DOCKED: REMARK  status: ('A' for Active; 'I' for Inactive)
DOCKED: REMARK    1  A    between atoms: C_2  and  C_19 
DOCKED: REMARK    2  A    between atoms: C_2  and  C_11 
DOCKED: REMARK    3  A    between atoms: C_19  and  C_20 
DOCKED: REMARK    4  A    between atoms: C_20  and  C_21 
DOCKED: REMARK    5  A    between atoms: C_21  and  N_22 
DOCKED: USER                              x       y       z     vdW  Elec       q    Type
DOCKED: USER                           _______ _______ _______ _____ _____    ______ ____
DOCKED: ROOT
DOCKED: ATOM      1  O   UNL     1     -52.113 -31.402   8.038 -0.03 -0.00    -0.346 OA 
DOCKED: ATOM      2  C   UNL     1     -51.728 -32.813   8.020 -0.20 +0.00    +0.130 C  
DOCKED: ATOM      3  C   UNL     1     -52.131 -33.278   6.650 -0.34 +0.00    +0.004 A  
DOCKED: ATOM      4  C   UNL     1     -52.603 -32.203   5.912 -0.34 +0.00    +0.006 A  
DOCKED: ATOM      5  C   UNL     1     -52.534 -30.967   6.724 -0.22 +0.00    +0.169 C  
DOCKED: ATOM      6  C   UNL     1     -52.073 -34.550   6.098 -0.24 -0.00    -0.001 A  
DOCKED: ATOM      7  C   UNL     1     -53.036 -32.359   4.606 +0.04 +0.00    +0.008 A  
DOCKED: ATOM      8  C   UNL     1     -52.510 -34.725   4.784 -0.48 +0.00    +0.010 A  
DOCKED: ATOM      9  C   UNL     1     -52.988 -33.635   4.042 -0.44 +0.00    +0.068 A  
DOCKED: ATOM     10  N   UNL     1     -53.786 -33.994   1.603 -2.97 -0.00    -0.191 NA 
DOCKED: ATOM     11  C   UNL     1     -53.429 -33.833   2.697 -0.42 +0.00    +0.101 C  
DOCKED: ENDROOT
DOCKED: BRANCH   2  12
DOCKED: ATOM     12  C   UNL     1     -50.226 -32.906   8.260 -0.26 +0.00    +0.038 C  
DOCKED: BRANCH  12  13
DOCKED: ATOM     13  C   UNL     1     -49.698 -31.663   8.973 -0.16 +0.00    +0.038 C  
DOCKED: BRANCH  13  14
DOCKED: ATOM     14  C   UNL     1     -48.708 -30.903   8.092 -0.08 +0.00    +0.251 C  
DOCKED: BRANCH  14  15
DOCKED: ATOM     15  N   UNL     1     -48.981 -29.472   8.142 -0.07 +0.00    +0.141 N  
DOCKED: ATOM     16  C   UNL     1     -47.982 -28.784   8.962 -0.02 +0.00    +0.285 C  
DOCKED: ATOM     17  C   UNL     1     -49.007 -28.905   6.792 -0.09 +0.00    +0.285 C  
DOCKED: ENDBRANCH  14  15
DOCKED: ENDBRANCH  13  14
DOCKED: ENDBRANCH  12  13
DOCKED: ENDBRANCH   2  12
DOCKED: BRANCH   2  18
DOCKED: ATOM     18  C   UNL     1     -52.490 -33.488   9.111 -0.18 +0.00    +0.006 A  
DOCKED: ATOM     19  C   UNL     1     -53.829 -33.827   8.919 -0.18 +0.00    +0.001 A  
DOCKED: ATOM     20  C   UNL     1     -54.541 -34.457   9.940 -0.15 +0.00    +0.029 A  
DOCKED: ATOM     21  C   UNL     1     -53.914 -34.748  11.150 -0.02 +0.00    +0.140 A  
DOCKED: ATOM     22  C   UNL     1     -52.574 -34.410  11.342 -0.18 +0.00    +0.029 A  
DOCKED: ATOM     23  F   UNL     1     -54.597 -35.355  12.130 -0.04 -0.00    -0.204 F  
DOCKED: ATOM     24  C   UNL     1     -51.861 -33.778  10.321 -0.18 +0.00    +0.001 A  
DOCKED: ENDBRANCH   2  18
DOCKED: TORSDOF 5
DOCKED: TER
DOCKED: ENDMDL
________________________________________________________________________________


    FINAL DOCKED STATE:
    ________________________


Run:   344 / 512
Time taken for this run:   0.001s

DOCKED: MODEL        344
DOCKED: USER    Run = 344
DOCKED: USER
DOCKED: USER    Estimated Free Energy of Binding    =  -4.12 kcal/mol  [=(1)+(2)+(3)-(4)]
DOCKED: USER
DOCKED: USER    (1) Final Intermolecular Energy     =  -5.61 kcal/mol
DOCKED: USER        vdW + Hbond + desolv Energy     =  -5.61 kcal/mol
DOCKED: USER        Electrostatic Energy            =  +0.00 kcal/mol
DOCKED: USER        Moving Ligand-Fixed Receptor    =  -5.61 kcal/mol
DOCKED: USER        Moving Ligand-Moving Receptor   =  +0.00 kcal/mol
DOCKED: USER    (2) Final Total Internal Energy     =  -1.23 kcal/mol
DOCKED: USER    (3) Torsional Free Energy           =  +1.49 kcal/mol
DOCKED: USER    (4) Unbound System's Energy         =  -1.23 kcal/mol
DOCKED: USER
DOCKED: USER
DOCKED: REMARK  5 active torsions:
DOCKED: REMARK  status: ('A' for Active; 'I' for Inactive)
DOCKED: REMARK    1  A    between atoms: C_2  and  C_19 
DOCKED: REMARK    2  A    between atoms: C_2  and  C_11 
DOCKED: REMARK    3  A    between atoms: C_19  and  C_20 
DOCKED: REMARK    4  A    between atoms: C_20  and  C_21 
DOCKED: REMARK    5  A    between atoms: C_21  and  N_22 
DOCKED: USER                              x       y       z     vdW  Elec       q    Type
DOCKED: USER                           _______ _______ _______ _____ _____    ______ ____
DOCKED: ROOT
DOCKED: ATOM      1  O   UNL     1     -55.602 -31.495   8.296 -0.01 -0.00    -0.346 OA 
DOCKED: ATOM      2  C   UNL     1     -54.336 -32.191   8.532 -0.08 +0.00    +0.130 C  
DOCKED: ATOM      3  C   UNL     1     -54.025 -32.832   7.211 -0.20 +0.00    +0.004 A  
DOCKED: ATOM      4  C   UNL     1     -54.971 -32.446   6.271 -0.25 +0.00    +0.006 A  
DOCKED: ATOM      5  C   UNL     1     -55.951 -31.527   6.892 -0.20 +0.00    +0.169 C  
DOCKED: ATOM      6  C   UNL     1     -52.983 -33.679   6.865 -0.28 -0.00    -0.001 A  
DOCKED: ATOM      7  C   UNL     1     -54.911 -32.894   4.962 -0.11 +0.00    +0.008 A  
DOCKED: ATOM      8  C   UNL     1     -52.911 -34.143   5.550 -0.42 +0.00    +0.010 A  
DOCKED: ATOM      9  C   UNL     1     -53.870 -33.752   4.604 -0.37 +0.00    +0.068 A  
DOCKED: ATOM     10  N   UNL     1     -53.704 -34.627   2.171 -1.82 -0.00    -0.191 NA 
DOCKED: ATOM     11  C   UNL     1     -53.779 -34.235   3.262 -0.42 +0.00    +0.101 C  
DOCKED: ENDROOT
DOCKED: BRANCH   2  12
DOCKED: ATOM     12  C   UNL     1     -53.292 -31.163   8.954 -0.08 +0.00    +0.038 C  
DOCKED: BRANCH  12  13
DOCKED: ATOM     13  C   UNL     1     -53.731 -29.745   8.594 -0.09 +0.00    +0.038 C  
DOCKED: BRANCH  13  14
DOCKED: ATOM     14  C   UNL     1     -53.431 -29.432   7.130 -0.16 +0.00    +0.251 C  
DOCKED: BRANCH  14  15
DOCKED: ATOM     15  N   UNL     1     -52.021 -29.102   6.959 -0.15 +0.00    +0.141 N  
DOCKED: ATOM     16  C   UNL     1     -51.452 -28.605   8.213 -0.04 +0.00    +0.285 C  
DOCKED: ATOM     17  C   UNL     1     -51.272 -30.269   6.489 -0.17 +0.00    +0.285 C  
DOCKED: ENDBRANCH  14  15
DOCKED: ENDBRANCH  13  14
DOCKED: ENDBRANCH  12  13
DOCKED: ENDBRANCH   2  12
DOCKED: BRANCH   2  18
DOCKED: ATOM     18  C   UNL     1     -54.581 -33.185   9.617 -0.10 +0.00    +0.006 A  
DOCKED: ATOM     19  C   UNL     1     -55.445 -34.258   9.398 -0.17 +0.00    +0.001 A  
DOCKED: ATOM     20  C   UNL     1     -55.673 -35.187  10.413 -0.14 +0.00    +0.029 A  
DOCKED: ATOM     21  C   UNL     1     -55.038 -35.043  11.646 -0.10 +0.00    +0.140 A  
DOCKED: ATOM     22  C   UNL     1     -54.175 -33.970  11.865 -0.11 +0.00    +0.029 A  
DOCKED: ATOM     23  F   UNL     1     -55.256 -35.936  12.620 -0.06 -0.00    -0.204 F  
DOCKED: ATOM     24  C   UNL     1     -53.946 -33.040  10.850 -0.08 +0.00    +0.001 A  
DOCKED: ENDBRANCH   2  18
DOCKED: TORSDOF 5
DOCKED: TER
DOCKED: ENDMDL
________________________________________________________________________________


    FINAL DOCKED STATE:
    ________________________


Run:   345 / 512
Time taken for this run:   0.001s

DOCKED: MODEL        345
DOCKED: USER    Run = 345
DOCKED: USER
DOCKED: USER    Estimated Free Energy of Binding    =  -3.73 kcal/mol  [=(1)+(2)+(3)-(4)]
DOCKED: USER
DOCKED: USER    (1) Final Intermolecular Energy     =  -5.22 kcal/mol
DOCKED: USER        vdW + Hbond + desolv Energy     =  -5.22 kcal/mol
DOCKED: USER        Electrostatic Energy            =  +0.00 kcal/mol
DOCKED: USER        Moving Ligand-Fixed Receptor    =  -5.22 kcal/mol
DOCKED: USER        Moving Ligand-Moving Receptor   =  +0.00 kcal/mol
DOCKED: USER    (2) Final Total Internal Energy     =  -1.41 kcal/mol
DOCKED: USER    (3) Torsional Free Energy           =  +1.49 kcal/mol
DOCKED: USER    (4) Unbound System's Energy         =  -1.41 kcal/mol
DOCKED: USER
DOCKED: USER
DOCKED: REMARK  5 active torsions:
DOCKED: REMARK  status: ('A' for Active; 'I' for Inactive)
DOCKED: REMARK    1  A    between atoms: C_2  and  C_19 
DOCKED: REMARK    2  A    between atoms: C_2  and  C_11 
DOCKED: REMARK    3  A    between atoms: C_19  and  C_20 
DOCKED: REMARK    4  A    between atoms: C_20  and  C_21 
DOCKED: REMARK    5  A    between atoms: C_21  and  N_22 
DOCKED: USER                              x       y       z     vdW  Elec       q    Type
DOCKED: USER                           _______ _______ _______ _____ _____    ______ ____
DOCKED: ROOT
DOCKED: ATOM      1  O   UNL     1     -46.037 -29.524   0.804 +0.00 -0.00    -0.346 OA 
DOCKED: ATOM      2  C   UNL     1     -45.081 -30.398   0.124 -0.09 +0.00    +0.130 C  
DOCKED: ATOM      3  C   UNL     1     -45.183 -31.695   0.873 -0.13 +0.00    +0.004 A  
DOCKED: ATOM      4  C   UNL     1     -46.188 -31.606   1.826 -0.25 +0.00    +0.006 A  
DOCKED: ATOM      5  C   UNL     1     -46.820 -30.269   1.766 -0.19 +0.00    +0.169 C  
DOCKED: ATOM      6  C   UNL     1     -44.453 -32.864   0.716 -0.12 -0.00    -0.001 A  
DOCKED: ATOM      7  C   UNL     1     -46.493 -32.673   2.653 -0.27 +0.00    +0.008 A  
DOCKED: ATOM      8  C   UNL     1     -44.746 -33.948   1.545 -0.19 +0.00    +0.010 A  
DOCKED: ATOM      9  C   UNL     1     -45.761 -33.853   2.508 -0.30 +0.00    +0.068 A  
DOCKED: ATOM     10  N   UNL     1     -46.284 -35.885   4.028 -2.62 -0.00    -0.191 NA 
DOCKED: ATOM     11  C   UNL     1     -46.049 -34.973   3.347 -0.36 +0.00    +0.101 C  
DOCKED: ENDROOT
DOCKED: BRANCH   2  12
DOCKED: ATOM     12  C   UNL     1     -45.495 -30.522  -1.338 -0.14 +0.00    +0.038 C  
DOCKED: BRANCH  12  13
DOCKED: ATOM     13  C   UNL     1     -46.682 -29.616  -1.659 -0.18 +0.00    +0.038 C  
DOCKED: BRANCH  13  14
DOCKED: ATOM     14  C   UNL     1     -46.214 -28.290  -2.257 -0.11 +0.00    +0.251 C  
DOCKED: BRANCH  14  15
DOCKED: ATOM     15  N   UNL     1     -46.885 -27.174  -1.602 -0.10 +0.00    +0.141 N  
DOCKED: ATOM     16  C   UNL     1     -47.892 -27.659  -0.657 -0.12 +0.00    +0.285 C  
DOCKED: ATOM     17  C   UNL     1     -45.914 -26.320  -0.915 -0.01 +0.00    +0.285 C  
DOCKED: ENDBRANCH  14  15
DOCKED: ENDBRANCH  13  14
DOCKED: ENDBRANCH  12  13
DOCKED: ENDBRANCH   2  12
DOCKED: BRANCH   2  18
DOCKED: ATOM     18  C   UNL     1     -43.738 -29.758   0.250 -0.02 +0.00    +0.006 A  
DOCKED: ATOM     19  C   UNL     1     -43.338 -28.792  -0.672 -0.00 +0.00    +0.001 A  
DOCKED: ATOM     20  C   UNL     1     -42.083 -28.194  -0.554 -0.00 +0.00    +0.029 A  
DOCKED: ATOM     21  C   UNL     1     -41.231 -28.562   0.486 +0.00 +0.00    +0.140 A  
DOCKED: ATOM     22  C   UNL     1     -41.632 -29.529   1.409 -0.00 +0.00    +0.029 A  
DOCKED: ATOM     23  F   UNL     1     -40.027 -27.987   0.601 +0.00 -0.00    -0.204 F  
DOCKED: ATOM     24  C   UNL     1     -42.887 -30.127   1.290 -0.01 +0.00    +0.001 A  
DOCKED: ENDBRANCH   2  18
DOCKED: TORSDOF 5
DOCKED: TER
DOCKED: ENDMDL
________________________________________________________________________________


    FINAL DOCKED STATE:
    ________________________


Run:   346 / 512
Time taken for this run:   0.001s

DOCKED: MODEL        346
DOCKED: USER    Run = 346
DOCKED: USER
DOCKED: USER    Estimated Free Energy of Binding    =  -3.89 kcal/mol  [=(1)+(2)+(3)-(4)]
DOCKED: USER
DOCKED: USER    (1) Final Intermolecular Energy     =  -5.38 kcal/mol
DOCKED: USER        vdW + Hbond + desolv Energy     =  -5.38 kcal/mol
DOCKED: USER        Electrostatic Energy            =  +0.00 kcal/mol
DOCKED: USER        Moving Ligand-Fixed Receptor    =  -5.38 kcal/mol
DOCKED: USER        Moving Ligand-Moving Receptor   =  +0.00 kcal/mol
DOCKED: USER    (2) Final Total Internal Energy     =  -1.07 kcal/mol
DOCKED: USER    (3) Torsional Free Energy           =  +1.49 kcal/mol
DOCKED: USER    (4) Unbound System's Energy         =  -1.07 kcal/mol
DOCKED: USER
DOCKED: USER
DOCKED: REMARK  5 active torsions:
DOCKED: REMARK  status: ('A' for Active; 'I' for Inactive)
DOCKED: REMARK    1  A    between atoms: C_2  and  C_19 
DOCKED: REMARK    2  A    between atoms: C_2  and  C_11 
DOCKED: REMARK    3  A    between atoms: C_19  and  C_20 
DOCKED: REMARK    4  A    between atoms: C_20  and  C_21 
DOCKED: REMARK    5  A    between atoms: C_21  and  N_22 
DOCKED: USER                              x       y       z     vdW  Elec       q    Type
DOCKED: USER                           _______ _______ _______ _____ _____    ______ ____
DOCKED: ROOT
DOCKED: ATOM      1  O   UNL     1     -43.181 -33.711  -1.686 -0.00 -0.00    -0.346 OA 
DOCKED: ATOM      2  C   UNL     1     -43.543 -32.516  -0.923 -0.07 +0.00    +0.130 C  
DOCKED: ATOM      3  C   UNL     1     -44.220 -33.061   0.300 -0.11 +0.00    +0.004 A  
DOCKED: ATOM      4  C   UNL     1     -44.154 -34.447   0.292 -0.14 +0.00    +0.006 A  
DOCKED: ATOM      5  C   UNL     1     -43.428 -34.908  -0.913 -0.07 +0.00    +0.169 C  
DOCKED: ATOM      6  C   UNL     1     -44.836 -32.384   1.343 -0.13 -0.00    -0.001 A  
DOCKED: ATOM      7  C   UNL     1     -44.702 -35.201   1.316 -0.26 +0.00    +0.008 A  
DOCKED: ATOM      8  C   UNL     1     -45.397 -33.130   2.381 -0.25 +0.00    +0.010 A  
DOCKED: ATOM      9  C   UNL     1     -45.329 -34.532   2.368 -0.30 +0.00    +0.068 A  
DOCKED: ATOM     10  N   UNL     1     -46.375 -35.886   4.313 -2.60 -0.00    -0.191 NA 
DOCKED: ATOM     11  C   UNL     1     -45.906 -35.278   3.440 -0.40 +0.00    +0.101 C  
DOCKED: ENDROOT
DOCKED: BRANCH   2  12
DOCKED: ATOM     12  C   UNL     1     -42.268 -31.745  -0.602 -0.01 +0.00    +0.038 C  
DOCKED: BRANCH  12  13
DOCKED: ATOM     13  C   UNL     1     -42.478 -30.783   0.566 -0.01 +0.00    +0.038 C  
DOCKED: BRANCH  13  14
DOCKED: ATOM     14  C   UNL     1     -41.610 -29.536   0.414 -0.00 +0.00    +0.251 C  
DOCKED: BRANCH  14  15
DOCKED: ATOM     15  N   UNL     1     -42.447 -28.353   0.247 -0.00 +0.00    +0.141 N  
DOCKED: ATOM     16  C   UNL     1     -42.667 -28.073  -1.172 -0.00 +0.00    +0.285 C  
DOCKED: ATOM     17  C   UNL     1     -43.727 -28.526   0.935 -0.00 +0.00    +0.285 C  
DOCKED: ENDBRANCH  14  15
DOCKED: ENDBRANCH  13  14
DOCKED: ENDBRANCH  12  13
DOCKED: ENDBRANCH   2  12
DOCKED: BRANCH   2  18
DOCKED: ATOM     18  C   UNL     1     -44.457 -31.709  -1.784 -0.12 +0.00    +0.006 A  
DOCKED: ATOM     19  C   UNL     1     -45.252 -30.714  -1.215 -0.12 +0.00    +0.001 A  
DOCKED: ATOM     20  C   UNL     1     -46.106 -29.961  -2.021 -0.17 +0.00    +0.029 A  
DOCKED: ATOM     21  C   UNL     1     -46.164 -30.202  -3.393 -0.19 +0.00    +0.140 A  
DOCKED: ATOM     22  C   UNL     1     -45.369 -31.197  -3.961 -0.17 +0.00    +0.029 A  
DOCKED: ATOM     23  F   UNL     1     -46.984 -29.478  -4.166 -0.12 -0.00    -0.204 F  
DOCKED: ATOM     24  C   UNL     1     -44.514 -31.952  -3.156 -0.13 +0.00    +0.001 A  
DOCKED: ENDBRANCH   2  18
DOCKED: TORSDOF 5
DOCKED: TER
DOCKED: ENDMDL
________________________________________________________________________________


    FINAL DOCKED STATE:
    ________________________


Run:   347 / 512
Time taken for this run:   0.001s

DOCKED: MODEL        347
DOCKED: USER    Run = 347
DOCKED: USER
DOCKED: USER    Estimated Free Energy of Binding    =  -4.16 kcal/mol  [=(1)+(2)+(3)-(4)]
DOCKED: USER
DOCKED: USER    (1) Final Intermolecular Energy     =  -5.65 kcal/mol
DOCKED: USER        vdW + Hbond + desolv Energy     =  -5.65 kcal/mol
DOCKED: USER        Electrostatic Energy            =  +0.00 kcal/mol
DOCKED: USER        Moving Ligand-Fixed Receptor    =  -5.65 kcal/mol
DOCKED: USER        Moving Ligand-Moving Receptor   =  +0.00 kcal/mol
DOCKED: USER    (2) Final Total Internal Energy     =  -1.07 kcal/mol
DOCKED: USER    (3) Torsional Free Energy           =  +1.49 kcal/mol
DOCKED: USER    (4) Unbound System's Energy         =  -1.07 kcal/mol
DOCKED: USER
DOCKED: USER
DOCKED: REMARK  5 active torsions:
DOCKED: REMARK  status: ('A' for Active; 'I' for Inactive)
DOCKED: REMARK    1  A    between atoms: C_2  and  C_19 
DOCKED: REMARK    2  A    between atoms: C_2  and  C_11 
DOCKED: REMARK    3  A    between atoms: C_19  and  C_20 
DOCKED: REMARK    4  A    between atoms: C_20  and  C_21 
DOCKED: REMARK    5  A    between atoms: C_21  and  N_22 
DOCKED: USER                              x       y       z     vdW  Elec       q    Type
DOCKED: USER                           _______ _______ _______ _____ _____    ______ ____
DOCKED: ROOT
DOCKED: ATOM      1  O   UNL     1     -54.352 -28.809   7.623 -0.06 -0.00    -0.346 OA 
DOCKED: ATOM      2  C   UNL     1     -52.910 -29.052   7.562 -0.14 +0.00    +0.130 C  
DOCKED: ATOM      3  C   UNL     1     -52.806 -30.476   7.098 -0.22 +0.00    +0.004 A  
DOCKED: ATOM      4  C   UNL     1     -54.071 -30.969   6.812 -0.22 +0.00    +0.006 A  
DOCKED: ATOM      5  C   UNL     1     -55.085 -29.917   7.051 -0.19 +0.00    +0.169 C  
DOCKED: ATOM      6  C   UNL     1     -51.680 -31.269   6.931 -0.26 -0.00    -0.001 A  
DOCKED: ATOM      7  C   UNL     1     -54.255 -32.263   6.357 -0.24 +0.00    +0.008 A  
DOCKED: ATOM      8  C   UNL     1     -51.849 -32.578   6.477 -0.32 +0.00    +0.010 A  
DOCKED: ATOM      9  C   UNL     1     -53.130 -33.072   6.191 -0.27 +0.00    +0.068 A  
DOCKED: ATOM     10  N   UNL     1     -53.409 -35.505   5.345 -2.62 -0.00    -0.191 NA 
DOCKED: ATOM     11  C   UNL     1     -53.284 -34.414   5.725 -0.36 +0.00    +0.101 C  
DOCKED: ENDROOT
DOCKED: BRANCH   2  12
DOCKED: ATOM     12  C   UNL     1     -52.294 -28.062   6.581 -0.18 +0.00    +0.038 C  
DOCKED: BRANCH  12  13
DOCKED: ATOM     13  C   UNL     1     -53.339 -27.082   6.049 -0.18 +0.00    +0.038 C  
DOCKED: BRANCH  13  14
DOCKED: ATOM     14  C   UNL     1     -53.120 -25.682   6.619 -0.07 +0.00    +0.251 C  
DOCKED: BRANCH  14  15
DOCKED: ATOM     15  N   UNL     1     -52.683 -24.769   5.570 -0.07 +0.00    +0.141 N  
DOCKED: ATOM     16  C   UNL     1     -51.238 -24.878   5.359 -0.05 +0.00    +0.285 C  
DOCKED: ATOM     17  C   UNL     1     -53.399 -25.038   4.322 -0.11 +0.00    +0.285 C  
DOCKED: ENDBRANCH  14  15
DOCKED: ENDBRANCH  13  14
DOCKED: ENDBRANCH  12  13
DOCKED: ENDBRANCH   2  12
DOCKED: BRANCH   2  18
DOCKED: ATOM     18  C   UNL     1     -52.375 -28.849   8.940 -0.04 +0.00    +0.006 A  
DOCKED: ATOM     19  C   UNL     1     -51.009 -28.645   9.133 -0.03 +0.00    +0.001 A  
DOCKED: ATOM     20  C   UNL     1     -50.509 -28.455  10.422 -0.01 +0.00    +0.029 A  
DOCKED: ATOM     21  C   UNL     1     -51.375 -28.469  11.515 -0.00 +0.00    +0.140 A  
DOCKED: ATOM     22  C   UNL     1     -52.741 -28.672  11.320 -0.00 +0.00    +0.029 A  
DOCKED: ATOM     23  F   UNL     1     -50.896 -28.285  12.752 +0.00 -0.00    -0.204 F  
DOCKED: ATOM     24  C   UNL     1     -53.242 -28.863  10.031 -0.02 +0.00    +0.001 A  
DOCKED: ENDBRANCH   2  18
DOCKED: TORSDOF 5
DOCKED: TER
DOCKED: ENDMDL
________________________________________________________________________________


    FINAL DOCKED STATE:
    ________________________


Run:   348 / 512
Time taken for this run:   0.001s

DOCKED: MODEL        348
DOCKED: USER    Run = 348
DOCKED: USER
DOCKED: USER    Estimated Free Energy of Binding    =  -6.40 kcal/mol  [=(1)+(2)+(3)-(4)]
DOCKED: USER
DOCKED: USER    (1) Final Intermolecular Energy     =  -7.89 kcal/mol
DOCKED: USER        vdW + Hbond + desolv Energy     =  -7.89 kcal/mol
DOCKED: USER        Electrostatic Energy            =  +0.00 kcal/mol
DOCKED: USER        Moving Ligand-Fixed Receptor    =  -7.89 kcal/mol
DOCKED: USER        Moving Ligand-Moving Receptor   =  +0.00 kcal/mol
DOCKED: USER    (2) Final Total Internal Energy     =  -1.17 kcal/mol
DOCKED: USER    (3) Torsional Free Energy           =  +1.49 kcal/mol
DOCKED: USER    (4) Unbound System's Energy         =  -1.17 kcal/mol
DOCKED: USER
DOCKED: USER
DOCKED: REMARK  5 active torsions:
DOCKED: REMARK  status: ('A' for Active; 'I' for Inactive)
DOCKED: REMARK    1  A    between atoms: C_2  and  C_19 
DOCKED: REMARK    2  A    between atoms: C_2  and  C_11 
DOCKED: REMARK    3  A    between atoms: C_19  and  C_20 
DOCKED: REMARK    4  A    between atoms: C_20  and  C_21 
DOCKED: REMARK    5  A    between atoms: C_21  and  N_22 
DOCKED: USER                              x       y       z     vdW  Elec       q    Type
DOCKED: USER                           _______ _______ _______ _____ _____    ______ ____
DOCKED: ROOT
DOCKED: ATOM      1  O   UNL     1     -51.044 -34.992   7.620 -0.60 -0.00    -0.346 OA 
DOCKED: ATOM      2  C   UNL     1     -52.294 -34.261   7.833 -0.25 +0.00    +0.130 C  
DOCKED: ATOM      3  C   UNL     1     -52.844 -34.077   6.448 -0.31 +0.00    +0.004 A  
DOCKED: ATOM      4  C   UNL     1     -52.037 -34.741   5.534 -0.39 +0.00    +0.006 A  
DOCKED: ATOM      5  C   UNL     1     -50.922 -35.410   6.241 -0.14 +0.00    +0.169 C  
DOCKED: ATOM      6  C   UNL     1     -53.973 -33.388   6.031 -0.31 -0.00    -0.001 A  
DOCKED: ATOM      7  C   UNL     1     -52.327 -34.735   4.180 -0.37 +0.00    +0.008 A  
DOCKED: ATOM      8  C   UNL     1     -54.276 -33.369   4.669 -0.34 +0.00    +0.010 A  
DOCKED: ATOM      9  C   UNL     1     -53.457 -34.040   3.748 -0.45 +0.00    +0.068 A  
DOCKED: ATOM     10  N   UNL     1     -54.051 -33.989   1.227 -3.25 -0.00    -0.191 NA 
DOCKED: ATOM     11  C   UNL     1     -53.784 -34.011   2.358 -0.29 +0.00    +0.101 C  
DOCKED: ENDROOT
DOCKED: BRANCH   2  12
DOCKED: ATOM     12  C   UNL     1     -53.200 -35.102   8.724 -0.21 +0.00    +0.038 C  
DOCKED: BRANCH  12  13
DOCKED: ATOM     13  C   UNL     1     -54.305 -34.256   9.353 -0.21 +0.00    +0.038 C  
DOCKED: BRANCH  13  14
DOCKED: ATOM     14  C   UNL     1     -54.063 -34.058  10.848 -0.08 +0.00    +0.251 C  
DOCKED: BRANCH  14  15
DOCKED: ATOM     15  N   UNL     1     -54.490 -32.726  11.259 -0.03 +0.00    +0.141 N  
DOCKED: ATOM     16  C   UNL     1     -55.936 -32.573  11.089 -0.00 +0.00    +0.285 C  
DOCKED: ATOM     17  C   UNL     1     -54.114 -32.471  12.651 -0.00 +0.00    +0.285 C  
DOCKED: ENDBRANCH  14  15
DOCKED: ENDBRANCH  13  14
DOCKED: ENDBRANCH  12  13
DOCKED: ENDBRANCH   2  12
DOCKED: BRANCH   2  18
DOCKED: ATOM     18  C   UNL     1     -51.938 -32.971   8.493 -0.18 +0.00    +0.006 A  
DOCKED: ATOM     19  C   UNL     1     -51.069 -32.963   9.584 -0.15 +0.00    +0.001 A  
DOCKED: ATOM     20  C   UNL     1     -50.737 -31.756  10.200 -0.07 +0.00    +0.029 A  
DOCKED: ATOM     21  C   UNL     1     -51.273 -30.559   9.725 -0.03 +0.00    +0.140 A  
DOCKED: ATOM     22  C   UNL     1     -52.141 -30.568   8.634 -0.08 +0.00    +0.029 A  
DOCKED: ATOM     23  F   UNL     1     -50.952 -29.401  10.316 +0.00 -0.00    -0.204 F  
DOCKED: ATOM     24  C   UNL     1     -52.474 -31.775   8.017 -0.14 +0.00    +0.001 A  
DOCKED: ENDBRANCH   2  18
DOCKED: TORSDOF 5
DOCKED: TER
DOCKED: ENDMDL
________________________________________________________________________________


    FINAL DOCKED STATE:
    ________________________


Run:   349 / 512
Time taken for this run:   0.001s

DOCKED: MODEL        349
DOCKED: USER    Run = 349
DOCKED: USER
DOCKED: USER    Estimated Free Energy of Binding    =  -3.62 kcal/mol  [=(1)+(2)+(3)-(4)]
DOCKED: USER
DOCKED: USER    (1) Final Intermolecular Energy     =  -5.11 kcal/mol
DOCKED: USER        vdW + Hbond + desolv Energy     =  -5.11 kcal/mol
DOCKED: USER        Electrostatic Energy            =  +0.00 kcal/mol
DOCKED: USER        Moving Ligand-Fixed Receptor    =  -5.11 kcal/mol
DOCKED: USER        Moving Ligand-Moving Receptor   =  +0.00 kcal/mol
DOCKED: USER    (2) Final Total Internal Energy     =  -1.46 kcal/mol
DOCKED: USER    (3) Torsional Free Energy           =  +1.49 kcal/mol
DOCKED: USER    (4) Unbound System's Energy         =  -1.46 kcal/mol
DOCKED: USER
DOCKED: USER
DOCKED: REMARK  5 active torsions:
DOCKED: REMARK  status: ('A' for Active; 'I' for Inactive)
DOCKED: REMARK    1  A    between atoms: C_2  and  C_19 
DOCKED: REMARK    2  A    between atoms: C_2  and  C_11 
DOCKED: REMARK    3  A    between atoms: C_19  and  C_20 
DOCKED: REMARK    4  A    between atoms: C_20  and  C_21 
DOCKED: REMARK    5  A    between atoms: C_21  and  N_22 
DOCKED: USER                              x       y       z     vdW  Elec       q    Type
DOCKED: USER                           _______ _______ _______ _____ _____    ______ ____
DOCKED: ROOT
DOCKED: ATOM      1  O   UNL     1     -44.282 -20.482  -4.893 -0.02 -0.00    -0.346 OA 
DOCKED: ATOM      2  C   UNL     1     -44.714 -20.485  -3.495 -0.07 +0.00    +0.130 C  
DOCKED: ATOM      3  C   UNL     1     -46.164 -20.869  -3.568 -0.14 +0.00    +0.004 A  
DOCKED: ATOM      4  C   UNL     1     -46.503 -21.168  -4.880 -0.18 +0.00    +0.006 A  
DOCKED: ATOM      5  C   UNL     1     -45.317 -21.016  -5.752 -0.09 +0.00    +0.169 C  
DOCKED: ATOM      6  C   UNL     1     -47.105 -20.959  -2.552 -0.24 -0.00    -0.001 A  
DOCKED: ATOM      7  C   UNL     1     -47.786 -21.559  -5.222 -0.29 +0.00    +0.008 A  
DOCKED: ATOM      8  C   UNL     1     -48.404 -21.348  -2.881 -0.31 +0.00    +0.010 A  
DOCKED: ATOM      9  C   UNL     1     -48.743 -21.647  -4.210 -0.35 +0.00    +0.068 A  
DOCKED: ATOM     10  N   UNL     1     -51.163 -22.371  -4.785 -2.52 -0.00    -0.191 NA 
DOCKED: ATOM     11  C   UNL     1     -50.078 -22.045  -4.527 -0.42 +0.00    +0.101 C  
DOCKED: ENDROOT
DOCKED: BRANCH   2  12
DOCKED: ATOM     12  C   UNL     1     -43.870 -21.498  -2.731 -0.03 +0.00    +0.038 C  
DOCKED: BRANCH  12  13
DOCKED: ATOM     13  C   UNL     1     -42.774 -22.089  -3.616 -0.01 +0.00    +0.038 C  
DOCKED: BRANCH  13  14
DOCKED: ATOM     14  C   UNL     1     -41.612 -21.111  -3.779 +0.00 +0.00    +0.251 C  
DOCKED: BRANCH  14  15
DOCKED: ATOM     15  N   UNL     1     -41.112 -21.142  -5.149 -0.00 +0.00    +0.141 N  
DOCKED: ATOM     16  C   UNL     1     -41.931 -22.028  -5.977 +0.00 +0.00    +0.285 C  
DOCKED: ATOM     17  C   UNL     1     -41.085 -19.794  -5.719 +0.00 +0.00    +0.285 C  
DOCKED: ENDBRANCH  14  15
DOCKED: ENDBRANCH  13  14
DOCKED: ENDBRANCH  12  13
DOCKED: ENDBRANCH   2  12
DOCKED: BRANCH   2  18
DOCKED: ATOM     18  C   UNL     1     -44.504 -19.104  -2.970 -0.09 +0.00    +0.006 A  
DOCKED: ATOM     19  C   UNL     1     -45.058 -18.013  -3.639 -0.14 +0.00    +0.001 A  
DOCKED: ATOM     20  C   UNL     1     -44.860 -16.722  -3.148 -0.11 +0.00    +0.029 A  
DOCKED: ATOM     21  C   UNL     1     -44.111 -16.524  -1.989 -0.02 +0.00    +0.140 A  
DOCKED: ATOM     22  C   UNL     1     -43.559 -17.616  -1.320 -0.02 +0.00    +0.029 A  
DOCKED: ATOM     23  F   UNL     1     -43.923 -15.285  -1.516 +0.01 -0.00    -0.204 F  
DOCKED: ATOM     24  C   UNL     1     -43.755 -18.908  -1.811 -0.04 +0.00    +0.001 A  
DOCKED: ENDBRANCH   2  18
DOCKED: TORSDOF 5
DOCKED: TER
DOCKED: ENDMDL
________________________________________________________________________________


    FINAL DOCKED STATE:
    ________________________


Run:   350 / 512
Time taken for this run:   0.001s

DOCKED: MODEL        350
DOCKED: USER    Run = 350
DOCKED: USER
DOCKED: USER    Estimated Free Energy of Binding    =  -4.25 kcal/mol  [=(1)+(2)+(3)-(4)]
DOCKED: USER
DOCKED: USER    (1) Final Intermolecular Energy     =  -5.75 kcal/mol
DOCKED: USER        vdW + Hbond + desolv Energy     =  -5.75 kcal/mol
DOCKED: USER        Electrostatic Energy            =  +0.00 kcal/mol
DOCKED: USER        Moving Ligand-Fixed Receptor    =  -5.75 kcal/mol
DOCKED: USER        Moving Ligand-Moving Receptor   =  +0.00 kcal/mol
DOCKED: USER    (2) Final Total Internal Energy     =  -1.21 kcal/mol
DOCKED: USER    (3) Torsional Free Energy           =  +1.49 kcal/mol
DOCKED: USER    (4) Unbound System's Energy         =  -1.21 kcal/mol
DOCKED: USER
DOCKED: USER
DOCKED: REMARK  5 active torsions:
DOCKED: REMARK  status: ('A' for Active; 'I' for Inactive)
DOCKED: REMARK    1  A    between atoms: C_2  and  C_19 
DOCKED: REMARK    2  A    between atoms: C_2  and  C_11 
DOCKED: REMARK    3  A    between atoms: C_19  and  C_20 
DOCKED: REMARK    4  A    between atoms: C_20  and  C_21 
DOCKED: REMARK    5  A    between atoms: C_21  and  N_22 
DOCKED: USER                              x       y       z     vdW  Elec       q    Type
DOCKED: USER                           _______ _______ _______ _____ _____    ______ ____
DOCKED: ROOT
DOCKED: ATOM      1  O   UNL     1     -49.130 -31.155   8.895 -0.06 -0.00    -0.346 OA 
DOCKED: ATOM      2  C   UNL     1     -49.952 -30.269   8.070 -0.12 +0.00    +0.130 C  
DOCKED: ATOM      3  C   UNL     1     -50.878 -31.205   7.349 -0.22 +0.00    +0.004 A  
DOCKED: ATOM      4  C   UNL     1     -50.679 -32.501   7.804 -0.25 +0.00    +0.006 A  
DOCKED: ATOM      5  C   UNL     1     -49.633 -32.511   8.850 -0.16 +0.00    +0.169 C  
DOCKED: ATOM      6  C   UNL     1     -51.829 -30.930   6.377 -0.27 -0.00    -0.001 A  
DOCKED: ATOM      7  C   UNL     1     -51.415 -33.561   7.303 -0.33 +0.00    +0.008 A  
DOCKED: ATOM      8  C   UNL     1     -52.576 -31.989   5.859 -0.33 +0.00    +0.010 A  
DOCKED: ATOM      9  C   UNL     1     -52.370 -33.298   6.320 -0.31 +0.00    +0.068 A  
DOCKED: ATOM     10  N   UNL     1     -53.778 -35.241   5.341 -2.56 -0.00    -0.191 NA 
DOCKED: ATOM     11  C   UNL     1     -53.146 -34.370   5.780 -0.37 +0.00    +0.101 C  
DOCKED: ENDROOT
DOCKED: BRANCH   2  12
DOCKED: ATOM     12  C   UNL     1     -50.686 -29.298   8.988 -0.05 +0.00    +0.038 C  
DOCKED: BRANCH  12  13
DOCKED: ATOM     13  C   UNL     1     -50.960 -29.923  10.354 -0.02 +0.00    +0.038 C  
DOCKED: BRANCH  13  14
DOCKED: ATOM     14  C   UNL     1     -49.824 -29.627  11.332 -0.00 +0.00    +0.251 C  
DOCKED: BRANCH  14  15
DOCKED: ATOM     15  N   UNL     1     -49.924 -30.490  12.502 -0.00 +0.00    +0.141 N  
DOCKED: ATOM     16  C   UNL     1     -51.323 -30.677  12.888 -0.00 +0.00    +0.285 C  
DOCKED: ATOM     17  C   UNL     1     -49.292 -31.785  12.243 -0.02 +0.00    +0.285 C  
DOCKED: ENDBRANCH  14  15
DOCKED: ENDBRANCH  13  14
DOCKED: ENDBRANCH  12  13
DOCKED: ENDBRANCH   2  12
DOCKED: BRANCH   2  18
DOCKED: ATOM     18  C   UNL     1     -49.026 -29.545   7.151 -0.13 +0.00    +0.006 A  
DOCKED: ATOM     19  C   UNL     1     -49.536 -28.654   6.207 -0.16 +0.00    +0.001 A  
DOCKED: ATOM     20  C   UNL     1     -48.668 -27.978   5.348 -0.12 +0.00    +0.029 A  
DOCKED: ATOM     21  C   UNL     1     -47.293 -28.193   5.434 -0.07 +0.00    +0.140 A  
DOCKED: ATOM     22  C   UNL     1     -46.784 -29.084   6.379 -0.09 +0.00    +0.029 A  
DOCKED: ATOM     23  F   UNL     1     -46.461 -27.543   4.611 -0.00 -0.00    -0.204 F  
DOCKED: ATOM     24  C   UNL     1     -47.651 -29.761   7.238 -0.10 +0.00    +0.001 A  
DOCKED: ENDBRANCH   2  18
DOCKED: TORSDOF 5
DOCKED: TER
DOCKED: ENDMDL
________________________________________________________________________________


    FINAL DOCKED STATE:
    ________________________


Run:   351 / 512
Time taken for this run:   0.001s

DOCKED: MODEL        351
DOCKED: USER    Run = 351
DOCKED: USER
DOCKED: USER    Estimated Free Energy of Binding    =  -4.10 kcal/mol  [=(1)+(2)+(3)-(4)]
DOCKED: USER
DOCKED: USER    (1) Final Intermolecular Energy     =  -5.59 kcal/mol
DOCKED: USER        vdW + Hbond + desolv Energy     =  -5.59 kcal/mol
DOCKED: USER        Electrostatic Energy            =  +0.00 kcal/mol
DOCKED: USER        Moving Ligand-Fixed Receptor    =  -5.59 kcal/mol
DOCKED: USER        Moving Ligand-Moving Receptor   =  +0.00 kcal/mol
DOCKED: USER    (2) Final Total Internal Energy     =  -1.48 kcal/mol
DOCKED: USER    (3) Torsional Free Energy           =  +1.49 kcal/mol
DOCKED: USER    (4) Unbound System's Energy         =  -1.48 kcal/mol
DOCKED: USER
DOCKED: USER
DOCKED: REMARK  5 active torsions:
DOCKED: REMARK  status: ('A' for Active; 'I' for Inactive)
DOCKED: REMARK    1  A    between atoms: C_2  and  C_19 
DOCKED: REMARK    2  A    between atoms: C_2  and  C_11 
DOCKED: REMARK    3  A    between atoms: C_19  and  C_20 
DOCKED: REMARK    4  A    between atoms: C_20  and  C_21 
DOCKED: REMARK    5  A    between atoms: C_21  and  N_22 
DOCKED: USER                              x       y       z     vdW  Elec       q    Type
DOCKED: USER                           _______ _______ _______ _____ _____    ______ ____
DOCKED: ROOT
DOCKED: ATOM      1  O   UNL     1     -49.156 -31.411   8.575 -0.08 -0.00    -0.346 OA 
DOCKED: ATOM      2  C   UNL     1     -50.401 -30.653   8.440 -0.11 +0.00    +0.130 C  
DOCKED: ATOM      3  C   UNL     1     -51.299 -31.573   7.665 -0.21 +0.00    +0.004 A  
DOCKED: ATOM      4  C   UNL     1     -50.663 -32.792   7.471 -0.26 +0.00    +0.006 A  
DOCKED: ATOM      5  C   UNL     1     -49.326 -32.768   8.105 -0.09 +0.00    +0.169 C  
DOCKED: ATOM      6  C   UNL     1     -52.580 -31.354   7.180 -0.22 -0.00    -0.001 A  
DOCKED: ATOM      7  C   UNL     1     -51.280 -33.825   6.786 -0.37 +0.00    +0.008 A  
DOCKED: ATOM      8  C   UNL     1     -53.214 -32.385   6.484 -0.27 +0.00    +0.010 A  
DOCKED: ATOM      9  C   UNL     1     -52.567 -33.614   6.289 -0.31 +0.00    +0.068 A  
DOCKED: ATOM     10  N   UNL     1     -53.774 -35.508   4.997 -2.37 -0.00    -0.191 NA 
DOCKED: ATOM     11  C   UNL     1     -53.232 -34.658   5.576 -0.31 +0.00    +0.101 C  
DOCKED: ENDROOT
DOCKED: BRANCH   2  12
DOCKED: ATOM     12  C   UNL     1     -50.931 -30.342   9.834 -0.05 +0.00    +0.038 C  
DOCKED: BRANCH  12  13
DOCKED: ATOM     13  C   UNL     1     -50.943 -31.589  10.717 -0.06 +0.00    +0.038 C  
DOCKED: BRANCH  13  14
DOCKED: ATOM     14  C   UNL     1     -52.368 -32.092  10.937 -0.02 +0.00    +0.251 C  
DOCKED: BRANCH  14  15
DOCKED: ATOM     15  N   UNL     1     -52.396 -33.550  10.950 -0.09 +0.00    +0.141 N  
DOCKED: ATOM     16  C   UNL     1     -53.115 -34.063   9.783 -0.10 +0.00    +0.285 C  
DOCKED: ATOM     17  C   UNL     1     -51.036 -34.090  10.987 -0.11 +0.00    +0.285 C  
DOCKED: ENDBRANCH  14  15
DOCKED: ENDBRANCH  13  14
DOCKED: ENDBRANCH  12  13
DOCKED: ENDBRANCH   2  12
DOCKED: BRANCH   2  18
DOCKED: ATOM     18  C   UNL     1     -50.071 -29.401   7.698 -0.12 +0.00    +0.006 A  
DOCKED: ATOM     19  C   UNL     1     -49.409 -29.472   6.473 -0.13 +0.00    +0.001 A  
DOCKED: ATOM     20  C   UNL     1     -49.100 -28.300   5.780 -0.14 +0.00    +0.029 A  
DOCKED: ATOM     21  C   UNL     1     -49.455 -27.061   6.312 -0.06 +0.00    +0.140 A  
DOCKED: ATOM     22  C   UNL     1     -50.118 -26.992   7.537 -0.04 +0.00    +0.029 A  
DOCKED: ATOM     23  F   UNL     1     -49.161 -25.937   5.646 -0.00 -0.00    -0.204 F  
DOCKED: ATOM     24  C   UNL     1     -50.426 -28.163   8.231 -0.05 +0.00    +0.001 A  
DOCKED: ENDBRANCH   2  18
DOCKED: TORSDOF 5
DOCKED: TER
DOCKED: ENDMDL
________________________________________________________________________________


    FINAL DOCKED STATE:
    ________________________


Run:   352 / 512
Time taken for this run:   0.001s

DOCKED: MODEL        352
DOCKED: USER    Run = 352
DOCKED: USER
DOCKED: USER    Estimated Free Energy of Binding    =  -3.41 kcal/mol  [=(1)+(2)+(3)-(4)]
DOCKED: USER
DOCKED: USER    (1) Final Intermolecular Energy     =  -4.90 kcal/mol
DOCKED: USER        vdW + Hbond + desolv Energy     =  -4.90 kcal/mol
DOCKED: USER        Electrostatic Energy            =  +0.00 kcal/mol
DOCKED: USER        Moving Ligand-Fixed Receptor    =  -4.90 kcal/mol
DOCKED: USER        Moving Ligand-Moving Receptor   =  +0.00 kcal/mol
DOCKED: USER    (2) Final Total Internal Energy     =  -1.31 kcal/mol
DOCKED: USER    (3) Torsional Free Energy           =  +1.49 kcal/mol
DOCKED: USER    (4) Unbound System's Energy         =  -1.31 kcal/mol
DOCKED: USER
DOCKED: USER
DOCKED: REMARK  5 active torsions:
DOCKED: REMARK  status: ('A' for Active; 'I' for Inactive)
DOCKED: REMARK    1  A    between atoms: C_2  and  C_19 
DOCKED: REMARK    2  A    between atoms: C_2  and  C_11 
DOCKED: REMARK    3  A    between atoms: C_19  and  C_20 
DOCKED: REMARK    4  A    between atoms: C_20  and  C_21 
DOCKED: REMARK    5  A    between atoms: C_21  and  N_22 
DOCKED: USER                              x       y       z     vdW  Elec       q    Type
DOCKED: USER                           _______ _______ _______ _____ _____    ______ ____
DOCKED: ROOT
DOCKED: ATOM      1  O   UNL     1     -42.344 -31.194   0.682 +0.00 -0.00    -0.346 OA 
DOCKED: ATOM      2  C   UNL     1     -43.732 -31.033   0.245 -0.04 +0.00    +0.130 C  
DOCKED: ATOM      3  C   UNL     1     -44.481 -32.062   1.041 -0.10 +0.00    +0.004 A  
DOCKED: ATOM      4  C   UNL     1     -43.618 -32.682   1.934 -0.07 +0.00    +0.006 A  
DOCKED: ATOM      5  C   UNL     1     -42.261 -32.105   1.802 -0.02 +0.00    +0.169 C  
DOCKED: ATOM      6  C   UNL     1     -45.822 -32.414   0.987 -0.20 -0.00    -0.001 A  
DOCKED: ATOM      7  C   UNL     1     -44.060 -33.671   2.795 -0.15 +0.00    +0.008 A  
DOCKED: ATOM      8  C   UNL     1     -46.282 -33.413   1.846 -0.33 +0.00    +0.010 A  
DOCKED: ATOM      9  C   UNL     1     -45.406 -34.038   2.746 -0.28 +0.00    +0.068 A  
DOCKED: ATOM     10  N   UNL     1     -46.294 -35.886   4.330 -2.67 -0.00    -0.191 NA 
DOCKED: ATOM     11  C   UNL     1     -45.896 -35.057   3.619 -0.36 +0.00    +0.101 C  
DOCKED: ENDROOT
DOCKED: BRANCH   2  12
DOCKED: ATOM     12  C   UNL     1     -44.172 -29.607   0.555 -0.03 +0.00    +0.038 C  
DOCKED: BRANCH  12  13
DOCKED: ATOM     13  C   UNL     1     -43.503 -29.081   1.824 -0.01 +0.00    +0.038 C  
DOCKED: BRANCH  13  14
DOCKED: ATOM     14  C   UNL     1     -44.325 -29.429   3.063 -0.02 +0.00    +0.251 C  
DOCKED: BRANCH  14  15
DOCKED: ATOM     15  N   UNL     1     -45.705 -28.991   2.897 -0.04 +0.00    +0.141 N  
DOCKED: ATOM     16  C   UNL     1     -46.633 -30.006   3.398 -0.09 +0.00    +0.285 C  
DOCKED: ATOM     17  C   UNL     1     -45.928 -27.717   3.583 -0.02 +0.00    +0.285 C  
DOCKED: ENDBRANCH  14  15
DOCKED: ENDBRANCH  13  14
DOCKED: ENDBRANCH  12  13
DOCKED: ENDBRANCH   2  12
DOCKED: BRANCH   2  18
DOCKED: ATOM     18  C   UNL     1     -43.761 -31.298  -1.223 -0.06 +0.00    +0.006 A  
DOCKED: ATOM     19  C   UNL     1     -44.907 -31.004  -1.961 -0.13 +0.00    +0.001 A  
DOCKED: ATOM     20  C   UNL     1     -44.933 -31.253  -3.334 -0.15 +0.00    +0.029 A  
DOCKED: ATOM     21  C   UNL     1     -43.814 -31.794  -3.966 -0.07 +0.00    +0.140 A  
DOCKED: ATOM     22  C   UNL     1     -42.669 -32.088  -3.227 -0.03 +0.00    +0.029 A  
DOCKED: ATOM     23  F   UNL     1     -43.839 -32.032  -5.284 -0.01 -0.00    -0.204 F  
DOCKED: ATOM     24  C   UNL     1     -42.642 -31.840  -1.853 -0.03 +0.00    +0.001 A  
DOCKED: ENDBRANCH   2  18
DOCKED: TORSDOF 5
DOCKED: TER
DOCKED: ENDMDL
________________________________________________________________________________


    FINAL DOCKED STATE:
    ________________________


Run:   353 / 512
Time taken for this run:   0.001s

DOCKED: MODEL        353
DOCKED: USER    Run = 353
DOCKED: USER
DOCKED: USER    Estimated Free Energy of Binding    =  -4.34 kcal/mol  [=(1)+(2)+(3)-(4)]
DOCKED: USER
DOCKED: USER    (1) Final Intermolecular Energy     =  -5.83 kcal/mol
DOCKED: USER        vdW + Hbond + desolv Energy     =  -5.83 kcal/mol
DOCKED: USER        Electrostatic Energy            =  +0.00 kcal/mol
DOCKED: USER        Moving Ligand-Fixed Receptor    =  -5.83 kcal/mol
DOCKED: USER        Moving Ligand-Moving Receptor   =  +0.00 kcal/mol
DOCKED: USER    (2) Final Total Internal Energy     =  -1.34 kcal/mol
DOCKED: USER    (3) Torsional Free Energy           =  +1.49 kcal/mol
DOCKED: USER    (4) Unbound System's Energy         =  -1.34 kcal/mol
DOCKED: USER
DOCKED: USER
DOCKED: REMARK  5 active torsions:
DOCKED: REMARK  status: ('A' for Active; 'I' for Inactive)
DOCKED: REMARK    1  A    between atoms: C_2  and  C_19 
DOCKED: REMARK    2  A    between atoms: C_2  and  C_11 
DOCKED: REMARK    3  A    between atoms: C_19  and  C_20 
DOCKED: REMARK    4  A    between atoms: C_20  and  C_21 
DOCKED: REMARK    5  A    between atoms: C_21  and  N_22 
DOCKED: USER                              x       y       z     vdW  Elec       q    Type
DOCKED: USER                           _______ _______ _______ _____ _____    ______ ____
DOCKED: ROOT
DOCKED: ATOM      1  O   UNL     1     -48.034 -25.478  -0.034 -0.04 -0.00    -0.346 OA 
DOCKED: ATOM      2  C   UNL     1     -47.008 -25.377  -1.073 -0.09 +0.00    +0.130 C  
DOCKED: ATOM      3  C   UNL     1     -47.673 -24.580  -2.158 -0.19 +0.00    +0.004 A  
DOCKED: ATOM      4  C   UNL     1     -48.928 -24.167  -1.733 -0.29 +0.00    +0.006 A  
DOCKED: ATOM      5  C   UNL     1     -49.172 -24.644  -0.353 -0.23 +0.00    +0.169 C  
DOCKED: ATOM      6  C   UNL     1     -47.200 -24.238  -3.416 -0.16 -0.00    -0.001 A  
DOCKED: ATOM      7  C   UNL     1     -49.750 -23.407  -2.546 -0.36 +0.00    +0.008 A  
DOCKED: ATOM      8  C   UNL     1     -48.020 -23.475  -4.250 -0.23 +0.00    +0.010 A  
DOCKED: ATOM      9  C   UNL     1     -49.288 -23.062  -3.817 -0.24 +0.00    +0.068 A  
DOCKED: ATOM     10  N   UNL     1     -50.782 -21.643  -5.388 -2.48 -0.00    -0.191 NA 
DOCKED: ATOM     11  C   UNL     1     -50.112 -22.280  -4.684 -0.37 +0.00    +0.101 C  
DOCKED: ENDROOT
DOCKED: BRANCH   2  12
DOCKED: ATOM     12  C   UNL     1     -45.791 -24.675  -0.482 -0.06 +0.00    +0.038 C  
DOCKED: BRANCH  12  13
DOCKED: ATOM     13  C   UNL     1     -46.191 -23.413   0.281 -0.14 +0.00    +0.038 C  
DOCKED: BRANCH  13  14
DOCKED: ATOM     14  C   UNL     1     -45.305 -22.232  -0.109 -0.09 +0.00    +0.251 C  
DOCKED: BRANCH  14  15
DOCKED: ATOM     15  N   UNL     1     -45.000 -22.275  -1.535 -0.05 +0.00    +0.141 N  
DOCKED: ATOM     16  C   UNL     1     -45.523 -21.087  -2.211 -0.06 +0.00    +0.285 C  
DOCKED: ATOM     17  C   UNL     1     -43.556 -22.388  -1.749 -0.00 +0.00    +0.285 C  
DOCKED: ENDBRANCH  14  15
DOCKED: ENDBRANCH  13  14
DOCKED: ENDBRANCH  12  13
DOCKED: ENDBRANCH   2  12
DOCKED: BRANCH   2  18
DOCKED: ATOM     18  C   UNL     1     -46.675 -26.769  -1.494 -0.09 +0.00    +0.006 A  
DOCKED: ATOM     19  C   UNL     1     -47.696 -27.694  -1.711 -0.20 +0.00    +0.001 A  
DOCKED: ATOM     20  C   UNL     1     -47.383 -28.995  -2.105 -0.14 +0.00    +0.029 A  
DOCKED: ATOM     21  C   UNL     1     -46.052 -29.370  -2.281 -0.15 +0.00    +0.140 A  
DOCKED: ATOM     22  C   UNL     1     -45.032 -28.444  -2.064 -0.04 +0.00    +0.029 A  
DOCKED: ATOM     23  F   UNL     1     -45.752 -30.619  -2.661 -0.09 -0.00    -0.204 F  
DOCKED: ATOM     24  C   UNL     1     -45.343 -27.142  -1.670 -0.03 +0.00    +0.001 A  
DOCKED: ENDBRANCH   2  18
DOCKED: TORSDOF 5
DOCKED: TER
DOCKED: ENDMDL
________________________________________________________________________________


    FINAL DOCKED STATE:
    ________________________


Run:   354 / 512
Time taken for this run:   0.001s

DOCKED: MODEL        354
DOCKED: USER    Run = 354
DOCKED: USER
DOCKED: USER    Estimated Free Energy of Binding    =  -3.80 kcal/mol  [=(1)+(2)+(3)-(4)]
DOCKED: USER
DOCKED: USER    (1) Final Intermolecular Energy     =  -5.29 kcal/mol
DOCKED: USER        vdW + Hbond + desolv Energy     =  -5.29 kcal/mol
DOCKED: USER        Electrostatic Energy            =  +0.00 kcal/mol
DOCKED: USER        Moving Ligand-Fixed Receptor    =  -5.29 kcal/mol
DOCKED: USER        Moving Ligand-Moving Receptor   =  +0.00 kcal/mol
DOCKED: USER    (2) Final Total Internal Energy     =  -1.42 kcal/mol
DOCKED: USER    (3) Torsional Free Energy           =  +1.49 kcal/mol
DOCKED: USER    (4) Unbound System's Energy         =  -1.42 kcal/mol
DOCKED: USER
DOCKED: USER
DOCKED: REMARK  5 active torsions:
DOCKED: REMARK  status: ('A' for Active; 'I' for Inactive)
DOCKED: REMARK    1  A    between atoms: C_2  and  C_19 
DOCKED: REMARK    2  A    between atoms: C_2  and  C_11 
DOCKED: REMARK    3  A    between atoms: C_19  and  C_20 
DOCKED: REMARK    4  A    between atoms: C_20  and  C_21 
DOCKED: REMARK    5  A    between atoms: C_21  and  N_22 
DOCKED: USER                              x       y       z     vdW  Elec       q    Type
DOCKED: USER                           _______ _______ _______ _____ _____    ______ ____
DOCKED: ROOT
DOCKED: ATOM      1  O   UNL     1     -46.082 -30.160  -0.013 -0.01 -0.00    -0.346 OA 
DOCKED: ATOM      2  C   UNL     1     -44.825 -30.887  -0.198 -0.09 +0.00    +0.130 C  
DOCKED: ATOM      3  C   UNL     1     -44.944 -32.056   0.737 -0.13 +0.00    +0.004 A  
DOCKED: ATOM      4  C   UNL     1     -46.203 -32.059   1.322 -0.26 +0.00    +0.006 A  
DOCKED: ATOM      5  C   UNL     1     -46.996 -30.918   0.814 -0.21 +0.00    +0.169 C  
DOCKED: ATOM      6  C   UNL     1     -44.018 -33.044   1.037 -0.10 -0.00    -0.001 A  
DOCKED: ATOM      7  C   UNL     1     -46.575 -33.040   2.225 -0.33 +0.00    +0.008 A  
DOCKED: ATOM      8  C   UNL     1     -44.377 -34.038   1.948 -0.18 +0.00    +0.010 A  
DOCKED: ATOM      9  C   UNL     1     -45.649 -34.036   2.539 -0.30 +0.00    +0.068 A  
DOCKED: ATOM     10  N   UNL     1     -46.285 -35.900   4.223 -2.68 -0.00    -0.191 NA 
DOCKED: ATOM     11  C   UNL     1     -46.000 -35.063   3.468 -0.37 +0.00    +0.101 C  
DOCKED: ENDROOT
DOCKED: BRANCH   2  12
DOCKED: ATOM     12  C   UNL     1     -44.720 -31.305  -1.660 -0.13 +0.00    +0.038 C  
DOCKED: BRANCH  12  13
DOCKED: ATOM     13  C   UNL     1     -45.743 -30.571  -2.524 -0.16 +0.00    +0.038 C  
DOCKED: BRANCH  13  14
DOCKED: ATOM     14  C   UNL     1     -45.129 -29.331  -3.170 -0.07 +0.00    +0.251 C  
DOCKED: BRANCH  14  15
DOCKED: ATOM     15  N   UNL     1     -45.686 -28.121  -2.578 -0.06 +0.00    +0.141 N  
DOCKED: ATOM     16  C   UNL     1     -45.010 -26.932  -3.099 -0.01 +0.00    +0.285 C  
DOCKED: ATOM     17  C   UNL     1     -47.126 -28.038  -2.833 -0.18 +0.00    +0.285 C  
DOCKED: ENDBRANCH  14  15
DOCKED: ENDBRANCH  13  14
DOCKED: ENDBRANCH  12  13
DOCKED: ENDBRANCH   2  12
DOCKED: BRANCH   2  18
DOCKED: ATOM     18  C   UNL     1     -43.722 -29.954   0.176 -0.02 +0.00    +0.006 A  
DOCKED: ATOM     19  C   UNL     1     -43.889 -29.070   1.242 -0.01 +0.00    +0.001 A  
DOCKED: ATOM     20  C   UNL     1     -42.857 -28.198   1.591 -0.00 +0.00    +0.029 A  
DOCKED: ATOM     21  C   UNL     1     -41.661 -28.210   0.874 +0.00 +0.00    +0.140 A  
DOCKED: ATOM     22  C   UNL     1     -41.495 -29.094  -0.192 -0.00 +0.00    +0.029 A  
DOCKED: ATOM     23  F   UNL     1     -40.671 -27.374   1.210 +0.00 -0.00    -0.204 F  
DOCKED: ATOM     24  C   UNL     1     -42.527 -29.967  -0.541 -0.00 +0.00    +0.001 A  
DOCKED: ENDBRANCH   2  18
DOCKED: TORSDOF 5
DOCKED: TER
DOCKED: ENDMDL
________________________________________________________________________________


    FINAL DOCKED STATE:
    ________________________


Run:   355 / 512
Time taken for this run:   0.001s

DOCKED: MODEL        355
DOCKED: USER    Run = 355
DOCKED: USER
DOCKED: USER    Estimated Free Energy of Binding    =  -4.69 kcal/mol  [=(1)+(2)+(3)-(4)]
DOCKED: USER
DOCKED: USER    (1) Final Intermolecular Energy     =  -6.18 kcal/mol
DOCKED: USER        vdW + Hbond + desolv Energy     =  -6.18 kcal/mol
DOCKED: USER        Electrostatic Energy            =  +0.00 kcal/mol
DOCKED: USER        Moving Ligand-Fixed Receptor    =  -6.18 kcal/mol
DOCKED: USER        Moving Ligand-Moving Receptor   =  +0.00 kcal/mol
DOCKED: USER    (2) Final Total Internal Energy     =  -1.25 kcal/mol
DOCKED: USER    (3) Torsional Free Energy           =  +1.49 kcal/mol
DOCKED: USER    (4) Unbound System's Energy         =  -1.25 kcal/mol
DOCKED: USER
DOCKED: USER
DOCKED: REMARK  5 active torsions:
DOCKED: REMARK  status: ('A' for Active; 'I' for Inactive)
DOCKED: REMARK    1  A    between atoms: C_2  and  C_19 
DOCKED: REMARK    2  A    between atoms: C_2  and  C_11 
DOCKED: REMARK    3  A    between atoms: C_19  and  C_20 
DOCKED: REMARK    4  A    between atoms: C_20  and  C_21 
DOCKED: REMARK    5  A    between atoms: C_21  and  N_22 
DOCKED: USER                              x       y       z     vdW  Elec       q    Type
DOCKED: USER                           _______ _______ _______ _____ _____    ______ ____
DOCKED: ROOT
DOCKED: ATOM      1  O   UNL     1     -51.432 -28.881   7.022 -0.07 -0.00    -0.346 OA 
DOCKED: ATOM      2  C   UNL     1     -52.758 -29.108   7.597 -0.14 +0.00    +0.130 C  
DOCKED: ATOM      3  C   UNL     1     -53.102 -30.505   7.168 -0.21 +0.00    +0.004 A  
DOCKED: ATOM      4  C   UNL     1     -52.023 -31.067   6.502 -0.28 +0.00    +0.006 A  
DOCKED: ATOM      5  C   UNL     1     -50.902 -30.102   6.455 -0.18 +0.00    +0.169 C  
DOCKED: ATOM      6  C   UNL     1     -54.272 -31.224   7.362 -0.19 -0.00    -0.001 A  
DOCKED: ATOM      7  C   UNL     1     -52.076 -32.359   6.005 -0.34 +0.00    +0.008 A  
DOCKED: ATOM      8  C   UNL     1     -54.343 -32.526   6.864 -0.22 +0.00    +0.010 A  
DOCKED: ATOM      9  C   UNL     1     -53.250 -33.090   6.189 -0.27 +0.00    +0.068 A  
DOCKED: ATOM     10  N   UNL     1     -53.413 -35.511   5.281 -2.58 -0.00    -0.191 NA 
DOCKED: ATOM     11  C   UNL     1     -53.340 -34.425   5.688 -0.36 +0.00    +0.101 C  
DOCKED: ENDROOT
DOCKED: BRANCH   2  12
DOCKED: ATOM     12  C   UNL     1     -52.660 -28.959   9.111 -0.04 +0.00    +0.038 C  
DOCKED: BRANCH  12  13
DOCKED: ATOM     13  C   UNL     1     -51.437 -29.687   9.664 -0.04 +0.00    +0.038 C  
DOCKED: BRANCH  13  14
DOCKED: ATOM     14  C   UNL     1     -51.842 -30.968  10.391 -0.01 +0.00    +0.251 C  
DOCKED: BRANCH  14  15
DOCKED: ATOM     15  N   UNL     1     -50.685 -31.836  10.573 -0.05 +0.00    +0.141 N  
DOCKED: ATOM     16  C   UNL     1     -51.103 -33.235  10.689 -0.08 +0.00    +0.285 C  
DOCKED: ATOM     17  C   UNL     1     -49.743 -31.678   9.464 -0.07 +0.00    +0.285 C  
DOCKED: ENDBRANCH  14  15
DOCKED: ENDBRANCH  13  14
DOCKED: ENDBRANCH  12  13
DOCKED: ENDBRANCH   2  12
DOCKED: BRANCH   2  18
DOCKED: ATOM     18  C   UNL     1     -53.668 -28.079   7.013 -0.19 +0.00    +0.006 A  
DOCKED: ATOM     19  C   UNL     1     -55.050 -28.246   7.094 -0.21 +0.00    +0.001 A  
DOCKED: ATOM     20  C   UNL     1     -55.900 -27.284   6.547 -0.19 +0.00    +0.029 A  
DOCKED: ATOM     21  C   UNL     1     -55.368 -26.158   5.921 -0.11 +0.00    +0.140 A  
DOCKED: ATOM     22  C   UNL     1     -53.986 -25.992   5.841 -0.16 +0.00    +0.029 A  
DOCKED: ATOM     23  F   UNL     1     -56.184 -25.234   5.398 -0.02 -0.00    -0.204 F  
DOCKED: ATOM     24  C   UNL     1     -53.134 -26.954   6.387 -0.17 +0.00    +0.001 A  
DOCKED: ENDBRANCH   2  18
DOCKED: TORSDOF 5
DOCKED: TER
DOCKED: ENDMDL
________________________________________________________________________________


    FINAL DOCKED STATE:
    ________________________


Run:   356 / 512
Time taken for this run:   0.001s

DOCKED: MODEL        356
DOCKED: USER    Run = 356
DOCKED: USER
DOCKED: USER    Estimated Free Energy of Binding    =  -4.65 kcal/mol  [=(1)+(2)+(3)-(4)]
DOCKED: USER
DOCKED: USER    (1) Final Intermolecular Energy     =  -6.14 kcal/mol
DOCKED: USER        vdW + Hbond + desolv Energy     =  -6.14 kcal/mol
DOCKED: USER        Electrostatic Energy            =  +0.00 kcal/mol
DOCKED: USER        Moving Ligand-Fixed Receptor    =  -6.14 kcal/mol
DOCKED: USER        Moving Ligand-Moving Receptor   =  +0.00 kcal/mol
DOCKED: USER    (2) Final Total Internal Energy     =  -1.59 kcal/mol
DOCKED: USER    (3) Torsional Free Energy           =  +1.49 kcal/mol
DOCKED: USER    (4) Unbound System's Energy         =  -1.59 kcal/mol
DOCKED: USER
DOCKED: USER
DOCKED: REMARK  5 active torsions:
DOCKED: REMARK  status: ('A' for Active; 'I' for Inactive)
DOCKED: REMARK    1  A    between atoms: C_2  and  C_19 
DOCKED: REMARK    2  A    between atoms: C_2  and  C_11 
DOCKED: REMARK    3  A    between atoms: C_19  and  C_20 
DOCKED: REMARK    4  A    between atoms: C_20  and  C_21 
DOCKED: REMARK    5  A    between atoms: C_21  and  N_22 
DOCKED: USER                              x       y       z     vdW  Elec       q    Type
DOCKED: USER                           _______ _______ _______ _____ _____    ______ ____
DOCKED: ROOT
DOCKED: ATOM      1  O   UNL     1     -52.506 -31.111   8.238 -0.02 -0.00    -0.346 OA 
DOCKED: ATOM      2  C   UNL     1     -51.550 -32.212   8.111 -0.17 +0.00    +0.130 C  
DOCKED: ATOM      3  C   UNL     1     -51.920 -32.860   6.809 -0.32 +0.00    +0.004 A  
DOCKED: ATOM      4  C   UNL     1     -52.925 -32.129   6.191 -0.31 +0.00    +0.006 A  
DOCKED: ATOM      5  C   UNL     1     -53.276 -30.956   7.023 -0.19 +0.00    +0.169 C  
DOCKED: ATOM      6  C   UNL     1     -51.401 -34.000   6.212 -0.36 -0.00    -0.001 A  
DOCKED: ATOM      7  C   UNL     1     -53.446 -32.511   4.967 -0.11 +0.00    +0.008 A  
DOCKED: ATOM      8  C   UNL     1     -51.919 -34.401   4.979 -0.25 +0.00    +0.010 A  
DOCKED: ATOM      9  C   UNL     1     -52.936 -33.659   4.360 -0.42 +0.00    +0.068 A  
DOCKED: ATOM     10  N   UNL     1     -53.871 -34.427   2.069 -2.21 -0.00    -0.191 NA 
DOCKED: ATOM     11  C   UNL     1     -53.452 -34.083   3.097 -0.50 +0.00    +0.101 C  
DOCKED: ENDROOT
DOCKED: BRANCH   2  12
DOCKED: ATOM     12  C   UNL     1     -50.142 -31.630   8.106 -0.21 +0.00    +0.038 C  
DOCKED: BRANCH  12  13
DOCKED: ATOM     13  C   UNL     1     -50.149 -30.149   8.480 -0.11 +0.00    +0.038 C  
DOCKED: BRANCH  13  14
DOCKED: ATOM     14  C   UNL     1     -50.028 -29.965   9.992 -0.02 +0.00    +0.251 C  
DOCKED: BRANCH  14  15
DOCKED: ATOM     15  N   UNL     1     -51.332 -30.118  10.627 -0.01 +0.00    +0.141 N  
DOCKED: ATOM     16  C   UNL     1     -51.180 -30.479  12.037 -0.00 +0.00    +0.285 C  
DOCKED: ATOM     17  C   UNL     1     -52.115 -28.887  10.500 -0.00 +0.00    +0.285 C  
DOCKED: ENDBRANCH  14  15
DOCKED: ENDBRANCH  13  14
DOCKED: ENDBRANCH  12  13
DOCKED: ENDBRANCH   2  12
DOCKED: BRANCH   2  18
DOCKED: ATOM     18  C   UNL     1     -51.758 -33.107   9.287 -0.16 +0.00    +0.006 A  
DOCKED: ATOM     19  C   UNL     1     -53.028 -33.617   9.559 -0.17 +0.00    +0.001 A  
DOCKED: ATOM     20  C   UNL     1     -53.221 -34.454  10.658 -0.13 +0.00    +0.029 A  
DOCKED: ATOM     21  C   UNL     1     -52.145 -34.781  11.483 -0.15 +0.00    +0.140 A  
DOCKED: ATOM     22  C   UNL     1     -50.876 -34.271  11.210 -0.17 +0.00    +0.029 A  
DOCKED: ATOM     23  F   UNL     1     -52.331 -35.586  12.537 -0.05 -0.00    -0.204 F  
DOCKED: ATOM     24  C   UNL     1     -50.682 -33.433  10.111 -0.10 +0.00    +0.001 A  
DOCKED: ENDBRANCH   2  18
DOCKED: TORSDOF 5
DOCKED: TER
DOCKED: ENDMDL
________________________________________________________________________________


    FINAL DOCKED STATE:
    ________________________


Run:   357 / 512
Time taken for this run:   0.001s

DOCKED: MODEL        357
DOCKED: USER    Run = 357
DOCKED: USER
DOCKED: USER    Estimated Free Energy of Binding    =  -3.68 kcal/mol  [=(1)+(2)+(3)-(4)]
DOCKED: USER
DOCKED: USER    (1) Final Intermolecular Energy     =  -5.17 kcal/mol
DOCKED: USER        vdW + Hbond + desolv Energy     =  -5.17 kcal/mol
DOCKED: USER        Electrostatic Energy            =  +0.00 kcal/mol
DOCKED: USER        Moving Ligand-Fixed Receptor    =  -5.17 kcal/mol
DOCKED: USER        Moving Ligand-Moving Receptor   =  +0.00 kcal/mol
DOCKED: USER    (2) Final Total Internal Energy     =  -1.47 kcal/mol
DOCKED: USER    (3) Torsional Free Energy           =  +1.49 kcal/mol
DOCKED: USER    (4) Unbound System's Energy         =  -1.47 kcal/mol
DOCKED: USER
DOCKED: USER
DOCKED: REMARK  5 active torsions:
DOCKED: REMARK  status: ('A' for Active; 'I' for Inactive)
DOCKED: REMARK    1  A    between atoms: C_2  and  C_19 
DOCKED: REMARK    2  A    between atoms: C_2  and  C_11 
DOCKED: REMARK    3  A    between atoms: C_19  and  C_20 
DOCKED: REMARK    4  A    between atoms: C_20  and  C_21 
DOCKED: REMARK    5  A    between atoms: C_21  and  N_22 
DOCKED: USER                              x       y       z     vdW  Elec       q    Type
DOCKED: USER                           _______ _______ _______ _____ _____    ______ ____
DOCKED: ROOT
DOCKED: ATOM      1  O   UNL     1     -46.120 -21.079  -0.565 -0.09 -0.00    -0.346 OA 
DOCKED: ATOM      2  C   UNL     1     -45.897 -22.417  -1.115 -0.13 +0.00    +0.130 C  
DOCKED: ATOM      3  C   UNL     1     -46.924 -22.533  -2.204 -0.17 +0.00    +0.004 A  
DOCKED: ATOM      4  C   UNL     1     -47.600 -21.329  -2.339 -0.23 +0.00    +0.006 A  
DOCKED: ATOM      5  C   UNL     1     -47.067 -20.343  -1.373 -0.09 +0.00    +0.169 C  
DOCKED: ATOM      6  C   UNL     1     -47.228 -23.615  -3.017 -0.16 -0.00    -0.001 A  
DOCKED: ATOM      7  C   UNL     1     -48.600 -21.166  -3.283 -0.26 +0.00    +0.008 A  
DOCKED: ATOM      8  C   UNL     1     -48.237 -23.468  -3.971 -0.24 +0.00    +0.010 A  
DOCKED: ATOM      9  C   UNL     1     -48.919 -22.249  -4.103 -0.35 +0.00    +0.068 A  
DOCKED: ATOM     10  N   UNL     1     -50.783 -22.007  -5.887 -2.33 -0.00    -0.191 NA 
DOCKED: ATOM     11  C   UNL     1     -49.947 -22.116  -5.086 -0.35 +0.00    +0.101 C  
DOCKED: ENDROOT
DOCKED: BRANCH   2  12
DOCKED: ATOM     12  C   UNL     1     -44.468 -22.492  -1.637 -0.05 +0.00    +0.038 C  
DOCKED: BRANCH  12  13
DOCKED: ATOM     13  C   UNL     1     -43.863 -21.100  -1.809 -0.04 +0.00    +0.038 C  
DOCKED: BRANCH  13  14
DOCKED: ATOM     14  C   UNL     1     -43.710 -20.746  -3.286 -0.01 +0.00    +0.251 C  
DOCKED: BRANCH  14  15
DOCKED: ATOM     15  N   UNL     1     -45.005 -20.402  -3.862 -0.08 +0.00    +0.141 N  
DOCKED: ATOM     16  C   UNL     1     -45.129 -18.953  -4.024 -0.02 +0.00    +0.285 C  
DOCKED: ATOM     17  C   UNL     1     -45.192 -21.074  -5.149 -0.05 +0.00    +0.285 C  
DOCKED: ENDBRANCH  14  15
DOCKED: ENDBRANCH  13  14
DOCKED: ENDBRANCH  12  13
DOCKED: ENDBRANCH   2  12
DOCKED: BRANCH   2  18
DOCKED: ATOM     18  C   UNL     1     -46.116 -23.388  -0.003 -0.13 +0.00    +0.006 A  
DOCKED: ATOM     19  C   UNL     1     -47.403 -23.847   0.278 -0.08 +0.00    +0.001 A  
DOCKED: ATOM     20  C   UNL     1     -47.606 -24.755   1.319 -0.14 +0.00    +0.029 A  
DOCKED: ATOM     21  C   UNL     1     -46.524 -25.202   2.075 -0.06 +0.00    +0.140 A  
DOCKED: ATOM     22  C   UNL     1     -45.238 -24.742   1.793 -0.05 +0.00    +0.029 A  
DOCKED: ATOM     23  F   UNL     1     -46.719 -26.074   3.073 +0.00 -0.00    -0.204 F  
DOCKED: ATOM     24  C   UNL     1     -45.033 -23.834   0.753 -0.08 +0.00    +0.001 A  
DOCKED: ENDBRANCH   2  18
DOCKED: TORSDOF 5
DOCKED: TER
DOCKED: ENDMDL
________________________________________________________________________________


    FINAL DOCKED STATE:
    ________________________


Run:   358 / 512
Time taken for this run:   0.001s

DOCKED: MODEL        358
DOCKED: USER    Run = 358
DOCKED: USER
DOCKED: USER    Estimated Free Energy of Binding    =  -3.42 kcal/mol  [=(1)+(2)+(3)-(4)]
DOCKED: USER
DOCKED: USER    (1) Final Intermolecular Energy     =  -4.91 kcal/mol
DOCKED: USER        vdW + Hbond + desolv Energy     =  -4.91 kcal/mol
DOCKED: USER        Electrostatic Energy            =  +0.00 kcal/mol
DOCKED: USER        Moving Ligand-Fixed Receptor    =  -4.91 kcal/mol
DOCKED: USER        Moving Ligand-Moving Receptor   =  +0.00 kcal/mol
DOCKED: USER    (2) Final Total Internal Energy     =  -1.39 kcal/mol
DOCKED: USER    (3) Torsional Free Energy           =  +1.49 kcal/mol
DOCKED: USER    (4) Unbound System's Energy         =  -1.39 kcal/mol
DOCKED: USER
DOCKED: USER
DOCKED: REMARK  5 active torsions:
DOCKED: REMARK  status: ('A' for Active; 'I' for Inactive)
DOCKED: REMARK    1  A    between atoms: C_2  and  C_19 
DOCKED: REMARK    2  A    between atoms: C_2  and  C_11 
DOCKED: REMARK    3  A    between atoms: C_19  and  C_20 
DOCKED: REMARK    4  A    between atoms: C_20  and  C_21 
DOCKED: REMARK    5  A    between atoms: C_21  and  N_22 
DOCKED: USER                              x       y       z     vdW  Elec       q    Type
DOCKED: USER                           _______ _______ _______ _____ _____    ______ ____
DOCKED: ROOT
DOCKED: ATOM      1  O   UNL     1     -47.076 -29.388   1.927 -0.04 -0.00    -0.346 OA 
DOCKED: ATOM      2  C   UNL     1     -46.187 -29.431   3.089 -0.10 +0.00    +0.130 C  
DOCKED: ATOM      3  C   UNL     1     -46.013 -30.899   3.354 -0.16 +0.00    +0.004 A  
DOCKED: ATOM      4  C   UNL     1     -46.654 -31.631   2.365 -0.27 +0.00    +0.006 A  
DOCKED: ATOM      5  C   UNL     1     -47.277 -30.714   1.385 -0.26 +0.00    +0.169 C  
DOCKED: ATOM      6  C   UNL     1     -45.331 -31.534   4.381 -0.15 -0.00    -0.001 A  
DOCKED: ATOM      7  C   UNL     1     -46.641 -33.016   2.371 -0.32 +0.00    +0.008 A  
DOCKED: ATOM      8  C   UNL     1     -45.312 -32.930   4.404 -0.17 +0.00    +0.010 A  
DOCKED: ATOM      9  C   UNL     1     -45.964 -33.666   3.403 -0.18 +0.00    +0.068 A  
DOCKED: ATOM     10  N   UNL     1     -45.905 -36.256   3.471 -2.14 -0.00    -0.191 NA 
DOCKED: ATOM     11  C   UNL     1     -45.932 -35.095   3.441 -0.40 +0.00    +0.101 C  
DOCKED: ENDROOT
DOCKED: BRANCH   2  12
DOCKED: ATOM     12  C   UNL     1     -44.882 -28.735   2.724 -0.04 +0.00    +0.038 C  
DOCKED: BRANCH  12  13
DOCKED: ATOM     13  C   UNL     1     -44.056 -29.574   1.750 -0.03 +0.00    +0.038 C  
DOCKED: BRANCH  13  14
DOCKED: ATOM     14  C   UNL     1     -44.384 -29.215   0.302 -0.01 +0.00    +0.251 C  
DOCKED: BRANCH  14  15
DOCKED: ATOM     15  N   UNL     1     -44.015 -30.310  -0.588 -0.03 +0.00    +0.141 N  
DOCKED: ATOM     16  C   UNL     1     -43.479 -31.437   0.177 -0.02 +0.00    +0.285 C  
DOCKED: ATOM     17  C   UNL     1     -45.168 -30.738  -1.382 -0.09 +0.00    +0.285 C  
DOCKED: ENDBRANCH  14  15
DOCKED: ENDBRANCH  13  14
DOCKED: ENDBRANCH  12  13
DOCKED: ENDBRANCH   2  12
DOCKED: BRANCH   2  18
DOCKED: ATOM     18  C   UNL     1     -46.885 -28.719   4.199 -0.11 +0.00    +0.006 A  
DOCKED: ATOM     19  C   UNL     1     -46.145 -28.026   5.156 -0.05 +0.00    +0.001 A  
DOCKED: ATOM     20  C   UNL     1     -46.800 -27.360   6.194 -0.03 +0.00    +0.029 A  
DOCKED: ATOM     21  C   UNL     1     -48.191 -27.388   6.272 -0.05 +0.00    +0.140 A  
DOCKED: ATOM     22  C   UNL     1     -48.930 -28.081   5.314 -0.13 +0.00    +0.029 A  
DOCKED: ATOM     23  F   UNL     1     -48.819 -26.748   7.267 -0.00 -0.00    -0.204 F  
DOCKED: ATOM     24  C   UNL     1     -48.277 -28.748   4.276 -0.14 +0.00    +0.001 A  
DOCKED: ENDBRANCH   2  18
DOCKED: TORSDOF 5
DOCKED: TER
DOCKED: ENDMDL
________________________________________________________________________________


    FINAL DOCKED STATE:
    ________________________


Run:   359 / 512
Time taken for this run:   0.001s

DOCKED: MODEL        359
DOCKED: USER    Run = 359
DOCKED: USER
DOCKED: USER    Estimated Free Energy of Binding    =  -3.49 kcal/mol  [=(1)+(2)+(3)-(4)]
DOCKED: USER
DOCKED: USER    (1) Final Intermolecular Energy     =  -4.98 kcal/mol
DOCKED: USER        vdW + Hbond + desolv Energy     =  -4.98 kcal/mol
DOCKED: USER        Electrostatic Energy            =  +0.00 kcal/mol
DOCKED: USER        Moving Ligand-Fixed Receptor    =  -4.98 kcal/mol
DOCKED: USER        Moving Ligand-Moving Receptor   =  +0.00 kcal/mol
DOCKED: USER    (2) Final Total Internal Energy     =  -1.40 kcal/mol
DOCKED: USER    (3) Torsional Free Energy           =  +1.49 kcal/mol
DOCKED: USER    (4) Unbound System's Energy         =  -1.40 kcal/mol
DOCKED: USER
DOCKED: USER
DOCKED: REMARK  5 active torsions:
DOCKED: REMARK  status: ('A' for Active; 'I' for Inactive)
DOCKED: REMARK    1  A    between atoms: C_2  and  C_19 
DOCKED: REMARK    2  A    between atoms: C_2  and  C_11 
DOCKED: REMARK    3  A    between atoms: C_19  and  C_20 
DOCKED: REMARK    4  A    between atoms: C_20  and  C_21 
DOCKED: REMARK    5  A    between atoms: C_21  and  N_22 
DOCKED: USER                              x       y       z     vdW  Elec       q    Type
DOCKED: USER                           _______ _______ _______ _____ _____    ______ ____
DOCKED: ROOT
DOCKED: ATOM      1  O   UNL     1     -51.656 -30.135   9.544 -0.00 -0.00    -0.346 OA 
DOCKED: ATOM      2  C   UNL     1     -51.503 -29.669   8.165 -0.09 +0.00    +0.130 C  
DOCKED: ATOM      3  C   UNL     1     -51.901 -30.857   7.338 -0.21 +0.00    +0.004 A  
DOCKED: ATOM      4  C   UNL     1     -52.348 -31.875   8.168 -0.14 +0.00    +0.006 A  
DOCKED: ATOM      5  C   UNL     1     -52.290 -31.434   9.579 -0.04 +0.00    +0.169 C  
DOCKED: ATOM      6  C   UNL     1     -51.880 -31.020   5.960 -0.21 -0.00    -0.001 A  
DOCKED: ATOM      7  C   UNL     1     -52.783 -33.085   7.654 -0.20 +0.00    +0.008 A  
DOCKED: ATOM      8  C   UNL     1     -52.311 -32.236   5.427 -0.33 +0.00    +0.010 A  
DOCKED: ATOM      9  C   UNL     1     -52.761 -33.263   6.270 -0.29 +0.00    +0.068 A  
DOCKED: ATOM     10  N   UNL     1     -53.560 -35.506   5.248 -2.53 -0.00    -0.191 NA 
DOCKED: ATOM     11  C   UNL     1     -53.201 -34.500   5.707 -0.33 +0.00    +0.101 C  
DOCKED: ENDROOT
DOCKED: BRANCH   2  12
DOCKED: ATOM     12  C   UNL     1     -52.417 -28.468   7.957 -0.10 +0.00    +0.038 C  
DOCKED: BRANCH  12  13
DOCKED: ATOM     13  C   UNL     1     -52.118 -27.359   8.963 -0.03 +0.00    +0.038 C  
DOCKED: BRANCH  13  14
DOCKED: ATOM     14  C   UNL     1     -52.915 -27.557  10.251 -0.00 +0.00    +0.251 C  
DOCKED: BRANCH  14  15
DOCKED: ATOM     15  N   UNL     1     -52.016 -27.822  11.368 +0.00 +0.00    +0.141 N  
DOCKED: ATOM     16  C   UNL     1     -51.818 -26.614  12.170 +0.00 +0.00    +0.285 C  
DOCKED: ATOM     17  C   UNL     1     -52.538 -28.906  12.203 +0.00 +0.00    +0.285 C  
DOCKED: ENDBRANCH  14  15
DOCKED: ENDBRANCH  13  14
DOCKED: ENDBRANCH  12  13
DOCKED: ENDBRANCH   2  12
DOCKED: BRANCH   2  18
DOCKED: ATOM     18  C   UNL     1     -50.070 -29.292   7.988 -0.10 +0.00    +0.006 A  
DOCKED: ATOM     19  C   UNL     1     -49.652 -28.672   6.811 -0.14 +0.00    +0.001 A  
DOCKED: ATOM     20  C   UNL     1     -48.312 -28.321   6.647 -0.09 +0.00    +0.029 A  
DOCKED: ATOM     21  C   UNL     1     -47.392 -28.588   7.660 -0.04 +0.00    +0.140 A  
DOCKED: ATOM     22  C   UNL     1     -47.810 -29.207   8.837 -0.04 +0.00    +0.029 A  
DOCKED: ATOM     23  F   UNL     1     -46.106 -28.248   7.503 -0.00 -0.00    -0.204 F  
DOCKED: ATOM     24  C   UNL     1     -49.151 -29.560   9.002 -0.06 +0.00    +0.001 A  
DOCKED: ENDBRANCH   2  18
DOCKED: TORSDOF 5
DOCKED: TER
DOCKED: ENDMDL
________________________________________________________________________________


    FINAL DOCKED STATE:
    ________________________


Run:   360 / 512
Time taken for this run:   0.001s

DOCKED: MODEL        360
DOCKED: USER    Run = 360
DOCKED: USER
DOCKED: USER    Estimated Free Energy of Binding    =  -4.07 kcal/mol  [=(1)+(2)+(3)-(4)]
DOCKED: USER
DOCKED: USER    (1) Final Intermolecular Energy     =  -5.56 kcal/mol
DOCKED: USER        vdW + Hbond + desolv Energy     =  -5.56 kcal/mol
DOCKED: USER        Electrostatic Energy            =  +0.00 kcal/mol
DOCKED: USER        Moving Ligand-Fixed Receptor    =  -5.56 kcal/mol
DOCKED: USER        Moving Ligand-Moving Receptor   =  +0.00 kcal/mol
DOCKED: USER    (2) Final Total Internal Energy     =  -0.89 kcal/mol
DOCKED: USER    (3) Torsional Free Energy           =  +1.49 kcal/mol
DOCKED: USER    (4) Unbound System's Energy         =  -0.89 kcal/mol
DOCKED: USER
DOCKED: USER
DOCKED: REMARK  5 active torsions:
DOCKED: REMARK  status: ('A' for Active; 'I' for Inactive)
DOCKED: REMARK    1  A    between atoms: C_2  and  C_19 
DOCKED: REMARK    2  A    between atoms: C_2  and  C_11 
DOCKED: REMARK    3  A    between atoms: C_19  and  C_20 
DOCKED: REMARK    4  A    between atoms: C_20  and  C_21 
DOCKED: REMARK    5  A    between atoms: C_21  and  N_22 
DOCKED: USER                              x       y       z     vdW  Elec       q    Type
DOCKED: USER                           _______ _______ _______ _____ _____    ______ ____
DOCKED: ROOT
DOCKED: ATOM      1  O   UNL     1     -45.693 -25.087  -1.692 +0.01 -0.00    -0.346 OA 
DOCKED: ATOM      2  C   UNL     1     -46.962 -25.324  -1.002 -0.09 +0.00    +0.130 C  
DOCKED: ATOM      3  C   UNL     1     -47.962 -24.553  -1.815 -0.21 +0.00    +0.004 A  
DOCKED: ATOM      4  C   UNL     1     -47.340 -24.014  -2.932 -0.16 +0.00    +0.006 A  
DOCKED: ATOM      5  C   UNL     1     -45.910 -24.396  -2.944 -0.04 +0.00    +0.169 C  
DOCKED: ATOM      6  C   UNL     1     -49.316 -24.354  -1.589 -0.30 -0.00    -0.001 A  
DOCKED: ATOM      7  C   UNL     1     -48.043 -23.259  -3.855 -0.24 +0.00    +0.008 A  
DOCKED: ATOM      8  C   UNL     1     -50.038 -23.591  -2.508 -0.29 +0.00    +0.010 A  
DOCKED: ATOM      9  C   UNL     1     -49.405 -23.046  -3.635 -0.25 +0.00    +0.068 A  
DOCKED: ATOM     10  N   UNL     1     -50.776 -21.639  -5.324 -2.44 -0.00    -0.191 NA 
DOCKED: ATOM     11  C   UNL     1     -50.161 -22.270  -4.566 -0.38 +0.00    +0.101 C  
DOCKED: ENDROOT
DOCKED: BRANCH   2  12
DOCKED: ATOM     12  C   UNL     1     -47.234 -26.823  -0.994 -0.13 +0.00    +0.038 C  
DOCKED: BRANCH  12  13
DOCKED: ATOM     13  C   UNL     1     -47.256 -27.377   0.429 -0.11 +0.00    +0.038 C  
DOCKED: BRANCH  13  14
DOCKED: ATOM     14  C   UNL     1     -45.906 -27.987   0.802 -0.02 +0.00    +0.251 C  
DOCKED: BRANCH  14  15
DOCKED: ATOM     15  N   UNL     1     -46.097 -29.200   1.588 -0.06 +0.00    +0.141 N  
DOCKED: ATOM     16  C   UNL     1     -47.261 -29.947   1.109 -0.18 +0.00    +0.285 C  
DOCKED: ATOM     17  C   UNL     1     -44.899 -30.040   1.539 -0.02 +0.00    +0.285 C  
DOCKED: ENDBRANCH  14  15
DOCKED: ENDBRANCH  13  14
DOCKED: ENDBRANCH  12  13
DOCKED: ENDBRANCH   2  12
DOCKED: BRANCH   2  18
DOCKED: ATOM     18  C   UNL     1     -46.810 -24.796   0.385 -0.11 +0.00    +0.006 A  
DOCKED: ATOM     19  C   UNL     1     -45.539 -24.651   0.940 -0.06 +0.00    +0.001 A  
DOCKED: ATOM     20  C   UNL     1     -45.398 -24.159   2.238 -0.08 +0.00    +0.029 A  
DOCKED: ATOM     21  C   UNL     1     -46.527 -23.811   2.978 -0.07 +0.00    +0.140 A  
DOCKED: ATOM     22  C   UNL     1     -47.798 -23.956   2.423 -0.13 +0.00    +0.029 A  
DOCKED: ATOM     23  F   UNL     1     -46.391 -23.336   4.223 -0.04 -0.00    -0.204 F  
DOCKED: ATOM     24  C   UNL     1     -47.940 -24.449   1.125 -0.16 +0.00    +0.001 A  
DOCKED: ENDBRANCH   2  18
DOCKED: TORSDOF 5
DOCKED: TER
DOCKED: ENDMDL
________________________________________________________________________________


    FINAL DOCKED STATE:
    ________________________


Run:   361 / 512
Time taken for this run:   0.001s

DOCKED: MODEL        361
DOCKED: USER    Run = 361
DOCKED: USER
DOCKED: USER    Estimated Free Energy of Binding    =  -4.21 kcal/mol  [=(1)+(2)+(3)-(4)]
DOCKED: USER
DOCKED: USER    (1) Final Intermolecular Energy     =  -5.70 kcal/mol
DOCKED: USER        vdW + Hbond + desolv Energy     =  -5.70 kcal/mol
DOCKED: USER        Electrostatic Energy            =  +0.00 kcal/mol
DOCKED: USER        Moving Ligand-Fixed Receptor    =  -5.70 kcal/mol
DOCKED: USER        Moving Ligand-Moving Receptor   =  +0.00 kcal/mol
DOCKED: USER    (2) Final Total Internal Energy     =  -1.24 kcal/mol
DOCKED: USER    (3) Torsional Free Energy           =  +1.49 kcal/mol
DOCKED: USER    (4) Unbound System's Energy         =  -1.24 kcal/mol
DOCKED: USER
DOCKED: USER
DOCKED: REMARK  5 active torsions:
DOCKED: REMARK  status: ('A' for Active; 'I' for Inactive)
DOCKED: REMARK    1  A    between atoms: C_2  and  C_19 
DOCKED: REMARK    2  A    between atoms: C_2  and  C_11 
DOCKED: REMARK    3  A    between atoms: C_19  and  C_20 
DOCKED: REMARK    4  A    between atoms: C_20  and  C_21 
DOCKED: REMARK    5  A    between atoms: C_21  and  N_22 
DOCKED: USER                              x       y       z     vdW  Elec       q    Type
DOCKED: USER                           _______ _______ _______ _____ _____    ______ ____
DOCKED: ROOT
DOCKED: ATOM      1  O   UNL     1     -50.313 -29.867   7.960 -0.05 -0.00    -0.346 OA 
DOCKED: ATOM      2  C   UNL     1     -51.742 -29.553   7.913 -0.11 +0.00    +0.130 C  
DOCKED: ATOM      3  C   UNL     1     -52.358 -30.774   7.294 -0.21 +0.00    +0.004 A  
DOCKED: ATOM      4  C   UNL     1     -51.384 -31.744   7.106 -0.26 +0.00    +0.006 A  
DOCKED: ATOM      5  C   UNL     1     -50.078 -31.246   7.592 -0.12 +0.00    +0.169 C  
DOCKED: ATOM      6  C   UNL     1     -53.677 -31.011   6.936 -0.23 -0.00    -0.001 A  
DOCKED: ATOM      7  C   UNL     1     -51.691 -32.976   6.553 -0.33 +0.00    +0.008 A  
DOCKED: ATOM      8  C   UNL     1     -54.002 -32.247   6.373 -0.25 +0.00    +0.010 A  
DOCKED: ATOM      9  C   UNL     1     -53.013 -33.224   6.183 -0.28 +0.00    +0.068 A  
DOCKED: ATOM     10  N   UNL     1     -53.651 -35.509   5.141 -2.46 -0.00    -0.191 NA 
DOCKED: ATOM     11  C   UNL     1     -53.365 -34.484   5.608 -0.36 +0.00    +0.101 C  
DOCKED: ENDROOT
DOCKED: BRANCH   2  12
DOCKED: ATOM     12  C   UNL     1     -52.228 -29.300   9.335 -0.04 +0.00    +0.038 C  
DOCKED: BRANCH  12  13
DOCKED: ATOM     13  C   UNL     1     -51.895 -30.473  10.255 -0.03 +0.00    +0.038 C  
DOCKED: BRANCH  13  14
DOCKED: ATOM     14  C   UNL     1     -53.156 -31.240  10.646 -0.01 +0.00    +0.251 C  
DOCKED: BRANCH  14  15
DOCKED: ATOM     15  N   UNL     1     -52.832 -32.630  10.945 -0.04 +0.00    +0.141 N  
DOCKED: ATOM     16  C   UNL     1     -54.051 -33.436  11.036 -0.04 +0.00    +0.285 C  
DOCKED: ATOM     17  C   UNL     1     -51.935 -33.180   9.928 -0.08 +0.00    +0.285 C  
DOCKED: ENDBRANCH  14  15
DOCKED: ENDBRANCH  13  14
DOCKED: ENDBRANCH  12  13
DOCKED: ENDBRANCH   2  12
DOCKED: BRANCH   2  18
DOCKED: ATOM     18  C   UNL     1     -51.893 -28.333   7.067 -0.15 +0.00    +0.006 A  
DOCKED: ATOM     19  C   UNL     1     -53.137 -28.008   6.528 -0.20 +0.00    +0.001 A  
DOCKED: ATOM     20  C   UNL     1     -53.276 -26.867   5.737 -0.14 +0.00    +0.029 A  
DOCKED: ATOM     21  C   UNL     1     -52.173 -26.053   5.487 -0.11 +0.00    +0.140 A  
DOCKED: ATOM     22  C   UNL     1     -50.929 -26.378   6.027 -0.09 +0.00    +0.029 A  
DOCKED: ATOM     23  F   UNL     1     -52.307 -24.957   4.729 -0.02 -0.00    -0.204 F  
DOCKED: ATOM     24  C   UNL     1     -50.788 -27.519   6.818 -0.10 +0.00    +0.001 A  
DOCKED: ENDBRANCH   2  18
DOCKED: TORSDOF 5
DOCKED: TER
DOCKED: ENDMDL
________________________________________________________________________________


    FINAL DOCKED STATE:
    ________________________


Run:   362 / 512
Time taken for this run:   0.001s

DOCKED: MODEL        362
DOCKED: USER    Run = 362
DOCKED: USER
DOCKED: USER    Estimated Free Energy of Binding    =  -4.02 kcal/mol  [=(1)+(2)+(3)-(4)]
DOCKED: USER
DOCKED: USER    (1) Final Intermolecular Energy     =  -5.51 kcal/mol
DOCKED: USER        vdW + Hbond + desolv Energy     =  -5.51 kcal/mol
DOCKED: USER        Electrostatic Energy            =  +0.00 kcal/mol
DOCKED: USER        Moving Ligand-Fixed Receptor    =  -5.51 kcal/mol
DOCKED: USER        Moving Ligand-Moving Receptor   =  +0.00 kcal/mol
DOCKED: USER    (2) Final Total Internal Energy     =  -1.39 kcal/mol
DOCKED: USER    (3) Torsional Free Energy           =  +1.49 kcal/mol
DOCKED: USER    (4) Unbound System's Energy         =  -1.39 kcal/mol
DOCKED: USER
DOCKED: USER
DOCKED: REMARK  5 active torsions:
DOCKED: REMARK  status: ('A' for Active; 'I' for Inactive)
DOCKED: REMARK    1  A    between atoms: C_2  and  C_19 
DOCKED: REMARK    2  A    between atoms: C_2  and  C_11 
DOCKED: REMARK    3  A    between atoms: C_19  and  C_20 
DOCKED: REMARK    4  A    between atoms: C_20  and  C_21 
DOCKED: REMARK    5  A    between atoms: C_21  and  N_22 
DOCKED: USER                              x       y       z     vdW  Elec       q    Type
DOCKED: USER                           _______ _______ _______ _____ _____    ______ ____
DOCKED: ROOT
DOCKED: ATOM      1  O   UNL     1     -52.057 -28.832   7.259 -0.06 -0.00    -0.346 OA 
DOCKED: ATOM      2  C   UNL     1     -50.952 -29.701   7.663 -0.13 +0.00    +0.130 C  
DOCKED: ATOM      3  C   UNL     1     -51.400 -31.071   7.243 -0.23 +0.00    +0.004 A  
DOCKED: ATOM      4  C   UNL     1     -52.604 -30.980   6.560 -0.27 +0.00    +0.006 A  
DOCKED: ATOM      5  C   UNL     1     -53.024 -29.563   6.471 -0.17 +0.00    +0.169 C  
DOCKED: ATOM      6  C   UNL     1     -50.785 -32.299   7.440 -0.25 -0.00    -0.001 A  
DOCKED: ATOM      7  C   UNL     1     -53.235 -32.105   6.057 -0.29 +0.00    +0.008 A  
DOCKED: ATOM      8  C   UNL     1     -51.411 -33.444   6.943 -0.34 +0.00    +0.010 A  
DOCKED: ATOM      9  C   UNL     1     -52.629 -33.347   6.254 -0.30 +0.00    +0.068 A  
DOCKED: ATOM     10  N   UNL     1     -53.761 -35.490   5.339 -2.55 -0.00    -0.191 NA 
DOCKED: ATOM     11  C   UNL     1     -53.254 -34.529   5.750 -0.30 +0.00    +0.101 C  
DOCKED: ENDROOT
DOCKED: BRANCH   2  12
DOCKED: ATOM     12  C   UNL     1     -49.689 -29.244   6.943 -0.16 +0.00    +0.038 C  
DOCKED: BRANCH  12  13
DOCKED: ATOM     13  C   UNL     1     -49.142 -27.951   7.545 -0.06 +0.00    +0.038 C  
DOCKED: BRANCH  13  14
DOCKED: ATOM     14  C   UNL     1     -49.949 -26.742   7.077 -0.03 +0.00    +0.251 C  
DOCKED: BRANCH  14  15
DOCKED: ATOM     15  N   UNL     1     -50.498 -26.982   5.748 -0.09 +0.00    +0.141 N  
DOCKED: ATOM     16  C   UNL     1     -51.802 -26.334   5.603 -0.09 +0.00    +0.285 C  
DOCKED: ATOM     17  C   UNL     1     -49.576 -26.505   4.715 -0.06 +0.00    +0.285 C  
DOCKED: ENDBRANCH  14  15
DOCKED: ENDBRANCH  13  14
DOCKED: ENDBRANCH  12  13
DOCKED: ENDBRANCH   2  12
DOCKED: BRANCH   2  18
DOCKED: ATOM     18  C   UNL     1     -50.807 -29.565   9.142 -0.04 +0.00    +0.006 A  
DOCKED: ATOM     19  C   UNL     1     -51.678 -28.740   9.854 -0.02 +0.00    +0.001 A  
DOCKED: ATOM     20  C   UNL     1     -51.541 -28.613  11.237 -0.00 +0.00    +0.029 A  
DOCKED: ATOM     21  C   UNL     1     -50.536 -29.310  11.906 -0.00 +0.00    +0.140 A  
DOCKED: ATOM     22  C   UNL     1     -49.666 -30.135  11.193 -0.01 +0.00    +0.029 A  
DOCKED: ATOM     23  F   UNL     1     -50.407 -29.189  13.233 +0.00 -0.00    -0.204 F  
DOCKED: ATOM     24  C   UNL     1     -49.801 -30.262   9.810 -0.04 +0.00    +0.001 A  
DOCKED: ENDBRANCH   2  18
DOCKED: TORSDOF 5
DOCKED: TER
DOCKED: ENDMDL
________________________________________________________________________________


    FINAL DOCKED STATE:
    ________________________


Run:   363 / 512
Time taken for this run:   0.001s

DOCKED: MODEL        363
DOCKED: USER    Run = 363
DOCKED: USER
DOCKED: USER    Estimated Free Energy of Binding    =  -4.33 kcal/mol  [=(1)+(2)+(3)-(4)]
DOCKED: USER
DOCKED: USER    (1) Final Intermolecular Energy     =  -5.82 kcal/mol
DOCKED: USER        vdW + Hbond + desolv Energy     =  -5.82 kcal/mol
DOCKED: USER        Electrostatic Energy            =  +0.00 kcal/mol
DOCKED: USER        Moving Ligand-Fixed Receptor    =  -5.82 kcal/mol
DOCKED: USER        Moving Ligand-Moving Receptor   =  +0.00 kcal/mol
DOCKED: USER    (2) Final Total Internal Energy     =  -1.43 kcal/mol
DOCKED: USER    (3) Torsional Free Energy           =  +1.49 kcal/mol
DOCKED: USER    (4) Unbound System's Energy         =  -1.43 kcal/mol
DOCKED: USER
DOCKED: USER
DOCKED: REMARK  5 active torsions:
DOCKED: REMARK  status: ('A' for Active; 'I' for Inactive)
DOCKED: REMARK    1  A    between atoms: C_2  and  C_19 
DOCKED: REMARK    2  A    between atoms: C_2  and  C_11 
DOCKED: REMARK    3  A    between atoms: C_19  and  C_20 
DOCKED: REMARK    4  A    between atoms: C_20  and  C_21 
DOCKED: REMARK    5  A    between atoms: C_21  and  N_22 
DOCKED: USER                              x       y       z     vdW  Elec       q    Type
DOCKED: USER                           _______ _______ _______ _____ _____    ______ ____
DOCKED: ROOT
DOCKED: ATOM      1  O   UNL     1     -49.235 -31.230   8.422 -0.08 -0.00    -0.346 OA 
DOCKED: ATOM      2  C   UNL     1     -50.455 -30.462   8.174 -0.12 +0.00    +0.130 C  
DOCKED: ATOM      3  C   UNL     1     -51.341 -31.422   7.434 -0.22 +0.00    +0.004 A  
DOCKED: ATOM      4  C   UNL     1     -50.726 -32.664   7.363 -0.25 +0.00    +0.006 A  
DOCKED: ATOM      5  C   UNL     1     -49.417 -32.616   8.051 -0.11 +0.00    +0.169 C  
DOCKED: ATOM      6  C   UNL     1     -52.596 -31.216   6.879 -0.25 -0.00    -0.001 A  
DOCKED: ATOM      7  C   UNL     1     -51.337 -33.736   6.734 -0.37 +0.00    +0.008 A  
DOCKED: ATOM      8  C   UNL     1     -53.223 -32.286   6.238 -0.29 +0.00    +0.010 A  
DOCKED: ATOM      9  C   UNL     1     -52.597 -33.539   6.166 -0.32 +0.00    +0.068 A  
DOCKED: ATOM     10  N   UNL     1     -53.791 -35.505   4.974 -2.35 -0.00    -0.191 NA 
DOCKED: ATOM     11  C   UNL     1     -53.255 -34.623   5.508 -0.35 +0.00    +0.101 C  
DOCKED: ENDROOT
DOCKED: BRANCH   2  12
DOCKED: ATOM     12  C   UNL     1     -51.036 -30.032   9.516 -0.05 +0.00    +0.038 C  
DOCKED: BRANCH  12  13
DOCKED: ATOM     13  C   UNL     1     -50.907 -31.140  10.559 -0.05 +0.00    +0.038 C  
DOCKED: BRANCH  13  14
DOCKED: ATOM     14  C   UNL     1     -52.187 -31.969  10.642 -0.02 +0.00    +0.251 C  
DOCKED: BRANCH  14  15
DOCKED: ATOM     15  N   UNL     1     -51.921 -33.352  10.264 -0.10 +0.00    +0.141 N  
DOCKED: ATOM     16  C   UNL     1     -51.529 -34.140  11.434 -0.12 +0.00    +0.285 C  
DOCKED: ATOM     17  C   UNL     1     -53.095 -33.946   9.623 -0.10 +0.00    +0.285 C  
DOCKED: ENDBRANCH  14  15
DOCKED: ENDBRANCH  13  14
DOCKED: ENDBRANCH  12  13
DOCKED: ENDBRANCH   2  12
DOCKED: BRANCH   2  18
DOCKED: ATOM     18  C   UNL     1     -50.066 -29.278   7.352 -0.14 +0.00    +0.006 A  
DOCKED: ATOM     19  C   UNL     1     -48.784 -29.197   6.811 -0.13 +0.00    +0.001 A  
DOCKED: ATOM     20  C   UNL     1     -48.421 -28.090   6.043 -0.10 +0.00    +0.029 A  
DOCKED: ATOM     21  C   UNL     1     -49.341 -27.067   5.817 -0.07 +0.00    +0.140 A  
DOCKED: ATOM     22  C   UNL     1     -50.624 -27.149   6.358 -0.10 +0.00    +0.029 A  
DOCKED: ATOM     23  F   UNL     1     -48.993 -26.005   5.078 -0.01 -0.00    -0.204 F  
DOCKED: ATOM     24  C   UNL     1     -50.987 -28.256   7.127 -0.12 +0.00    +0.001 A  
DOCKED: ENDBRANCH   2  18
DOCKED: TORSDOF 5
DOCKED: TER
DOCKED: ENDMDL
________________________________________________________________________________


    FINAL DOCKED STATE:
    ________________________


Run:   364 / 512
Time taken for this run:   0.001s

DOCKED: MODEL        364
DOCKED: USER    Run = 364
DOCKED: USER
DOCKED: USER    Estimated Free Energy of Binding    =  -3.70 kcal/mol  [=(1)+(2)+(3)-(4)]
DOCKED: USER
DOCKED: USER    (1) Final Intermolecular Energy     =  -5.19 kcal/mol
DOCKED: USER        vdW + Hbond + desolv Energy     =  -5.19 kcal/mol
DOCKED: USER        Electrostatic Energy            =  +0.00 kcal/mol
DOCKED: USER        Moving Ligand-Fixed Receptor    =  -5.19 kcal/mol
DOCKED: USER        Moving Ligand-Moving Receptor   =  +0.00 kcal/mol
DOCKED: USER    (2) Final Total Internal Energy     =  -1.28 kcal/mol
DOCKED: USER    (3) Torsional Free Energy           =  +1.49 kcal/mol
DOCKED: USER    (4) Unbound System's Energy         =  -1.28 kcal/mol
DOCKED: USER
DOCKED: USER
DOCKED: REMARK  5 active torsions:
DOCKED: REMARK  status: ('A' for Active; 'I' for Inactive)
DOCKED: REMARK    1  A    between atoms: C_2  and  C_19 
DOCKED: REMARK    2  A    between atoms: C_2  and  C_11 
DOCKED: REMARK    3  A    between atoms: C_19  and  C_20 
DOCKED: REMARK    4  A    between atoms: C_20  and  C_21 
DOCKED: REMARK    5  A    between atoms: C_21  and  N_22 
DOCKED: USER                              x       y       z     vdW  Elec       q    Type
DOCKED: USER                           _______ _______ _______ _____ _____    ______ ____
DOCKED: ROOT
DOCKED: ATOM      1  O   UNL     1     -44.281 -20.624  -4.796 -0.02 -0.00    -0.346 OA 
DOCKED: ATOM      2  C   UNL     1     -44.740 -20.587  -3.407 -0.07 +0.00    +0.130 C  
DOCKED: ATOM      3  C   UNL     1     -46.195 -20.946  -3.499 -0.15 +0.00    +0.004 A  
DOCKED: ATOM      4  C   UNL     1     -46.514 -21.269  -4.811 -0.19 +0.00    +0.006 A  
DOCKED: ATOM      5  C   UNL     1     -45.309 -21.160  -5.662 -0.09 +0.00    +0.169 C  
DOCKED: ATOM      6  C   UNL     1     -47.157 -20.995  -2.501 -0.25 -0.00    -0.001 A  
DOCKED: ATOM      7  C   UNL     1     -47.798 -21.644  -5.169 -0.30 +0.00    +0.008 A  
DOCKED: ATOM      8  C   UNL     1     -48.457 -21.368  -2.846 -0.30 +0.00    +0.010 A  
DOCKED: ATOM      9  C   UNL     1     -48.775 -21.691  -4.174 -0.35 +0.00    +0.068 A  
DOCKED: ATOM     10  N   UNL     1     -51.197 -22.384  -4.781 -2.52 -0.00    -0.191 NA 
DOCKED: ATOM     11  C   UNL     1     -50.111 -22.073  -4.509 -0.41 +0.00    +0.101 C  
DOCKED: ENDROOT
DOCKED: BRANCH   2  12
DOCKED: ATOM     12  C   UNL     1     -43.930 -21.597  -2.603 -0.03 +0.00    +0.038 C  
DOCKED: BRANCH  12  13
DOCKED: ATOM     13  C   UNL     1     -43.499 -22.780  -3.468 -0.02 +0.00    +0.038 C  
DOCKED: BRANCH  13  14
DOCKED: ATOM     14  C   UNL     1     -44.571 -23.868  -3.484 -0.00 +0.00    +0.251 C  
DOCKED: BRANCH  14  15
DOCKED: ATOM     15  N   UNL     1     -44.773 -24.400  -2.142 -0.01 +0.00    +0.141 N  
DOCKED: ATOM     16  C   UNL     1     -46.106 -24.054  -1.645 -0.04 +0.00    +0.285 C  
DOCKED: ATOM     17  C   UNL     1     -44.589 -25.853  -2.130 -0.00 +0.00    +0.285 C  
DOCKED: ENDBRANCH  14  15
DOCKED: ENDBRANCH  13  14
DOCKED: ENDBRANCH  12  13
DOCKED: ENDBRANCH   2  12
DOCKED: BRANCH   2  18
DOCKED: ATOM     18  C   UNL     1     -44.515 -19.198  -2.910 -0.09 +0.00    +0.006 A  
DOCKED: ATOM     19  C   UNL     1     -43.432 -18.924  -2.076 -0.03 +0.00    +0.001 A  
DOCKED: ATOM     20  C   UNL     1     -43.222 -17.625  -1.612 -0.02 +0.00    +0.029 A  
DOCKED: ATOM     21  C   UNL     1     -44.095 -16.603  -1.982 -0.02 +0.00    +0.140 A  
DOCKED: ATOM     22  C   UNL     1     -45.178 -16.878  -2.816 -0.13 +0.00    +0.029 A  
DOCKED: ATOM     23  F   UNL     1     -43.892 -15.356  -1.538 +0.01 -0.00    -0.204 F  
DOCKED: ATOM     24  C   UNL     1     -45.389 -18.177  -3.281 -0.17 +0.00    +0.001 A  
DOCKED: ENDBRANCH   2  18
DOCKED: TORSDOF 5
DOCKED: TER
DOCKED: ENDMDL
________________________________________________________________________________


    FINAL DOCKED STATE:
    ________________________


Run:   365 / 512
Time taken for this run:   0.001s

DOCKED: MODEL        365
DOCKED: USER    Run = 365
DOCKED: USER
DOCKED: USER    Estimated Free Energy of Binding    =  -3.59 kcal/mol  [=(1)+(2)+(3)-(4)]
DOCKED: USER
DOCKED: USER    (1) Final Intermolecular Energy     =  -5.08 kcal/mol
DOCKED: USER        vdW + Hbond + desolv Energy     =  -5.08 kcal/mol
DOCKED: USER        Electrostatic Energy            =  +0.00 kcal/mol
DOCKED: USER        Moving Ligand-Fixed Receptor    =  -5.08 kcal/mol
DOCKED: USER        Moving Ligand-Moving Receptor   =  +0.00 kcal/mol
DOCKED: USER    (2) Final Total Internal Energy     =  -1.24 kcal/mol
DOCKED: USER    (3) Torsional Free Energy           =  +1.49 kcal/mol
DOCKED: USER    (4) Unbound System's Energy         =  -1.24 kcal/mol
DOCKED: USER
DOCKED: USER
DOCKED: REMARK  5 active torsions:
DOCKED: REMARK  status: ('A' for Active; 'I' for Inactive)
DOCKED: REMARK    1  A    between atoms: C_2  and  C_19 
DOCKED: REMARK    2  A    between atoms: C_2  and  C_11 
DOCKED: REMARK    3  A    between atoms: C_19  and  C_20 
DOCKED: REMARK    4  A    between atoms: C_20  and  C_21 
DOCKED: REMARK    5  A    between atoms: C_21  and  N_22 
DOCKED: USER                              x       y       z     vdW  Elec       q    Type
DOCKED: USER                           _______ _______ _______ _____ _____    ______ ____
DOCKED: ROOT
DOCKED: ATOM      1  O   UNL     1     -48.426 -25.213   1.399 -0.05 -0.00    -0.346 OA 
DOCKED: ATOM      2  C   UNL     1     -49.585 -25.339   0.516 -0.24 +0.00    +0.130 C  
DOCKED: ATOM      3  C   UNL     1     -49.252 -24.447  -0.645 -0.27 +0.00    +0.004 A  
DOCKED: ATOM      4  C   UNL     1     -47.968 -23.942  -0.492 -0.08 +0.00    +0.006 A  
DOCKED: ATOM      5  C   UNL     1     -47.367 -24.467   0.755 -0.13 +0.00    +0.169 C  
DOCKED: ATOM      6  C   UNL     1     -50.018 -24.118  -1.753 -0.24 -0.00    -0.001 A  
DOCKED: ATOM      7  C   UNL     1     -47.411 -23.092  -1.432 -0.12 +0.00    +0.008 A  
DOCKED: ATOM      8  C   UNL     1     -49.472 -23.259  -2.708 -0.35 +0.00    +0.010 A  
DOCKED: ATOM      9  C   UNL     1     -48.175 -22.749  -2.549 -0.22 +0.00    +0.068 A  
DOCKED: ATOM     10  N   UNL     1     -47.190 -21.161  -4.343 -0.71 -0.00    -0.191 NA 
DOCKED: ATOM     11  C   UNL     1     -47.632 -21.873  -3.538 -0.25 +0.00    +0.101 C  
DOCKED: ENDROOT
DOCKED: BRANCH   2  12
DOCKED: ATOM     12  C   UNL     1     -49.730 -26.803   0.116 -0.23 +0.00    +0.038 C  
DOCKED: BRANCH  12  13
DOCKED: ATOM     13  C   UNL     1     -49.098 -27.728   1.153 -0.23 +0.00    +0.038 C  
DOCKED: BRANCH  13  14
DOCKED: ATOM     14  C   UNL     1     -48.484 -28.960   0.489 -0.12 +0.00    +0.251 C  
DOCKED: BRANCH  14  15
DOCKED: ATOM     15  N   UNL     1     -47.103 -28.694   0.106 -0.13 +0.00    +0.141 N  
DOCKED: ATOM     16  C   UNL     1     -47.036 -28.188  -1.266 -0.14 +0.00    +0.285 C  
DOCKED: ATOM     17  C   UNL     1     -46.486 -27.741   1.030 -0.03 +0.00    +0.285 C  
DOCKED: ENDBRANCH  14  15
DOCKED: ENDBRANCH  13  14
DOCKED: ENDBRANCH  12  13
DOCKED: ENDBRANCH   2  12
DOCKED: BRANCH   2  18
DOCKED: ATOM     18  C   UNL     1     -50.774 -24.871   1.286 -0.30 +0.00    +0.006 A  
DOCKED: ATOM     19  C   UNL     1     -51.504 -25.774   2.058 -0.26 +0.00    +0.001 A  
DOCKED: ATOM     20  C   UNL     1     -52.616 -25.334   2.778 -0.26 +0.00    +0.029 A  
DOCKED: ATOM     21  C   UNL     1     -52.996 -23.994   2.725 -0.19 +0.00    +0.140 A  
DOCKED: ATOM     22  C   UNL     1     -52.265 -23.091   1.953 -0.32 +0.00    +0.029 A  
DOCKED: ATOM     23  F   UNL     1     -54.062 -23.573   3.418 -0.02 -0.00    -0.204 F  
DOCKED: ATOM     24  C   UNL     1     -51.153 -23.530   1.232 -0.21 +0.00    +0.001 A  
DOCKED: ENDBRANCH   2  18
DOCKED: TORSDOF 5
DOCKED: TER
DOCKED: ENDMDL
________________________________________________________________________________


    FINAL DOCKED STATE:
    ________________________


Run:   366 / 512
Time taken for this run:   0.001s

DOCKED: MODEL        366
DOCKED: USER    Run = 366
DOCKED: USER
DOCKED: USER    Estimated Free Energy of Binding    =  -3.69 kcal/mol  [=(1)+(2)+(3)-(4)]
DOCKED: USER
DOCKED: USER    (1) Final Intermolecular Energy     =  -5.19 kcal/mol
DOCKED: USER        vdW + Hbond + desolv Energy     =  -5.19 kcal/mol
DOCKED: USER        Electrostatic Energy            =  +0.00 kcal/mol
DOCKED: USER        Moving Ligand-Fixed Receptor    =  -5.19 kcal/mol
DOCKED: USER        Moving Ligand-Moving Receptor   =  +0.00 kcal/mol
DOCKED: USER    (2) Final Total Internal Energy     =  -1.33 kcal/mol
DOCKED: USER    (3) Torsional Free Energy           =  +1.49 kcal/mol
DOCKED: USER    (4) Unbound System's Energy         =  -1.33 kcal/mol
DOCKED: USER
DOCKED: USER
DOCKED: REMARK  5 active torsions:
DOCKED: REMARK  status: ('A' for Active; 'I' for Inactive)
DOCKED: REMARK    1  A    between atoms: C_2  and  C_19 
DOCKED: REMARK    2  A    between atoms: C_2  and  C_11 
DOCKED: REMARK    3  A    between atoms: C_19  and  C_20 
DOCKED: REMARK    4  A    between atoms: C_20  and  C_21 
DOCKED: REMARK    5  A    between atoms: C_21  and  N_22 
DOCKED: USER                              x       y       z     vdW  Elec       q    Type
DOCKED: USER                           _______ _______ _______ _____ _____    ______ ____
DOCKED: ROOT
DOCKED: ATOM      1  O   UNL     1     -50.914 -30.074   8.853 -0.01 -0.00    -0.346 OA 
DOCKED: ATOM      2  C   UNL     1     -52.375 -29.989   8.870 -0.05 +0.00    +0.130 C  
DOCKED: ATOM      3  C   UNL     1     -52.812 -31.146   8.019 -0.13 +0.00    +0.004 A  
DOCKED: ATOM      4  C   UNL     1     -51.705 -31.892   7.642 -0.21 +0.00    +0.006 A  
DOCKED: ATOM      5  C   UNL     1     -50.478 -31.297   8.217 -0.14 +0.00    +0.169 C  
DOCKED: ATOM      6  C   UNL     1     -54.089 -31.516   7.622 -0.16 -0.00    -0.001 A  
DOCKED: ATOM      7  C   UNL     1     -51.833 -33.024   6.855 -0.32 +0.00    +0.008 A  
DOCKED: ATOM      8  C   UNL     1     -54.234 -32.652   6.824 -0.22 +0.00    +0.010 A  
DOCKED: ATOM      9  C   UNL     1     -53.112 -33.403   6.443 -0.26 +0.00    +0.068 A  
DOCKED: ATOM     10  N   UNL     1     -53.417 -35.510   4.967 -2.38 -0.00    -0.191 NA 
DOCKED: ATOM     11  C   UNL     1     -53.280 -34.564   5.628 -0.33 +0.00    +0.101 C  
DOCKED: ENDROOT
DOCKED: BRANCH   2  12
DOCKED: ATOM     12  C   UNL     1     -52.849 -30.101  10.314 -0.02 +0.00    +0.038 C  
DOCKED: BRANCH  12  13
DOCKED: ATOM     13  C   UNL     1     -51.944 -31.025  11.127 -0.03 +0.00    +0.038 C  
DOCKED: BRANCH  13  14
DOCKED: ATOM     14  C   UNL     1     -52.507 -32.445  11.171 -0.03 +0.00    +0.251 C  
DOCKED: BRANCH  14  15
DOCKED: ATOM     15  N   UNL     1     -51.599 -33.371  10.505 -0.11 +0.00    +0.141 N  
DOCKED: ATOM     16  C   UNL     1     -50.408 -33.606  11.323 -0.09 +0.00    +0.285 C  
DOCKED: ATOM     17  C   UNL     1     -52.275 -34.637  10.217 -0.11 +0.00    +0.285 C  
DOCKED: ENDBRANCH  14  15
DOCKED: ENDBRANCH  13  14
DOCKED: ENDBRANCH  12  13
DOCKED: ENDBRANCH   2  12
DOCKED: BRANCH   2  18
DOCKED: ATOM     18  C   UNL     1     -52.741 -28.666   8.284 -0.08 +0.00    +0.006 A  
DOCKED: ATOM     19  C   UNL     1     -53.491 -28.608   7.110 -0.20 +0.00    +0.001 A  
DOCKED: ATOM     20  C   UNL     1     -53.832 -27.370   6.563 -0.19 +0.00    +0.029 A  
DOCKED: ATOM     21  C   UNL     1     -53.426 -26.194   7.191 -0.07 +0.00    +0.140 A  
DOCKED: ATOM     22  C   UNL     1     -52.677 -26.253   8.366 -0.03 +0.00    +0.029 A  
DOCKED: ATOM     23  F   UNL     1     -53.755 -25.006   6.667 -0.00 -0.00    -0.204 F  
DOCKED: ATOM     24  C   UNL     1     -52.334 -27.490   8.913 -0.03 +0.00    +0.001 A  
DOCKED: ENDBRANCH   2  18
DOCKED: TORSDOF 5
DOCKED: TER
DOCKED: ENDMDL
________________________________________________________________________________


    FINAL DOCKED STATE:
    ________________________


Run:   367 / 512
Time taken for this run:   0.001s

DOCKED: MODEL        367
DOCKED: USER    Run = 367
DOCKED: USER
DOCKED: USER    Estimated Free Energy of Binding    =  -3.49 kcal/mol  [=(1)+(2)+(3)-(4)]
DOCKED: USER
DOCKED: USER    (1) Final Intermolecular Energy     =  -4.99 kcal/mol
DOCKED: USER        vdW + Hbond + desolv Energy     =  -4.99 kcal/mol
DOCKED: USER        Electrostatic Energy            =  +0.00 kcal/mol
DOCKED: USER        Moving Ligand-Fixed Receptor    =  -4.99 kcal/mol
DOCKED: USER        Moving Ligand-Moving Receptor   =  +0.00 kcal/mol
DOCKED: USER    (2) Final Total Internal Energy     =  -1.32 kcal/mol
DOCKED: USER    (3) Torsional Free Energy           =  +1.49 kcal/mol
DOCKED: USER    (4) Unbound System's Energy         =  -1.32 kcal/mol
DOCKED: USER
DOCKED: USER
DOCKED: REMARK  5 active torsions:
DOCKED: REMARK  status: ('A' for Active; 'I' for Inactive)
DOCKED: REMARK    1  A    between atoms: C_2  and  C_19 
DOCKED: REMARK    2  A    between atoms: C_2  and  C_11 
DOCKED: REMARK    3  A    between atoms: C_19  and  C_20 
DOCKED: REMARK    4  A    between atoms: C_20  and  C_21 
DOCKED: REMARK    5  A    between atoms: C_21  and  N_22 
DOCKED: USER                              x       y       z     vdW  Elec       q    Type
DOCKED: USER                           _______ _______ _______ _____ _____    ______ ____
DOCKED: ROOT
DOCKED: ATOM      1  O   UNL     1     -49.579 -30.583   8.657 -0.05 -0.00    -0.346 OA 
DOCKED: ATOM      2  C   UNL     1     -50.952 -30.085   8.745 -0.07 +0.00    +0.130 C  
DOCKED: ATOM      3  C   UNL     1     -51.757 -31.118   8.011 -0.15 +0.00    +0.004 A  
DOCKED: ATOM      4  C   UNL     1     -50.934 -32.169   7.633 -0.24 +0.00    +0.006 A  
DOCKED: ATOM      5  C   UNL     1     -49.550 -31.915   8.094 -0.14 +0.00    +0.169 C  
DOCKED: ATOM      6  C   UNL     1     -53.111 -31.132   7.712 -0.16 -0.00    -0.001 A  
DOCKED: ATOM      7  C   UNL     1     -51.431 -33.262   6.943 -0.33 +0.00    +0.008 A  
DOCKED: ATOM      8  C   UNL     1     -53.627 -32.225   7.013 -0.21 +0.00    +0.010 A  
DOCKED: ATOM      9  C   UNL     1     -52.791 -33.284   6.631 -0.26 +0.00    +0.068 A  
DOCKED: ATOM     10  N   UNL     1     -53.782 -35.300   5.339 -2.55 -0.00    -0.191 NA 
DOCKED: ATOM     11  C   UNL     1     -53.337 -34.396   5.918 -0.33 +0.00    +0.101 C  
DOCKED: ENDROOT
DOCKED: BRANCH   2  12
DOCKED: ATOM     12  C   UNL     1     -51.331 -29.973  10.217 -0.03 +0.00    +0.038 C  
DOCKED: BRANCH  12  13
DOCKED: ATOM     13  C   UNL     1     -52.826 -29.708  10.388 -0.02 +0.00    +0.038 C  
DOCKED: BRANCH  13  14
DOCKED: ATOM     14  C   UNL     1     -53.071 -28.345  11.033 -0.00 +0.00    +0.251 C  
DOCKED: BRANCH  14  15
DOCKED: ATOM     15  N   UNL     1     -54.126 -27.630  10.323 -0.01 +0.00    +0.141 N  
DOCKED: ATOM     16  C   UNL     1     -53.707 -26.261  10.021 -0.00 +0.00    +0.285 C  
DOCKED: ATOM     17  C   UNL     1     -54.487 -28.334   9.092 -0.01 +0.00    +0.285 C  
DOCKED: ENDBRANCH  14  15
DOCKED: ENDBRANCH  13  14
DOCKED: ENDBRANCH  12  13
DOCKED: ENDBRANCH   2  12
DOCKED: BRANCH   2  18
DOCKED: ATOM     18  C   UNL     1     -50.975 -28.749   8.080 -0.08 +0.00    +0.006 A  
DOCKED: ATOM     19  C   UNL     1     -51.281 -28.652   6.723 -0.16 +0.00    +0.001 A  
DOCKED: ATOM     20  C   UNL     1     -51.302 -27.402   6.102 -0.11 +0.00    +0.029 A  
DOCKED: ATOM     21  C   UNL     1     -51.018 -26.253   6.838 -0.05 +0.00    +0.140 A  
DOCKED: ATOM     22  C   UNL     1     -50.712 -26.351   8.195 -0.02 +0.00    +0.029 A  
DOCKED: ATOM     23  F   UNL     1     -51.040 -25.054   6.243 -0.00 -0.00    -0.204 F  
DOCKED: ATOM     24  C   UNL     1     -50.690 -27.601   8.817 -0.03 +0.00    +0.001 A  
DOCKED: ENDBRANCH   2  18
DOCKED: TORSDOF 5
DOCKED: TER
DOCKED: ENDMDL
________________________________________________________________________________


    FINAL DOCKED STATE:
    ________________________


Run:   368 / 512
Time taken for this run:   0.001s

DOCKED: MODEL        368
DOCKED: USER    Run = 368
DOCKED: USER
DOCKED: USER    Estimated Free Energy of Binding    =  -3.90 kcal/mol  [=(1)+(2)+(3)-(4)]
DOCKED: USER
DOCKED: USER    (1) Final Intermolecular Energy     =  -5.39 kcal/mol
DOCKED: USER        vdW + Hbond + desolv Energy     =  -5.39 kcal/mol
DOCKED: USER        Electrostatic Energy            =  +0.00 kcal/mol
DOCKED: USER        Moving Ligand-Fixed Receptor    =  -5.39 kcal/mol
DOCKED: USER        Moving Ligand-Moving Receptor   =  +0.00 kcal/mol
DOCKED: USER    (2) Final Total Internal Energy     =  -1.22 kcal/mol
DOCKED: USER    (3) Torsional Free Energy           =  +1.49 kcal/mol
DOCKED: USER    (4) Unbound System's Energy         =  -1.22 kcal/mol
DOCKED: USER
DOCKED: USER
DOCKED: REMARK  5 active torsions:
DOCKED: REMARK  status: ('A' for Active; 'I' for Inactive)
DOCKED: REMARK    1  A    between atoms: C_2  and  C_19 
DOCKED: REMARK    2  A    between atoms: C_2  and  C_11 
DOCKED: REMARK    3  A    between atoms: C_19  and  C_20 
DOCKED: REMARK    4  A    between atoms: C_20  and  C_21 
DOCKED: REMARK    5  A    between atoms: C_21  and  N_22 
DOCKED: USER                              x       y       z     vdW  Elec       q    Type
DOCKED: USER                           _______ _______ _______ _____ _____    ______ ____
DOCKED: ROOT
DOCKED: ATOM      1  O   UNL     1     -45.367 -29.656   0.873 +0.01 -0.00    -0.346 OA 
DOCKED: ATOM      2  C   UNL     1     -44.967 -30.714  -0.055 -0.09 +0.00    +0.130 C  
DOCKED: ATOM      3  C   UNL     1     -45.170 -31.977   0.731 -0.14 +0.00    +0.004 A  
DOCKED: ATOM      4  C   UNL     1     -45.741 -31.676   1.959 -0.20 +0.00    +0.006 A  
DOCKED: ATOM      5  C   UNL     1     -45.964 -30.217   2.065 -0.11 +0.00    +0.169 C  
DOCKED: ATOM      6  C   UNL     1     -44.883 -33.289   0.381 -0.16 -0.00    -0.001 A  
DOCKED: ATOM      7  C   UNL     1     -46.040 -32.668   2.877 -0.26 +0.00    +0.008 A  
DOCKED: ATOM      8  C   UNL     1     -45.174 -34.300   1.298 -0.25 +0.00    +0.010 A  
DOCKED: ATOM      9  C   UNL     1     -45.750 -33.991   2.540 -0.31 +0.00    +0.068 A  
DOCKED: ATOM     10  N   UNL     1     -46.282 -35.893   4.217 -2.68 -0.00    -0.191 NA 
DOCKED: ATOM     11  C   UNL     1     -46.043 -35.040   3.465 -0.35 +0.00    +0.101 C  
DOCKED: ENDROOT
DOCKED: BRANCH   2  12
DOCKED: ATOM     12  C   UNL     1     -45.855 -30.634  -1.291 -0.09 +0.00    +0.038 C  
DOCKED: BRANCH  12  13
DOCKED: ATOM     13  C   UNL     1     -46.876 -29.505  -1.171 -0.19 +0.00    +0.038 C  
DOCKED: BRANCH  13  14
DOCKED: ATOM     14  C   UNL     1     -47.070 -28.795  -2.509 -0.19 +0.00    +0.251 C  
DOCKED: BRANCH  14  15
DOCKED: ATOM     15  N   UNL     1     -45.922 -29.027  -3.377 -0.12 +0.00    +0.141 N  
DOCKED: ATOM     16  C   UNL     1     -46.345 -29.630  -4.642 -0.18 +0.00    +0.285 C  
DOCKED: ATOM     17  C   UNL     1     -45.204 -27.776  -3.627 -0.02 +0.00    +0.285 C  
DOCKED: ENDBRANCH  14  15
DOCKED: ENDBRANCH  13  14
DOCKED: ENDBRANCH  12  13
DOCKED: ENDBRANCH   2  12
DOCKED: BRANCH   2  18
DOCKED: ATOM     18  C   UNL     1     -43.536 -30.470  -0.404 -0.03 +0.00    +0.006 A  
DOCKED: ATOM     19  C   UNL     1     -43.205 -29.917  -1.640 -0.01 +0.00    +0.001 A  
DOCKED: ATOM     20  C   UNL     1     -41.867 -29.690  -1.965 -0.00 +0.00    +0.029 A  
DOCKED: ATOM     21  C   UNL     1     -40.864 -30.015  -1.054 -0.00 +0.00    +0.140 A  
DOCKED: ATOM     22  C   UNL     1     -41.196 -30.568   0.183 -0.00 +0.00    +0.029 A  
DOCKED: ATOM     23  F   UNL     1     -39.580 -29.795  -1.365 +0.00 -0.00    -0.204 F  
DOCKED: ATOM     24  C   UNL     1     -42.534 -30.796   0.508 -0.01 +0.00    +0.001 A  
DOCKED: ENDBRANCH   2  18
DOCKED: TORSDOF 5
DOCKED: TER
DOCKED: ENDMDL
________________________________________________________________________________


    FINAL DOCKED STATE:
    ________________________


Run:   369 / 512
Time taken for this run:   0.001s

DOCKED: MODEL        369
DOCKED: USER    Run = 369
DOCKED: USER
DOCKED: USER    Estimated Free Energy of Binding    =  -4.44 kcal/mol  [=(1)+(2)+(3)-(4)]
DOCKED: USER
DOCKED: USER    (1) Final Intermolecular Energy     =  -5.93 kcal/mol
DOCKED: USER        vdW + Hbond + desolv Energy     =  -5.93 kcal/mol
DOCKED: USER        Electrostatic Energy            =  +0.00 kcal/mol
DOCKED: USER        Moving Ligand-Fixed Receptor    =  -5.93 kcal/mol
DOCKED: USER        Moving Ligand-Moving Receptor   =  +0.00 kcal/mol
DOCKED: USER    (2) Final Total Internal Energy     =  -1.01 kcal/mol
DOCKED: USER    (3) Torsional Free Energy           =  +1.49 kcal/mol
DOCKED: USER    (4) Unbound System's Energy         =  -1.01 kcal/mol
DOCKED: USER
DOCKED: USER
DOCKED: REMARK  5 active torsions:
DOCKED: REMARK  status: ('A' for Active; 'I' for Inactive)
DOCKED: REMARK    1  A    between atoms: C_2  and  C_19 
DOCKED: REMARK    2  A    between atoms: C_2  and  C_11 
DOCKED: REMARK    3  A    between atoms: C_19  and  C_20 
DOCKED: REMARK    4  A    between atoms: C_20  and  C_21 
DOCKED: REMARK    5  A    between atoms: C_21  and  N_22 
DOCKED: USER                              x       y       z     vdW  Elec       q    Type
DOCKED: USER                           _______ _______ _______ _____ _____    ______ ____
DOCKED: ROOT
DOCKED: ATOM      1  O   UNL     1     -48.900 -25.238   0.354 -0.08 -0.00    -0.346 OA 
DOCKED: ATOM      2  C   UNL     1     -47.669 -24.819  -0.318 -0.14 +0.00    +0.130 C  
DOCKED: ATOM      3  C   UNL     1     -48.156 -24.097  -1.541 -0.22 +0.00    +0.004 A  
DOCKED: ATOM      4  C   UNL     1     -49.541 -24.013  -1.514 -0.30 +0.00    +0.006 A  
DOCKED: ATOM      5  C   UNL     1     -50.059 -24.653  -0.284 -0.27 +0.00    +0.169 C  
DOCKED: ATOM      6  C   UNL     1     -47.430 -23.548  -2.588 -0.18 -0.00    -0.001 A  
DOCKED: ATOM      7  C   UNL     1     -50.245 -23.386  -2.528 -0.36 +0.00    +0.008 A  
DOCKED: ATOM      8  C   UNL     1     -48.126 -22.916  -3.621 -0.26 +0.00    +0.010 A  
DOCKED: ATOM      9  C   UNL     1     -49.526 -22.835  -3.590 -0.33 +0.00    +0.068 A  
DOCKED: ATOM     10  N   UNL     1     -50.786 -21.651  -5.520 -2.56 -0.00    -0.191 NA 
DOCKED: ATOM     11  C   UNL     1     -50.221 -22.182  -4.654 -0.35 +0.00    +0.101 C  
DOCKED: ENDROOT
DOCKED: BRANCH   2  12
DOCKED: ATOM     12  C   UNL     1     -46.884 -23.919   0.629 -0.15 +0.00    +0.038 C  
DOCKED: BRANCH  12  13
DOCKED: ATOM     13  C   UNL     1     -45.951 -22.984  -0.137 -0.14 +0.00    +0.038 C  
DOCKED: BRANCH  13  14
DOCKED: ATOM     14  C   UNL     1     -44.613 -22.831   0.584 -0.07 +0.00    +0.251 C  
DOCKED: BRANCH  14  15
DOCKED: ATOM     15  N   UNL     1     -43.520 -22.785  -0.380 -0.02 +0.00    +0.141 N  
DOCKED: ATOM     16  C   UNL     1     -44.039 -22.686  -1.745 -0.01 +0.00    +0.285 C  
DOCKED: ATOM     17  C   UNL     1     -42.627 -21.661  -0.094 -0.01 +0.00    +0.285 C  
DOCKED: ENDBRANCH  14  15
DOCKED: ENDBRANCH  13  14
DOCKED: ENDBRANCH  12  13
DOCKED: ENDBRANCH   2  12
DOCKED: BRANCH   2  18
DOCKED: ATOM     18  C   UNL     1     -46.905 -26.059  -0.641 -0.08 +0.00    +0.006 A  
DOCKED: ATOM     19  C   UNL     1     -45.792 -26.410   0.123 -0.03 +0.00    +0.001 A  
DOCKED: ATOM     20  C   UNL     1     -45.077 -27.569  -0.180 -0.02 +0.00    +0.029 A  
DOCKED: ATOM     21  C   UNL     1     -45.476 -28.376  -1.245 -0.05 +0.00    +0.140 A  
DOCKED: ATOM     22  C   UNL     1     -46.590 -28.025  -2.008 -0.15 +0.00    +0.029 A  
DOCKED: ATOM     23  F   UNL     1     -44.792 -29.490  -1.534 -0.01 -0.00    -0.204 F  
DOCKED: ATOM     24  C   UNL     1     -47.305 -26.865  -1.706 -0.16 +0.00    +0.001 A  
DOCKED: ENDBRANCH   2  18
DOCKED: TORSDOF 5
DOCKED: TER
DOCKED: ENDMDL
________________________________________________________________________________


    FINAL DOCKED STATE:
    ________________________


Run:   370 / 512
Time taken for this run:   0.001s

DOCKED: MODEL        370
DOCKED: USER    Run = 370
DOCKED: USER
DOCKED: USER    Estimated Free Energy of Binding    =  -4.16 kcal/mol  [=(1)+(2)+(3)-(4)]
DOCKED: USER
DOCKED: USER    (1) Final Intermolecular Energy     =  -5.66 kcal/mol
DOCKED: USER        vdW + Hbond + desolv Energy     =  -5.66 kcal/mol
DOCKED: USER        Electrostatic Energy            =  +0.00 kcal/mol
DOCKED: USER        Moving Ligand-Fixed Receptor    =  -5.66 kcal/mol
DOCKED: USER        Moving Ligand-Moving Receptor   =  +0.00 kcal/mol
DOCKED: USER    (2) Final Total Internal Energy     =  -1.37 kcal/mol
DOCKED: USER    (3) Torsional Free Energy           =  +1.49 kcal/mol
DOCKED: USER    (4) Unbound System's Energy         =  -1.37 kcal/mol
DOCKED: USER
DOCKED: USER
DOCKED: REMARK  5 active torsions:
DOCKED: REMARK  status: ('A' for Active; 'I' for Inactive)
DOCKED: REMARK    1  A    between atoms: C_2  and  C_19 
DOCKED: REMARK    2  A    between atoms: C_2  and  C_11 
DOCKED: REMARK    3  A    between atoms: C_19  and  C_20 
DOCKED: REMARK    4  A    between atoms: C_20  and  C_21 
DOCKED: REMARK    5  A    between atoms: C_21  and  N_22 
DOCKED: USER                              x       y       z     vdW  Elec       q    Type
DOCKED: USER                           _______ _______ _______ _____ _____    ______ ____
DOCKED: ROOT
DOCKED: ATOM      1  O   UNL     1     -50.470 -29.186   7.449 -0.05 -0.00    -0.346 OA 
DOCKED: ATOM      2  C   UNL     1     -49.776 -30.315   8.069 -0.12 +0.00    +0.130 C  
DOCKED: ATOM      3  C   UNL     1     -50.543 -31.514   7.594 -0.20 +0.00    +0.004 A  
DOCKED: ATOM      4  C   UNL     1     -51.521 -31.116   6.693 -0.27 +0.00    +0.006 A  
DOCKED: ATOM      5  C   UNL     1     -51.461 -29.650   6.503 -0.18 +0.00    +0.169 C  
DOCKED: ATOM      6  C   UNL     1     -50.381 -32.852   7.923 -0.27 -0.00    -0.001 A  
DOCKED: ATOM      7  C   UNL     1     -52.368 -32.034   6.097 -0.33 +0.00    +0.008 A  
DOCKED: ATOM      8  C   UNL     1     -51.231 -33.790   7.334 -0.35 +0.00    +0.010 A  
DOCKED: ATOM      9  C   UNL     1     -52.219 -33.383   6.425 -0.31 +0.00    +0.068 A  
DOCKED: ATOM     10  N   UNL     1     -53.776 -35.150   5.345 -2.56 -0.00    -0.191 NA 
DOCKED: ATOM     11  C   UNL     1     -53.078 -34.357   5.830 -0.36 +0.00    +0.101 C  
DOCKED: ENDROOT
DOCKED: BRANCH   2  12
DOCKED: ATOM     12  C   UNL     1     -48.328 -30.310   7.595 -0.09 +0.00    +0.038 C  
DOCKED: BRANCH  12  13
DOCKED: ATOM     13  C   UNL     1     -47.774 -28.889   7.509 -0.09 +0.00    +0.038 C  
DOCKED: BRANCH  13  14
DOCKED: ATOM     14  C   UNL     1     -47.467 -28.505   6.063 -0.07 +0.00    +0.251 C  
DOCKED: BRANCH  14  15
DOCKED: ATOM     15  N   UNL     1     -48.704 -28.302   5.319 -0.12 +0.00    +0.141 N  
DOCKED: ATOM     16  C   UNL     1     -49.174 -26.923   5.466 -0.06 +0.00    +0.285 C  
DOCKED: ATOM     17  C   UNL     1     -48.514 -28.625   3.904 -0.09 +0.00    +0.285 C  
DOCKED: ENDBRANCH  14  15
DOCKED: ENDBRANCH  13  14
DOCKED: ENDBRANCH  12  13
DOCKED: ENDBRANCH   2  12
DOCKED: BRANCH   2  18
DOCKED: ATOM     18  C   UNL     1     -49.859 -30.120   9.547 -0.05 +0.00    +0.006 A  
DOCKED: ATOM     19  C   UNL     1     -50.569 -29.039  10.068 -0.02 +0.00    +0.001 A  
DOCKED: ATOM     20  C   UNL     1     -50.646 -28.857  11.449 -0.00 +0.00    +0.029 A  
DOCKED: ATOM     21  C   UNL     1     -50.014 -29.756  12.307 -0.00 +0.00    +0.140 A  
DOCKED: ATOM     22  C   UNL     1     -49.304 -30.837  11.785 -0.02 +0.00    +0.029 A  
DOCKED: ATOM     23  F   UNL     1     -50.089 -29.583  13.633 +0.00 -0.00    -0.204 F  
DOCKED: ATOM     24  C   UNL     1     -49.226 -31.019  10.403 -0.05 +0.00    +0.001 A  
DOCKED: ENDBRANCH   2  18
DOCKED: TORSDOF 5
DOCKED: TER
DOCKED: ENDMDL
________________________________________________________________________________


    FINAL DOCKED STATE:
    ________________________


Run:   371 / 512
Time taken for this run:   0.001s

DOCKED: MODEL        371
DOCKED: USER    Run = 371
DOCKED: USER
DOCKED: USER    Estimated Free Energy of Binding    =  -5.67 kcal/mol  [=(1)+(2)+(3)-(4)]
DOCKED: USER
DOCKED: USER    (1) Final Intermolecular Energy     =  -7.17 kcal/mol
DOCKED: USER        vdW + Hbond + desolv Energy     =  -7.17 kcal/mol
DOCKED: USER        Electrostatic Energy            =  +0.00 kcal/mol
DOCKED: USER        Moving Ligand-Fixed Receptor    =  -7.17 kcal/mol
DOCKED: USER        Moving Ligand-Moving Receptor   =  +0.00 kcal/mol
DOCKED: USER    (2) Final Total Internal Energy     =  -1.37 kcal/mol
DOCKED: USER    (3) Torsional Free Energy           =  +1.49 kcal/mol
DOCKED: USER    (4) Unbound System's Energy         =  -1.37 kcal/mol
DOCKED: USER
DOCKED: USER
DOCKED: REMARK  5 active torsions:
DOCKED: REMARK  status: ('A' for Active; 'I' for Inactive)
DOCKED: REMARK    1  A    between atoms: C_2  and  C_19 
DOCKED: REMARK    2  A    between atoms: C_2  and  C_11 
DOCKED: REMARK    3  A    between atoms: C_19  and  C_20 
DOCKED: REMARK    4  A    between atoms: C_20  and  C_21 
DOCKED: REMARK    5  A    between atoms: C_21  and  N_22 
DOCKED: USER                              x       y       z     vdW  Elec       q    Type
DOCKED: USER                           _______ _______ _______ _____ _____    ______ ____
DOCKED: ROOT
DOCKED: ATOM      1  O   UNL     1     -51.383 -31.164   7.751 -0.06 -0.00    -0.346 OA 
DOCKED: ATOM      2  C   UNL     1     -51.185 -32.612   7.828 -0.23 +0.00    +0.130 C  
DOCKED: ATOM      3  C   UNL     1     -51.748 -33.121   6.533 -0.34 +0.00    +0.004 A  
DOCKED: ATOM      4  C   UNL     1     -52.133 -32.050   5.738 -0.32 +0.00    +0.006 A  
DOCKED: ATOM      5  C   UNL     1     -51.844 -30.777   6.436 -0.23 +0.00    +0.169 C  
DOCKED: ATOM      6  C   UNL     1     -51.897 -34.426   6.088 -0.40 -0.00    -0.001 A  
DOCKED: ATOM      7  C   UNL     1     -52.681 -32.245   4.482 -0.01 +0.00    +0.008 A  
DOCKED: ATOM      8  C   UNL     1     -52.452 -34.640   4.825 -0.47 +0.00    +0.010 A  
DOCKED: ATOM      9  C   UNL     1     -52.841 -33.555   4.026 -0.41 +0.00    +0.068 A  
DOCKED: ATOM     10  N   UNL     1     -53.863 -33.986   1.685 -2.89 -0.00    -0.191 NA 
DOCKED: ATOM     11  C   UNL     1     -53.405 -33.793   2.735 -0.44 +0.00    +0.101 C  
DOCKED: ENDROOT
DOCKED: BRANCH   2  12
DOCKED: ATOM     12  C   UNL     1     -49.693 -32.888   7.976 -0.22 +0.00    +0.038 C  
DOCKED: BRANCH  12  13
DOCKED: ATOM     13  C   UNL     1     -49.118 -32.193   9.209 -0.18 +0.00    +0.038 C  
DOCKED: BRANCH  13  14
DOCKED: ATOM     14  C   UNL     1     -48.325 -30.947   8.818 -0.08 +0.00    +0.251 C  
DOCKED: BRANCH  14  15
DOCKED: ATOM     15  N   UNL     1     -48.980 -29.749   9.329 -0.03 +0.00    +0.141 N  
DOCKED: ATOM     16  C   UNL     1     -49.958 -30.096  10.362 -0.01 +0.00    +0.285 C  
DOCKED: ATOM     17  C   UNL     1     -47.992 -28.809   9.861 -0.01 +0.00    +0.285 C  
DOCKED: ENDBRANCH  14  15
DOCKED: ENDBRANCH  13  14
DOCKED: ENDBRANCH  12  13
DOCKED: ENDBRANCH   2  12
DOCKED: BRANCH   2  18
DOCKED: ATOM     18  C   UNL     1     -51.942 -33.093   9.020 -0.16 +0.00    +0.006 A  
DOCKED: ATOM     19  C   UNL     1     -53.021 -32.355   9.506 -0.08 +0.00    +0.001 A  
DOCKED: ATOM     20  C   UNL     1     -53.728 -32.806  10.621 -0.07 +0.00    +0.029 A  
DOCKED: ATOM     21  C   UNL     1     -53.356 -33.995  11.248 -0.09 +0.00    +0.140 A  
DOCKED: ATOM     22  C   UNL     1     -52.277 -34.733  10.762 -0.18 +0.00    +0.029 A  
DOCKED: ATOM     23  F   UNL     1     -54.036 -34.428  12.317 -0.02 -0.00    -0.204 F  
DOCKED: ATOM     24  C   UNL     1     -51.569 -34.282   9.647 -0.22 +0.00    +0.001 A  
DOCKED: ENDBRANCH   2  18
DOCKED: TORSDOF 5
DOCKED: TER
DOCKED: ENDMDL
________________________________________________________________________________


    FINAL DOCKED STATE:
    ________________________


Run:   372 / 512
Time taken for this run:   0.001s

DOCKED: MODEL        372
DOCKED: USER    Run = 372
DOCKED: USER
DOCKED: USER    Estimated Free Energy of Binding    =  -4.41 kcal/mol  [=(1)+(2)+(3)-(4)]
DOCKED: USER
DOCKED: USER    (1) Final Intermolecular Energy     =  -5.90 kcal/mol
DOCKED: USER        vdW + Hbond + desolv Energy     =  -5.90 kcal/mol
DOCKED: USER        Electrostatic Energy            =  +0.00 kcal/mol
DOCKED: USER        Moving Ligand-Fixed Receptor    =  -5.90 kcal/mol
DOCKED: USER        Moving Ligand-Moving Receptor   =  +0.00 kcal/mol
DOCKED: USER    (2) Final Total Internal Energy     =  -1.00 kcal/mol
DOCKED: USER    (3) Torsional Free Energy           =  +1.49 kcal/mol
DOCKED: USER    (4) Unbound System's Energy         =  -1.00 kcal/mol
DOCKED: USER
DOCKED: USER
DOCKED: REMARK  5 active torsions:
DOCKED: REMARK  status: ('A' for Active; 'I' for Inactive)
DOCKED: REMARK    1  A    between atoms: C_2  and  C_19 
DOCKED: REMARK    2  A    between atoms: C_2  and  C_11 
DOCKED: REMARK    3  A    between atoms: C_19  and  C_20 
DOCKED: REMARK    4  A    between atoms: C_20  and  C_21 
DOCKED: REMARK    5  A    between atoms: C_21  and  N_22 
DOCKED: USER                              x       y       z     vdW  Elec       q    Type
DOCKED: USER                           _______ _______ _______ _____ _____    ______ ____
DOCKED: ROOT
DOCKED: ATOM      1  O   UNL     1     -55.923 -29.237   7.635 -0.06 -0.00    -0.346 OA 
DOCKED: ATOM      2  C   UNL     1     -54.515 -29.045   7.282 -0.20 +0.00    +0.130 C  
DOCKED: ATOM      3  C   UNL     1     -54.067 -30.406   6.835 -0.23 +0.00    +0.004 A  
DOCKED: ATOM      4  C   UNL     1     -55.150 -31.275   6.827 -0.22 +0.00    +0.006 A  
DOCKED: ATOM      5  C   UNL     1     -56.373 -30.557   7.249 -0.19 +0.00    +0.169 C  
DOCKED: ATOM      6  C   UNL     1     -52.805 -30.839   6.455 -0.26 -0.00    -0.001 A  
DOCKED: ATOM      7  C   UNL     1     -55.009 -32.598   6.446 -0.25 +0.00    +0.008 A  
DOCKED: ATOM      8  C   UNL     1     -52.646 -32.172   6.072 -0.33 +0.00    +0.010 A  
DOCKED: ATOM      9  C   UNL     1     -53.743 -33.046   6.067 -0.25 +0.00    +0.068 A  
DOCKED: ATOM     10  N   UNL     1     -53.414 -35.513   5.345 -2.61 -0.00    -0.191 NA 
DOCKED: ATOM     11  C   UNL     1     -53.561 -34.407   5.670 -0.36 +0.00    +0.101 C  
DOCKED: ENDROOT
DOCKED: BRANCH   2  12
DOCKED: ATOM     12  C   UNL     1     -54.433 -28.000   6.176 -0.13 +0.00    +0.038 C  
DOCKED: BRANCH  12  13
DOCKED: ATOM     13  C   UNL     1     -55.714 -27.171   6.096 -0.16 +0.00    +0.038 C  
DOCKED: BRANCH  13  14
DOCKED: ATOM     14  C   UNL     1     -55.398 -25.679   6.019 -0.10 +0.00    +0.251 C  
DOCKED: BRANCH  14  15
DOCKED: ATOM     15  N   UNL     1     -55.765 -25.150   4.710 -0.16 +0.00    +0.141 N  
DOCKED: ATOM     16  C   UNL     1     -56.563 -23.931   4.852 -0.12 +0.00    +0.285 C  
DOCKED: ATOM     17  C   UNL     1     -54.570 -24.885   3.908 -0.12 +0.00    +0.285 C  
DOCKED: ENDBRANCH  14  15
DOCKED: ENDBRANCH  13  14
DOCKED: ENDBRANCH  12  13
DOCKED: ENDBRANCH   2  12
DOCKED: BRANCH   2  18
DOCKED: ATOM     18  C   UNL     1     -53.816 -28.578   8.516 -0.07 +0.00    +0.006 A  
DOCKED: ATOM     19  C   UNL     1     -54.094 -29.179   9.743 -0.03 +0.00    +0.001 A  
DOCKED: ATOM     20  C   UNL     1     -53.440 -28.742  10.896 -0.00 +0.00    +0.029 A  
DOCKED: ATOM     21  C   UNL     1     -52.510 -27.706  10.819 -0.00 +0.00    +0.140 A  
DOCKED: ATOM     22  C   UNL     1     -52.232 -27.106   9.591 -0.01 +0.00    +0.029 A  
DOCKED: ATOM     23  F   UNL     1     -51.881 -27.288  11.925 +0.00 -0.00    -0.204 F  
DOCKED: ATOM     24  C   UNL     1     -52.886 -27.542   8.438 -0.05 +0.00    +0.001 A  
DOCKED: ENDBRANCH   2  18
DOCKED: TORSDOF 5
DOCKED: TER
DOCKED: ENDMDL
________________________________________________________________________________


    FINAL DOCKED STATE:
    ________________________


Run:   373 / 512
Time taken for this run:   0.001s

DOCKED: MODEL        373
DOCKED: USER    Run = 373
DOCKED: USER
DOCKED: USER    Estimated Free Energy of Binding    =  -3.71 kcal/mol  [=(1)+(2)+(3)-(4)]
DOCKED: USER
DOCKED: USER    (1) Final Intermolecular Energy     =  -5.20 kcal/mol
DOCKED: USER        vdW + Hbond + desolv Energy     =  -5.20 kcal/mol
DOCKED: USER        Electrostatic Energy            =  +0.00 kcal/mol
DOCKED: USER        Moving Ligand-Fixed Receptor    =  -5.20 kcal/mol
DOCKED: USER        Moving Ligand-Moving Receptor   =  +0.00 kcal/mol
DOCKED: USER    (2) Final Total Internal Energy     =  -1.27 kcal/mol
DOCKED: USER    (3) Torsional Free Energy           =  +1.49 kcal/mol
DOCKED: USER    (4) Unbound System's Energy         =  -1.27 kcal/mol
DOCKED: USER
DOCKED: USER
DOCKED: REMARK  5 active torsions:
DOCKED: REMARK  status: ('A' for Active; 'I' for Inactive)
DOCKED: REMARK    1  A    between atoms: C_2  and  C_19 
DOCKED: REMARK    2  A    between atoms: C_2  and  C_11 
DOCKED: REMARK    3  A    between atoms: C_19  and  C_20 
DOCKED: REMARK    4  A    between atoms: C_20  and  C_21 
DOCKED: REMARK    5  A    between atoms: C_21  and  N_22 
DOCKED: USER                              x       y       z     vdW  Elec       q    Type
DOCKED: USER                           _______ _______ _______ _____ _____    ______ ____
DOCKED: ROOT
DOCKED: ATOM      1  O   UNL     1     -50.731 -29.036   7.366 -0.05 -0.00    -0.346 OA 
DOCKED: ATOM      2  C   UNL     1     -51.845 -29.292   8.281 -0.07 +0.00    +0.130 C  
DOCKED: ATOM      3  C   UNL     1     -52.440 -30.573   7.772 -0.15 +0.00    +0.004 A  
DOCKED: ATOM      4  C   UNL     1     -51.668 -31.065   6.729 -0.27 +0.00    +0.006 A  
DOCKED: ATOM      5  C   UNL     1     -50.520 -30.164   6.486 -0.10 +0.00    +0.169 C  
DOCKED: ATOM      6  C   UNL     1     -53.567 -31.255   8.207 -0.11 -0.00    -0.001 A  
DOCKED: ATOM      7  C   UNL     1     -51.997 -32.245   6.084 -0.34 +0.00    +0.008 A  
DOCKED: ATOM      8  C   UNL     1     -53.914 -32.445   7.564 -0.16 +0.00    +0.010 A  
DOCKED: ATOM      9  C   UNL     1     -53.132 -32.937   6.508 -0.24 +0.00    +0.068 A  
DOCKED: ATOM     10  N   UNL     1     -53.801 -35.151   5.339 -2.55 -0.00    -0.191 NA 
DOCKED: ATOM     11  C   UNL     1     -53.501 -34.158   5.863 -0.35 +0.00    +0.101 C  
DOCKED: ENDROOT
DOCKED: BRANCH   2  12
DOCKED: ATOM     12  C   UNL     1     -51.290 -29.415   9.695 -0.03 +0.00    +0.038 C  
DOCKED: BRANCH  12  13
DOCKED: ATOM     13  C   UNL     1     -50.554 -30.739   9.891 -0.06 +0.00    +0.038 C  
DOCKED: BRANCH  13  14
DOCKED: ATOM     14  C   UNL     1     -50.943 -31.393  11.215 -0.02 +0.00    +0.251 C  
DOCKED: BRANCH  14  15
DOCKED: ATOM     15  N   UNL     1     -50.850 -32.844  11.111 -0.07 +0.00    +0.141 N  
DOCKED: ATOM     16  C   UNL     1     -51.055 -33.276   9.727 -0.09 +0.00    +0.285 C  
DOCKED: ATOM     17  C   UNL     1     -49.555 -33.315  11.603 -0.07 +0.00    +0.285 C  
DOCKED: ENDBRANCH  14  15
DOCKED: ENDBRANCH  13  14
DOCKED: ENDBRANCH  12  13
DOCKED: ENDBRANCH   2  12
DOCKED: BRANCH   2  18
DOCKED: ATOM     18  C   UNL     1     -52.778 -28.133   8.168 -0.07 +0.00    +0.006 A  
DOCKED: ATOM     19  C   UNL     1     -53.077 -27.367   9.294 -0.02 +0.00    +0.001 A  
DOCKED: ATOM     20  C   UNL     1     -53.950 -26.283   9.186 -0.02 +0.00    +0.029 A  
DOCKED: ATOM     21  C   UNL     1     -54.521 -25.967   7.955 -0.03 +0.00    +0.140 A  
DOCKED: ATOM     22  C   UNL     1     -54.221 -26.733   6.829 -0.15 +0.00    +0.029 A  
DOCKED: ATOM     23  F   UNL     1     -55.357 -24.926   7.852 +0.01 -0.00    -0.204 F  
DOCKED: ATOM     24  C   UNL     1     -53.348 -27.818   6.935 -0.18 +0.00    +0.001 A  
DOCKED: ENDBRANCH   2  18
DOCKED: TORSDOF 5
DOCKED: TER
DOCKED: ENDMDL
________________________________________________________________________________


    FINAL DOCKED STATE:
    ________________________


Run:   374 / 512
Time taken for this run:   0.001s

DOCKED: MODEL        374
DOCKED: USER    Run = 374
DOCKED: USER
DOCKED: USER    Estimated Free Energy of Binding    =  -3.44 kcal/mol  [=(1)+(2)+(3)-(4)]
DOCKED: USER
DOCKED: USER    (1) Final Intermolecular Energy     =  -4.93 kcal/mol
DOCKED: USER        vdW + Hbond + desolv Energy     =  -4.93 kcal/mol
DOCKED: USER        Electrostatic Energy            =  +0.00 kcal/mol
DOCKED: USER        Moving Ligand-Fixed Receptor    =  -4.93 kcal/mol
DOCKED: USER        Moving Ligand-Moving Receptor   =  +0.00 kcal/mol
DOCKED: USER    (2) Final Total Internal Energy     =  -1.36 kcal/mol
DOCKED: USER    (3) Torsional Free Energy           =  +1.49 kcal/mol
DOCKED: USER    (4) Unbound System's Energy         =  -1.36 kcal/mol
DOCKED: USER
DOCKED: USER
DOCKED: REMARK  5 active torsions:
DOCKED: REMARK  status: ('A' for Active; 'I' for Inactive)
DOCKED: REMARK    1  A    between atoms: C_2  and  C_19 
DOCKED: REMARK    2  A    between atoms: C_2  and  C_11 
DOCKED: REMARK    3  A    between atoms: C_19  and  C_20 
DOCKED: REMARK    4  A    between atoms: C_20  and  C_21 
DOCKED: REMARK    5  A    between atoms: C_21  and  N_22 
DOCKED: USER                              x       y       z     vdW  Elec       q    Type
DOCKED: USER                           _______ _______ _______ _____ _____    ______ ____
DOCKED: ROOT
DOCKED: ATOM      1  O   UNL     1     -46.394 -29.269   2.092 -0.02 -0.00    -0.346 OA 
DOCKED: ATOM      2  C   UNL     1     -46.028 -29.942   0.845 -0.12 +0.00    +0.130 C  
DOCKED: ATOM      3  C   UNL     1     -45.927 -31.388   1.232 -0.20 +0.00    +0.004 A  
DOCKED: ATOM      4  C   UNL     1     -46.310 -31.545   2.557 -0.24 +0.00    +0.006 A  
DOCKED: ATOM      5  C   UNL     1     -46.697 -30.234   3.126 -0.13 +0.00    +0.169 C  
DOCKED: ATOM      6  C   UNL     1     -45.539 -32.481   0.471 -0.11 -0.00    -0.001 A  
DOCKED: ATOM      7  C   UNL     1     -46.314 -32.789   3.164 -0.13 +0.00    +0.008 A  
DOCKED: ATOM      8  C   UNL     1     -45.533 -33.742   1.070 -0.24 +0.00    +0.010 A  
DOCKED: ATOM      9  C   UNL     1     -45.920 -33.895   2.410 -0.31 +0.00    +0.068 A  
DOCKED: ATOM     10  N   UNL     1     -45.903 -36.250   3.489 -2.14 -0.00    -0.191 NA 
DOCKED: ATOM     11  C   UNL     1     -45.910 -35.193   3.005 -0.43 +0.00    +0.101 C  
DOCKED: ENDROOT
DOCKED: BRANCH   2  12
DOCKED: ATOM     12  C   UNL     1     -47.120 -29.678  -0.185 -0.21 +0.00    +0.038 C  
DOCKED: BRANCH  12  13
DOCKED: ATOM     13  C   UNL     1     -48.250 -28.836   0.405 -0.21 +0.00    +0.038 C  
DOCKED: BRANCH  13  14
DOCKED: ATOM     14  C   UNL     1     -47.851 -27.364   0.493 -0.09 +0.00    +0.251 C  
DOCKED: BRANCH  14  15
DOCKED: ATOM     15  N   UNL     1     -47.403 -26.882  -0.808 -0.10 +0.00    +0.141 N  
DOCKED: ATOM     16  C   UNL     1     -48.444 -26.074  -1.445 -0.14 +0.00    +0.285 C  
DOCKED: ATOM     17  C   UNL     1     -46.170 -26.105  -0.673 -0.02 +0.00    +0.285 C  
DOCKED: ENDBRANCH  14  15
DOCKED: ENDBRANCH  13  14
DOCKED: ENDBRANCH  12  13
DOCKED: ENDBRANCH   2  12
DOCKED: BRANCH   2  18
DOCKED: ATOM     18  C   UNL     1     -44.723 -29.365   0.405 -0.04 +0.00    +0.006 A  
DOCKED: ATOM     19  C   UNL     1     -44.426 -29.270  -0.954 -0.04 +0.00    +0.001 A  
DOCKED: ATOM     20  C   UNL     1     -43.206 -28.731  -1.363 -0.00 +0.00    +0.029 A  
DOCKED: ATOM     21  C   UNL     1     -42.286 -28.288  -0.415 -0.00 +0.00    +0.140 A  
DOCKED: ATOM     22  C   UNL     1     -42.584 -28.384   0.944 -0.00 +0.00    +0.029 A  
DOCKED: ATOM     23  F   UNL     1     -41.115 -27.770  -0.808 +0.00 -0.00    -0.204 F  
DOCKED: ATOM     24  C   UNL     1     -43.804 -28.923   1.355 -0.01 +0.00    +0.001 A  
DOCKED: ENDBRANCH   2  18
DOCKED: TORSDOF 5
DOCKED: TER
DOCKED: ENDMDL
________________________________________________________________________________


    FINAL DOCKED STATE:
    ________________________


Run:   375 / 512
Time taken for this run:   0.001s

DOCKED: MODEL        375
DOCKED: USER    Run = 375
DOCKED: USER
DOCKED: USER    Estimated Free Energy of Binding    =  -3.80 kcal/mol  [=(1)+(2)+(3)-(4)]
DOCKED: USER
DOCKED: USER    (1) Final Intermolecular Energy     =  -5.30 kcal/mol
DOCKED: USER        vdW + Hbond + desolv Energy     =  -5.30 kcal/mol
DOCKED: USER        Electrostatic Energy            =  +0.00 kcal/mol
DOCKED: USER        Moving Ligand-Fixed Receptor    =  -5.30 kcal/mol
DOCKED: USER        Moving Ligand-Moving Receptor   =  +0.00 kcal/mol
DOCKED: USER    (2) Final Total Internal Energy     =  -1.15 kcal/mol
DOCKED: USER    (3) Torsional Free Energy           =  +1.49 kcal/mol
DOCKED: USER    (4) Unbound System's Energy         =  -1.15 kcal/mol
DOCKED: USER
DOCKED: USER
DOCKED: REMARK  5 active torsions:
DOCKED: REMARK  status: ('A' for Active; 'I' for Inactive)
DOCKED: REMARK    1  A    between atoms: C_2  and  C_19 
DOCKED: REMARK    2  A    between atoms: C_2  and  C_11 
DOCKED: REMARK    3  A    between atoms: C_19  and  C_20 
DOCKED: REMARK    4  A    between atoms: C_20  and  C_21 
DOCKED: REMARK    5  A    between atoms: C_21  and  N_22 
DOCKED: USER                              x       y       z     vdW  Elec       q    Type
DOCKED: USER                           _______ _______ _______ _____ _____    ______ ____
DOCKED: ROOT
DOCKED: ATOM      1  O   UNL     1     -45.975 -29.139   3.068 -0.02 -0.00    -0.346 OA 
DOCKED: ATOM      2  C   UNL     1     -46.423 -29.718   1.800 -0.13 +0.00    +0.130 C  
DOCKED: ATOM      3  C   UNL     1     -46.360 -31.199   2.039 -0.24 +0.00    +0.004 A  
DOCKED: ATOM      4  C   UNL     1     -46.014 -31.445   3.360 -0.16 +0.00    +0.006 A  
DOCKED: ATOM      5  C   UNL     1     -45.840 -30.164   4.080 -0.11 +0.00    +0.169 C  
DOCKED: ATOM      6  C   UNL     1     -46.601 -32.245   1.159 -0.21 -0.00    -0.001 A  
DOCKED: ATOM      7  C   UNL     1     -45.894 -32.736   3.845 -0.05 +0.00    +0.008 A  
DOCKED: ATOM      8  C   UNL     1     -46.479 -33.552   1.632 -0.28 +0.00    +0.010 A  
DOCKED: ATOM      9  C   UNL     1     -46.128 -33.796   2.968 -0.26 +0.00    +0.068 A  
DOCKED: ATOM     10  N   UNL     1     -45.915 -36.236   3.814 -2.24 -0.00    -0.191 NA 
DOCKED: ATOM     11  C   UNL     1     -46.010 -35.142   3.435 -0.38 +0.00    +0.101 C  
DOCKED: ENDROOT
DOCKED: BRANCH   2  12
DOCKED: ATOM     12  C   UNL     1     -47.835 -29.222   1.515 -0.25 +0.00    +0.038 C  
DOCKED: BRANCH  12  13
DOCKED: ATOM     13  C   UNL     1     -47.953 -27.716   1.742 -0.13 +0.00    +0.038 C  
DOCKED: BRANCH  13  14
DOCKED: ATOM     14  C   UNL     1     -49.290 -27.186   1.226 -0.15 +0.00    +0.251 C  
DOCKED: BRANCH  14  15
DOCKED: ATOM     15  N   UNL     1     -49.095 -26.434  -0.008 -0.18 +0.00    +0.141 N  
DOCKED: ATOM     16  C   UNL     1     -49.787 -25.146   0.058 -0.19 +0.00    +0.285 C  
DOCKED: ATOM     17  C   UNL     1     -47.669 -26.231  -0.269 -0.08 +0.00    +0.285 C  
DOCKED: ENDBRANCH  14  15
DOCKED: ENDBRANCH  13  14
DOCKED: ENDBRANCH  12  13
DOCKED: ENDBRANCH   2  12
DOCKED: BRANCH   2  18
DOCKED: ATOM     18  C   UNL     1     -45.468 -29.257   0.750 -0.06 +0.00    +0.006 A  
DOCKED: ATOM     19  C   UNL     1     -44.215 -28.767   1.114 -0.01 +0.00    +0.001 A  
DOCKED: ATOM     20  C   UNL     1     -43.323 -28.336   0.131 -0.00 +0.00    +0.029 A  
DOCKED: ATOM     21  C   UNL     1     -43.686 -28.396  -1.214 -0.00 +0.00    +0.140 A  
DOCKED: ATOM     22  C   UNL     1     -44.939 -28.887  -1.578 -0.05 +0.00    +0.029 A  
DOCKED: ATOM     23  F   UNL     1     -42.829 -27.984  -2.158 +0.00 -0.00    -0.204 F  
DOCKED: ATOM     24  C   UNL     1     -45.832 -29.318  -0.595 -0.12 +0.00    +0.001 A  
DOCKED: ENDBRANCH   2  18
DOCKED: TORSDOF 5
DOCKED: TER
DOCKED: ENDMDL
________________________________________________________________________________


    FINAL DOCKED STATE:
    ________________________


Run:   376 / 512
Time taken for this run:   0.001s

DOCKED: MODEL        376
DOCKED: USER    Run = 376
DOCKED: USER
DOCKED: USER    Estimated Free Energy of Binding    =  -6.07 kcal/mol  [=(1)+(2)+(3)-(4)]
DOCKED: USER
DOCKED: USER    (1) Final Intermolecular Energy     =  -7.56 kcal/mol
DOCKED: USER        vdW + Hbond + desolv Energy     =  -7.56 kcal/mol
DOCKED: USER        Electrostatic Energy            =  +0.00 kcal/mol
DOCKED: USER        Moving Ligand-Fixed Receptor    =  -7.56 kcal/mol
DOCKED: USER        Moving Ligand-Moving Receptor   =  +0.00 kcal/mol
DOCKED: USER    (2) Final Total Internal Energy     =  -1.15 kcal/mol
DOCKED: USER    (3) Torsional Free Energy           =  +1.49 kcal/mol
DOCKED: USER    (4) Unbound System's Energy         =  -1.15 kcal/mol
DOCKED: USER
DOCKED: USER
DOCKED: REMARK  5 active torsions:
DOCKED: REMARK  status: ('A' for Active; 'I' for Inactive)
DOCKED: REMARK    1  A    between atoms: C_2  and  C_19 
DOCKED: REMARK    2  A    between atoms: C_2  and  C_11 
DOCKED: REMARK    3  A    between atoms: C_19  and  C_20 
DOCKED: REMARK    4  A    between atoms: C_20  and  C_21 
DOCKED: REMARK    5  A    between atoms: C_21  and  N_22 
DOCKED: USER                              x       y       z     vdW  Elec       q    Type
DOCKED: USER                           _______ _______ _______ _____ _____    ______ ____
DOCKED: ROOT
DOCKED: ATOM      1  O   UNL     1     -50.422 -34.727   7.672 -0.17 -0.00    -0.346 OA 
DOCKED: ATOM      2  C   UNL     1     -51.184 -33.480   7.758 -0.28 +0.00    +0.130 C  
DOCKED: ATOM      3  C   UNL     1     -51.907 -33.409   6.444 -0.36 +0.00    +0.004 A  
DOCKED: ATOM      4  C   UNL     1     -51.668 -34.565   5.716 -0.38 +0.00    +0.006 A  
DOCKED: ATOM      5  C   UNL     1     -50.794 -35.475   6.490 -0.31 +0.00    +0.169 C  
DOCKED: ATOM      6  C   UNL     1     -52.720 -32.405   5.939 -0.35 -0.00    -0.001 A  
DOCKED: ATOM      7  C   UNL     1     -52.226 -34.757   4.463 -0.33 +0.00    +0.008 A  
DOCKED: ATOM      8  C   UNL     1     -53.286 -32.581   4.675 -0.09 +0.00    +0.010 A  
DOCKED: ATOM      9  C   UNL     1     -53.041 -33.751   3.942 -0.45 +0.00    +0.068 A  
DOCKED: ATOM     10  N   UNL     1     -54.112 -34.048   1.601 -3.03 -0.00    -0.191 NA 
DOCKED: ATOM     11  C   UNL     1     -53.631 -33.915   2.651 -0.32 +0.00    +0.101 C  
DOCKED: ENDROOT
DOCKED: BRANCH   2  12
DOCKED: ATOM     12  C   UNL     1     -52.128 -33.573   8.951 -0.22 +0.00    +0.038 C  
DOCKED: BRANCH  12  13
DOCKED: ATOM     13  C   UNL     1     -51.642 -32.712  10.115 -0.12 +0.00    +0.038 C  
DOCKED: BRANCH  13  14
DOCKED: ATOM     14  C   UNL     1     -50.838 -33.543  11.114 -0.10 +0.00    +0.251 C  
DOCKED: BRANCH  14  15
DOCKED: ATOM     15  N   UNL     1     -49.799 -32.728  11.731 -0.06 +0.00    +0.141 N  
DOCKED: ATOM     16  C   UNL     1     -50.083 -32.518  13.151 -0.02 +0.00    +0.285 C  
DOCKED: ATOM     17  C   UNL     1     -48.485 -33.352  11.564 -0.06 +0.00    +0.285 C  
DOCKED: ENDBRANCH  14  15
DOCKED: ENDBRANCH  13  14
DOCKED: ENDBRANCH  12  13
DOCKED: ENDBRANCH   2  12
DOCKED: BRANCH   2  18
DOCKED: ATOM     18  C   UNL     1     -50.195 -32.377   7.939 -0.23 +0.00    +0.006 A  
DOCKED: ATOM     19  C   UNL     1     -48.879 -32.672   8.294 -0.13 +0.00    +0.001 A  
DOCKED: ATOM     20  C   UNL     1     -47.956 -31.640   8.463 -0.15 +0.00    +0.029 A  
DOCKED: ATOM     21  C   UNL     1     -48.349 -30.315   8.276 -0.09 +0.00    +0.140 A  
DOCKED: ATOM     22  C   UNL     1     -49.665 -30.021   7.921 -0.12 +0.00    +0.029 A  
DOCKED: ATOM     23  F   UNL     1     -47.462 -29.324   8.437 -0.01 -0.00    -0.204 F  
DOCKED: ATOM     24  C   UNL     1     -50.590 -31.053   7.752 -0.18 +0.00    +0.001 A  
DOCKED: ENDBRANCH   2  18
DOCKED: TORSDOF 5
DOCKED: TER
DOCKED: ENDMDL
________________________________________________________________________________


    FINAL DOCKED STATE:
    ________________________


Run:   377 / 512
Time taken for this run:   0.001s

DOCKED: MODEL        377
DOCKED: USER    Run = 377
DOCKED: USER
DOCKED: USER    Estimated Free Energy of Binding    =  -4.41 kcal/mol  [=(1)+(2)+(3)-(4)]
DOCKED: USER
DOCKED: USER    (1) Final Intermolecular Energy     =  -5.90 kcal/mol
DOCKED: USER        vdW + Hbond + desolv Energy     =  -5.90 kcal/mol
DOCKED: USER        Electrostatic Energy            =  +0.00 kcal/mol
DOCKED: USER        Moving Ligand-Fixed Receptor    =  -5.90 kcal/mol
DOCKED: USER        Moving Ligand-Moving Receptor   =  +0.00 kcal/mol
DOCKED: USER    (2) Final Total Internal Energy     =  -1.43 kcal/mol
DOCKED: USER    (3) Torsional Free Energy           =  +1.49 kcal/mol
DOCKED: USER    (4) Unbound System's Energy         =  -1.43 kcal/mol
DOCKED: USER
DOCKED: USER
DOCKED: REMARK  5 active torsions:
DOCKED: REMARK  status: ('A' for Active; 'I' for Inactive)
DOCKED: REMARK    1  A    between atoms: C_2  and  C_19 
DOCKED: REMARK    2  A    between atoms: C_2  and  C_11 
DOCKED: REMARK    3  A    between atoms: C_19  and  C_20 
DOCKED: REMARK    4  A    between atoms: C_20  and  C_21 
DOCKED: REMARK    5  A    between atoms: C_21  and  N_22 
DOCKED: USER                              x       y       z     vdW  Elec       q    Type
DOCKED: USER                           _______ _______ _______ _____ _____    ______ ____
DOCKED: ROOT
DOCKED: ATOM      1  O   UNL     1     -51.091 -29.036   7.244 -0.05 -0.00    -0.346 OA 
DOCKED: ATOM      2  C   UNL     1     -52.487 -29.133   7.674 -0.13 +0.00    +0.130 C  
DOCKED: ATOM      3  C   UNL     1     -52.909 -30.500   7.218 -0.21 +0.00    +0.004 A  
DOCKED: ATOM      4  C   UNL     1     -51.821 -31.168   6.675 -0.28 +0.00    +0.006 A  
DOCKED: ATOM      5  C   UNL     1     -50.618 -30.308   6.744 -0.15 +0.00    +0.169 C  
DOCKED: ATOM      6  C   UNL     1     -54.154 -31.107   7.289 -0.20 -0.00    -0.001 A  
DOCKED: ATOM      7  C   UNL     1     -51.939 -32.456   6.183 -0.34 +0.00    +0.008 A  
DOCKED: ATOM      8  C   UNL     1     -54.290 -32.405   6.793 -0.22 +0.00    +0.010 A  
DOCKED: ATOM      9  C   UNL     1     -53.188 -33.076   6.244 -0.26 +0.00    +0.068 A  
DOCKED: ATOM     10  N   UNL     1     -53.474 -35.486   5.337 -2.59 -0.00    -0.191 NA 
DOCKED: ATOM     11  C   UNL     1     -53.346 -34.405   5.743 -0.36 +0.00    +0.101 C  
DOCKED: ENDROOT
DOCKED: BRANCH   2  12
DOCKED: ATOM     12  C   UNL     1     -52.538 -28.970   9.188 -0.04 +0.00    +0.038 C  
DOCKED: BRANCH  12  13
DOCKED: ATOM     13  C   UNL     1     -51.153 -28.678   9.764 -0.02 +0.00    +0.038 C  
DOCKED: BRANCH  13  14
DOCKED: ATOM     14  C   UNL     1     -50.466 -29.963  10.221 -0.01 +0.00    +0.251 C  
DOCKED: BRANCH  14  15
DOCKED: ATOM     15  N   UNL     1     -51.376 -31.095  10.102 -0.03 +0.00    +0.141 N  
DOCKED: ATOM     16  C   UNL     1     -50.653 -32.297   9.681 -0.07 +0.00    +0.285 C  
DOCKED: ATOM     17  C   UNL     1     -52.068 -31.337  11.369 -0.01 +0.00    +0.285 C  
DOCKED: ENDBRANCH  14  15
DOCKED: ENDBRANCH  13  14
DOCKED: ENDBRANCH  12  13
DOCKED: ENDBRANCH   2  12
DOCKED: BRANCH   2  18
DOCKED: ATOM     18  C   UNL     1     -53.231 -28.036   6.989 -0.18 +0.00    +0.006 A  
DOCKED: ATOM     19  C   UNL     1     -52.595 -27.260   6.021 -0.14 +0.00    +0.001 A  
DOCKED: ATOM     20  C   UNL     1     -53.292 -26.235   5.381 -0.13 +0.00    +0.029 A  
DOCKED: ATOM     21  C   UNL     1     -54.623 -25.986   5.711 -0.12 +0.00    +0.140 A  
DOCKED: ATOM     22  C   UNL     1     -55.260 -26.762   6.679 -0.16 +0.00    +0.029 A  
DOCKED: ATOM     23  F   UNL     1     -55.293 -25.002   5.095 -0.02 -0.00    -0.204 F  
DOCKED: ATOM     24  C   UNL     1     -54.563 -27.788   7.320 -0.17 +0.00    +0.001 A  
DOCKED: ENDBRANCH   2  18
DOCKED: TORSDOF 5
DOCKED: TER
DOCKED: ENDMDL
________________________________________________________________________________


    FINAL DOCKED STATE:
    ________________________


Run:   378 / 512
Time taken for this run:   0.001s

DOCKED: MODEL        378
DOCKED: USER    Run = 378
DOCKED: USER
DOCKED: USER    Estimated Free Energy of Binding    =  -4.44 kcal/mol  [=(1)+(2)+(3)-(4)]
DOCKED: USER
DOCKED: USER    (1) Final Intermolecular Energy     =  -5.94 kcal/mol
DOCKED: USER        vdW + Hbond + desolv Energy     =  -5.94 kcal/mol
DOCKED: USER        Electrostatic Energy            =  +0.00 kcal/mol
DOCKED: USER        Moving Ligand-Fixed Receptor    =  -5.94 kcal/mol
DOCKED: USER        Moving Ligand-Moving Receptor   =  +0.00 kcal/mol
DOCKED: USER    (2) Final Total Internal Energy     =  -1.33 kcal/mol
DOCKED: USER    (3) Torsional Free Energy           =  +1.49 kcal/mol
DOCKED: USER    (4) Unbound System's Energy         =  -1.33 kcal/mol
DOCKED: USER
DOCKED: USER
DOCKED: REMARK  5 active torsions:
DOCKED: REMARK  status: ('A' for Active; 'I' for Inactive)
DOCKED: REMARK    1  A    between atoms: C_2  and  C_19 
DOCKED: REMARK    2  A    between atoms: C_2  and  C_11 
DOCKED: REMARK    3  A    between atoms: C_19  and  C_20 
DOCKED: REMARK    4  A    between atoms: C_20  and  C_21 
DOCKED: REMARK    5  A    between atoms: C_21  and  N_22 
DOCKED: USER                              x       y       z     vdW  Elec       q    Type
DOCKED: USER                           _______ _______ _______ _____ _____    ______ ____
DOCKED: ROOT
DOCKED: ATOM      1  O   UNL     1     -53.770 -31.518   8.512 -0.01 -0.00    -0.346 OA 
DOCKED: ATOM      2  C   UNL     1     -52.417 -31.958   8.168 -0.12 +0.00    +0.130 C  
DOCKED: ATOM      3  C   UNL     1     -52.585 -32.629   6.836 -0.28 +0.00    +0.004 A  
DOCKED: ATOM      4  C   UNL     1     -53.897 -32.488   6.404 -0.26 +0.00    +0.006 A  
DOCKED: ATOM      5  C   UNL     1     -54.673 -31.715   7.399 -0.14 +0.00    +0.169 C  
DOCKED: ATOM      6  C   UNL     1     -51.650 -33.301   6.062 -0.35 -0.00    -0.001 A  
DOCKED: ATOM      7  C   UNL     1     -54.318 -33.014   5.194 -0.26 +0.00    +0.008 A  
DOCKED: ATOM      8  C   UNL     1     -52.060 -33.840   4.842 -0.07 +0.00    +0.010 A  
DOCKED: ATOM      9  C   UNL     1     -53.387 -33.697   4.410 -0.41 +0.00    +0.068 A  
DOCKED: ATOM     10  N   UNL     1     -54.113 -34.705   2.137 -1.90 -0.00    -0.191 NA 
DOCKED: ATOM     11  C   UNL     1     -53.788 -34.253   3.157 -0.40 +0.00    +0.101 C  
DOCKED: ENDROOT
DOCKED: BRANCH   2  12
DOCKED: ATOM     12  C   UNL     1     -51.513 -30.733   8.106 -0.15 +0.00    +0.038 C  
DOCKED: BRANCH  12  13
DOCKED: ATOM     13  C   UNL     1     -51.397 -30.199   6.680 -0.25 +0.00    +0.038 C  
DOCKED: BRANCH  13  14
DOCKED: ATOM     14  C   UNL     1     -52.296 -28.981   6.475 -0.12 +0.00    +0.251 C  
DOCKED: BRANCH  14  15
DOCKED: ATOM     15  N   UNL     1     -52.979 -28.640   7.717 -0.09 +0.00    +0.141 N  
DOCKED: ATOM     16  C   UNL     1     -52.379 -27.453   8.327 -0.03 +0.00    +0.285 C  
DOCKED: ATOM     17  C   UNL     1     -54.407 -28.421   7.477 -0.12 +0.00    +0.285 C  
DOCKED: ENDBRANCH  14  15
DOCKED: ENDBRANCH  13  14
DOCKED: ENDBRANCH  12  13
DOCKED: ENDBRANCH   2  12
DOCKED: BRANCH   2  18
DOCKED: ATOM     18  C   UNL     1     -51.978 -32.898   9.241 -0.14 +0.00    +0.006 A  
DOCKED: ATOM     19  C   UNL     1     -51.311 -32.410  10.364 -0.09 +0.00    +0.001 A  
DOCKED: ATOM     20  C   UNL     1     -50.901 -33.290  11.367 -0.12 +0.00    +0.029 A  
DOCKED: ATOM     21  C   UNL     1     -51.158 -34.655  11.245 -0.17 +0.00    +0.140 A  
DOCKED: ATOM     22  C   UNL     1     -51.825 -35.142  10.121 -0.12 +0.00    +0.029 A  
DOCKED: ATOM     23  F   UNL     1     -50.766 -35.499  12.208 -0.10 -0.00    -0.204 F  
DOCKED: ATOM     24  C   UNL     1     -52.236 -34.263   9.118 -0.26 +0.00    +0.001 A  
DOCKED: ENDBRANCH   2  18
DOCKED: TORSDOF 5
DOCKED: TER
DOCKED: ENDMDL
________________________________________________________________________________


    FINAL DOCKED STATE:
    ________________________


Run:   379 / 512
Time taken for this run:   0.001s

DOCKED: MODEL        379
DOCKED: USER    Run = 379
DOCKED: USER
DOCKED: USER    Estimated Free Energy of Binding    =  -3.79 kcal/mol  [=(1)+(2)+(3)-(4)]
DOCKED: USER
DOCKED: USER    (1) Final Intermolecular Energy     =  -5.28 kcal/mol
DOCKED: USER        vdW + Hbond + desolv Energy     =  -5.28 kcal/mol
DOCKED: USER        Electrostatic Energy            =  +0.00 kcal/mol
DOCKED: USER        Moving Ligand-Fixed Receptor    =  -5.28 kcal/mol
DOCKED: USER        Moving Ligand-Moving Receptor   =  +0.00 kcal/mol
DOCKED: USER    (2) Final Total Internal Energy     =  -1.29 kcal/mol
DOCKED: USER    (3) Torsional Free Energy           =  +1.49 kcal/mol
DOCKED: USER    (4) Unbound System's Energy         =  -1.29 kcal/mol
DOCKED: USER
DOCKED: USER
DOCKED: REMARK  5 active torsions:
DOCKED: REMARK  status: ('A' for Active; 'I' for Inactive)
DOCKED: REMARK    1  A    between atoms: C_2  and  C_19 
DOCKED: REMARK    2  A    between atoms: C_2  and  C_11 
DOCKED: REMARK    3  A    between atoms: C_19  and  C_20 
DOCKED: REMARK    4  A    between atoms: C_20  and  C_21 
DOCKED: REMARK    5  A    between atoms: C_21  and  N_22 
DOCKED: USER                              x       y       z     vdW  Elec       q    Type
DOCKED: USER                           _______ _______ _______ _____ _____    ______ ____
DOCKED: ROOT
DOCKED: ATOM      1  O   UNL     1     -44.676 -29.246   1.672 +0.00 -0.00    -0.346 OA 
DOCKED: ATOM      2  C   UNL     1     -45.977 -29.659   1.144 -0.10 +0.00    +0.130 C  
DOCKED: ATOM      3  C   UNL     1     -46.136 -31.067   1.640 -0.21 +0.00    +0.004 A  
DOCKED: ATOM      4  C   UNL     1     -45.073 -31.392   2.470 -0.13 +0.00    +0.006 A  
DOCKED: ATOM      5  C   UNL     1     -44.156 -30.235   2.590 -0.03 +0.00    +0.169 C  
DOCKED: ATOM      6  C   UNL     1     -47.147 -31.982   1.387 -0.29 -0.00    -0.001 A  
DOCKED: ATOM      7  C   UNL     1     -44.980 -32.637   3.069 -0.19 +0.00    +0.008 A  
DOCKED: ATOM      8  C   UNL     1     -47.066 -33.243   1.980 -0.18 +0.00    +0.010 A  
DOCKED: ATOM      9  C   UNL     1     -45.988 -33.569   2.817 -0.28 +0.00    +0.068 A  
DOCKED: ATOM     10  N   UNL     1     -45.871 -35.917   3.905 -2.14 -0.00    -0.191 NA 
DOCKED: ATOM     11  C   UNL     1     -45.923 -34.864   3.416 -0.39 +0.00    +0.101 C  
DOCKED: ENDROOT
DOCKED: BRANCH   2  12
DOCKED: ATOM     12  C   UNL     1     -47.041 -28.713   1.689 -0.13 +0.00    +0.038 C  
DOCKED: BRANCH  12  13
DOCKED: ATOM     13  C   UNL     1     -47.535 -29.164   3.062 -0.17 +0.00    +0.038 C  
DOCKED: BRANCH  13  14
DOCKED: ATOM     14  C   UNL     1     -47.537 -28.001   4.053 -0.08 +0.00    +0.251 C  
DOCKED: BRANCH  14  15
DOCKED: ATOM     15  N   UNL     1     -46.874 -28.391   5.292 -0.07 +0.00    +0.141 N  
DOCKED: ATOM     16  C   UNL     1     -46.330 -29.745   5.183 -0.06 +0.00    +0.285 C  
DOCKED: ATOM     17  C   UNL     1     -45.811 -27.443   5.628 -0.01 +0.00    +0.285 C  
DOCKED: ENDBRANCH  14  15
DOCKED: ENDBRANCH  13  14
DOCKED: ENDBRANCH  12  13
DOCKED: ENDBRANCH   2  12
DOCKED: BRANCH   2  18
DOCKED: ATOM     18  C   UNL     1     -45.891 -29.573  -0.344 -0.13 +0.00    +0.006 A  
DOCKED: ATOM     19  C   UNL     1     -47.006 -29.182  -1.084 -0.20 +0.00    +0.001 A  
DOCKED: ATOM     20  C   UNL     1     -46.924 -29.102  -2.475 -0.22 +0.00    +0.029 A  
DOCKED: ATOM     21  C   UNL     1     -45.730 -29.413  -3.123 -0.13 +0.00    +0.140 A  
DOCKED: ATOM     22  C   UNL     1     -44.615 -29.804  -2.381 -0.07 +0.00    +0.029 A  
DOCKED: ATOM     23  F   UNL     1     -45.651 -29.335  -4.457 -0.02 -0.00    -0.204 F  
DOCKED: ATOM     24  C   UNL     1     -44.696 -29.885  -0.990 -0.07 +0.00    +0.001 A  
DOCKED: ENDBRANCH   2  18
DOCKED: TORSDOF 5
DOCKED: TER
DOCKED: ENDMDL
________________________________________________________________________________


    FINAL DOCKED STATE:
    ________________________


Run:   380 / 512
Time taken for this run:   0.001s

DOCKED: MODEL        380
DOCKED: USER    Run = 380
DOCKED: USER
DOCKED: USER    Estimated Free Energy of Binding    =  -4.50 kcal/mol  [=(1)+(2)+(3)-(4)]
DOCKED: USER
DOCKED: USER    (1) Final Intermolecular Energy     =  -5.99 kcal/mol
DOCKED: USER        vdW + Hbond + desolv Energy     =  -5.99 kcal/mol
DOCKED: USER        Electrostatic Energy            =  +0.00 kcal/mol
DOCKED: USER        Moving Ligand-Fixed Receptor    =  -5.99 kcal/mol
DOCKED: USER        Moving Ligand-Moving Receptor   =  +0.00 kcal/mol
DOCKED: USER    (2) Final Total Internal Energy     =  -0.99 kcal/mol
DOCKED: USER    (3) Torsional Free Energy           =  +1.49 kcal/mol
DOCKED: USER    (4) Unbound System's Energy         =  -0.99 kcal/mol
DOCKED: USER
DOCKED: USER
DOCKED: REMARK  5 active torsions:
DOCKED: REMARK  status: ('A' for Active; 'I' for Inactive)
DOCKED: REMARK    1  A    between atoms: C_2  and  C_19 
DOCKED: REMARK    2  A    between atoms: C_2  and  C_11 
DOCKED: REMARK    3  A    between atoms: C_19  and  C_20 
DOCKED: REMARK    4  A    between atoms: C_20  and  C_21 
DOCKED: REMARK    5  A    between atoms: C_21  and  N_22 
DOCKED: USER                              x       y       z     vdW  Elec       q    Type
DOCKED: USER                           _______ _______ _______ _____ _____    ______ ____
DOCKED: ROOT
DOCKED: ATOM      1  O   UNL     1     -55.285 -28.996   7.586 -0.07 -0.00    -0.346 OA 
DOCKED: ATOM      2  C   UNL     1     -53.835 -28.993   7.391 -0.18 +0.00    +0.130 C  
DOCKED: ATOM      3  C   UNL     1     -53.529 -30.393   6.944 -0.23 +0.00    +0.004 A  
DOCKED: ATOM      4  C   UNL     1     -54.711 -31.103   6.789 -0.21 +0.00    +0.006 A  
DOCKED: ATOM      5  C   UNL     1     -55.865 -30.232   7.106 -0.18 +0.00    +0.169 C  
DOCKED: ATOM      6  C   UNL     1     -52.303 -30.987   6.683 -0.27 -0.00    -0.001 A  
DOCKED: ATOM      7  C   UNL     1     -54.709 -32.424   6.376 -0.24 +0.00    +0.008 A  
DOCKED: ATOM      8  C   UNL     1     -52.284 -32.321   6.270 -0.33 +0.00    +0.010 A  
DOCKED: ATOM      9  C   UNL     1     -53.482 -33.035   6.117 -0.26 +0.00    +0.068 A  
DOCKED: ATOM     10  N   UNL     1     -53.412 -35.507   5.343 -2.62 -0.00    -0.191 NA 
DOCKED: ATOM     11  C   UNL     1     -53.443 -34.398   5.690 -0.37 +0.00    +0.101 C  
DOCKED: ENDROOT
DOCKED: BRANCH   2  12
DOCKED: ATOM     12  C   UNL     1     -53.492 -27.945   6.339 -0.19 +0.00    +0.038 C  
DOCKED: BRANCH  12  13
DOCKED: ATOM     13  C   UNL     1     -54.620 -26.929   6.176 -0.20 +0.00    +0.038 C  
DOCKED: BRANCH  13  14
DOCKED: ATOM     14  C   UNL     1     -54.127 -25.669   5.468 -0.11 +0.00    +0.251 C  
DOCKED: BRANCH  14  15
DOCKED: ATOM     15  N   UNL     1     -54.954 -25.385   4.302 -0.14 +0.00    +0.141 N  
DOCKED: ATOM     16  C   UNL     1     -56.276 -24.908   4.710 -0.13 +0.00    +0.285 C  
DOCKED: ATOM     17  C   UNL     1     -54.305 -24.399   3.436 -0.14 +0.00    +0.285 C  
DOCKED: ENDBRANCH  14  15
DOCKED: ENDBRANCH  13  14
DOCKED: ENDBRANCH  12  13
DOCKED: ENDBRANCH   2  12
DOCKED: BRANCH   2  18
DOCKED: ATOM     18  C   UNL     1     -53.219 -28.655   8.708 -0.05 +0.00    +0.006 A  
DOCKED: ATOM     19  C   UNL     1     -52.372 -27.553   8.819 -0.03 +0.00    +0.001 A  
DOCKED: ATOM     20  C   UNL     1     -51.796 -27.239  10.050 -0.01 +0.00    +0.029 A  
DOCKED: ATOM     21  C   UNL     1     -52.068 -28.026  11.168 -0.00 +0.00    +0.140 A  
DOCKED: ATOM     22  C   UNL     1     -52.915 -29.128  11.057 -0.00 +0.00    +0.029 A  
DOCKED: ATOM     23  F   UNL     1     -51.517 -27.723  12.351 +0.00 -0.00    -0.204 F  
DOCKED: ATOM     24  C   UNL     1     -53.491 -29.444   9.825 -0.03 +0.00    +0.001 A  
DOCKED: ENDBRANCH   2  18
DOCKED: TORSDOF 5
DOCKED: TER
DOCKED: ENDMDL
________________________________________________________________________________


    FINAL DOCKED STATE:
    ________________________


Run:   381 / 512
Time taken for this run:   0.001s

DOCKED: MODEL        381
DOCKED: USER    Run = 381
DOCKED: USER
DOCKED: USER    Estimated Free Energy of Binding    =  -3.89 kcal/mol  [=(1)+(2)+(3)-(4)]
DOCKED: USER
DOCKED: USER    (1) Final Intermolecular Energy     =  -5.39 kcal/mol
DOCKED: USER        vdW + Hbond + desolv Energy     =  -5.39 kcal/mol
DOCKED: USER        Electrostatic Energy            =  +0.00 kcal/mol
DOCKED: USER        Moving Ligand-Fixed Receptor    =  -5.39 kcal/mol
DOCKED: USER        Moving Ligand-Moving Receptor   =  +0.00 kcal/mol
DOCKED: USER    (2) Final Total Internal Energy     =  -1.60 kcal/mol
DOCKED: USER    (3) Torsional Free Energy           =  +1.49 kcal/mol
DOCKED: USER    (4) Unbound System's Energy         =  -1.60 kcal/mol
DOCKED: USER
DOCKED: USER
DOCKED: REMARK  5 active torsions:
DOCKED: REMARK  status: ('A' for Active; 'I' for Inactive)
DOCKED: REMARK    1  A    between atoms: C_2  and  C_19 
DOCKED: REMARK    2  A    between atoms: C_2  and  C_11 
DOCKED: REMARK    3  A    between atoms: C_19  and  C_20 
DOCKED: REMARK    4  A    between atoms: C_20  and  C_21 
DOCKED: REMARK    5  A    between atoms: C_21  and  N_22 
DOCKED: USER                              x       y       z     vdW  Elec       q    Type
DOCKED: USER                           _______ _______ _______ _____ _____    ______ ____
DOCKED: ROOT
DOCKED: ATOM      1  O   UNL     1     -52.180 -28.783   7.169 -0.07 -0.00    -0.346 OA 
DOCKED: ATOM      2  C   UNL     1     -50.997 -29.598   7.446 -0.15 +0.00    +0.130 C  
DOCKED: ATOM      3  C   UNL     1     -51.417 -30.986   7.056 -0.24 +0.00    +0.004 A  
DOCKED: ATOM      4  C   UNL     1     -52.688 -30.950   6.500 -0.27 +0.00    +0.006 A  
DOCKED: ATOM      5  C   UNL     1     -53.185 -29.556   6.473 -0.17 +0.00    +0.169 C  
DOCKED: ATOM      6  C   UNL     1     -50.725 -32.183   7.173 -0.19 -0.00    -0.001 A  
DOCKED: ATOM      7  C   UNL     1     -53.310 -32.102   6.049 -0.28 +0.00    +0.008 A  
DOCKED: ATOM      8  C   UNL     1     -51.340 -33.353   6.726 -0.33 +0.00    +0.010 A  
DOCKED: ATOM      9  C   UNL     1     -52.626 -33.312   6.166 -0.31 +0.00    +0.068 A  
DOCKED: ATOM     10  N   UNL     1     -53.737 -35.503   5.342 -2.55 -0.00    -0.191 NA 
DOCKED: ATOM     11  C   UNL     1     -53.239 -34.521   5.713 -0.32 +0.00    +0.101 C  
DOCKED: ENDROOT
DOCKED: BRANCH   2  12
DOCKED: ATOM     12  C   UNL     1     -49.839 -29.071   6.608 -0.18 +0.00    +0.038 C  
DOCKED: BRANCH  12  13
DOCKED: ATOM     13  C   UNL     1     -50.110 -27.650   6.115 -0.13 +0.00    +0.038 C  
DOCKED: BRANCH  13  14
DOCKED: ATOM     14  C   UNL     1     -49.582 -26.615   7.107 -0.02 +0.00    +0.251 C  
DOCKED: BRANCH  14  15
DOCKED: ATOM     15  N   UNL     1     -50.586 -26.329   8.125 -0.01 +0.00    +0.141 N  
DOCKED: ATOM     16  C   UNL     1     -50.021 -25.497   9.188 -0.00 +0.00    +0.285 C  
DOCKED: ATOM     17  C   UNL     1     -51.750 -25.671   7.529 -0.02 +0.00    +0.285 C  
DOCKED: ENDBRANCH  14  15
DOCKED: ENDBRANCH  13  14
DOCKED: ENDBRANCH  12  13
DOCKED: ENDBRANCH   2  12
DOCKED: BRANCH   2  18
DOCKED: ATOM     18  C   UNL     1     -50.709 -29.467   8.905 -0.05 +0.00    +0.006 A  
DOCKED: ATOM     19  C   UNL     1     -51.727 -29.107   9.786 -0.02 +0.00    +0.001 A  
DOCKED: ATOM     20  C   UNL     1     -51.457 -28.984  11.150 -0.00 +0.00    +0.029 A  
DOCKED: ATOM     21  C   UNL     1     -50.169 -29.221  11.629 -0.00 +0.00    +0.140 A  
DOCKED: ATOM     22  C   UNL     1     -49.151 -29.581  10.747 -0.01 +0.00    +0.029 A  
DOCKED: ATOM     23  F   UNL     1     -49.910 -29.105  12.938 +0.00 -0.00    -0.204 F  
DOCKED: ATOM     24  C   UNL     1     -49.421 -29.704   9.383 -0.05 +0.00    +0.001 A  
DOCKED: ENDBRANCH   2  18
DOCKED: TORSDOF 5
DOCKED: TER
DOCKED: ENDMDL
________________________________________________________________________________


    FINAL DOCKED STATE:
    ________________________


Run:   382 / 512
Time taken for this run:   0.001s

DOCKED: MODEL        382
DOCKED: USER    Run = 382
DOCKED: USER
DOCKED: USER    Estimated Free Energy of Binding    =  -3.39 kcal/mol  [=(1)+(2)+(3)-(4)]
DOCKED: USER
DOCKED: USER    (1) Final Intermolecular Energy     =  -4.88 kcal/mol
DOCKED: USER        vdW + Hbond + desolv Energy     =  -4.88 kcal/mol
DOCKED: USER        Electrostatic Energy            =  +0.00 kcal/mol
DOCKED: USER        Moving Ligand-Fixed Receptor    =  -4.88 kcal/mol
DOCKED: USER        Moving Ligand-Moving Receptor   =  +0.00 kcal/mol
DOCKED: USER    (2) Final Total Internal Energy     =  -1.31 kcal/mol
DOCKED: USER    (3) Torsional Free Energy           =  +1.49 kcal/mol
DOCKED: USER    (4) Unbound System's Energy         =  -1.31 kcal/mol
DOCKED: USER
DOCKED: USER
DOCKED: REMARK  5 active torsions:
DOCKED: REMARK  status: ('A' for Active; 'I' for Inactive)
DOCKED: REMARK    1  A    between atoms: C_2  and  C_19 
DOCKED: REMARK    2  A    between atoms: C_2  and  C_11 
DOCKED: REMARK    3  A    between atoms: C_19  and  C_20 
DOCKED: REMARK    4  A    between atoms: C_20  and  C_21 
DOCKED: REMARK    5  A    between atoms: C_21  and  N_22 
DOCKED: USER                              x       y       z     vdW  Elec       q    Type
DOCKED: USER                           _______ _______ _______ _____ _____    ______ ____
DOCKED: ROOT
DOCKED: ATOM      1  O   UNL     1     -45.288 -20.729  -2.720 -0.04 -0.00    -0.346 OA 
DOCKED: ATOM      2  C   UNL     1     -45.265 -21.195  -4.107 -0.09 +0.00    +0.130 C  
DOCKED: ATOM      3  C   UNL     1     -46.682 -21.618  -4.368 -0.18 +0.00    +0.004 A  
DOCKED: ATOM      4  C   UNL     1     -47.470 -21.317  -3.266 -0.24 +0.00    +0.006 A  
DOCKED: ATOM      5  C   UNL     1     -46.644 -20.673  -2.220 -0.19 +0.00    +0.169 C  
DOCKED: ATOM      6  C   UNL     1     -47.232 -22.210  -5.496 -0.22 -0.00    -0.001 A  
DOCKED: ATOM      7  C   UNL     1     -48.825 -21.600  -3.250 -0.36 +0.00    +0.008 A  
DOCKED: ATOM      8  C   UNL     1     -48.596 -22.506  -5.493 -0.33 +0.00    +0.010 A  
DOCKED: ATOM      9  C   UNL     1     -49.389 -22.202  -4.376 -0.39 +0.00    +0.068 A  
DOCKED: ATOM     10  N   UNL     1     -51.919 -22.759  -4.406 -2.49 -0.00    -0.191 NA 
DOCKED: ATOM     11  C   UNL     1     -50.784 -22.509  -4.392 -0.07 +0.00    +0.101 C  
DOCKED: ENDROOT
DOCKED: BRANCH   2  12
DOCKED: ATOM     12  C   UNL     1     -44.816 -20.042  -4.997 -0.08 +0.00    +0.038 C  
DOCKED: BRANCH  12  13
DOCKED: ATOM     13  C   UNL     1     -44.329 -18.856  -4.167 -0.10 +0.00    +0.038 C  
DOCKED: BRANCH  13  14
DOCKED: ATOM     14  C   UNL     1     -42.967 -19.148  -3.539 -0.01 +0.00    +0.251 C  
DOCKED: BRANCH  14  15
DOCKED: ATOM     15  N   UNL     1     -43.070 -19.155  -2.085 -0.01 +0.00    +0.141 N  
DOCKED: ATOM     16  C   UNL     1     -41.747 -19.025  -1.473 +0.00 +0.00    +0.285 C  
DOCKED: ATOM     17  C   UNL     1     -43.949 -18.079  -1.625 -0.01 +0.00    +0.285 C  
DOCKED: ENDBRANCH  14  15
DOCKED: ENDBRANCH  13  14
DOCKED: ENDBRANCH  12  13
DOCKED: ENDBRANCH   2  12
DOCKED: BRANCH   2  18
DOCKED: ATOM     18  C   UNL     1     -44.299 -22.331  -4.170 -0.03 +0.00    +0.006 A  
DOCKED: ATOM     19  C   UNL     1     -44.739 -23.634  -3.940 -0.02 +0.00    +0.001 A  
DOCKED: ATOM     20  C   UNL     1     -43.835 -24.695  -3.999 -0.00 +0.00    +0.029 A  
DOCKED: ATOM     21  C   UNL     1     -42.492 -24.452  -4.287 -0.00 +0.00    +0.140 A  
DOCKED: ATOM     22  C   UNL     1     -42.053 -23.148  -4.517 -0.00 +0.00    +0.029 A  
DOCKED: ATOM     23  F   UNL     1     -41.625 -25.470  -4.345 +0.00 -0.00    -0.204 F  
DOCKED: ATOM     24  C   UNL     1     -42.957 -22.086  -4.458 -0.01 +0.00    +0.001 A  
DOCKED: ENDBRANCH   2  18
DOCKED: TORSDOF 5
DOCKED: TER
DOCKED: ENDMDL
________________________________________________________________________________


    FINAL DOCKED STATE:
    ________________________


Run:   383 / 512
Time taken for this run:   0.001s

DOCKED: MODEL        383
DOCKED: USER    Run = 383
DOCKED: USER
DOCKED: USER    Estimated Free Energy of Binding    =  -3.19 kcal/mol  [=(1)+(2)+(3)-(4)]
DOCKED: USER
DOCKED: USER    (1) Final Intermolecular Energy     =  -4.68 kcal/mol
DOCKED: USER        vdW + Hbond + desolv Energy     =  -4.68 kcal/mol
DOCKED: USER        Electrostatic Energy            =  +0.00 kcal/mol
DOCKED: USER        Moving Ligand-Fixed Receptor    =  -4.68 kcal/mol
DOCKED: USER        Moving Ligand-Moving Receptor   =  +0.00 kcal/mol
DOCKED: USER    (2) Final Total Internal Energy     =  -1.46 kcal/mol
DOCKED: USER    (3) Torsional Free Energy           =  +1.49 kcal/mol
DOCKED: USER    (4) Unbound System's Energy         =  -1.46 kcal/mol
DOCKED: USER
DOCKED: USER
DOCKED: REMARK  5 active torsions:
DOCKED: REMARK  status: ('A' for Active; 'I' for Inactive)
DOCKED: REMARK    1  A    between atoms: C_2  and  C_19 
DOCKED: REMARK    2  A    between atoms: C_2  and  C_11 
DOCKED: REMARK    3  A    between atoms: C_19  and  C_20 
DOCKED: REMARK    4  A    between atoms: C_20  and  C_21 
DOCKED: REMARK    5  A    between atoms: C_21  and  N_22 
DOCKED: USER                              x       y       z     vdW  Elec       q    Type
DOCKED: USER                           _______ _______ _______ _____ _____    ______ ____
DOCKED: ROOT
DOCKED: ATOM      1  O   UNL     1     -44.075 -34.357  -1.941 -0.02 -0.00    -0.346 OA 
DOCKED: ATOM      2  C   UNL     1     -43.523 -33.350  -1.034 -0.08 +0.00    +0.130 C  
DOCKED: ATOM      3  C   UNL     1     -44.079 -33.733   0.308 -0.12 +0.00    +0.004 A  
DOCKED: ATOM      4  C   UNL     1     -44.794 -34.917   0.197 -0.21 +0.00    +0.006 A  
DOCKED: ATOM      5  C   UNL     1     -44.752 -35.400  -1.202 -0.06 +0.00    +0.169 C  
DOCKED: ATOM      6  C   UNL     1     -43.951 -33.090   1.530 -0.09 -0.00    -0.001 A  
DOCKED: ATOM      7  C   UNL     1     -45.407 -35.494   1.296 -0.33 +0.00    +0.008 A  
DOCKED: ATOM      8  C   UNL     1     -44.567 -33.657   2.647 -0.19 +0.00    +0.010 A  
DOCKED: ATOM      9  C   UNL     1     -45.291 -34.854   2.530 -0.30 +0.00    +0.068 A  
DOCKED: ATOM     10  N   UNL     1     -46.417 -35.882   4.624 -2.56 -0.00    -0.191 NA 
DOCKED: ATOM     11  C   UNL     1     -45.913 -35.421   3.685 -0.32 +0.00    +0.101 C  
DOCKED: ENDROOT
DOCKED: BRANCH   2  12
DOCKED: ATOM     12  C   UNL     1     -42.002 -33.431  -1.091 -0.03 +0.00    +0.038 C  
DOCKED: BRANCH  12  13
DOCKED: ATOM     13  C   UNL     1     -41.538 -34.598  -1.961 -0.02 +0.00    +0.038 C  
DOCKED: BRANCH  13  14
DOCKED: ATOM     14  C   UNL     1     -41.611 -34.241  -3.444 -0.01 +0.00    +0.251 C  
DOCKED: BRANCH  14  15
DOCKED: ATOM     15  N   UNL     1     -41.609 -32.793  -3.618 -0.01 +0.00    +0.141 N  
DOCKED: ATOM     16  C   UNL     1     -40.275 -32.320  -3.992 -0.00 +0.00    +0.285 C  
DOCKED: ATOM     17  C   UNL     1     -42.591 -32.393  -4.627 -0.02 +0.00    +0.285 C  
DOCKED: ENDBRANCH  14  15
DOCKED: ENDBRANCH  13  14
DOCKED: ENDBRANCH  12  13
DOCKED: ENDBRANCH   2  12
DOCKED: BRANCH   2  18
DOCKED: ATOM     18  C   UNL     1     -44.010 -32.022  -1.508 -0.10 +0.00    +0.006 A  
DOCKED: ATOM     19  C   UNL     1     -43.356 -30.857  -1.110 -0.03 +0.00    +0.001 A  
DOCKED: ATOM     20  C   UNL     1     -43.813 -29.616  -1.554 -0.02 +0.00    +0.029 A  
DOCKED: ATOM     21  C   UNL     1     -44.922 -29.541  -2.394 -0.07 +0.00    +0.140 A  
DOCKED: ATOM     22  C   UNL     1     -45.576 -30.706  -2.792 -0.16 +0.00    +0.029 A  
DOCKED: ATOM     23  F   UNL     1     -45.359 -28.349  -2.822 -0.01 -0.00    -0.204 F  
DOCKED: ATOM     24  C   UNL     1     -45.121 -31.949  -2.348 +0.07 +0.00    +0.001 A  
DOCKED: ENDBRANCH   2  18
DOCKED: TORSDOF 5
DOCKED: TER
DOCKED: ENDMDL
________________________________________________________________________________


    FINAL DOCKED STATE:
    ________________________


Run:   384 / 512
Time taken for this run:   0.001s

DOCKED: MODEL        384
DOCKED: USER    Run = 384
DOCKED: USER
DOCKED: USER    Estimated Free Energy of Binding    =  -4.10 kcal/mol  [=(1)+(2)+(3)-(4)]
DOCKED: USER
DOCKED: USER    (1) Final Intermolecular Energy     =  -5.59 kcal/mol
DOCKED: USER        vdW + Hbond + desolv Energy     =  -5.59 kcal/mol
DOCKED: USER        Electrostatic Energy            =  +0.00 kcal/mol
DOCKED: USER        Moving Ligand-Fixed Receptor    =  -5.59 kcal/mol
DOCKED: USER        Moving Ligand-Moving Receptor   =  +0.00 kcal/mol
DOCKED: USER    (2) Final Total Internal Energy     =  -1.33 kcal/mol
DOCKED: USER    (3) Torsional Free Energy           =  +1.49 kcal/mol
DOCKED: USER    (4) Unbound System's Energy         =  -1.33 kcal/mol
DOCKED: USER
DOCKED: USER
DOCKED: REMARK  5 active torsions:
DOCKED: REMARK  status: ('A' for Active; 'I' for Inactive)
DOCKED: REMARK    1  A    between atoms: C_2  and  C_19 
DOCKED: REMARK    2  A    between atoms: C_2  and  C_11 
DOCKED: REMARK    3  A    between atoms: C_19  and  C_20 
DOCKED: REMARK    4  A    between atoms: C_20  and  C_21 
DOCKED: REMARK    5  A    between atoms: C_21  and  N_22 
DOCKED: USER                              x       y       z     vdW  Elec       q    Type
DOCKED: USER                           _______ _______ _______ _____ _____    ______ ____
DOCKED: ROOT
DOCKED: ATOM      1  O   UNL     1     -49.743 -31.821  10.036 -0.04 -0.00    -0.346 OA 
DOCKED: ATOM      2  C   UNL     1     -49.864 -30.952   8.864 -0.10 +0.00    +0.130 C  
DOCKED: ATOM      3  C   UNL     1     -50.745 -31.730   7.930 -0.20 +0.00    +0.004 A  
DOCKED: ATOM      4  C   UNL     1     -51.180 -32.890   8.555 -0.20 +0.00    +0.006 A  
DOCKED: ATOM      5  C   UNL     1     -50.636 -32.954   9.930 -0.11 +0.00    +0.169 C  
DOCKED: ATOM      6  C   UNL     1     -51.139 -31.430   6.634 -0.20 -0.00    -0.001 A  
DOCKED: ATOM      7  C   UNL     1     -52.014 -33.787   7.910 -0.27 +0.00    +0.008 A  
DOCKED: ATOM      8  C   UNL     1     -51.977 -32.326   5.969 -0.33 +0.00    +0.010 A  
DOCKED: ATOM      9  C   UNL     1     -52.413 -33.498   6.604 -0.29 +0.00    +0.068 A  
DOCKED: ATOM     10  N   UNL     1     -53.973 -35.138   5.343 -2.43 -0.00    -0.191 NA 
DOCKED: ATOM     11  C   UNL     1     -53.273 -34.403   5.908 -0.32 +0.00    +0.101 C  
DOCKED: ENDROOT
DOCKED: BRANCH   2  12
DOCKED: ATOM     12  C   UNL     1     -50.485 -29.632   9.304 -0.05 +0.00    +0.038 C  
DOCKED: BRANCH  12  13
DOCKED: ATOM     13  C   UNL     1     -52.008 -29.726   9.364 -0.04 +0.00    +0.038 C  
DOCKED: BRANCH  13  14
DOCKED: ATOM     14  C   UNL     1     -52.648 -29.046   8.155 -0.06 +0.00    +0.251 C  
DOCKED: BRANCH  14  15
DOCKED: ATOM     15  N   UNL     1     -54.073 -29.351   8.097 -0.08 +0.00    +0.141 N  
DOCKED: ATOM     16  C   UNL     1     -54.592 -29.136   6.745 -0.15 +0.00    +0.285 C  
DOCKED: ATOM     17  C   UNL     1     -54.323 -30.729   8.523 -0.03 +0.00    +0.285 C  
DOCKED: ENDBRANCH  14  15
DOCKED: ENDBRANCH  13  14
DOCKED: ENDBRANCH  12  13
DOCKED: ENDBRANCH   2  12
DOCKED: BRANCH   2  18
DOCKED: ATOM     18  C   UNL     1     -48.486 -30.748   8.329 -0.13 +0.00    +0.006 A  
DOCKED: ATOM     19  C   UNL     1     -47.527 -31.750   8.471 -0.15 +0.00    +0.001 A  
DOCKED: ATOM     20  C   UNL     1     -46.239 -31.557   7.970 -0.12 +0.00    +0.029 A  
DOCKED: ATOM     21  C   UNL     1     -45.912 -30.364   7.329 -0.07 +0.00    +0.140 A  
DOCKED: ATOM     22  C   UNL     1     -46.871 -29.362   7.187 -0.08 +0.00    +0.029 A  
DOCKED: ATOM     23  F   UNL     1     -44.676 -30.179   6.847 -0.01 -0.00    -0.204 F  
DOCKED: ATOM     24  C   UNL     1     -48.160 -29.553   7.688 -0.10 +0.00    +0.001 A  
DOCKED: ENDBRANCH   2  18
DOCKED: TORSDOF 5
DOCKED: TER
DOCKED: ENDMDL
________________________________________________________________________________


    FINAL DOCKED STATE:
    ________________________


Run:   385 / 512
Time taken for this run:   0.001s

DOCKED: MODEL        385
DOCKED: USER    Run = 385
DOCKED: USER
DOCKED: USER    Estimated Free Energy of Binding    =  -4.15 kcal/mol  [=(1)+(2)+(3)-(4)]
DOCKED: USER
DOCKED: USER    (1) Final Intermolecular Energy     =  -5.64 kcal/mol
DOCKED: USER        vdW + Hbond + desolv Energy     =  -5.64 kcal/mol
DOCKED: USER        Electrostatic Energy            =  +0.00 kcal/mol
DOCKED: USER        Moving Ligand-Fixed Receptor    =  -5.64 kcal/mol
DOCKED: USER        Moving Ligand-Moving Receptor   =  +0.00 kcal/mol
DOCKED: USER    (2) Final Total Internal Energy     =  -1.46 kcal/mol
DOCKED: USER    (3) Torsional Free Energy           =  +1.49 kcal/mol
DOCKED: USER    (4) Unbound System's Energy         =  -1.46 kcal/mol
DOCKED: USER
DOCKED: USER
DOCKED: REMARK  5 active torsions:
DOCKED: REMARK  status: ('A' for Active; 'I' for Inactive)
DOCKED: REMARK    1  A    between atoms: C_2  and  C_19 
DOCKED: REMARK    2  A    between atoms: C_2  and  C_11 
DOCKED: REMARK    3  A    between atoms: C_19  and  C_20 
DOCKED: REMARK    4  A    between atoms: C_20  and  C_21 
DOCKED: REMARK    5  A    between atoms: C_21  and  N_22 
DOCKED: USER                              x       y       z     vdW  Elec       q    Type
DOCKED: USER                           _______ _______ _______ _____ _____    ______ ____
DOCKED: ROOT
DOCKED: ATOM      1  O   UNL     1     -49.329 -31.210   9.196 -0.05 -0.00    -0.346 OA 
DOCKED: ATOM      2  C   UNL     1     -49.933 -30.348   8.179 -0.12 +0.00    +0.130 C  
DOCKED: ATOM      3  C   UNL     1     -50.829 -31.274   7.409 -0.21 +0.00    +0.004 A  
DOCKED: ATOM      4  C   UNL     1     -50.824 -32.529   8.001 -0.24 +0.00    +0.006 A  
DOCKED: ATOM      5  C   UNL     1     -49.947 -32.518   9.194 -0.14 +0.00    +0.169 C  
DOCKED: ATOM      6  C   UNL     1     -51.597 -31.023   6.281 -0.26 -0.00    -0.001 A  
DOCKED: ATOM      7  C   UNL     1     -51.577 -33.572   7.489 -0.32 +0.00    +0.008 A  
DOCKED: ATOM      8  C   UNL     1     -52.359 -32.066   5.749 -0.34 +0.00    +0.010 A  
DOCKED: ATOM      9  C   UNL     1     -52.349 -33.333   6.351 -0.31 +0.00    +0.068 A  
DOCKED: ATOM     10  N   UNL     1     -53.777 -35.244   5.341 -2.55 -0.00    -0.191 NA 
DOCKED: ATOM     11  C   UNL     1     -53.136 -34.387   5.793 -0.36 +0.00    +0.101 C  
DOCKED: ENDROOT
DOCKED: BRANCH   2  12
DOCKED: ATOM     12  C   UNL     1     -50.697 -29.233   8.883 -0.06 +0.00    +0.038 C  
DOCKED: BRANCH  12  13
DOCKED: ATOM     13  C   UNL     1     -49.746 -28.188   9.464 -0.02 +0.00    +0.038 C  
DOCKED: BRANCH  13  14
DOCKED: ATOM     14  C   UNL     1     -49.528 -28.414  10.959 -0.00 +0.00    +0.251 C  
DOCKED: BRANCH  14  15
DOCKED: ATOM     15  N   UNL     1     -48.481 -29.405  11.174 -0.00 +0.00    +0.141 N  
DOCKED: ATOM     16  C   UNL     1     -47.158 -28.782  11.107 -0.00 +0.00    +0.285 C  
DOCKED: ATOM     17  C   UNL     1     -48.661 -30.074  12.464 -0.00 +0.00    +0.285 C  
DOCKED: ENDBRANCH  14  15
DOCKED: ENDBRANCH  13  14
DOCKED: ENDBRANCH  12  13
DOCKED: ENDBRANCH   2  12
DOCKED: BRANCH   2  18
DOCKED: ATOM     18  C   UNL     1     -48.817 -29.799   7.354 -0.11 +0.00    +0.006 A  
DOCKED: ATOM     19  C   UNL     1     -47.495 -30.075   7.698 -0.11 +0.00    +0.001 A  
DOCKED: ATOM     20  C   UNL     1     -46.453 -29.560   6.926 -0.09 +0.00    +0.029 A  
DOCKED: ATOM     21  C   UNL     1     -46.734 -28.772   5.811 -0.07 +0.00    +0.140 A  
DOCKED: ATOM     22  C   UNL     1     -48.057 -28.497   5.467 -0.12 +0.00    +0.029 A  
DOCKED: ATOM     23  F   UNL     1     -45.734 -28.280   5.069 -0.01 -0.00    -0.204 F  
DOCKED: ATOM     24  C   UNL     1     -49.101 -29.011   6.239 -0.15 +0.00    +0.001 A  
DOCKED: ENDBRANCH   2  18
DOCKED: TORSDOF 5
DOCKED: TER
DOCKED: ENDMDL
________________________________________________________________________________


    FINAL DOCKED STATE:
    ________________________


Run:   386 / 512
Time taken for this run:   0.001s

DOCKED: MODEL        386
DOCKED: USER    Run = 386
DOCKED: USER
DOCKED: USER    Estimated Free Energy of Binding    =  -6.22 kcal/mol  [=(1)+(2)+(3)-(4)]
DOCKED: USER
DOCKED: USER    (1) Final Intermolecular Energy     =  -7.71 kcal/mol
DOCKED: USER        vdW + Hbond + desolv Energy     =  -7.71 kcal/mol
DOCKED: USER        Electrostatic Energy            =  +0.00 kcal/mol
DOCKED: USER        Moving Ligand-Fixed Receptor    =  -7.71 kcal/mol
DOCKED: USER        Moving Ligand-Moving Receptor   =  +0.00 kcal/mol
DOCKED: USER    (2) Final Total Internal Energy     =  -1.03 kcal/mol
DOCKED: USER    (3) Torsional Free Energy           =  +1.49 kcal/mol
DOCKED: USER    (4) Unbound System's Energy         =  -1.03 kcal/mol
DOCKED: USER
DOCKED: USER
DOCKED: REMARK  5 active torsions:
DOCKED: REMARK  status: ('A' for Active; 'I' for Inactive)
DOCKED: REMARK    1  A    between atoms: C_2  and  C_19 
DOCKED: REMARK    2  A    between atoms: C_2  and  C_11 
DOCKED: REMARK    3  A    between atoms: C_19  and  C_20 
DOCKED: REMARK    4  A    between atoms: C_20  and  C_21 
DOCKED: REMARK    5  A    between atoms: C_21  and  N_22 
DOCKED: USER                              x       y       z     vdW  Elec       q    Type
DOCKED: USER                           _______ _______ _______ _____ _____    ______ ____
DOCKED: ROOT
DOCKED: ATOM      1  O   UNL     1     -50.494 -34.933   7.578 -0.27 -0.00    -0.346 OA 
DOCKED: ATOM      2  C   UNL     1     -51.343 -33.755   7.758 -0.29 +0.00    +0.130 C  
DOCKED: ATOM      3  C   UNL     1     -52.055 -33.620   6.443 -0.37 +0.00    +0.004 A  
DOCKED: ATOM      4  C   UNL     1     -51.725 -34.690   5.622 -0.36 +0.00    +0.006 A  
DOCKED: ATOM      5  C   UNL     1     -50.797 -35.599   6.331 -0.22 +0.00    +0.169 C  
DOCKED: ATOM      6  C   UNL     1     -52.932 -32.636   6.012 -0.34 -0.00    -0.001 A  
DOCKED: ATOM      7  C   UNL     1     -52.254 -34.810   4.348 -0.28 +0.00    +0.008 A  
DOCKED: ATOM      8  C   UNL     1     -53.470 -32.741   4.728 -0.14 +0.00    +0.010 A  
DOCKED: ATOM      9  C   UNL     1     -53.133 -33.823   3.901 -0.46 +0.00    +0.068 A  
DOCKED: ATOM     10  N   UNL     1     -54.154 -33.990   1.525 -3.12 -0.00    -0.191 NA 
DOCKED: ATOM     11  C   UNL     1     -53.695 -33.914   2.591 -0.29 +0.00    +0.101 C  
DOCKED: ENDROOT
DOCKED: BRANCH   2  12
DOCKED: ATOM     12  C   UNL     1     -52.292 -34.018   8.922 -0.26 +0.00    +0.038 C  
DOCKED: BRANCH  12  13
DOCKED: ATOM     13  C   UNL     1     -51.532 -34.161  10.239 -0.23 +0.00    +0.038 C  
DOCKED: BRANCH  13  14
DOCKED: ATOM     14  C   UNL     1     -51.602 -32.873  11.057 -0.06 +0.00    +0.251 C  
DOCKED: BRANCH  14  15
DOCKED: ATOM     15  N   UNL     1     -52.801 -32.865  11.887 -0.04 +0.00    +0.141 N  
DOCKED: ATOM     16  C   UNL     1     -53.715 -31.803  11.463 -0.00 +0.00    +0.285 C  
DOCKED: ATOM     17  C   UNL     1     -53.473 -34.164  11.836 -0.07 +0.00    +0.285 C  
DOCKED: ENDBRANCH  14  15
DOCKED: ENDBRANCH  13  14
DOCKED: ENDBRANCH  12  13
DOCKED: ENDBRANCH   2  12
DOCKED: BRANCH   2  18
DOCKED: ATOM     18  C   UNL     1     -50.439 -32.605   8.051 -0.24 +0.00    +0.006 A  
DOCKED: ATOM     19  C   UNL     1     -50.934 -31.302   8.015 -0.18 +0.00    +0.001 A  
DOCKED: ATOM     20  C   UNL     1     -50.087 -30.228   8.288 -0.11 +0.00    +0.029 A  
DOCKED: ATOM     21  C   UNL     1     -48.747 -30.457   8.597 -0.08 +0.00    +0.140 A  
DOCKED: ATOM     22  C   UNL     1     -48.252 -31.760   8.633 -0.15 +0.00    +0.029 A  
DOCKED: ATOM     23  F   UNL     1     -47.934 -29.425   8.861 -0.01 -0.00    -0.204 F  
DOCKED: ATOM     24  C   UNL     1     -49.099 -32.836   8.359 -0.14 +0.00    +0.001 A  
DOCKED: ENDBRANCH   2  18
DOCKED: TORSDOF 5
DOCKED: TER
DOCKED: ENDMDL
________________________________________________________________________________


    FINAL DOCKED STATE:
    ________________________


Run:   387 / 512
Time taken for this run:   0.001s

DOCKED: MODEL        387
DOCKED: USER    Run = 387
DOCKED: USER
DOCKED: USER    Estimated Free Energy of Binding    =  -4.48 kcal/mol  [=(1)+(2)+(3)-(4)]
DOCKED: USER
DOCKED: USER    (1) Final Intermolecular Energy     =  -5.97 kcal/mol
DOCKED: USER        vdW + Hbond + desolv Energy     =  -5.97 kcal/mol
DOCKED: USER        Electrostatic Energy            =  +0.00 kcal/mol
DOCKED: USER        Moving Ligand-Fixed Receptor    =  -5.97 kcal/mol
DOCKED: USER        Moving Ligand-Moving Receptor   =  +0.00 kcal/mol
DOCKED: USER    (2) Final Total Internal Energy     =  -1.24 kcal/mol
DOCKED: USER    (3) Torsional Free Energy           =  +1.49 kcal/mol
DOCKED: USER    (4) Unbound System's Energy         =  -1.24 kcal/mol
DOCKED: USER
DOCKED: USER
DOCKED: REMARK  5 active torsions:
DOCKED: REMARK  status: ('A' for Active; 'I' for Inactive)
DOCKED: REMARK    1  A    between atoms: C_2  and  C_19 
DOCKED: REMARK    2  A    between atoms: C_2  and  C_11 
DOCKED: REMARK    3  A    between atoms: C_19  and  C_20 
DOCKED: REMARK    4  A    between atoms: C_20  and  C_21 
DOCKED: REMARK    5  A    between atoms: C_21  and  N_22 
DOCKED: USER                              x       y       z     vdW  Elec       q    Type
DOCKED: USER                           _______ _______ _______ _____ _____    ______ ____
DOCKED: ROOT
DOCKED: ATOM      1  O   UNL     1     -49.712 -31.071   9.439 -0.03 -0.00    -0.346 OA 
DOCKED: ATOM      2  C   UNL     1     -50.119 -30.285   8.274 -0.11 +0.00    +0.130 C  
DOCKED: ATOM      3  C   UNL     1     -50.950 -31.241   7.468 -0.21 +0.00    +0.004 A  
DOCKED: ATOM      4  C   UNL     1     -51.098 -32.432   8.164 -0.21 +0.00    +0.006 A  
DOCKED: ATOM      5  C   UNL     1     -50.397 -32.345   9.465 -0.11 +0.00    +0.169 C  
DOCKED: ATOM      6  C   UNL     1     -51.539 -31.066   6.224 -0.25 -0.00    -0.001 A  
DOCKED: ATOM      7  C   UNL     1     -51.830 -33.485   7.643 -0.28 +0.00    +0.008 A  
DOCKED: ATOM      8  C   UNL     1     -52.277 -32.120   5.683 -0.34 +0.00    +0.010 A  
DOCKED: ATOM      9  C   UNL     1     -52.422 -33.323   6.390 -0.30 +0.00    +0.068 A  
DOCKED: ATOM     10  N   UNL     1     -53.803 -35.258   5.359 -2.54 -0.00    -0.191 NA 
DOCKED: ATOM     11  C   UNL     1     -53.183 -34.391   5.821 -0.35 +0.00    +0.101 C  
DOCKED: ENDROOT
DOCKED: BRANCH   2  12
DOCKED: ATOM     12  C   UNL     1     -50.908 -29.075   8.759 -0.06 +0.00    +0.038 C  
DOCKED: BRANCH  12  13
DOCKED: ATOM     13  C   UNL     1     -52.413 -29.330   8.697 -0.07 +0.00    +0.038 C  
DOCKED: BRANCH  13  14
DOCKED: ATOM     14  C   UNL     1     -53.182 -28.030   8.467 -0.04 +0.00    +0.251 C  
DOCKED: BRANCH  14  15
DOCKED: ATOM     15  N   UNL     1     -53.977 -28.120   7.248 -0.14 +0.00    +0.141 N  
DOCKED: ATOM     16  C   UNL     1     -53.217 -27.629   6.098 -0.11 +0.00    +0.285 C  
DOCKED: ATOM     17  C   UNL     1     -54.414 -29.498   7.018 -0.15 +0.00    +0.285 C  
DOCKED: ENDBRANCH  14  15
DOCKED: ENDBRANCH  13  14
DOCKED: ENDBRANCH  12  13
DOCKED: ENDBRANCH   2  12
DOCKED: BRANCH   2  18
DOCKED: ATOM     18  C   UNL     1     -48.870 -29.867   7.572 -0.12 +0.00    +0.006 A  
DOCKED: ATOM     19  C   UNL     1     -48.941 -29.004   6.478 -0.14 +0.00    +0.001 A  
DOCKED: ATOM     20  C   UNL     1     -47.772 -28.614   5.823 -0.11 +0.00    +0.029 A  
DOCKED: ATOM     21  C   UNL     1     -46.536 -29.086   6.261 -0.07 +0.00    +0.140 A  
DOCKED: ATOM     22  C   UNL     1     -46.466 -29.948   7.355 -0.09 +0.00    +0.029 A  
DOCKED: ATOM     23  F   UNL     1     -45.415 -28.710   5.633 -0.01 -0.00    -0.204 F  
DOCKED: ATOM     24  C   UNL     1     -47.634 -30.339   8.011 -0.11 +0.00    +0.001 A  
DOCKED: ENDBRANCH   2  18
DOCKED: TORSDOF 5
DOCKED: TER
DOCKED: ENDMDL
________________________________________________________________________________


    FINAL DOCKED STATE:
    ________________________


Run:   388 / 512
Time taken for this run:   0.001s

DOCKED: MODEL        388
DOCKED: USER    Run = 388
DOCKED: USER
DOCKED: USER    Estimated Free Energy of Binding    =  -3.81 kcal/mol  [=(1)+(2)+(3)-(4)]
DOCKED: USER
DOCKED: USER    (1) Final Intermolecular Energy     =  -5.31 kcal/mol
DOCKED: USER        vdW + Hbond + desolv Energy     =  -5.31 kcal/mol
DOCKED: USER        Electrostatic Energy            =  +0.00 kcal/mol
DOCKED: USER        Moving Ligand-Fixed Receptor    =  -5.31 kcal/mol
DOCKED: USER        Moving Ligand-Moving Receptor   =  +0.00 kcal/mol
DOCKED: USER    (2) Final Total Internal Energy     =  -1.43 kcal/mol
DOCKED: USER    (3) Torsional Free Energy           =  +1.49 kcal/mol
DOCKED: USER    (4) Unbound System's Energy         =  -1.43 kcal/mol
DOCKED: USER
DOCKED: USER
DOCKED: REMARK  5 active torsions:
DOCKED: REMARK  status: ('A' for Active; 'I' for Inactive)
DOCKED: REMARK    1  A    between atoms: C_2  and  C_19 
DOCKED: REMARK    2  A    between atoms: C_2  and  C_11 
DOCKED: REMARK    3  A    between atoms: C_19  and  C_20 
DOCKED: REMARK    4  A    between atoms: C_20  and  C_21 
DOCKED: REMARK    5  A    between atoms: C_21  and  N_22 
DOCKED: USER                              x       y       z     vdW  Elec       q    Type
DOCKED: USER                           _______ _______ _______ _____ _____    ______ ____
DOCKED: ROOT
DOCKED: ATOM      1  O   UNL     1     -46.506 -28.792   2.901 -0.02 -0.00    -0.346 OA 
DOCKED: ATOM      2  C   UNL     1     -47.232 -29.432   1.804 -0.18 +0.00    +0.130 C  
DOCKED: ATOM      3  C   UNL     1     -46.981 -30.898   2.014 -0.26 +0.00    +0.004 A  
DOCKED: ATOM      4  C   UNL     1     -46.268 -31.085   3.190 -0.17 +0.00    +0.006 A  
DOCKED: ATOM      5  C   UNL     1     -46.012 -29.779   3.836 -0.10 +0.00    +0.169 C  
DOCKED: ATOM      6  C   UNL     1     -47.363 -31.979   1.234 -0.24 -0.00    -0.001 A  
DOCKED: ATOM      7  C   UNL     1     -45.911 -32.351   3.622 -0.14 +0.00    +0.008 A  
DOCKED: ATOM      8  C   UNL     1     -47.007 -33.261   1.653 -0.15 +0.00    +0.010 A  
DOCKED: ATOM      9  C   UNL     1     -46.285 -33.446   2.841 -0.25 +0.00    +0.068 A  
DOCKED: ATOM     10  N   UNL     1     -45.643 -35.841   3.594 -1.79 -0.00    -0.191 NA 
DOCKED: ATOM     11  C   UNL     1     -45.930 -34.767   3.256 -0.40 +0.00    +0.101 C  
DOCKED: ENDROOT
DOCKED: BRANCH   2  12
DOCKED: ATOM     12  C   UNL     1     -48.705 -29.060   1.918 -0.27 +0.00    +0.038 C  
DOCKED: BRANCH  12  13
DOCKED: ATOM     13  C   UNL     1     -48.889 -27.551   2.065 -0.17 +0.00    +0.038 C  
DOCKED: BRANCH  13  14
DOCKED: ATOM     14  C   UNL     1     -49.384 -26.928   0.761 -0.16 +0.00    +0.251 C  
DOCKED: BRANCH  14  15
DOCKED: ATOM     15  N   UNL     1     -48.414 -25.962   0.259 -0.12 +0.00    +0.141 N  
DOCKED: ATOM     16  C   UNL     1     -48.888 -25.352  -0.984 -0.17 +0.00    +0.285 C  
DOCKED: ATOM     17  C   UNL     1     -48.148 -24.930   1.262 -0.11 +0.00    +0.285 C  
DOCKED: ENDBRANCH  14  15
DOCKED: ENDBRANCH  13  14
DOCKED: ENDBRANCH  12  13
DOCKED: ENDBRANCH   2  12
DOCKED: BRANCH   2  18
DOCKED: ATOM     18  C   UNL     1     -46.643 -28.918   0.533 -0.13 +0.00    +0.006 A  
DOCKED: ATOM     19  C   UNL     1     -45.540 -28.067   0.570 -0.03 +0.00    +0.001 A  
DOCKED: ATOM     20  C   UNL     1     -44.991 -27.587  -0.620 -0.02 +0.00    +0.029 A  
DOCKED: ATOM     21  C   UNL     1     -45.545 -27.959  -1.844 -0.04 +0.00    +0.140 A  
DOCKED: ATOM     22  C   UNL     1     -46.648 -28.811  -1.880 -0.19 +0.00    +0.029 A  
DOCKED: ATOM     23  F   UNL     1     -45.016 -27.499  -2.985 +0.00 -0.00    -0.204 F  
DOCKED: ATOM     24  C   UNL     1     -47.199 -29.291  -0.691 -0.18 +0.00    +0.001 A  
DOCKED: ENDBRANCH   2  18
DOCKED: TORSDOF 5
DOCKED: TER
DOCKED: ENDMDL
________________________________________________________________________________


    FINAL DOCKED STATE:
    ________________________


Run:   389 / 512
Time taken for this run:   0.001s

DOCKED: MODEL        389
DOCKED: USER    Run = 389
DOCKED: USER
DOCKED: USER    Estimated Free Energy of Binding    =  -4.24 kcal/mol  [=(1)+(2)+(3)-(4)]
DOCKED: USER
DOCKED: USER    (1) Final Intermolecular Energy     =  -5.73 kcal/mol
DOCKED: USER        vdW + Hbond + desolv Energy     =  -5.73 kcal/mol
DOCKED: USER        Electrostatic Energy            =  +0.00 kcal/mol
DOCKED: USER        Moving Ligand-Fixed Receptor    =  -5.73 kcal/mol
DOCKED: USER        Moving Ligand-Moving Receptor   =  +0.00 kcal/mol
DOCKED: USER    (2) Final Total Internal Energy     =  -1.17 kcal/mol
DOCKED: USER    (3) Torsional Free Energy           =  +1.49 kcal/mol
DOCKED: USER    (4) Unbound System's Energy         =  -1.17 kcal/mol
DOCKED: USER
DOCKED: USER
DOCKED: REMARK  5 active torsions:
DOCKED: REMARK  status: ('A' for Active; 'I' for Inactive)
DOCKED: REMARK    1  A    between atoms: C_2  and  C_19 
DOCKED: REMARK    2  A    between atoms: C_2  and  C_11 
DOCKED: REMARK    3  A    between atoms: C_19  and  C_20 
DOCKED: REMARK    4  A    between atoms: C_20  and  C_21 
DOCKED: REMARK    5  A    between atoms: C_21  and  N_22 
DOCKED: USER                              x       y       z     vdW  Elec       q    Type
DOCKED: USER                           _______ _______ _______ _____ _____    ______ ____
DOCKED: ROOT
DOCKED: ATOM      1  O   UNL     1     -54.794 -28.531   7.683 -0.06 -0.00    -0.346 OA 
DOCKED: ATOM      2  C   UNL     1     -53.408 -28.628   7.223 -0.18 +0.00    +0.130 C  
DOCKED: ATOM      3  C   UNL     1     -53.277 -30.054   6.773 -0.23 +0.00    +0.004 A  
DOCKED: ATOM      4  C   UNL     1     -54.509 -30.687   6.863 -0.22 +0.00    +0.006 A  
DOCKED: ATOM      5  C   UNL     1     -55.528 -29.735   7.359 -0.17 +0.00    +0.169 C  
DOCKED: ATOM      6  C   UNL     1     -52.160 -30.734   6.310 -0.25 -0.00    -0.001 A  
DOCKED: ATOM      7  C   UNL     1     -54.666 -32.014   6.500 -0.23 +0.00    +0.008 A  
DOCKED: ATOM      8  C   UNL     1     -52.301 -32.074   5.944 -0.34 +0.00    +0.010 A  
DOCKED: ATOM      9  C   UNL     1     -53.548 -32.710   6.038 -0.26 +0.00    +0.068 A  
DOCKED: ATOM     10  N   UNL     1     -53.775 -35.196   5.346 -2.56 -0.00    -0.191 NA 
DOCKED: ATOM     11  C   UNL     1     -53.673 -34.081   5.657 -0.36 +0.00    +0.101 C  
DOCKED: ENDROOT
DOCKED: BRANCH   2  12
DOCKED: ATOM     12  C   UNL     1     -53.203 -27.628   6.092 -0.18 +0.00    +0.038 C  
DOCKED: BRANCH  12  13
DOCKED: ATOM     13  C   UNL     1     -53.938 -26.317   6.368 -0.17 +0.00    +0.038 C  
DOCKED: BRANCH  13  14
DOCKED: ATOM     14  C   UNL     1     -54.498 -25.719   5.079 -0.07 +0.00    +0.251 C  
DOCKED: BRANCH  14  15
DOCKED: ATOM     15  N   UNL     1     -55.919 -25.428   5.231 -0.15 +0.00    +0.141 N  
DOCKED: ATOM     16  C   UNL     1     -56.557 -26.414   6.104 -0.10 +0.00    +0.285 C  
DOCKED: ATOM     17  C   UNL     1     -56.115 -24.078   5.761 -0.05 +0.00    +0.285 C  
DOCKED: ENDBRANCH  14  15
DOCKED: ENDBRANCH  13  14
DOCKED: ENDBRANCH  12  13
DOCKED: ENDBRANCH   2  12
DOCKED: BRANCH   2  18
DOCKED: ATOM     18  C   UNL     1     -52.538 -28.305   8.392 -0.06 +0.00    +0.006 A  
DOCKED: ATOM     19  C   UNL     1     -51.168 -28.119   8.210 -0.06 +0.00    +0.001 A  
DOCKED: ATOM     20  C   UNL     1     -50.356 -27.817   9.304 -0.02 +0.00    +0.029 A  
DOCKED: ATOM     21  C   UNL     1     -50.913 -27.702  10.576 -0.00 +0.00    +0.140 A  
DOCKED: ATOM     22  C   UNL     1     -52.283 -27.889  10.757 -0.00 +0.00    +0.029 A  
DOCKED: ATOM     23  F   UNL     1     -50.133 -27.411  11.625 -0.00 -0.00    -0.204 F  
DOCKED: ATOM     24  C   UNL     1     -53.097 -28.191   9.664 -0.02 +0.00    +0.001 A  
DOCKED: ENDBRANCH   2  18
DOCKED: TORSDOF 5
DOCKED: TER
DOCKED: ENDMDL
________________________________________________________________________________


    FINAL DOCKED STATE:
    ________________________


Run:   390 / 512
Time taken for this run:   0.001s

DOCKED: MODEL        390
DOCKED: USER    Run = 390
DOCKED: USER
DOCKED: USER    Estimated Free Energy of Binding    =  -4.42 kcal/mol  [=(1)+(2)+(3)-(4)]
DOCKED: USER
DOCKED: USER    (1) Final Intermolecular Energy     =  -5.91 kcal/mol
DOCKED: USER        vdW + Hbond + desolv Energy     =  -5.91 kcal/mol
DOCKED: USER        Electrostatic Energy            =  +0.00 kcal/mol
DOCKED: USER        Moving Ligand-Fixed Receptor    =  -5.91 kcal/mol
DOCKED: USER        Moving Ligand-Moving Receptor   =  +0.00 kcal/mol
DOCKED: USER    (2) Final Total Internal Energy     =  -1.37 kcal/mol
DOCKED: USER    (3) Torsional Free Energy           =  +1.49 kcal/mol
DOCKED: USER    (4) Unbound System's Energy         =  -1.37 kcal/mol
DOCKED: USER
DOCKED: USER
DOCKED: REMARK  5 active torsions:
DOCKED: REMARK  status: ('A' for Active; 'I' for Inactive)
DOCKED: REMARK    1  A    between atoms: C_2  and  C_19 
DOCKED: REMARK    2  A    between atoms: C_2  and  C_11 
DOCKED: REMARK    3  A    between atoms: C_19  and  C_20 
DOCKED: REMARK    4  A    between atoms: C_20  and  C_21 
DOCKED: REMARK    5  A    between atoms: C_21  and  N_22 
DOCKED: USER                              x       y       z     vdW  Elec       q    Type
DOCKED: USER                           _______ _______ _______ _____ _____    ______ ____
DOCKED: ROOT
DOCKED: ATOM      1  O   UNL     1     -49.235 -31.184   9.126 -0.05 -0.00    -0.346 OA 
DOCKED: ATOM      2  C   UNL     1     -49.871 -30.311   8.138 -0.12 +0.00    +0.130 C  
DOCKED: ATOM      3  C   UNL     1     -50.786 -31.230   7.382 -0.21 +0.00    +0.004 A  
DOCKED: ATOM      4  C   UNL     1     -50.760 -32.492   7.957 -0.24 +0.00    +0.006 A  
DOCKED: ATOM      5  C   UNL     1     -49.850 -32.494   9.124 -0.15 +0.00    +0.169 C  
DOCKED: ATOM      6  C   UNL     1     -51.586 -30.966   6.280 -0.26 -0.00    -0.001 A  
DOCKED: ATOM      7  C   UNL     1     -51.525 -33.530   7.452 -0.32 +0.00    +0.008 A  
DOCKED: ATOM      8  C   UNL     1     -52.360 -32.004   5.756 -0.33 +0.00    +0.010 A  
DOCKED: ATOM      9  C   UNL     1     -52.329 -33.279   6.340 -0.31 +0.00    +0.068 A  
DOCKED: ATOM     10  N   UNL     1     -53.782 -35.181   5.346 -2.56 -0.00    -0.191 NA 
DOCKED: ATOM     11  C   UNL     1     -53.130 -34.328   5.791 -0.37 +0.00    +0.101 C  
DOCKED: ENDROOT
DOCKED: BRANCH   2  12
DOCKED: ATOM     12  C   UNL     1     -50.617 -29.207   8.878 -0.06 +0.00    +0.038 C  
DOCKED: BRANCH  12  13
DOCKED: ATOM     13  C   UNL     1     -51.998 -29.676   9.331 -0.05 +0.00    +0.038 C  
DOCKED: BRANCH  13  14
DOCKED: ATOM     14  C   UNL     1     -53.102 -28.991   8.527 -0.04 +0.00    +0.251 C  
DOCKED: BRANCH  14  15
DOCKED: ATOM     15  N   UNL     1     -53.977 -29.985   7.918 -0.09 +0.00    +0.141 N  
DOCKED: ATOM     16  C   UNL     1     -54.776 -30.665   8.940 -0.02 +0.00    +0.285 C  
DOCKED: ATOM     17  C   UNL     1     -54.851 -29.362   6.922 -0.15 +0.00    +0.285 C  
DOCKED: ENDBRANCH  14  15
DOCKED: ENDBRANCH  13  14
DOCKED: ENDBRANCH  12  13
DOCKED: ENDBRANCH   2  12
DOCKED: BRANCH   2  18
DOCKED: ATOM     18  C   UNL     1     -48.781 -29.748   7.289 -0.11 +0.00    +0.006 A  
DOCKED: ATOM     19  C   UNL     1     -47.492 -30.274   7.369 -0.05 +0.00    +0.001 A  
DOCKED: ATOM     20  C   UNL     1     -46.474 -29.746   6.575 -0.10 +0.00    +0.029 A  
DOCKED: ATOM     21  C   UNL     1     -46.745 -28.694   5.701 -0.07 +0.00    +0.140 A  
DOCKED: ATOM     22  C   UNL     1     -48.034 -28.168   5.621 -0.11 +0.00    +0.029 A  
DOCKED: ATOM     23  F   UNL     1     -45.767 -28.189   4.937 -0.01 -0.00    -0.204 F  
DOCKED: ATOM     24  C   UNL     1     -49.053 -28.695   6.416 -0.14 +0.00    +0.001 A  
DOCKED: ENDBRANCH   2  18
DOCKED: TORSDOF 5
DOCKED: TER
DOCKED: ENDMDL
________________________________________________________________________________


    FINAL DOCKED STATE:
    ________________________


Run:   391 / 512
Time taken for this run:   0.001s

DOCKED: MODEL        391
DOCKED: USER    Run = 391
DOCKED: USER
DOCKED: USER    Estimated Free Energy of Binding    =  -3.39 kcal/mol  [=(1)+(2)+(3)-(4)]
DOCKED: USER
DOCKED: USER    (1) Final Intermolecular Energy     =  -4.88 kcal/mol
DOCKED: USER        vdW + Hbond + desolv Energy     =  -4.88 kcal/mol
DOCKED: USER        Electrostatic Energy            =  +0.00 kcal/mol
DOCKED: USER        Moving Ligand-Fixed Receptor    =  -4.88 kcal/mol
DOCKED: USER        Moving Ligand-Moving Receptor   =  +0.00 kcal/mol
DOCKED: USER    (2) Final Total Internal Energy     =  -1.56 kcal/mol
DOCKED: USER    (3) Torsional Free Energy           =  +1.49 kcal/mol
DOCKED: USER    (4) Unbound System's Energy         =  -1.56 kcal/mol
DOCKED: USER
DOCKED: USER
DOCKED: REMARK  5 active torsions:
DOCKED: REMARK  status: ('A' for Active; 'I' for Inactive)
DOCKED: REMARK    1  A    between atoms: C_2  and  C_19 
DOCKED: REMARK    2  A    between atoms: C_2  and  C_11 
DOCKED: REMARK    3  A    between atoms: C_19  and  C_20 
DOCKED: REMARK    4  A    between atoms: C_20  and  C_21 
DOCKED: REMARK    5  A    between atoms: C_21  and  N_22 
DOCKED: USER                              x       y       z     vdW  Elec       q    Type
DOCKED: USER                           _______ _______ _______ _____ _____    ______ ____
DOCKED: ROOT
DOCKED: ATOM      1  O   UNL     1     -44.934 -20.276  -2.011 -0.02 -0.00    -0.346 OA 
DOCKED: ATOM      2  C   UNL     1     -44.822 -20.180  -3.467 -0.09 +0.00    +0.130 C  
DOCKED: ATOM      3  C   UNL     1     -46.157 -20.657  -3.963 -0.06 +0.00    +0.004 A  
DOCKED: ATOM      4  C   UNL     1     -46.996 -20.900  -2.885 -0.19 +0.00    +0.006 A  
DOCKED: ATOM      5  C   UNL     1     -46.291 -20.592  -1.620 -0.18 +0.00    +0.169 C  
DOCKED: ATOM      6  C   UNL     1     -46.596 -20.851  -5.264 -0.18 -0.00    -0.001 A  
DOCKED: ATOM      7  C   UNL     1     -48.294 -21.345  -3.067 -0.32 +0.00    +0.008 A  
DOCKED: ATOM      8  C   UNL     1     -47.901 -21.304  -5.465 -0.26 +0.00    +0.010 A  
DOCKED: ATOM      9  C   UNL     1     -48.746 -21.549  -4.372 -0.34 +0.00    +0.068 A  
DOCKED: ATOM     10  N   UNL     1     -51.164 -22.385  -4.780 -2.53 -0.00    -0.191 NA 
DOCKED: ATOM     11  C   UNL     1     -50.079 -22.011  -4.597 -0.42 +0.00    +0.101 C  
DOCKED: ENDROOT
DOCKED: BRANCH   2  12
DOCKED: ATOM     12  C   UNL     1     -44.538 -18.728  -3.835 -0.12 +0.00    +0.038 C  
DOCKED: BRANCH  12  13
DOCKED: ATOM     13  C   UNL     1     -44.246 -17.887  -2.594 -0.08 +0.00    +0.038 C  
DOCKED: BRANCH  13  14
DOCKED: ATOM     14  C   UNL     1     -42.782 -18.014  -2.176 -0.00 +0.00    +0.251 C  
DOCKED: BRANCH  14  15
DOCKED: ATOM     15  N   UNL     1     -42.622 -19.097  -1.214 -0.01 +0.00    +0.141 N  
DOCKED: ATOM     16  C   UNL     1     -41.393 -19.847  -1.480 +0.00 +0.00    +0.285 C  
DOCKED: ATOM     17  C   UNL     1     -42.611 -18.576   0.154 -0.01 +0.00    +0.285 C  
DOCKED: ENDBRANCH  14  15
DOCKED: ENDBRANCH  13  14
DOCKED: ENDBRANCH  12  13
DOCKED: ENDBRANCH   2  12
DOCKED: BRANCH   2  18
DOCKED: ATOM     18  C   UNL     1     -43.697 -21.070  -3.878 -0.03 +0.00    +0.006 A  
DOCKED: ATOM     19  C   UNL     1     -42.833 -20.674  -4.898 -0.03 +0.00    +0.001 A  
DOCKED: ATOM     20  C   UNL     1     -41.781 -21.507  -5.281 -0.01 +0.00    +0.029 A  
DOCKED: ATOM     21  C   UNL     1     -41.595 -22.733  -4.644 +0.00 +0.00    +0.140 A  
DOCKED: ATOM     22  C   UNL     1     -42.460 -23.128  -3.624 -0.00 +0.00    +0.029 A  
DOCKED: ATOM     23  F   UNL     1     -40.584 -23.532  -5.011 +0.00 -0.00    -0.204 F  
DOCKED: ATOM     24  C   UNL     1     -43.512 -22.296  -3.240 -0.02 +0.00    +0.001 A  
DOCKED: ENDBRANCH   2  18
DOCKED: TORSDOF 5
DOCKED: TER
DOCKED: ENDMDL
________________________________________________________________________________


    FINAL DOCKED STATE:
    ________________________


Run:   392 / 512
Time taken for this run:   0.001s

DOCKED: MODEL        392
DOCKED: USER    Run = 392
DOCKED: USER
DOCKED: USER    Estimated Free Energy of Binding    =  -4.27 kcal/mol  [=(1)+(2)+(3)-(4)]
DOCKED: USER
DOCKED: USER    (1) Final Intermolecular Energy     =  -5.76 kcal/mol
DOCKED: USER        vdW + Hbond + desolv Energy     =  -5.76 kcal/mol
DOCKED: USER        Electrostatic Energy            =  +0.00 kcal/mol
DOCKED: USER        Moving Ligand-Fixed Receptor    =  -5.76 kcal/mol
DOCKED: USER        Moving Ligand-Moving Receptor   =  +0.00 kcal/mol
DOCKED: USER    (2) Final Total Internal Energy     =  -1.29 kcal/mol
DOCKED: USER    (3) Torsional Free Energy           =  +1.49 kcal/mol
DOCKED: USER    (4) Unbound System's Energy         =  -1.29 kcal/mol
DOCKED: USER
DOCKED: USER
DOCKED: REMARK  5 active torsions:
DOCKED: REMARK  status: ('A' for Active; 'I' for Inactive)
DOCKED: REMARK    1  A    between atoms: C_2  and  C_19 
DOCKED: REMARK    2  A    between atoms: C_2  and  C_11 
DOCKED: REMARK    3  A    between atoms: C_19  and  C_20 
DOCKED: REMARK    4  A    between atoms: C_20  and  C_21 
DOCKED: REMARK    5  A    between atoms: C_21  and  N_22 
DOCKED: USER                              x       y       z     vdW  Elec       q    Type
DOCKED: USER                           _______ _______ _______ _____ _____    ______ ____
DOCKED: ROOT
DOCKED: ATOM      1  O   UNL     1     -52.248 -28.547   7.536 -0.04 -0.00    -0.346 OA 
DOCKED: ATOM      2  C   UNL     1     -53.685 -28.751   7.728 -0.13 +0.00    +0.130 C  
DOCKED: ATOM      3  C   UNL     1     -53.920 -30.148   7.229 -0.21 +0.00    +0.004 A  
DOCKED: ATOM      4  C   UNL     1     -52.708 -30.731   6.885 -0.24 +0.00    +0.006 A  
DOCKED: ATOM      5  C   UNL     1     -51.603 -29.780   7.141 -0.17 +0.00    +0.169 C  
DOCKED: ATOM      6  C   UNL     1     -55.109 -30.850   7.101 -0.21 -0.00    -0.001 A  
DOCKED: ATOM      7  C   UNL     1     -52.644 -32.026   6.400 -0.30 +0.00    +0.008 A  
DOCKED: ATOM      8  C   UNL     1     -55.061 -32.155   6.609 -0.23 +0.00    +0.010 A  
DOCKED: ATOM      9  C   UNL     1     -53.835 -32.740   6.261 -0.23 +0.00    +0.068 A  
DOCKED: ATOM     10  N   UNL     1     -53.781 -35.167   5.355 -2.56 -0.00    -0.191 NA 
DOCKED: ATOM     11  C   UNL     1     -53.805 -34.078   5.760 -0.34 +0.00    +0.101 C  
DOCKED: ENDROOT
DOCKED: BRANCH   2  12
DOCKED: ATOM     12  C   UNL     1     -54.000 -28.590   9.211 -0.04 +0.00    +0.038 C  
DOCKED: BRANCH  12  13
DOCKED: ATOM     13  C   UNL     1     -52.798 -28.047   9.980 -0.02 +0.00    +0.038 C  
DOCKED: BRANCH  13  14
DOCKED: ATOM     14  C   UNL     1     -53.243 -27.134  11.122 -0.00 +0.00    +0.251 C  
DOCKED: BRANCH  14  15
DOCKED: ATOM     15  N   UNL     1     -53.261 -25.744  10.682 -0.00 +0.00    +0.141 N  
DOCKED: ATOM     16  C   UNL     1     -52.114 -25.461   9.819 +0.00 +0.00    +0.285 C  
DOCKED: ATOM     17  C   UNL     1     -54.510 -25.442   9.981 +0.00 +0.00    +0.285 C  
DOCKED: ENDBRANCH  14  15
DOCKED: ENDBRANCH  13  14
DOCKED: ENDBRANCH  12  13
DOCKED: ENDBRANCH   2  12
DOCKED: BRANCH   2  18
DOCKED: ATOM     18  C   UNL     1     -54.386 -27.717   6.913 -0.20 +0.00    +0.006 A  
DOCKED: ATOM     19  C   UNL     1     -55.775 -27.615   6.961 -0.20 +0.00    +0.001 A  
DOCKED: ATOM     20  C   UNL     1     -56.429 -26.647   6.198 -0.18 +0.00    +0.029 A  
DOCKED: ATOM     21  C   UNL     1     -55.694 -25.783   5.388 -0.08 +0.00    +0.140 A  
DOCKED: ATOM     22  C   UNL     1     -54.304 -25.885   5.341 -0.14 +0.00    +0.029 A  
DOCKED: ATOM     23  F   UNL     1     -56.322 -24.853   4.657 -0.03 -0.00    -0.204 F  
DOCKED: ATOM     24  C   UNL     1     -53.648 -26.853   6.104 -0.19 +0.00    +0.001 A  
DOCKED: ENDBRANCH   2  18
DOCKED: TORSDOF 5
DOCKED: TER
DOCKED: ENDMDL
________________________________________________________________________________


    FINAL DOCKED STATE:
    ________________________


Run:   393 / 512
Time taken for this run:   0.001s

DOCKED: MODEL        393
DOCKED: USER    Run = 393
DOCKED: USER
DOCKED: USER    Estimated Free Energy of Binding    =  -5.30 kcal/mol  [=(1)+(2)+(3)-(4)]
DOCKED: USER
DOCKED: USER    (1) Final Intermolecular Energy     =  -6.79 kcal/mol
DOCKED: USER        vdW + Hbond + desolv Energy     =  -6.79 kcal/mol
DOCKED: USER        Electrostatic Energy            =  +0.00 kcal/mol
DOCKED: USER        Moving Ligand-Fixed Receptor    =  -6.79 kcal/mol
DOCKED: USER        Moving Ligand-Moving Receptor   =  +0.00 kcal/mol
DOCKED: USER    (2) Final Total Internal Energy     =  -1.29 kcal/mol
DOCKED: USER    (3) Torsional Free Energy           =  +1.49 kcal/mol
DOCKED: USER    (4) Unbound System's Energy         =  -1.29 kcal/mol
DOCKED: USER
DOCKED: USER
DOCKED: REMARK  5 active torsions:
DOCKED: REMARK  status: ('A' for Active; 'I' for Inactive)
DOCKED: REMARK    1  A    between atoms: C_2  and  C_19 
DOCKED: REMARK    2  A    between atoms: C_2  and  C_11 
DOCKED: REMARK    3  A    between atoms: C_19  and  C_20 
DOCKED: REMARK    4  A    between atoms: C_20  and  C_21 
DOCKED: REMARK    5  A    between atoms: C_21  and  N_22 
DOCKED: USER                              x       y       z     vdW  Elec       q    Type
DOCKED: USER                           _______ _______ _______ _____ _____    ______ ____
DOCKED: ROOT
DOCKED: ATOM      1  O   UNL     1     -55.329 -33.729   8.411 -0.06 -0.00    -0.346 OA 
DOCKED: ATOM      2  C   UNL     1     -54.249 -32.766   8.193 -0.11 +0.00    +0.130 C  
DOCKED: ATOM      3  C   UNL     1     -53.963 -32.873   6.723 -0.24 +0.00    +0.004 A  
DOCKED: ATOM      4  C   UNL     1     -54.872 -33.739   6.132 -0.29 +0.00    +0.006 A  
DOCKED: ATOM      5  C   UNL     1     -55.817 -34.247   7.152 -0.06 +0.00    +0.169 C  
DOCKED: ATOM      6  C   UNL     1     -52.983 -32.246   5.967 -0.32 -0.00    -0.001 A  
DOCKED: ATOM      7  C   UNL     1     -54.832 -34.010   4.775 -0.34 +0.00    +0.008 A  
DOCKED: ATOM      8  C   UNL     1     -52.927 -32.512   4.598 -0.24 +0.00    +0.010 A  
DOCKED: ATOM      9  C   UNL     1     -53.847 -33.389   4.005 -0.31 +0.00    +0.068 A  
DOCKED: ATOM     10  N   UNL     1     -53.718 -33.857   1.460 -2.94 -0.00    -0.191 NA 
DOCKED: ATOM     11  C   UNL     1     -53.776 -33.647   2.602 -0.26 +0.00    +0.101 C  
DOCKED: ENDROOT
DOCKED: BRANCH   2  12
DOCKED: ATOM     12  C   UNL     1     -54.745 -31.384   8.602 -0.11 +0.00    +0.038 C  
DOCKED: BRANCH  12  13
DOCKED: ATOM     13  C   UNL     1     -55.838 -30.884   7.660 -0.20 +0.00    +0.038 C  
DOCKED: BRANCH  13  14
DOCKED: ATOM     14  C   UNL     1     -55.481 -29.516   7.081 -0.15 +0.00    +0.251 C  
DOCKED: BRANCH  14  15
DOCKED: ATOM     15  N   UNL     1     -54.176 -29.084   7.569 -0.13 +0.00    +0.141 N  
DOCKED: ATOM     16  C   UNL     1     -53.353 -28.585   6.467 -0.14 +0.00    +0.285 C  
DOCKED: ATOM     17  C   UNL     1     -54.326 -28.053   8.598 -0.03 +0.00    +0.285 C  
DOCKED: ENDBRANCH  14  15
DOCKED: ENDBRANCH  13  14
DOCKED: ENDBRANCH  12  13
DOCKED: ENDBRANCH   2  12
DOCKED: BRANCH   2  18
DOCKED: ATOM     18  C   UNL     1     -53.100 -33.199   9.042 -0.14 +0.00    +0.006 A  
DOCKED: ATOM     19  C   UNL     1     -52.330 -32.247   9.710 -0.08 +0.00    +0.001 A  
DOCKED: ATOM     20  C   UNL     1     -51.257 -32.653  10.503 -0.10 +0.00    +0.029 A  
DOCKED: ATOM     21  C   UNL     1     -50.955 -34.008  10.628 -0.09 +0.00    +0.140 A  
DOCKED: ATOM     22  C   UNL     1     -51.726 -34.959   9.960 -0.17 +0.00    +0.029 A  
DOCKED: ATOM     23  F   UNL     1     -49.925 -34.398  11.391 -0.03 -0.00    -0.204 F  
DOCKED: ATOM     24  C   UNL     1     -52.800 -34.554   9.166 -0.24 +0.00    +0.001 A  
DOCKED: ENDBRANCH   2  18
DOCKED: TORSDOF 5
DOCKED: TER
DOCKED: ENDMDL
________________________________________________________________________________


    FINAL DOCKED STATE:
    ________________________


Run:   394 / 512
Time taken for this run:   0.001s

DOCKED: MODEL        394
DOCKED: USER    Run = 394
DOCKED: USER
DOCKED: USER    Estimated Free Energy of Binding    =  -4.27 kcal/mol  [=(1)+(2)+(3)-(4)]
DOCKED: USER
DOCKED: USER    (1) Final Intermolecular Energy     =  -5.77 kcal/mol
DOCKED: USER        vdW + Hbond + desolv Energy     =  -5.77 kcal/mol
DOCKED: USER        Electrostatic Energy            =  +0.00 kcal/mol
DOCKED: USER        Moving Ligand-Fixed Receptor    =  -5.77 kcal/mol
DOCKED: USER        Moving Ligand-Moving Receptor   =  +0.00 kcal/mol
DOCKED: USER    (2) Final Total Internal Energy     =  -1.41 kcal/mol
DOCKED: USER    (3) Torsional Free Energy           =  +1.49 kcal/mol
DOCKED: USER    (4) Unbound System's Energy         =  -1.41 kcal/mol
DOCKED: USER
DOCKED: USER
DOCKED: REMARK  5 active torsions:
DOCKED: REMARK  status: ('A' for Active; 'I' for Inactive)
DOCKED: REMARK    1  A    between atoms: C_2  and  C_19 
DOCKED: REMARK    2  A    between atoms: C_2  and  C_11 
DOCKED: REMARK    3  A    between atoms: C_19  and  C_20 
DOCKED: REMARK    4  A    between atoms: C_20  and  C_21 
DOCKED: REMARK    5  A    between atoms: C_21  and  N_22 
DOCKED: USER                              x       y       z     vdW  Elec       q    Type
DOCKED: USER                           _______ _______ _______ _____ _____    ______ ____
DOCKED: ROOT
DOCKED: ATOM      1  O   UNL     1     -47.675 -25.307  -0.152 -0.03 -0.00    -0.346 OA 
DOCKED: ATOM      2  C   UNL     1     -46.694 -25.179  -1.230 -0.08 +0.00    +0.130 C  
DOCKED: ATOM      3  C   UNL     1     -47.432 -24.429  -2.301 -0.17 +0.00    +0.004 A  
DOCKED: ATOM      4  C   UNL     1     -48.687 -24.063  -1.834 -0.27 +0.00    +0.006 A  
DOCKED: ATOM      5  C   UNL     1     -48.859 -24.527  -0.439 -0.20 +0.00    +0.169 C  
DOCKED: ATOM      6  C   UNL     1     -47.022 -24.088  -3.581 -0.14 -0.00    -0.001 A  
DOCKED: ATOM      7  C   UNL     1     -49.571 -23.352  -2.627 -0.35 +0.00    +0.008 A  
DOCKED: ATOM      8  C   UNL     1     -47.904 -23.374  -4.394 -0.23 +0.00    +0.010 A  
DOCKED: ATOM      9  C   UNL     1     -49.172 -23.008  -3.919 -0.25 +0.00    +0.068 A  
DOCKED: ATOM     10  N   UNL     1     -50.783 -21.679  -5.453 -2.52 -0.00    -0.191 NA 
DOCKED: ATOM     11  C   UNL     1     -50.061 -22.276  -4.765 -0.38 +0.00    +0.101 C  
DOCKED: ENDROOT
DOCKED: BRANCH   2  12
DOCKED: ATOM     12  C   UNL     1     -45.487 -24.417  -0.696 -0.06 +0.00    +0.038 C  
DOCKED: BRANCH  12  13
DOCKED: ATOM     13  C   UNL     1     -45.736 -22.910  -0.694 -0.13 +0.00    +0.038 C  
DOCKED: BRANCH  13  14
DOCKED: ATOM     14  C   UNL     1     -44.751 -22.189  -1.612 -0.04 +0.00    +0.251 C  
DOCKED: BRANCH  14  15
DOCKED: ATOM     15  N   UNL     1     -45.317 -20.927  -2.073 -0.07 +0.00    +0.141 N  
DOCKED: ATOM     16  C   UNL     1     -45.479 -20.935  -3.528 -0.04 +0.00    +0.285 C  
DOCKED: ATOM     17  C   UNL     1     -46.602 -20.670  -1.421 -0.13 +0.00    +0.285 C  
DOCKED: ENDBRANCH  14  15
DOCKED: ENDBRANCH  13  14
DOCKED: ENDBRANCH  12  13
DOCKED: ENDBRANCH   2  12
DOCKED: BRANCH   2  18
DOCKED: ATOM     18  C   UNL     1     -46.318 -26.563  -1.644 -0.06 +0.00    +0.006 A  
DOCKED: ATOM     19  C   UNL     1     -47.129 -27.270  -2.530 -0.19 +0.00    +0.001 A  
DOCKED: ATOM     20  C   UNL     1     -46.776 -28.564  -2.915 -0.21 +0.00    +0.029 A  
DOCKED: ATOM     21  C   UNL     1     -45.613 -29.148  -2.415 -0.11 +0.00    +0.140 A  
DOCKED: ATOM     22  C   UNL     1     -44.802 -28.439  -1.530 -0.03 +0.00    +0.029 A  
DOCKED: ATOM     23  F   UNL     1     -45.274 -30.389  -2.787 -0.06 -0.00    -0.204 F  
DOCKED: ATOM     24  C   UNL     1     -45.154 -27.145  -1.143 -0.02 +0.00    +0.001 A  
DOCKED: ENDBRANCH   2  18
DOCKED: TORSDOF 5
DOCKED: TER
DOCKED: ENDMDL
________________________________________________________________________________


    FINAL DOCKED STATE:
    ________________________


Run:   395 / 512
Time taken for this run:   0.001s

DOCKED: MODEL        395
DOCKED: USER    Run = 395
DOCKED: USER
DOCKED: USER    Estimated Free Energy of Binding    =  -4.22 kcal/mol  [=(1)+(2)+(3)-(4)]
DOCKED: USER
DOCKED: USER    (1) Final Intermolecular Energy     =  -5.71 kcal/mol
DOCKED: USER        vdW + Hbond + desolv Energy     =  -5.71 kcal/mol
DOCKED: USER        Electrostatic Energy            =  +0.00 kcal/mol
DOCKED: USER        Moving Ligand-Fixed Receptor    =  -5.71 kcal/mol
DOCKED: USER        Moving Ligand-Moving Receptor   =  +0.00 kcal/mol
DOCKED: USER    (2) Final Total Internal Energy     =  -1.43 kcal/mol
DOCKED: USER    (3) Torsional Free Energy           =  +1.49 kcal/mol
DOCKED: USER    (4) Unbound System's Energy         =  -1.43 kcal/mol
DOCKED: USER
DOCKED: USER
DOCKED: REMARK  5 active torsions:
DOCKED: REMARK  status: ('A' for Active; 'I' for Inactive)
DOCKED: REMARK    1  A    between atoms: C_2  and  C_19 
DOCKED: REMARK    2  A    between atoms: C_2  and  C_11 
DOCKED: REMARK    3  A    between atoms: C_19  and  C_20 
DOCKED: REMARK    4  A    between atoms: C_20  and  C_21 
DOCKED: REMARK    5  A    between atoms: C_21  and  N_22 
DOCKED: USER                              x       y       z     vdW  Elec       q    Type
DOCKED: USER                           _______ _______ _______ _____ _____    ______ ____
DOCKED: ROOT
DOCKED: ATOM      1  O   UNL     1     -49.226 -30.925   8.210 -0.08 -0.00    -0.346 OA 
DOCKED: ATOM      2  C   UNL     1     -50.439 -30.178   7.873 -0.13 +0.00    +0.130 C  
DOCKED: ATOM      3  C   UNL     1     -51.326 -31.204   7.230 -0.23 +0.00    +0.004 A  
DOCKED: ATOM      4  C   UNL     1     -50.720 -32.451   7.293 -0.23 +0.00    +0.006 A  
DOCKED: ATOM      5  C   UNL     1     -49.415 -32.341   7.983 -0.10 +0.00    +0.169 C  
DOCKED: ATOM      6  C   UNL     1     -52.575 -31.049   6.646 -0.27 -0.00    -0.001 A  
DOCKED: ATOM      7  C   UNL     1     -51.334 -33.578   6.775 -0.35 +0.00    +0.008 A  
DOCKED: ATOM      8  C   UNL     1     -53.205 -32.175   6.115 -0.30 +0.00    +0.010 A  
DOCKED: ATOM      9  C   UNL     1     -52.588 -33.433   6.179 -0.31 +0.00    +0.068 A  
DOCKED: ATOM     10  N   UNL     1     -53.789 -35.504   5.188 -2.46 -0.00    -0.191 NA 
DOCKED: ATOM     11  C   UNL     1     -53.250 -34.575   5.632 -0.32 +0.00    +0.101 C  
DOCKED: ENDROOT
DOCKED: BRANCH   2  12
DOCKED: ATOM     12  C   UNL     1     -51.026 -29.607   9.158 -0.05 +0.00    +0.038 C  
DOCKED: BRANCH  12  13
DOCKED: ATOM     13  C   UNL     1     -50.101 -29.849  10.349 -0.02 +0.00    +0.038 C  
DOCKED: BRANCH  13  14
DOCKED: ATOM     14  C   UNL     1     -50.443 -31.161  11.053 -0.02 +0.00    +0.251 C  
DOCKED: BRANCH  14  15
DOCKED: ATOM     15  N   UNL     1     -51.711 -31.686  10.560 -0.03 +0.00    +0.141 N  
DOCKED: ATOM     16  C   UNL     1     -51.683 -33.149  10.520 -0.07 +0.00    +0.285 C  
DOCKED: ATOM     17  C   UNL     1     -52.820 -31.221  11.394 -0.00 +0.00    +0.285 C  
DOCKED: ENDBRANCH  14  15
DOCKED: ENDBRANCH  13  14
DOCKED: ENDBRANCH  12  13
DOCKED: ENDBRANCH   2  12
DOCKED: BRANCH   2  18
DOCKED: ATOM     18  C   UNL     1     -50.034 -29.089   6.936 -0.15 +0.00    +0.006 A  
DOCKED: ATOM     19  C   UNL     1     -48.805 -29.155   6.281 -0.13 +0.00    +0.001 A  
DOCKED: ATOM     20  C   UNL     1     -48.429 -28.136   5.405 -0.12 +0.00    +0.029 A  
DOCKED: ATOM     21  C   UNL     1     -49.281 -27.055   5.185 -0.08 +0.00    +0.140 A  
DOCKED: ATOM     22  C   UNL     1     -50.510 -26.990   5.840 -0.10 +0.00    +0.029 A  
DOCKED: ATOM     23  F   UNL     1     -48.919 -26.078   4.342 -0.01 -0.00    -0.204 F  
DOCKED: ATOM     24  C   UNL     1     -50.888 -28.008   6.717 -0.13 +0.00    +0.001 A  
DOCKED: ENDBRANCH   2  18
DOCKED: TORSDOF 5
DOCKED: TER
DOCKED: ENDMDL
________________________________________________________________________________


    FINAL DOCKED STATE:
    ________________________


Run:   396 / 512
Time taken for this run:   0.001s

DOCKED: MODEL        396
DOCKED: USER    Run = 396
DOCKED: USER
DOCKED: USER    Estimated Free Energy of Binding    =  -4.35 kcal/mol  [=(1)+(2)+(3)-(4)]
DOCKED: USER
DOCKED: USER    (1) Final Intermolecular Energy     =  -5.85 kcal/mol
DOCKED: USER        vdW + Hbond + desolv Energy     =  -5.85 kcal/mol
DOCKED: USER        Electrostatic Energy            =  +0.00 kcal/mol
DOCKED: USER        Moving Ligand-Fixed Receptor    =  -5.85 kcal/mol
DOCKED: USER        Moving Ligand-Moving Receptor   =  +0.00 kcal/mol
DOCKED: USER    (2) Final Total Internal Energy     =  -1.35 kcal/mol
DOCKED: USER    (3) Torsional Free Energy           =  +1.49 kcal/mol
DOCKED: USER    (4) Unbound System's Energy         =  -1.35 kcal/mol
DOCKED: USER
DOCKED: USER
DOCKED: REMARK  5 active torsions:
DOCKED: REMARK  status: ('A' for Active; 'I' for Inactive)
DOCKED: REMARK    1  A    between atoms: C_2  and  C_19 
DOCKED: REMARK    2  A    between atoms: C_2  and  C_11 
DOCKED: REMARK    3  A    between atoms: C_19  and  C_20 
DOCKED: REMARK    4  A    between atoms: C_20  and  C_21 
DOCKED: REMARK    5  A    between atoms: C_21  and  N_22 
DOCKED: USER                              x       y       z     vdW  Elec       q    Type
DOCKED: USER                           _______ _______ _______ _____ _____    ______ ____
DOCKED: ROOT
DOCKED: ATOM      1  O   UNL     1     -51.481 -33.821   9.175 -0.08 -0.00    -0.346 OA 
DOCKED: ATOM      2  C   UNL     1     -51.671 -32.457   8.681 -0.14 +0.00    +0.130 C  
DOCKED: ATOM      3  C   UNL     1     -52.060 -32.646   7.243 -0.26 +0.00    +0.004 A  
DOCKED: ATOM      4  C   UNL     1     -52.189 -34.001   6.969 -0.34 +0.00    +0.006 A  
DOCKED: ATOM      5  C   UNL     1     -51.911 -34.789   8.190 -0.23 +0.00    +0.169 C  
DOCKED: ATOM      6  C   UNL     1     -52.293 -31.696   6.260 -0.31 -0.00    -0.001 A  
DOCKED: ATOM      7  C   UNL     1     -52.548 -34.450   5.709 -0.39 +0.00    +0.008 A  
DOCKED: ATOM      8  C   UNL     1     -52.651 -32.133   4.983 -0.24 +0.00    +0.010 A  
DOCKED: ATOM      9  C   UNL     1     -52.778 -33.503   4.710 -0.39 +0.00    +0.068 A  
DOCKED: ATOM     10  N   UNL     1     -53.450 -34.280   2.332 -1.93 -0.00    -0.191 NA 
DOCKED: ATOM     11  C   UNL     1     -53.148 -33.932   3.398 -0.52 +0.00    +0.101 C  
DOCKED: ENDROOT
DOCKED: BRANCH   2  12
DOCKED: ATOM     12  C   UNL     1     -52.765 -31.792   9.509 -0.08 +0.00    +0.038 C  
DOCKED: BRANCH  12  13
DOCKED: ATOM     13  C   UNL     1     -54.155 -32.207   9.031 -0.10 +0.00    +0.038 C  
DOCKED: BRANCH  13  14
DOCKED: ATOM     14  C   UNL     1     -54.904 -32.974  10.119 -0.03 +0.00    +0.251 C  
DOCKED: BRANCH  14  15
DOCKED: ATOM     15  N   UNL     1     -54.933 -34.398   9.806 -0.12 +0.00    +0.141 N  
DOCKED: ATOM     16  C   UNL     1     -55.664 -35.137  10.836 -0.07 +0.00    +0.285 C  
DOCKED: ATOM     17  C   UNL     1     -55.537 -34.625   8.493 -0.10 +0.00    +0.285 C  
DOCKED: ENDBRANCH  14  15
DOCKED: ENDBRANCH  13  14
DOCKED: ENDBRANCH  12  13
DOCKED: ENDBRANCH   2  12
DOCKED: BRANCH   2  18
DOCKED: ATOM     18  C   UNL     1     -50.368 -31.749   8.842 -0.15 +0.00    +0.006 A  
DOCKED: ATOM     19  C   UNL     1     -49.298 -32.059   8.004 -0.11 +0.00    +0.001 A  
DOCKED: ATOM     20  C   UNL     1     -48.079 -31.396   8.156 -0.09 +0.00    +0.029 A  
DOCKED: ATOM     21  C   UNL     1     -47.933 -30.424   9.145 -0.06 +0.00    +0.140 A  
DOCKED: ATOM     22  C   UNL     1     -49.004 -30.114   9.983 -0.04 +0.00    +0.029 A  
DOCKED: ATOM     23  F   UNL     1     -46.764 -29.787   9.289 -0.00 -0.00    -0.204 F  
DOCKED: ATOM     24  C   UNL     1     -50.223 -30.777   9.832 -0.06 +0.00    +0.001 A  
DOCKED: ENDBRANCH   2  18
DOCKED: TORSDOF 5
DOCKED: TER
DOCKED: ENDMDL
________________________________________________________________________________


    FINAL DOCKED STATE:
    ________________________


Run:   397 / 512
Time taken for this run:   0.001s

DOCKED: MODEL        397
DOCKED: USER    Run = 397
DOCKED: USER
DOCKED: USER    Estimated Free Energy of Binding    =  -3.58 kcal/mol  [=(1)+(2)+(3)-(4)]
DOCKED: USER
DOCKED: USER    (1) Final Intermolecular Energy     =  -5.07 kcal/mol
DOCKED: USER        vdW + Hbond + desolv Energy     =  -5.07 kcal/mol
DOCKED: USER        Electrostatic Energy            =  +0.00 kcal/mol
DOCKED: USER        Moving Ligand-Fixed Receptor    =  -5.07 kcal/mol
DOCKED: USER        Moving Ligand-Moving Receptor   =  +0.00 kcal/mol
DOCKED: USER    (2) Final Total Internal Energy     =  -1.28 kcal/mol
DOCKED: USER    (3) Torsional Free Energy           =  +1.49 kcal/mol
DOCKED: USER    (4) Unbound System's Energy         =  -1.28 kcal/mol
DOCKED: USER
DOCKED: USER
DOCKED: REMARK  5 active torsions:
DOCKED: REMARK  status: ('A' for Active; 'I' for Inactive)
DOCKED: REMARK    1  A    between atoms: C_2  and  C_19 
DOCKED: REMARK    2  A    between atoms: C_2  and  C_11 
DOCKED: REMARK    3  A    between atoms: C_19  and  C_20 
DOCKED: REMARK    4  A    between atoms: C_20  and  C_21 
DOCKED: REMARK    5  A    between atoms: C_21  and  N_22 
DOCKED: USER                              x       y       z     vdW  Elec       q    Type
DOCKED: USER                           _______ _______ _______ _____ _____    ______ ____
DOCKED: ROOT
DOCKED: ATOM      1  O   UNL     1     -42.813 -30.962   0.151 +0.01 -0.00    -0.346 OA 
DOCKED: ATOM      2  C   UNL     1     -44.215 -30.549   0.232 -0.05 +0.00    +0.130 C  
DOCKED: ATOM      3  C   UNL     1     -44.867 -31.644   1.026 -0.11 +0.00    +0.004 A  
DOCKED: ATOM      4  C   UNL     1     -43.905 -32.546   1.456 -0.07 +0.00    +0.006 A  
DOCKED: ATOM      5  C   UNL     1     -42.567 -32.111   0.995 -0.02 +0.00    +0.169 C  
DOCKED: ATOM      6  C   UNL     1     -46.204 -31.820   1.351 -0.25 -0.00    -0.001 A  
DOCKED: ATOM      7  C   UNL     1     -44.242 -33.651   2.218 -0.15 +0.00    +0.008 A  
DOCKED: ATOM      8  C   UNL     1     -46.561 -32.933   2.115 -0.33 +0.00    +0.010 A  
DOCKED: ATOM      9  C   UNL     1     -45.585 -33.843   2.547 -0.28 +0.00    +0.068 A  
DOCKED: ATOM     10  N   UNL     1     -46.282 -35.894   3.968 -2.59 -0.00    -0.191 NA 
DOCKED: ATOM     11  C   UNL     1     -45.969 -34.975   3.330 -0.39 +0.00    +0.101 C  
DOCKED: ENDROOT
DOCKED: BRANCH   2  12
DOCKED: ATOM     12  C   UNL     1     -44.279 -29.193   0.925 -0.03 +0.00    +0.038 C  
DOCKED: BRANCH  12  13
DOCKED: ATOM     13  C   UNL     1     -44.872 -29.313   2.328 -0.05 +0.00    +0.038 C  
DOCKED: BRANCH  13  14
DOCKED: ATOM     14  C   UNL     1     -43.844 -28.935   3.392 -0.01 +0.00    +0.251 C  
DOCKED: BRANCH  14  15
DOCKED: ATOM     15  N   UNL     1     -43.685 -30.021   4.352 -0.02 +0.00    +0.141 N  
DOCKED: ATOM     16  C   UNL     1     -43.292 -29.500   5.662 -0.01 +0.00    +0.285 C  
DOCKED: ATOM     17  C   UNL     1     -44.922 -30.796   4.464 -0.07 +0.00    +0.285 C  
DOCKED: ENDBRANCH  14  15
DOCKED: ENDBRANCH  13  14
DOCKED: ENDBRANCH  12  13
DOCKED: ENDBRANCH   2  12
DOCKED: BRANCH   2  18
DOCKED: ATOM     18  C   UNL     1     -44.725 -30.463  -1.168 -0.10 +0.00    +0.006 A  
DOCKED: ATOM     19  C   UNL     1     -45.020 -29.220  -1.727 -0.07 +0.00    +0.001 A  
DOCKED: ATOM     20  C   UNL     1     -45.498 -29.141  -3.036 -0.11 +0.00    +0.029 A  
DOCKED: ATOM     21  C   UNL     1     -45.679 -30.304  -3.783 -0.17 +0.00    +0.140 A  
DOCKED: ATOM     22  C   UNL     1     -45.384 -31.546  -3.224 -0.07 +0.00    +0.029 A  
DOCKED: ATOM     23  F   UNL     1     -46.136 -30.227  -5.040 -0.06 -0.00    -0.204 F  
DOCKED: ATOM     24  C   UNL     1     -44.907 -31.627  -1.914 -0.08 +0.00    +0.001 A  
DOCKED: ENDBRANCH   2  18
DOCKED: TORSDOF 5
DOCKED: TER
DOCKED: ENDMDL
________________________________________________________________________________


    FINAL DOCKED STATE:
    ________________________


Run:   398 / 512
Time taken for this run:   0.001s

DOCKED: MODEL        398
DOCKED: USER    Run = 398
DOCKED: USER
DOCKED: USER    Estimated Free Energy of Binding    =  -4.28 kcal/mol  [=(1)+(2)+(3)-(4)]
DOCKED: USER
DOCKED: USER    (1) Final Intermolecular Energy     =  -5.78 kcal/mol
DOCKED: USER        vdW + Hbond + desolv Energy     =  -5.78 kcal/mol
DOCKED: USER        Electrostatic Energy            =  +0.00 kcal/mol
DOCKED: USER        Moving Ligand-Fixed Receptor    =  -5.78 kcal/mol
DOCKED: USER        Moving Ligand-Moving Receptor   =  +0.00 kcal/mol
DOCKED: USER    (2) Final Total Internal Energy     =  -1.22 kcal/mol
DOCKED: USER    (3) Torsional Free Energy           =  +1.49 kcal/mol
DOCKED: USER    (4) Unbound System's Energy         =  -1.22 kcal/mol
DOCKED: USER
DOCKED: USER
DOCKED: REMARK  5 active torsions:
DOCKED: REMARK  status: ('A' for Active; 'I' for Inactive)
DOCKED: REMARK    1  A    between atoms: C_2  and  C_19 
DOCKED: REMARK    2  A    between atoms: C_2  and  C_11 
DOCKED: REMARK    3  A    between atoms: C_19  and  C_20 
DOCKED: REMARK    4  A    between atoms: C_20  and  C_21 
DOCKED: REMARK    5  A    between atoms: C_21  and  N_22 
DOCKED: USER                              x       y       z     vdW  Elec       q    Type
DOCKED: USER                           _______ _______ _______ _____ _____    ______ ____
DOCKED: ROOT
DOCKED: ATOM      1  O   UNL     1     -51.672 -28.630   7.287 -0.05 -0.00    -0.346 OA 
DOCKED: ATOM      2  C   UNL     1     -53.117 -28.708   7.506 -0.15 +0.00    +0.130 C  
DOCKED: ATOM      3  C   UNL     1     -53.475 -30.095   7.057 -0.22 +0.00    +0.004 A  
DOCKED: ATOM      4  C   UNL     1     -52.321 -30.787   6.715 -0.26 +0.00    +0.006 A  
DOCKED: ATOM      5  C   UNL     1     -51.137 -29.924   6.923 -0.18 +0.00    +0.169 C  
DOCKED: ATOM      6  C   UNL     1     -54.720 -30.699   6.968 -0.22 -0.00    -0.001 A  
DOCKED: ATOM      7  C   UNL     1     -52.372 -32.097   6.272 -0.32 +0.00    +0.008 A  
DOCKED: ATOM      8  C   UNL     1     -54.788 -32.019   6.519 -0.23 +0.00    +0.010 A  
DOCKED: ATOM      9  C   UNL     1     -53.620 -32.714   6.173 -0.24 +0.00    +0.068 A  
DOCKED: ATOM     10  N   UNL     1     -53.782 -35.165   5.347 -2.56 -0.00    -0.191 NA 
DOCKED: ATOM     11  C   UNL     1     -53.709 -34.066   5.717 -0.35 +0.00    +0.101 C  
DOCKED: ENDROOT
DOCKED: BRANCH   2  12
DOCKED: ATOM     12  C   UNL     1     -53.393 -28.474   8.987 -0.05 +0.00    +0.038 C  
DOCKED: BRANCH  12  13
DOCKED: ATOM     13  C   UNL     1     -53.202 -27.006   9.364 -0.02 +0.00    +0.038 C  
DOCKED: BRANCH  13  14
DOCKED: ATOM     14  C   UNL     1     -51.726 -26.687   9.596 -0.00 +0.00    +0.251 C  
DOCKED: BRANCH  14  15
DOCKED: ATOM     15  N   UNL     1     -51.282 -27.240  10.870 -0.00 +0.00    +0.141 N  
DOCKED: ATOM     16  C   UNL     1     -50.531 -28.479  10.660 -0.00 +0.00    +0.285 C  
DOCKED: ATOM     17  C   UNL     1     -50.463 -26.268  11.597 +0.00 +0.00    +0.285 C  
DOCKED: ENDBRANCH  14  15
DOCKED: ENDBRANCH  13  14
DOCKED: ENDBRANCH  12  13
DOCKED: ENDBRANCH   2  12
DOCKED: BRANCH   2  18
DOCKED: ATOM     18  C   UNL     1     -53.744 -27.645   6.667 -0.20 +0.00    +0.006 A  
DOCKED: ATOM     19  C   UNL     1     -55.128 -27.480   6.671 -0.21 +0.00    +0.001 A  
DOCKED: ATOM     20  C   UNL     1     -55.713 -26.486   5.885 -0.12 +0.00    +0.029 A  
DOCKED: ATOM     21  C   UNL     1     -54.913 -25.658   5.098 -0.06 +0.00    +0.140 A  
DOCKED: ATOM     22  C   UNL     1     -53.528 -25.824   5.095 -0.14 +0.00    +0.029 A  
DOCKED: ATOM     23  F   UNL     1     -55.474 -24.703   4.346 -0.03 -0.00    -0.204 F  
DOCKED: ATOM     24  C   UNL     1     -52.942 -26.818   5.880 -0.16 +0.00    +0.001 A  
DOCKED: ENDBRANCH   2  18
DOCKED: TORSDOF 5
DOCKED: TER
DOCKED: ENDMDL
________________________________________________________________________________


    FINAL DOCKED STATE:
    ________________________


Run:   399 / 512
Time taken for this run:   0.001s

DOCKED: MODEL        399
DOCKED: USER    Run = 399
DOCKED: USER
DOCKED: USER    Estimated Free Energy of Binding    =  -3.88 kcal/mol  [=(1)+(2)+(3)-(4)]
DOCKED: USER
DOCKED: USER    (1) Final Intermolecular Energy     =  -5.37 kcal/mol
DOCKED: USER        vdW + Hbond + desolv Energy     =  -5.37 kcal/mol
DOCKED: USER        Electrostatic Energy            =  +0.00 kcal/mol
DOCKED: USER        Moving Ligand-Fixed Receptor    =  -5.37 kcal/mol
DOCKED: USER        Moving Ligand-Moving Receptor   =  +0.00 kcal/mol
DOCKED: USER    (2) Final Total Internal Energy     =  -1.31 kcal/mol
DOCKED: USER    (3) Torsional Free Energy           =  +1.49 kcal/mol
DOCKED: USER    (4) Unbound System's Energy         =  -1.31 kcal/mol
DOCKED: USER
DOCKED: USER
DOCKED: REMARK  5 active torsions:
DOCKED: REMARK  status: ('A' for Active; 'I' for Inactive)
DOCKED: REMARK    1  A    between atoms: C_2  and  C_19 
DOCKED: REMARK    2  A    between atoms: C_2  and  C_11 
DOCKED: REMARK    3  A    between atoms: C_19  and  C_20 
DOCKED: REMARK    4  A    between atoms: C_20  and  C_21 
DOCKED: REMARK    5  A    between atoms: C_21  and  N_22 
DOCKED: USER                              x       y       z     vdW  Elec       q    Type
DOCKED: USER                           _______ _______ _______ _____ _____    ______ ____
DOCKED: ROOT
DOCKED: ATOM      1  O   UNL     1     -45.334 -21.282  -0.860 -0.06 -0.00    -0.346 OA 
DOCKED: ATOM      2  C   UNL     1     -45.487 -22.728  -1.028 -0.10 +0.00    +0.130 C  
DOCKED: ATOM      3  C   UNL     1     -46.743 -22.865  -1.839 -0.15 +0.00    +0.004 A  
DOCKED: ATOM      4  C   UNL     1     -47.207 -21.608  -2.197 -0.21 +0.00    +0.006 A  
DOCKED: ATOM      5  C   UNL     1     -46.297 -20.567  -1.668 -0.18 +0.00    +0.169 C  
DOCKED: ATOM      6  C   UNL     1     -47.415 -24.012  -2.237 -0.17 -0.00    -0.001 A  
DOCKED: ATOM      7  C   UNL     1     -48.353 -21.452  -2.957 -0.32 +0.00    +0.008 A  
DOCKED: ATOM      8  C   UNL     1     -48.575 -23.872  -3.000 -0.24 +0.00    +0.010 A  
DOCKED: ATOM      9  C   UNL     1     -49.041 -22.598  -3.359 -0.33 +0.00    +0.068 A  
DOCKED: ATOM     10  N   UNL     1     -51.195 -22.373  -4.781 -2.51 -0.00    -0.191 NA 
DOCKED: ATOM     11  C   UNL     1     -50.230 -22.474  -4.143 -0.39 +0.00    +0.101 C  
DOCKED: ENDROOT
DOCKED: BRANCH   2  12
DOCKED: ATOM     12  C   UNL     1     -44.254 -23.263  -1.747 -0.03 +0.00    +0.038 C  
DOCKED: BRANCH  12  13
DOCKED: ATOM     13  C   UNL     1     -44.306 -22.956  -3.243 -0.03 +0.00    +0.038 C  
DOCKED: BRANCH  13  14
DOCKED: ATOM     14  C   UNL     1     -44.674 -24.202  -4.047 -0.00 +0.00    +0.251 C  
DOCKED: BRANCH  14  15
DOCKED: ATOM     15  N   UNL     1     -45.683 -23.878  -5.049 -0.04 +0.00    +0.141 N  
DOCKED: ATOM     16  C   UNL     1     -45.053 -23.374  -6.271 -0.00 +0.00    +0.285 C  
DOCKED: ATOM     17  C   UNL     1     -46.506 -25.051  -5.349 -0.11 +0.00    +0.285 C  
DOCKED: ENDBRANCH  14  15
DOCKED: ENDBRANCH  13  14
DOCKED: ENDBRANCH  12  13
DOCKED: ENDBRANCH   2  12
DOCKED: BRANCH   2  18
DOCKED: ATOM     18  C   UNL     1     -45.610 -23.316   0.339 -0.12 +0.00    +0.006 A  
DOCKED: ATOM     19  C   UNL     1     -46.871 -23.567   0.878 -0.07 +0.00    +0.001 A  
DOCKED: ATOM     20  C   UNL     1     -46.984 -24.116   2.156 -0.12 +0.00    +0.029 A  
DOCKED: ATOM     21  C   UNL     1     -45.838 -24.413   2.891 -0.06 +0.00    +0.140 A  
DOCKED: ATOM     22  C   UNL     1     -44.577 -24.161   2.351 -0.05 +0.00    +0.029 A  
DOCKED: ATOM     23  F   UNL     1     -45.947 -24.942   4.117 -0.01 -0.00    -0.204 F  
DOCKED: ATOM     24  C   UNL     1     -44.462 -23.612   1.073 -0.07 +0.00    +0.001 A  
DOCKED: ENDBRANCH   2  18
DOCKED: TORSDOF 5
DOCKED: TER
DOCKED: ENDMDL
________________________________________________________________________________


    FINAL DOCKED STATE:
    ________________________


Run:   400 / 512
Time taken for this run:   0.001s

DOCKED: MODEL        400
DOCKED: USER    Run = 400
DOCKED: USER
DOCKED: USER    Estimated Free Energy of Binding    =  -3.38 kcal/mol  [=(1)+(2)+(3)-(4)]
DOCKED: USER
DOCKED: USER    (1) Final Intermolecular Energy     =  -4.88 kcal/mol
DOCKED: USER        vdW + Hbond + desolv Energy     =  -4.88 kcal/mol
DOCKED: USER        Electrostatic Energy            =  +0.00 kcal/mol
DOCKED: USER        Moving Ligand-Fixed Receptor    =  -4.88 kcal/mol
DOCKED: USER        Moving Ligand-Moving Receptor   =  +0.00 kcal/mol
DOCKED: USER    (2) Final Total Internal Energy     =  -1.57 kcal/mol
DOCKED: USER    (3) Torsional Free Energy           =  +1.49 kcal/mol
DOCKED: USER    (4) Unbound System's Energy         =  -1.57 kcal/mol
DOCKED: USER
DOCKED: USER
DOCKED: REMARK  5 active torsions:
DOCKED: REMARK  status: ('A' for Active; 'I' for Inactive)
DOCKED: REMARK    1  A    between atoms: C_2  and  C_19 
DOCKED: REMARK    2  A    between atoms: C_2  and  C_11 
DOCKED: REMARK    3  A    between atoms: C_19  and  C_20 
DOCKED: REMARK    4  A    between atoms: C_20  and  C_21 
DOCKED: REMARK    5  A    between atoms: C_21  and  N_22 
DOCKED: USER                              x       y       z     vdW  Elec       q    Type
DOCKED: USER                           _______ _______ _______ _____ _____    ______ ____
DOCKED: ROOT
DOCKED: ATOM      1  O   UNL     1     -45.269 -24.172  -1.676 +0.00 -0.00    -0.346 OA 
DOCKED: ATOM      2  C   UNL     1     -45.519 -22.780  -1.299 -0.09 +0.00    +0.130 C  
DOCKED: ATOM      3  C   UNL     1     -46.735 -22.405  -2.095 -0.16 +0.00    +0.004 A  
DOCKED: ATOM      4  C   UNL     1     -47.205 -23.515  -2.782 -0.16 +0.00    +0.006 A  
DOCKED: ATOM      5  C   UNL     1     -46.353 -24.688  -2.483 -0.06 +0.00    +0.169 C  
DOCKED: ATOM      6  C   UNL     1     -47.381 -21.181  -2.195 -0.24 -0.00    -0.001 A  
DOCKED: ATOM      7  C   UNL     1     -48.326 -23.441  -3.591 -0.25 +0.00    +0.008 A  
DOCKED: ATOM      8  C   UNL     1     -48.510 -21.089  -3.010 -0.25 +0.00    +0.010 A  
DOCKED: ATOM      9  C   UNL     1     -48.981 -22.214  -3.704 -0.35 +0.00    +0.068 A  
DOCKED: ATOM     10  N   UNL     1     -51.083 -22.010  -5.204 -2.56 -0.00    -0.191 NA 
DOCKED: ATOM     11  C   UNL     1     -50.140 -22.101  -4.532 -0.39 +0.00    +0.101 C  
DOCKED: ENDROOT
DOCKED: BRANCH   2  12
DOCKED: ATOM     12  C   UNL     1     -45.754 -22.723   0.206 -0.12 +0.00    +0.038 C  
DOCKED: BRANCH  12  13
DOCKED: ATOM     13  C   UNL     1     -45.259 -23.992   0.896 -0.09 +0.00    +0.038 C  
DOCKED: BRANCH  13  14
DOCKED: ATOM     14  C   UNL     1     -43.737 -23.989   1.026 -0.02 +0.00    +0.251 C  
DOCKED: BRANCH  14  15
DOCKED: ATOM     15  N   UNL     1     -43.185 -25.254   0.556 -0.00 +0.00    +0.141 N  
DOCKED: ATOM     16  C   UNL     1     -44.257 -26.202   0.248 -0.00 +0.00    +0.285 C  
DOCKED: ATOM     17  C   UNL     1     -42.341 -25.043  -0.622 +0.00 +0.00    +0.285 C  
DOCKED: ENDBRANCH  14  15
DOCKED: ENDBRANCH  13  14
DOCKED: ENDBRANCH  12  13
DOCKED: ENDBRANCH   2  12
DOCKED: BRANCH   2  18
DOCKED: ATOM     18  C   UNL     1     -44.307 -21.999  -1.684 -0.04 +0.00    +0.006 A  
DOCKED: ATOM     19  C   UNL     1     -43.843 -20.978  -0.855 -0.05 +0.00    +0.001 A  
DOCKED: ATOM     20  C   UNL     1     -42.711 -20.248  -1.217 -0.01 +0.00    +0.029 A  
DOCKED: ATOM     21  C   UNL     1     -42.043 -20.540  -2.406 -0.00 +0.00    +0.140 A  
DOCKED: ATOM     22  C   UNL     1     -42.508 -21.562  -3.234 -0.01 +0.00    +0.029 A  
DOCKED: ATOM     23  F   UNL     1     -40.955 -19.841  -2.752 +0.00 -0.00    -0.204 F  
DOCKED: ATOM     24  C   UNL     1     -43.641 -22.292  -2.874 -0.02 +0.00    +0.001 A  
DOCKED: ENDBRANCH   2  18
DOCKED: TORSDOF 5
DOCKED: TER
DOCKED: ENDMDL
________________________________________________________________________________


    FINAL DOCKED STATE:
    ________________________


Run:   401 / 512
Time taken for this run:   0.001s

DOCKED: MODEL        401
DOCKED: USER    Run = 401
DOCKED: USER
DOCKED: USER    Estimated Free Energy of Binding    =  -3.90 kcal/mol  [=(1)+(2)+(3)-(4)]
DOCKED: USER
DOCKED: USER    (1) Final Intermolecular Energy     =  -5.39 kcal/mol
DOCKED: USER        vdW + Hbond + desolv Energy     =  -5.39 kcal/mol
DOCKED: USER        Electrostatic Energy            =  +0.00 kcal/mol
DOCKED: USER        Moving Ligand-Fixed Receptor    =  -5.39 kcal/mol
DOCKED: USER        Moving Ligand-Moving Receptor   =  +0.00 kcal/mol
DOCKED: USER    (2) Final Total Internal Energy     =  -1.30 kcal/mol
DOCKED: USER    (3) Torsional Free Energy           =  +1.49 kcal/mol
DOCKED: USER    (4) Unbound System's Energy         =  -1.30 kcal/mol
DOCKED: USER
DOCKED: USER
DOCKED: REMARK  5 active torsions:
DOCKED: REMARK  status: ('A' for Active; 'I' for Inactive)
DOCKED: REMARK    1  A    between atoms: C_2  and  C_19 
DOCKED: REMARK    2  A    between atoms: C_2  and  C_11 
DOCKED: REMARK    3  A    between atoms: C_19  and  C_20 
DOCKED: REMARK    4  A    between atoms: C_20  and  C_21 
DOCKED: REMARK    5  A    between atoms: C_21  and  N_22 
DOCKED: USER                              x       y       z     vdW  Elec       q    Type
DOCKED: USER                           _______ _______ _______ _____ _____    ______ ____
DOCKED: ROOT
DOCKED: ATOM      1  O   UNL     1     -47.451 -25.163   0.333 -0.03 -0.00    -0.346 OA 
DOCKED: ATOM      2  C   UNL     1     -48.840 -25.295  -0.109 -0.21 +0.00    +0.130 C  
DOCKED: ATOM      3  C   UNL     1     -48.967 -24.276  -1.205 -0.28 +0.00    +0.004 A  
DOCKED: ATOM      4  C   UNL     1     -47.732 -23.691  -1.444 -0.18 +0.00    +0.006 A  
DOCKED: ATOM      5  C   UNL     1     -46.714 -24.282  -0.546 -0.10 +0.00    +0.169 C  
DOCKED: ATOM      6  C   UNL     1     -50.084 -23.905  -1.939 -0.30 -0.00    -0.001 A  
DOCKED: ATOM      7  C   UNL     1     -47.571 -22.718  -2.415 -0.20 +0.00    +0.008 A  
DOCKED: ATOM      8  C   UNL     1     -49.939 -22.922  -2.919 -0.42 +0.00    +0.010 A  
DOCKED: ATOM      9  C   UNL     1     -48.689 -22.332  -3.156 -0.30 +0.00    +0.068 A  
DOCKED: ATOM     10  N   UNL     1     -48.454 -20.514  -4.987 -0.83 -0.00    -0.191 NA 
DOCKED: ATOM     11  C   UNL     1     -48.560 -21.329  -4.165 -0.34 +0.00    +0.101 C  
DOCKED: ENDROOT
DOCKED: BRANCH   2  12
DOCKED: ATOM     12  C   UNL     1     -49.057 -26.722  -0.598 -0.16 +0.00    +0.038 C  
DOCKED: BRANCH  12  13
DOCKED: ATOM     13  C   UNL     1     -47.731 -27.461  -0.767 -0.19 +0.00    +0.038 C  
DOCKED: BRANCH  13  14
DOCKED: ATOM     14  C   UNL     1     -47.739 -28.785  -0.005 -0.15 +0.00    +0.251 C  
DOCKED: BRANCH  14  15
DOCKED: ATOM     15  N   UNL     1     -47.882 -28.546   1.426 -0.14 +0.00    +0.141 N  
DOCKED: ATOM     16  C   UNL     1     -48.900 -29.428   1.998 -0.18 +0.00    +0.285 C  
DOCKED: ATOM     17  C   UNL     1     -46.602 -28.738   2.111 -0.05 +0.00    +0.285 C  
DOCKED: ENDBRANCH  14  15
DOCKED: ENDBRANCH  13  14
DOCKED: ENDBRANCH  12  13
DOCKED: ENDBRANCH   2  12
DOCKED: BRANCH   2  18
DOCKED: ATOM     18  C   UNL     1     -49.704 -24.992   1.069 -0.25 +0.00    +0.006 A  
DOCKED: ATOM     19  C   UNL     1     -50.934 -25.632   1.214 -0.29 +0.00    +0.001 A  
DOCKED: ATOM     20  C   UNL     1     -51.741 -25.347   2.316 -0.25 +0.00    +0.029 A  
DOCKED: ATOM     21  C   UNL     1     -51.316 -24.426   3.272 -0.14 +0.00    +0.140 A  
DOCKED: ATOM     22  C   UNL     1     -50.085 -23.787   3.127 -0.21 +0.00    +0.029 A  
DOCKED: ATOM     23  F   UNL     1     -52.090 -24.155   4.331 -0.01 -0.00    -0.204 F  
DOCKED: ATOM     24  C   UNL     1     -49.277 -24.070   2.025 -0.19 +0.00    +0.001 A  
DOCKED: ENDBRANCH   2  18
DOCKED: TORSDOF 5
DOCKED: TER
DOCKED: ENDMDL
________________________________________________________________________________


    FINAL DOCKED STATE:
    ________________________


Run:   402 / 512
Time taken for this run:   0.001s

DOCKED: MODEL        402
DOCKED: USER    Run = 402
DOCKED: USER
DOCKED: USER    Estimated Free Energy of Binding    =  -3.73 kcal/mol  [=(1)+(2)+(3)-(4)]
DOCKED: USER
DOCKED: USER    (1) Final Intermolecular Energy     =  -5.22 kcal/mol
DOCKED: USER        vdW + Hbond + desolv Energy     =  -5.22 kcal/mol
DOCKED: USER        Electrostatic Energy            =  +0.00 kcal/mol
DOCKED: USER        Moving Ligand-Fixed Receptor    =  -5.22 kcal/mol
DOCKED: USER        Moving Ligand-Moving Receptor   =  +0.00 kcal/mol
DOCKED: USER    (2) Final Total Internal Energy     =  -1.56 kcal/mol
DOCKED: USER    (3) Torsional Free Energy           =  +1.49 kcal/mol
DOCKED: USER    (4) Unbound System's Energy         =  -1.56 kcal/mol
DOCKED: USER
DOCKED: USER
DOCKED: REMARK  5 active torsions:
DOCKED: REMARK  status: ('A' for Active; 'I' for Inactive)
DOCKED: REMARK    1  A    between atoms: C_2  and  C_19 
DOCKED: REMARK    2  A    between atoms: C_2  and  C_11 
DOCKED: REMARK    3  A    between atoms: C_19  and  C_20 
DOCKED: REMARK    4  A    between atoms: C_20  and  C_21 
DOCKED: REMARK    5  A    between atoms: C_21  and  N_22 
DOCKED: USER                              x       y       z     vdW  Elec       q    Type
DOCKED: USER                           _______ _______ _______ _____ _____    ______ ____
DOCKED: ROOT
DOCKED: ATOM      1  O   UNL     1     -49.663 -31.865  10.159 -0.04 -0.00    -0.346 OA 
DOCKED: ATOM      2  C   UNL     1     -50.013 -30.878   9.137 -0.08 +0.00    +0.130 C  
DOCKED: ATOM      3  C   UNL     1     -50.854 -31.652   8.163 -0.18 +0.00    +0.004 A  
DOCKED: ATOM      4  C   UNL     1     -51.060 -32.938   8.643 -0.21 +0.00    +0.006 A  
DOCKED: ATOM      5  C   UNL     1     -50.390 -33.099   9.953 -0.09 +0.00    +0.169 C  
DOCKED: ATOM      6  C   UNL     1     -51.404 -31.247   6.956 -0.26 -0.00    -0.001 A  
DOCKED: ATOM      7  C   UNL     1     -51.812 -33.859   7.935 -0.29 +0.00    +0.008 A  
DOCKED: ATOM      8  C   UNL     1     -52.162 -32.166   6.228 -0.33 +0.00    +0.010 A  
DOCKED: ATOM      9  C   UNL     1     -52.365 -33.465   6.716 -0.28 +0.00    +0.068 A  
DOCKED: ATOM     10  N   UNL     1     -53.782 -35.145   5.342 -2.56 -0.00    -0.191 NA 
DOCKED: ATOM     11  C   UNL     1     -53.146 -34.392   5.958 -0.32 +0.00    +0.101 C  
DOCKED: ENDROOT
DOCKED: BRANCH   2  12
DOCKED: ATOM     12  C   UNL     1     -50.775 -29.740   9.805 -0.03 +0.00    +0.038 C  
DOCKED: BRANCH  12  13
DOCKED: ATOM     13  C   UNL     1     -50.503 -29.695  11.308 -0.01 +0.00    +0.038 C  
DOCKED: BRANCH  13  14
DOCKED: ATOM     14  C   UNL     1     -49.074 -29.237  11.594 -0.00 +0.00    +0.251 C  
DOCKED: BRANCH  14  15
DOCKED: ATOM     15  N   UNL     1     -48.436 -30.134  12.550 -0.00 +0.00    +0.141 N  
DOCKED: ATOM     16  C   UNL     1     -49.394 -31.121  13.051 -0.00 +0.00    +0.285 C  
DOCKED: ATOM     17  C   UNL     1     -47.288 -30.806  11.939 -0.01 +0.00    +0.285 C  
DOCKED: ENDBRANCH  14  15
DOCKED: ENDBRANCH  13  14
DOCKED: ENDBRANCH  12  13
DOCKED: ENDBRANCH   2  12
DOCKED: BRANCH   2  18
DOCKED: ATOM     18  C   UNL     1     -48.733 -30.393   8.542 -0.11 +0.00    +0.006 A  
DOCKED: ATOM     19  C   UNL     1     -47.615 -31.226   8.521 -0.13 +0.00    +0.001 A  
DOCKED: ATOM     20  C   UNL     1     -46.419 -30.771   7.965 -0.10 +0.00    +0.029 A  
DOCKED: ATOM     21  C   UNL     1     -46.343 -29.486   7.430 -0.06 +0.00    +0.140 A  
DOCKED: ATOM     22  C   UNL     1     -47.461 -28.654   7.451 -0.06 +0.00    +0.029 A  
DOCKED: ATOM     23  F   UNL     1     -45.195 -29.050   6.895 -0.00 -0.00    -0.204 F  
DOCKED: ATOM     24  C   UNL     1     -48.658 -29.107   8.008 -0.08 +0.00    +0.001 A  
DOCKED: ENDBRANCH   2  18
DOCKED: TORSDOF 5
DOCKED: TER
DOCKED: ENDMDL
________________________________________________________________________________


    FINAL DOCKED STATE:
    ________________________


Run:   403 / 512
Time taken for this run:   0.001s

DOCKED: MODEL        403
DOCKED: USER    Run = 403
DOCKED: USER
DOCKED: USER    Estimated Free Energy of Binding    =  -4.08 kcal/mol  [=(1)+(2)+(3)-(4)]
DOCKED: USER
DOCKED: USER    (1) Final Intermolecular Energy     =  -5.57 kcal/mol
DOCKED: USER        vdW + Hbond + desolv Energy     =  -5.57 kcal/mol
DOCKED: USER        Electrostatic Energy            =  +0.00 kcal/mol
DOCKED: USER        Moving Ligand-Fixed Receptor    =  -5.57 kcal/mol
DOCKED: USER        Moving Ligand-Moving Receptor   =  +0.00 kcal/mol
DOCKED: USER    (2) Final Total Internal Energy     =  -1.26 kcal/mol
DOCKED: USER    (3) Torsional Free Energy           =  +1.49 kcal/mol
DOCKED: USER    (4) Unbound System's Energy         =  -1.26 kcal/mol
DOCKED: USER
DOCKED: USER
DOCKED: REMARK  5 active torsions:
DOCKED: REMARK  status: ('A' for Active; 'I' for Inactive)
DOCKED: REMARK    1  A    between atoms: C_2  and  C_19 
DOCKED: REMARK    2  A    between atoms: C_2  and  C_11 
DOCKED: REMARK    3  A    between atoms: C_19  and  C_20 
DOCKED: REMARK    4  A    between atoms: C_20  and  C_21 
DOCKED: REMARK    5  A    between atoms: C_21  and  N_22 
DOCKED: USER                              x       y       z     vdW  Elec       q    Type
DOCKED: USER                           _______ _______ _______ _____ _____    ______ ____
DOCKED: ROOT
DOCKED: ATOM      1  O   UNL     1     -46.754 -28.580   1.748 -0.00 -0.00    -0.346 OA 
DOCKED: ATOM      2  C   UNL     1     -47.087 -29.746   0.929 -0.20 +0.00    +0.130 C  
DOCKED: ATOM      3  C   UNL     1     -46.597 -30.909   1.743 -0.24 +0.00    +0.004 A  
DOCKED: ATOM      4  C   UNL     1     -46.127 -30.456   2.968 -0.16 +0.00    +0.006 A  
DOCKED: ATOM      5  C   UNL     1     -46.282 -28.987   3.054 -0.08 +0.00    +0.169 C  
DOCKED: ATOM      6  C   UNL     1     -46.580 -32.260   1.429 -0.29 -0.00    -0.001 A  
DOCKED: ATOM      7  C   UNL     1     -45.622 -31.332   3.914 -0.15 +0.00    +0.008 A  
DOCKED: ATOM      8  C   UNL     1     -46.070 -33.155   2.371 -0.31 +0.00    +0.010 A  
DOCKED: ATOM      9  C   UNL     1     -45.594 -32.693   3.607 -0.18 +0.00    +0.068 A  
DOCKED: ATOM     10  N   UNL     1     -44.659 -34.382   5.335 -1.95 -0.00    -0.191 NA 
DOCKED: ATOM     11  C   UNL     1     -45.078 -33.624   4.560 -0.23 +0.00    +0.101 C  
DOCKED: ENDROOT
DOCKED: BRANCH   2  12
DOCKED: ATOM     12  C   UNL     1     -48.595 -29.768   0.711 -0.22 +0.00    +0.038 C  
DOCKED: BRANCH  12  13
DOCKED: ATOM     13  C   UNL     1     -49.270 -28.563   1.364 -0.25 +0.00    +0.038 C  
DOCKED: BRANCH  13  14
DOCKED: ATOM     14  C   UNL     1     -49.226 -27.343   0.446 -0.15 +0.00    +0.251 C  
DOCKED: BRANCH  14  15
DOCKED: ATOM     15  N   UNL     1     -49.064 -26.124   1.229 -0.12 +0.00    +0.141 N  
DOCKED: ATOM     16  C   UNL     1     -50.100 -25.149   0.886 -0.19 +0.00    +0.285 C  
DOCKED: ATOM     17  C   UNL     1     -49.102 -26.423   2.661 -0.07 +0.00    +0.285 C  
DOCKED: ENDBRANCH  14  15
DOCKED: ENDBRANCH  13  14
DOCKED: ENDBRANCH  12  13
DOCKED: ENDBRANCH   2  12
DOCKED: BRANCH   2  18
DOCKED: ATOM     18  C   UNL     1     -46.358 -29.593  -0.364 -0.16 +0.00    +0.006 A  
DOCKED: ATOM     19  C   UNL     1     -46.943 -28.889  -1.415 -0.20 +0.00    +0.001 A  
DOCKED: ATOM     20  C   UNL     1     -46.261 -28.747  -2.624 -0.17 +0.00    +0.029 A  
DOCKED: ATOM     21  C   UNL     1     -44.994 -29.309  -2.779 -0.06 +0.00    +0.140 A  
DOCKED: ATOM     22  C   UNL     1     -44.409 -30.013  -1.727 -0.06 +0.00    +0.029 A  
DOCKED: ATOM     23  F   UNL     1     -44.338 -29.171  -3.939 +0.00 -0.00    -0.204 F  
DOCKED: ATOM     24  C   UNL     1     -45.091 -30.156  -0.518 -0.10 +0.00    +0.001 A  
DOCKED: ENDBRANCH   2  18
DOCKED: TORSDOF 5
DOCKED: TER
DOCKED: ENDMDL
________________________________________________________________________________


    FINAL DOCKED STATE:
    ________________________


Run:   404 / 512
Time taken for this run:   0.001s

DOCKED: MODEL        404
DOCKED: USER    Run = 404
DOCKED: USER
DOCKED: USER    Estimated Free Energy of Binding    =  -6.05 kcal/mol  [=(1)+(2)+(3)-(4)]
DOCKED: USER
DOCKED: USER    (1) Final Intermolecular Energy     =  -7.54 kcal/mol
DOCKED: USER        vdW + Hbond + desolv Energy     =  -7.54 kcal/mol
DOCKED: USER        Electrostatic Energy            =  +0.00 kcal/mol
DOCKED: USER        Moving Ligand-Fixed Receptor    =  -7.54 kcal/mol
DOCKED: USER        Moving Ligand-Moving Receptor   =  +0.00 kcal/mol
DOCKED: USER    (2) Final Total Internal Energy     =  -1.04 kcal/mol
DOCKED: USER    (3) Torsional Free Energy           =  +1.49 kcal/mol
DOCKED: USER    (4) Unbound System's Energy         =  -1.04 kcal/mol
DOCKED: USER
DOCKED: USER
DOCKED: REMARK  5 active torsions:
DOCKED: REMARK  status: ('A' for Active; 'I' for Inactive)
DOCKED: REMARK    1  A    between atoms: C_2  and  C_19 
DOCKED: REMARK    2  A    between atoms: C_2  and  C_11 
DOCKED: REMARK    3  A    between atoms: C_19  and  C_20 
DOCKED: REMARK    4  A    between atoms: C_20  and  C_21 
DOCKED: REMARK    5  A    between atoms: C_21  and  N_22 
DOCKED: USER                              x       y       z     vdW  Elec       q    Type
DOCKED: USER                           _______ _______ _______ _____ _____    ______ ____
DOCKED: ROOT
DOCKED: ATOM      1  O   UNL     1     -51.436 -31.359   7.944 -0.05 -0.00    -0.346 OA 
DOCKED: ATOM      2  C   UNL     1     -51.170 -32.797   7.875 -0.23 +0.00    +0.130 C  
DOCKED: ATOM      3  C   UNL     1     -51.728 -33.202   6.542 -0.34 +0.00    +0.004 A  
DOCKED: ATOM      4  C   UNL     1     -52.174 -32.078   5.860 -0.33 +0.00    +0.006 A  
DOCKED: ATOM      5  C   UNL     1     -51.933 -30.867   6.677 -0.23 +0.00    +0.169 C  
DOCKED: ATOM      6  C   UNL     1     -51.824 -34.463   5.972 -0.40 -0.00    -0.001 A  
DOCKED: ATOM      7  C   UNL     1     -52.730 -32.175   4.597 +0.02 +0.00    +0.008 A  
DOCKED: ATOM      8  C   UNL     1     -52.387 -34.578   4.700 -0.46 +0.00    +0.010 A  
DOCKED: ATOM      9  C   UNL     1     -52.837 -33.439   4.016 -0.39 +0.00    +0.068 A  
DOCKED: ATOM     10  N   UNL     1     -53.873 -33.686   1.654 -3.05 -0.00    -0.191 NA 
DOCKED: ATOM     11  C   UNL     1     -53.409 -33.576   2.713 -0.45 +0.00    +0.101 C  
DOCKED: ENDROOT
DOCKED: BRANCH   2  12
DOCKED: ATOM     12  C   UNL     1     -49.666 -33.015   7.980 -0.18 +0.00    +0.038 C  
DOCKED: BRANCH  12  13
DOCKED: ATOM     13  C   UNL     1     -49.005 -31.940   8.841 -0.19 +0.00    +0.038 C  
DOCKED: BRANCH  13  14
DOCKED: ATOM     14  C   UNL     1     -48.754 -30.667   8.034 -0.08 +0.00    +0.251 C  
DOCKED: BRANCH  14  15
DOCKED: ATOM     15  N   UNL     1     -47.404 -30.674   7.483 -0.07 +0.00    +0.141 N  
DOCKED: ATOM     16  C   UNL     1     -46.933 -29.307   7.256 -0.06 +0.00    +0.285 C  
DOCKED: ATOM     17  C   UNL     1     -46.487 -31.385   8.375 -0.07 +0.00    +0.285 C  
DOCKED: ENDBRANCH  14  15
DOCKED: ENDBRANCH  13  14
DOCKED: ENDBRANCH  12  13
DOCKED: ENDBRANCH   2  12
DOCKED: BRANCH   2  18
DOCKED: ATOM     18  C   UNL     1     -51.887 -33.428   9.022 -0.19 +0.00    +0.006 A  
DOCKED: ATOM     19  C   UNL     1     -53.281 -33.461   9.039 -0.16 +0.00    +0.001 A  
DOCKED: ATOM     20  C   UNL     1     -53.950 -34.051  10.112 -0.15 +0.00    +0.029 A  
DOCKED: ATOM     21  C   UNL     1     -53.225 -34.608  11.165 -0.06 +0.00    +0.140 A  
DOCKED: ATOM     22  C   UNL     1     -51.831 -34.575  11.147 -0.22 +0.00    +0.029 A  
DOCKED: ATOM     23  F   UNL     1     -53.867 -35.176  12.194 -0.04 -0.00    -0.204 F  
DOCKED: ATOM     24  C   UNL     1     -51.160 -33.984  10.074 -0.16 +0.00    +0.001 A  
DOCKED: ENDBRANCH   2  18
DOCKED: TORSDOF 5
DOCKED: TER
DOCKED: ENDMDL
________________________________________________________________________________


    FINAL DOCKED STATE:
    ________________________


Run:   405 / 512
Time taken for this run:   0.001s

DOCKED: MODEL        405
DOCKED: USER    Run = 405
DOCKED: USER
DOCKED: USER    Estimated Free Energy of Binding    =  -5.23 kcal/mol  [=(1)+(2)+(3)-(4)]
DOCKED: USER
DOCKED: USER    (1) Final Intermolecular Energy     =  -6.72 kcal/mol
DOCKED: USER        vdW + Hbond + desolv Energy     =  -6.72 kcal/mol
DOCKED: USER        Electrostatic Energy            =  +0.00 kcal/mol
DOCKED: USER        Moving Ligand-Fixed Receptor    =  -6.72 kcal/mol
DOCKED: USER        Moving Ligand-Moving Receptor   =  +0.00 kcal/mol
DOCKED: USER    (2) Final Total Internal Energy     =  -1.10 kcal/mol
DOCKED: USER    (3) Torsional Free Energy           =  +1.49 kcal/mol
DOCKED: USER    (4) Unbound System's Energy         =  -1.10 kcal/mol
DOCKED: USER
DOCKED: USER
DOCKED: REMARK  5 active torsions:
DOCKED: REMARK  status: ('A' for Active; 'I' for Inactive)
DOCKED: REMARK    1  A    between atoms: C_2  and  C_19 
DOCKED: REMARK    2  A    between atoms: C_2  and  C_11 
DOCKED: REMARK    3  A    between atoms: C_19  and  C_20 
DOCKED: REMARK    4  A    between atoms: C_20  and  C_21 
DOCKED: REMARK    5  A    between atoms: C_21  and  N_22 
DOCKED: USER                              x       y       z     vdW  Elec       q    Type
DOCKED: USER                           _______ _______ _______ _____ _____    ______ ____
DOCKED: ROOT
DOCKED: ATOM      1  O   UNL     1     -47.333 -24.742   0.273 -0.05 -0.00    -0.346 OA 
DOCKED: ATOM      2  C   UNL     1     -48.765 -24.944   0.496 -0.19 +0.00    +0.130 C  
DOCKED: ATOM      3  C   UNL     1     -49.409 -24.294  -0.694 -0.27 +0.00    +0.004 A  
DOCKED: ATOM      4  C   UNL     1     -48.429 -23.857  -1.575 -0.23 +0.00    +0.006 A  
DOCKED: ATOM      5  C   UNL     1     -47.090 -24.194  -1.043 -0.12 +0.00    +0.169 C  
DOCKED: ATOM      6  C   UNL     1     -50.754 -24.114  -0.981 +0.05 -0.00    -0.001 A  
DOCKED: ATOM      7  C   UNL     1     -48.758 -23.226  -2.762 -0.30 +0.00    +0.008 A  
DOCKED: ATOM      8  C   UNL     1     -51.102 -23.475  -2.172 -0.33 +0.00    +0.010 A  
DOCKED: ATOM      9  C   UNL     1     -50.108 -23.034  -3.059 -0.32 +0.00    +0.068 A  
DOCKED: ATOM     10  N   UNL     1     -50.787 -21.856  -5.264 -2.49 -0.00    -0.191 NA 
DOCKED: ATOM     11  C   UNL     1     -50.482 -22.384  -4.275 -0.35 +0.00    +0.101 C  
DOCKED: ENDROOT
DOCKED: BRANCH   2  12
DOCKED: ATOM     12  C   UNL     1     -49.035 -26.442   0.573 -0.21 +0.00    +0.038 C  
DOCKED: BRANCH  12  13
DOCKED: ATOM     13  C   UNL     1     -48.005 -27.235  -0.228 -0.18 +0.00    +0.038 C  
DOCKED: BRANCH  13  14
DOCKED: ATOM     14  C   UNL     1     -48.350 -27.237  -1.716 -0.08 +0.00    +0.251 C  
DOCKED: BRANCH  14  15
DOCKED: ATOM     15  N   UNL     1     -47.415 -28.080  -2.452 -0.22 +0.00    +0.141 N  
DOCKED: ATOM     16  C   UNL     1     -46.634 -27.281  -3.398 -0.11 +0.00    +0.285 C  
DOCKED: ATOM     17  C   UNL     1     -46.526 -28.790  -1.532 -0.14 +0.00    +0.285 C  
DOCKED: ENDBRANCH  14  15
DOCKED: ENDBRANCH  13  14
DOCKED: ENDBRANCH  12  13
DOCKED: ENDBRANCH   2  12
DOCKED: BRANCH   2  18
DOCKED: ATOM     18  C   UNL     1     -49.106 -24.268   1.782 -0.20 +0.00    +0.006 A  
DOCKED: ATOM     19  C   UNL     1     -48.111 -24.034   2.731 -0.15 +0.00    +0.001 A  
DOCKED: ATOM     20  C   UNL     1     -48.431 -23.402   3.934 -0.12 +0.00    +0.029 A  
DOCKED: ATOM     21  C   UNL     1     -49.744 -23.006   4.185 -0.15 +0.00    +0.140 A  
DOCKED: ATOM     22  C   UNL     1     -50.738 -23.241   3.236 -0.23 +0.00    +0.029 A  
DOCKED: ATOM     23  F   UNL     1     -50.051 -22.398   5.339 -0.03 -0.00    -0.204 F  
DOCKED: ATOM     24  C   UNL     1     -50.419 -23.873   2.033 -0.27 +0.00    +0.001 A  
DOCKED: ENDBRANCH   2  18
DOCKED: TORSDOF 5
DOCKED: TER
DOCKED: ENDMDL
________________________________________________________________________________


    FINAL DOCKED STATE:
    ________________________


Run:   406 / 512
Time taken for this run:   0.001s

DOCKED: MODEL        406
DOCKED: USER    Run = 406
DOCKED: USER
DOCKED: USER    Estimated Free Energy of Binding    =  -4.34 kcal/mol  [=(1)+(2)+(3)-(4)]
DOCKED: USER
DOCKED: USER    (1) Final Intermolecular Energy     =  -5.83 kcal/mol
DOCKED: USER        vdW + Hbond + desolv Energy     =  -5.83 kcal/mol
DOCKED: USER        Electrostatic Energy            =  +0.00 kcal/mol
DOCKED: USER        Moving Ligand-Fixed Receptor    =  -5.83 kcal/mol
DOCKED: USER        Moving Ligand-Moving Receptor   =  +0.00 kcal/mol
DOCKED: USER    (2) Final Total Internal Energy     =  -1.48 kcal/mol
DOCKED: USER    (3) Torsional Free Energy           =  +1.49 kcal/mol
DOCKED: USER    (4) Unbound System's Energy         =  -1.48 kcal/mol
DOCKED: USER
DOCKED: USER
DOCKED: REMARK  5 active torsions:
DOCKED: REMARK  status: ('A' for Active; 'I' for Inactive)
DOCKED: REMARK    1  A    between atoms: C_2  and  C_19 
DOCKED: REMARK    2  A    between atoms: C_2  and  C_11 
DOCKED: REMARK    3  A    between atoms: C_19  and  C_20 
DOCKED: REMARK    4  A    between atoms: C_20  and  C_21 
DOCKED: REMARK    5  A    between atoms: C_21  and  N_22 
DOCKED: USER                              x       y       z     vdW  Elec       q    Type
DOCKED: USER                           _______ _______ _______ _____ _____    ______ ____
DOCKED: ROOT
DOCKED: ATOM      1  O   UNL     1     -48.955 -30.957   8.421 -0.07 -0.00    -0.346 OA 
DOCKED: ATOM      2  C   UNL     1     -49.970 -30.161   7.730 -0.14 +0.00    +0.130 C  
DOCKED: ATOM      3  C   UNL     1     -50.863 -31.189   7.097 -0.21 +0.00    +0.004 A  
DOCKED: ATOM      4  C   UNL     1     -50.460 -32.459   7.483 -0.21 +0.00    +0.006 A  
DOCKED: ATOM      5  C   UNL     1     -49.298 -32.362   8.395 -0.17 +0.00    +0.169 C  
DOCKED: ATOM      6  C   UNL     1     -51.952 -31.013   6.256 -0.28 -0.00    -0.001 A  
DOCKED: ATOM      7  C   UNL     1     -51.125 -33.591   7.043 -0.34 +0.00    +0.008 A  
DOCKED: ATOM      8  C   UNL     1     -52.630 -32.144   5.799 -0.34 +0.00    +0.010 A  
DOCKED: ATOM      9  C   UNL     1     -52.218 -33.427   6.191 -0.32 +0.00    +0.068 A  
DOCKED: ATOM     10  N   UNL     1     -53.502 -35.506   5.329 -2.59 -0.00    -0.191 NA 
DOCKED: ATOM     11  C   UNL     1     -52.926 -34.574   5.716 -0.28 +0.00    +0.101 C  
DOCKED: ENDROOT
DOCKED: BRANCH   2  12
DOCKED: ATOM     12  C   UNL     1     -50.692 -29.300   8.759 -0.06 +0.00    +0.038 C  
DOCKED: BRANCH  12  13
DOCKED: ATOM     13  C   UNL     1     -51.286 -30.152   9.879 -0.04 +0.00    +0.038 C  
DOCKED: BRANCH  13  14
DOCKED: ATOM     14  C   UNL     1     -52.789 -30.343   9.686 -0.01 +0.00    +0.251 C  
DOCKED: BRANCH  14  15
DOCKED: ATOM     15  N   UNL     1     -53.077 -31.712   9.276 -0.04 +0.00    +0.141 N  
DOCKED: ATOM     16  C   UNL     1     -52.675 -32.659  10.318 -0.04 +0.00    +0.285 C  
DOCKED: ATOM     17  C   UNL     1     -54.500 -31.870   8.969 -0.02 +0.00    +0.285 C  
DOCKED: ENDBRANCH  14  15
DOCKED: ENDBRANCH  13  14
DOCKED: ENDBRANCH  12  13
DOCKED: ENDBRANCH   2  12
DOCKED: BRANCH   2  18
DOCKED: ATOM     18  C   UNL     1     -49.254 -29.317   6.728 -0.14 +0.00    +0.006 A  
DOCKED: ATOM     19  C   UNL     1     -49.973 -28.444   5.913 -0.14 +0.00    +0.001 A  
DOCKED: ATOM     20  C   UNL     1     -49.303 -27.655   4.977 -0.12 +0.00    +0.029 A  
DOCKED: ATOM     21  C   UNL     1     -47.917 -27.740   4.858 -0.08 +0.00    +0.140 A  
DOCKED: ATOM     22  C   UNL     1     -47.199 -28.614   5.674 -0.10 +0.00    +0.029 A  
DOCKED: ATOM     23  F   UNL     1     -47.274 -26.982   3.960 -0.00 -0.00    -0.204 F  
DOCKED: ATOM     24  C   UNL     1     -47.868 -29.403   6.610 -0.09 +0.00    +0.001 A  
DOCKED: ENDBRANCH   2  18
DOCKED: TORSDOF 5
DOCKED: TER
DOCKED: ENDMDL
________________________________________________________________________________


    FINAL DOCKED STATE:
    ________________________


Run:   407 / 512
Time taken for this run:   0.001s

DOCKED: MODEL        407
DOCKED: USER    Run = 407
DOCKED: USER
DOCKED: USER    Estimated Free Energy of Binding    =  -4.45 kcal/mol  [=(1)+(2)+(3)-(4)]
DOCKED: USER
DOCKED: USER    (1) Final Intermolecular Energy     =  -5.94 kcal/mol
DOCKED: USER        vdW + Hbond + desolv Energy     =  -5.94 kcal/mol
DOCKED: USER        Electrostatic Energy            =  +0.00 kcal/mol
DOCKED: USER        Moving Ligand-Fixed Receptor    =  -5.94 kcal/mol
DOCKED: USER        Moving Ligand-Moving Receptor   =  +0.00 kcal/mol
DOCKED: USER    (2) Final Total Internal Energy     =  -1.26 kcal/mol
DOCKED: USER    (3) Torsional Free Energy           =  +1.49 kcal/mol
DOCKED: USER    (4) Unbound System's Energy         =  -1.26 kcal/mol
DOCKED: USER
DOCKED: USER
DOCKED: REMARK  5 active torsions:
DOCKED: REMARK  status: ('A' for Active; 'I' for Inactive)
DOCKED: REMARK    1  A    between atoms: C_2  and  C_19 
DOCKED: REMARK    2  A    between atoms: C_2  and  C_11 
DOCKED: REMARK    3  A    between atoms: C_19  and  C_20 
DOCKED: REMARK    4  A    between atoms: C_20  and  C_21 
DOCKED: REMARK    5  A    between atoms: C_21  and  N_22 
DOCKED: USER                              x       y       z     vdW  Elec       q    Type
DOCKED: USER                           _______ _______ _______ _____ _____    ______ ____
DOCKED: ROOT
DOCKED: ATOM      1  O   UNL     1     -51.210 -28.886   7.111 -0.06 -0.00    -0.346 OA 
DOCKED: ATOM      2  C   UNL     1     -52.621 -28.911   7.496 -0.14 +0.00    +0.130 C  
DOCKED: ATOM      3  C   UNL     1     -53.086 -30.274   7.073 -0.22 +0.00    +0.004 A  
DOCKED: ATOM      4  C   UNL     1     -52.010 -31.005   6.590 -0.28 +0.00    +0.006 A  
DOCKED: ATOM      5  C   UNL     1     -50.775 -30.194   6.671 -0.18 +0.00    +0.169 C  
DOCKED: ATOM      6  C   UNL     1     -54.358 -30.827   7.122 -0.21 -0.00    -0.001 A  
DOCKED: ATOM      7  C   UNL     1     -52.167 -32.305   6.139 -0.34 +0.00    +0.008 A  
DOCKED: ATOM      8  C   UNL     1     -54.532 -32.135   6.666 -0.23 +0.00    +0.010 A  
DOCKED: ATOM      9  C   UNL     1     -53.442 -32.870   6.177 -0.25 +0.00    +0.068 A  
DOCKED: ATOM     10  N   UNL     1     -53.800 -35.296   5.344 -2.55 -0.00    -0.191 NA 
DOCKED: ATOM     11  C   UNL     1     -53.640 -34.208   5.717 -0.36 +0.00    +0.101 C  
DOCKED: ENDROOT
DOCKED: BRANCH   2  12
DOCKED: ATOM     12  C   UNL     1     -52.715 -28.693   9.002 -0.05 +0.00    +0.038 C  
DOCKED: BRANCH  12  13
DOCKED: ATOM     13  C   UNL     1     -51.357 -28.324   9.596 -0.02 +0.00    +0.038 C  
DOCKED: BRANCH  13  14
DOCKED: ATOM     14  C   UNL     1     -50.600 -29.570  10.052 -0.01 +0.00    +0.251 C  
DOCKED: BRANCH  14  15
DOCKED: ATOM     15  N   UNL     1     -49.174 -29.285  10.161 -0.01 +0.00    +0.141 N  
DOCKED: ATOM     16  C   UNL     1     -48.389 -30.505   9.968 -0.03 +0.00    +0.285 C  
DOCKED: ATOM     17  C   UNL     1     -48.776 -28.266   9.188 -0.01 +0.00    +0.285 C  
DOCKED: ENDBRANCH  14  15
DOCKED: ENDBRANCH  13  14
DOCKED: ENDBRANCH  12  13
DOCKED: ENDBRANCH   2  12
DOCKED: BRANCH   2  18
DOCKED: ATOM     18  C   UNL     1     -53.296 -27.809   6.750 -0.19 +0.00    +0.006 A  
DOCKED: ATOM     19  C   UNL     1     -54.681 -27.661   6.826 -0.21 +0.00    +0.001 A  
DOCKED: ATOM     20  C   UNL     1     -55.310 -26.630   6.127 -0.17 +0.00    +0.029 A  
DOCKED: ATOM     21  C   UNL     1     -54.555 -25.749   5.354 -0.12 +0.00    +0.140 A  
DOCKED: ATOM     22  C   UNL     1     -53.171 -25.897   5.279 -0.16 +0.00    +0.029 A  
DOCKED: ATOM     23  F   UNL     1     -55.160 -24.759   4.685 -0.02 -0.00    -0.204 F  
DOCKED: ATOM     24  C   UNL     1     -52.540 -26.928   5.977 -0.15 +0.00    +0.001 A  
DOCKED: ENDBRANCH   2  18
DOCKED: TORSDOF 5
DOCKED: TER
DOCKED: ENDMDL
________________________________________________________________________________


    FINAL DOCKED STATE:
    ________________________


Run:   408 / 512
Time taken for this run:   0.001s

DOCKED: MODEL        408
DOCKED: USER    Run = 408
DOCKED: USER
DOCKED: USER    Estimated Free Energy of Binding    =  -3.74 kcal/mol  [=(1)+(2)+(3)-(4)]
DOCKED: USER
DOCKED: USER    (1) Final Intermolecular Energy     =  -5.23 kcal/mol
DOCKED: USER        vdW + Hbond + desolv Energy     =  -5.23 kcal/mol
DOCKED: USER        Electrostatic Energy            =  +0.00 kcal/mol
DOCKED: USER        Moving Ligand-Fixed Receptor    =  -5.23 kcal/mol
DOCKED: USER        Moving Ligand-Moving Receptor   =  +0.00 kcal/mol
DOCKED: USER    (2) Final Total Internal Energy     =  -1.56 kcal/mol
DOCKED: USER    (3) Torsional Free Energy           =  +1.49 kcal/mol
DOCKED: USER    (4) Unbound System's Energy         =  -1.56 kcal/mol
DOCKED: USER
DOCKED: USER
DOCKED: REMARK  5 active torsions:
DOCKED: REMARK  status: ('A' for Active; 'I' for Inactive)
DOCKED: REMARK    1  A    between atoms: C_2  and  C_19 
DOCKED: REMARK    2  A    between atoms: C_2  and  C_11 
DOCKED: REMARK    3  A    between atoms: C_19  and  C_20 
DOCKED: REMARK    4  A    between atoms: C_20  and  C_21 
DOCKED: REMARK    5  A    between atoms: C_21  and  N_22 
DOCKED: USER                              x       y       z     vdW  Elec       q    Type
DOCKED: USER                           _______ _______ _______ _____ _____    ______ ____
DOCKED: ROOT
DOCKED: ATOM      1  O   UNL     1     -47.899 -25.276   0.298 -0.04 -0.00    -0.346 OA 
DOCKED: ATOM      2  C   UNL     1     -46.912 -24.411  -0.349 -0.12 +0.00    +0.130 C  
DOCKED: ATOM      3  C   UNL     1     -47.671 -23.785  -1.484 -0.18 +0.00    +0.004 A  
DOCKED: ATOM      4  C   UNL     1     -49.002 -24.172  -1.424 -0.28 +0.00    +0.006 A  
DOCKED: ATOM      5  C   UNL     1     -49.217 -25.057  -0.257 -0.23 +0.00    +0.169 C  
DOCKED: ATOM      6  C   UNL     1     -47.221 -22.933  -2.481 -0.17 -0.00    -0.001 A  
DOCKED: ATOM      7  C   UNL     1     -49.924 -23.727  -2.356 -0.26 +0.00    +0.008 A  
DOCKED: ATOM      8  C   UNL     1     -48.138 -22.479  -3.431 -0.28 +0.00    +0.010 A  
DOCKED: ATOM      9  C   UNL     1     -49.483 -22.874  -3.369 -0.33 +0.00    +0.068 A  
DOCKED: ATOM     10  N   UNL     1     -51.159 -22.009  -5.145 -2.55 -0.00    -0.191 NA 
DOCKED: ATOM     11  C   UNL     1     -50.407 -22.398  -4.349 -0.37 +0.00    +0.101 C  
DOCKED: ENDROOT
DOCKED: BRANCH   2  12
DOCKED: ATOM     12  C   UNL     1     -46.422 -23.390   0.671 -0.10 +0.00    +0.038 C  
DOCKED: BRANCH  12  13
DOCKED: ATOM     13  C   UNL     1     -46.419 -23.972   2.083 -0.12 +0.00    +0.038 C  
DOCKED: BRANCH  13  14
DOCKED: ATOM     14  C   UNL     1     -45.049 -24.545   2.439 -0.04 +0.00    +0.251 C  
DOCKED: BRANCH  14  15
DOCKED: ATOM     15  N   UNL     1     -45.042 -25.992   2.260 -0.01 +0.00    +0.141 N  
DOCKED: ATOM     16  C   UNL     1     -43.935 -26.598   3.001 -0.00 +0.00    +0.285 C  
DOCKED: ATOM     17  C   UNL     1     -46.316 -26.570   2.687 -0.01 +0.00    +0.285 C  
DOCKED: ENDBRANCH  14  15
DOCKED: ENDBRANCH  13  14
DOCKED: ENDBRANCH  12  13
DOCKED: ENDBRANCH   2  12
DOCKED: BRANCH   2  18
DOCKED: ATOM     18  C   UNL     1     -45.797 -25.289  -0.810 -0.04 +0.00    +0.006 A  
DOCKED: ATOM     19  C   UNL     1     -44.537 -24.745  -1.054 -0.02 +0.00    +0.001 A  
DOCKED: ATOM     20  C   UNL     1     -43.495 -25.568  -1.485 -0.00 +0.00    +0.029 A  
DOCKED: ATOM     21  C   UNL     1     -43.715 -26.932  -1.671 -0.00 +0.00    +0.140 A  
DOCKED: ATOM     22  C   UNL     1     -44.976 -27.475  -1.426 -0.02 +0.00    +0.029 A  
DOCKED: ATOM     23  F   UNL     1     -42.714 -27.721  -2.083 +0.00 -0.00    -0.204 F  
DOCKED: ATOM     24  C   UNL     1     -46.018 -26.653  -0.996 -0.04 +0.00    +0.001 A  
DOCKED: ENDBRANCH   2  18
DOCKED: TORSDOF 5
DOCKED: TER
DOCKED: ENDMDL
________________________________________________________________________________


    FINAL DOCKED STATE:
    ________________________


Run:   409 / 512
Time taken for this run:   0.001s

DOCKED: MODEL        409
DOCKED: USER    Run = 409
DOCKED: USER
DOCKED: USER    Estimated Free Energy of Binding    =  -5.06 kcal/mol  [=(1)+(2)+(3)-(4)]
DOCKED: USER
DOCKED: USER    (1) Final Intermolecular Energy     =  -6.55 kcal/mol
DOCKED: USER        vdW + Hbond + desolv Energy     =  -6.55 kcal/mol
DOCKED: USER        Electrostatic Energy            =  +0.00 kcal/mol
DOCKED: USER        Moving Ligand-Fixed Receptor    =  -6.55 kcal/mol
DOCKED: USER        Moving Ligand-Moving Receptor   =  +0.00 kcal/mol
DOCKED: USER    (2) Final Total Internal Energy     =  -0.92 kcal/mol
DOCKED: USER    (3) Torsional Free Energy           =  +1.49 kcal/mol
DOCKED: USER    (4) Unbound System's Energy         =  -0.92 kcal/mol
DOCKED: USER
DOCKED: USER
DOCKED: REMARK  5 active torsions:
DOCKED: REMARK  status: ('A' for Active; 'I' for Inactive)
DOCKED: REMARK    1  A    between atoms: C_2  and  C_19 
DOCKED: REMARK    2  A    between atoms: C_2  and  C_11 
DOCKED: REMARK    3  A    between atoms: C_19  and  C_20 
DOCKED: REMARK    4  A    between atoms: C_20  and  C_21 
DOCKED: REMARK    5  A    between atoms: C_21  and  N_22 
DOCKED: USER                              x       y       z     vdW  Elec       q    Type
DOCKED: USER                           _______ _______ _______ _____ _____    ______ ____
DOCKED: ROOT
DOCKED: ATOM      1  O   UNL     1     -55.280 -32.175   8.101 -0.01 -0.00    -0.346 OA 
DOCKED: ATOM      2  C   UNL     1     -53.835 -32.052   7.906 -0.12 +0.00    +0.130 C  
DOCKED: ATOM      3  C   UNL     1     -53.618 -32.545   6.505 -0.26 +0.00    +0.004 A  
DOCKED: ATOM      4  C   UNL     1     -54.842 -32.821   5.912 -0.27 +0.00    +0.006 A  
DOCKED: ATOM      5  C   UNL     1     -55.938 -32.523   6.860 -0.18 +0.00    +0.169 C  
DOCKED: ATOM      6  C   UNL     1     -52.432 -32.724   5.807 -0.37 -0.00    -0.001 A  
DOCKED: ATOM      7  C   UNL     1     -54.923 -33.287   4.611 -0.22 +0.00    +0.008 A  
DOCKED: ATOM      8  C   UNL     1     -52.498 -33.197   4.495 -0.29 +0.00    +0.010 A  
DOCKED: ATOM      9  C   UNL     1     -53.737 -33.477   3.900 -0.36 +0.00    +0.068 A  
DOCKED: ATOM     10  N   UNL     1     -53.823 -34.349   1.462 -2.69 -0.00    -0.191 NA 
DOCKED: ATOM     11  C   UNL     1     -53.784 -33.959   2.556 -0.28 +0.00    +0.101 C  
DOCKED: ENDROOT
DOCKED: BRANCH   2  12
DOCKED: ATOM     12  C   UNL     1     -53.447 -30.589   8.087 -0.13 +0.00    +0.038 C  
DOCKED: BRANCH  12  13
DOCKED: ATOM     13  C   UNL     1     -51.937 -30.430   8.253 -0.12 +0.00    +0.038 C  
DOCKED: BRANCH  13  14
DOCKED: ATOM     14  C   UNL     1     -51.329 -29.687   7.064 -0.15 +0.00    +0.251 C  
DOCKED: BRANCH  14  15
DOCKED: ATOM     15  N   UNL     1     -50.188 -28.889   7.495 -0.08 +0.00    +0.141 N  
DOCKED: ATOM     16  C   UNL     1     -50.405 -28.365   8.845 -0.02 +0.00    +0.285 C  
DOCKED: ATOM     17  C   UNL     1     -48.958 -29.680   7.449 -0.08 +0.00    +0.285 C  
DOCKED: ENDBRANCH  14  15
DOCKED: ENDBRANCH  13  14
DOCKED: ENDBRANCH  12  13
DOCKED: ENDBRANCH   2  12
DOCKED: BRANCH   2  18
DOCKED: ATOM     18  C   UNL     1     -53.181 -32.913   8.934 -0.12 +0.00    +0.006 A  
DOCKED: ATOM     19  C   UNL     1     -53.819 -33.153  10.150 -0.10 +0.00    +0.001 A  
DOCKED: ATOM     20  C   UNL     1     -53.207 -33.959  11.111 -0.14 +0.00    +0.029 A  
DOCKED: ATOM     21  C   UNL     1     -51.958 -34.524  10.853 -0.17 +0.00    +0.140 A  
DOCKED: ATOM     22  C   UNL     1     -51.321 -34.284   9.637 -0.09 +0.00    +0.029 A  
DOCKED: ATOM     23  F   UNL     1     -51.371 -35.299  11.775 -0.09 -0.00    -0.204 F  
DOCKED: ATOM     24  C   UNL     1     -51.933 -33.477   8.675 -0.21 +0.00    +0.001 A  
DOCKED: ENDBRANCH   2  18
DOCKED: TORSDOF 5
DOCKED: TER
DOCKED: ENDMDL
________________________________________________________________________________


    FINAL DOCKED STATE:
    ________________________


Run:   410 / 512
Time taken for this run:   0.001s

DOCKED: MODEL        410
DOCKED: USER    Run = 410
DOCKED: USER
DOCKED: USER    Estimated Free Energy of Binding    =  -3.93 kcal/mol  [=(1)+(2)+(3)-(4)]
DOCKED: USER
DOCKED: USER    (1) Final Intermolecular Energy     =  -5.43 kcal/mol
DOCKED: USER        vdW + Hbond + desolv Energy     =  -5.43 kcal/mol
DOCKED: USER        Electrostatic Energy            =  +0.00 kcal/mol
DOCKED: USER        Moving Ligand-Fixed Receptor    =  -5.43 kcal/mol
DOCKED: USER        Moving Ligand-Moving Receptor   =  +0.00 kcal/mol
DOCKED: USER    (2) Final Total Internal Energy     =  -1.06 kcal/mol
DOCKED: USER    (3) Torsional Free Energy           =  +1.49 kcal/mol
DOCKED: USER    (4) Unbound System's Energy         =  -1.06 kcal/mol
DOCKED: USER
DOCKED: USER
DOCKED: REMARK  5 active torsions:
DOCKED: REMARK  status: ('A' for Active; 'I' for Inactive)
DOCKED: REMARK    1  A    between atoms: C_2  and  C_19 
DOCKED: REMARK    2  A    between atoms: C_2  and  C_11 
DOCKED: REMARK    3  A    between atoms: C_19  and  C_20 
DOCKED: REMARK    4  A    between atoms: C_20  and  C_21 
DOCKED: REMARK    5  A    between atoms: C_21  and  N_22 
DOCKED: USER                              x       y       z     vdW  Elec       q    Type
DOCKED: USER                           _______ _______ _______ _____ _____    ______ ____
DOCKED: ROOT
DOCKED: ATOM      1  O   UNL     1     -43.213 -31.733  -0.946 +0.01 -0.00    -0.346 OA 
DOCKED: ATOM      2  C   UNL     1     -44.212 -30.925  -0.245 -0.06 +0.00    +0.130 C  
DOCKED: ATOM      3  C   UNL     1     -44.817 -31.880   0.743 -0.11 +0.00    +0.004 A  
DOCKED: ATOM      4  C   UNL     1     -44.148 -33.094   0.689 -0.10 +0.00    +0.006 A  
DOCKED: ATOM      5  C   UNL     1     -43.062 -33.025  -0.314 -0.04 +0.00    +0.169 C  
DOCKED: ATOM      6  C   UNL     1     -45.868 -31.686   1.628 -0.21 -0.00    -0.001 A  
DOCKED: ATOM      7  C   UNL     1     -44.505 -34.152   1.508 -0.18 +0.00    +0.008 A  
DOCKED: ATOM      8  C   UNL     1     -46.244 -32.744   2.457 -0.29 +0.00    +0.010 A  
DOCKED: ATOM      9  C   UNL     1     -45.565 -33.970   2.398 -0.29 +0.00    +0.068 A  
DOCKED: ATOM     10  N   UNL     1     -46.285 -35.912   3.955 -2.58 -0.00    -0.191 NA 
DOCKED: ATOM     11  C   UNL     1     -45.962 -35.041   3.256 -0.41 +0.00    +0.101 C  
DOCKED: ENDROOT
DOCKED: BRANCH   2  12
DOCKED: ATOM     12  C   UNL     1     -43.504 -29.752   0.421 -0.02 +0.00    +0.038 C  
DOCKED: BRANCH  12  13
DOCKED: ATOM     13  C   UNL     1     -42.763 -30.191   1.682 -0.02 +0.00    +0.038 C  
DOCKED: BRANCH  13  14
DOCKED: ATOM     14  C   UNL     1     -43.301 -29.467   2.915 -0.01 +0.00    +0.251 C  
DOCKED: BRANCH  14  15
DOCKED: ATOM     15  N   UNL     1     -42.482 -28.298   3.214 -0.00 +0.00    +0.141 N  
DOCKED: ATOM     16  C   UNL     1     -43.115 -27.475   4.246 -0.00 +0.00    +0.285 C  
DOCKED: ATOM     17  C   UNL     1     -41.141 -28.702   3.638 +0.00 +0.00    +0.285 C  
DOCKED: ENDBRANCH  14  15
DOCKED: ENDBRANCH  13  14
DOCKED: ENDBRANCH  12  13
DOCKED: ENDBRANCH   2  12
DOCKED: BRANCH   2  18
DOCKED: ATOM     18  C   UNL     1     -45.189 -30.453  -1.270 -0.12 +0.00    +0.006 A  
DOCKED: ATOM     19  C   UNL     1     -46.083 -29.429  -0.960 -0.15 +0.00    +0.001 A  
DOCKED: ATOM     20  C   UNL     1     -46.996 -28.989  -1.920 -0.20 +0.00    +0.029 A  
DOCKED: ATOM     21  C   UNL     1     -47.013 -29.572  -3.186 -0.18 +0.00    +0.140 A  
DOCKED: ATOM     22  C   UNL     1     -46.118 -30.596  -3.494 -0.18 +0.00    +0.029 A  
DOCKED: ATOM     23  F   UNL     1     -47.888 -29.148  -4.107 -0.13 -0.00    -0.204 F  
DOCKED: ATOM     24  C   UNL     1     -45.205 -31.038  -2.536 -0.14 +0.00    +0.001 A  
DOCKED: ENDBRANCH   2  18
DOCKED: TORSDOF 5
DOCKED: TER
DOCKED: ENDMDL
________________________________________________________________________________


    FINAL DOCKED STATE:
    ________________________


Run:   411 / 512
Time taken for this run:   0.001s

DOCKED: MODEL        411
DOCKED: USER    Run = 411
DOCKED: USER
DOCKED: USER    Estimated Free Energy of Binding    =  -4.29 kcal/mol  [=(1)+(2)+(3)-(4)]
DOCKED: USER
DOCKED: USER    (1) Final Intermolecular Energy     =  -5.78 kcal/mol
DOCKED: USER        vdW + Hbond + desolv Energy     =  -5.78 kcal/mol
DOCKED: USER        Electrostatic Energy            =  +0.00 kcal/mol
DOCKED: USER        Moving Ligand-Fixed Receptor    =  -5.78 kcal/mol
DOCKED: USER        Moving Ligand-Moving Receptor   =  +0.00 kcal/mol
DOCKED: USER    (2) Final Total Internal Energy     =  -1.16 kcal/mol
DOCKED: USER    (3) Torsional Free Energy           =  +1.49 kcal/mol
DOCKED: USER    (4) Unbound System's Energy         =  -1.16 kcal/mol
DOCKED: USER
DOCKED: USER
DOCKED: REMARK  5 active torsions:
DOCKED: REMARK  status: ('A' for Active; 'I' for Inactive)
DOCKED: REMARK    1  A    between atoms: C_2  and  C_19 
DOCKED: REMARK    2  A    between atoms: C_2  and  C_11 
DOCKED: REMARK    3  A    between atoms: C_19  and  C_20 
DOCKED: REMARK    4  A    between atoms: C_20  and  C_21 
DOCKED: REMARK    5  A    between atoms: C_21  and  N_22 
DOCKED: USER                              x       y       z     vdW  Elec       q    Type
DOCKED: USER                           _______ _______ _______ _____ _____    ______ ____
DOCKED: ROOT
DOCKED: ATOM      1  O   UNL     1     -52.561 -28.483   7.615 -0.04 -0.00    -0.346 OA 
DOCKED: ATOM      2  C   UNL     1     -53.997 -28.733   7.743 -0.14 +0.00    +0.130 C  
DOCKED: ATOM      3  C   UNL     1     -54.166 -30.133   7.229 -0.21 +0.00    +0.004 A  
DOCKED: ATOM      4  C   UNL     1     -52.922 -30.676   6.937 -0.23 +0.00    +0.006 A  
DOCKED: ATOM      5  C   UNL     1     -51.860 -29.693   7.245 -0.16 +0.00    +0.169 C  
DOCKED: ATOM      6  C   UNL     1     -55.325 -30.872   7.045 -0.22 -0.00    -0.001 A  
DOCKED: ATOM      7  C   UNL     1     -52.796 -31.966   6.450 -0.29 +0.00    +0.008 A  
DOCKED: ATOM      8  C   UNL     1     -55.215 -32.172   6.551 -0.24 +0.00    +0.010 A  
DOCKED: ATOM      9  C   UNL     1     -53.956 -32.717   6.255 -0.23 +0.00    +0.068 A  
DOCKED: ATOM     10  N   UNL     1     -53.786 -35.136   5.344 -2.56 -0.00    -0.191 NA 
DOCKED: ATOM     11  C   UNL     1     -53.862 -34.051   5.752 -0.34 +0.00    +0.101 C  
DOCKED: ENDROOT
DOCKED: BRANCH   2  12
DOCKED: ATOM     12  C   UNL     1     -54.383 -28.589   9.210 -0.05 +0.00    +0.038 C  
DOCKED: BRANCH  12  13
DOCKED: ATOM     13  C   UNL     1     -54.160 -29.892   9.975 -0.03 +0.00    +0.038 C  
DOCKED: BRANCH  13  14
DOCKED: ATOM     14  C   UNL     1     -52.693 -30.054  10.369 -0.01 +0.00    +0.251 C  
DOCKED: BRANCH  14  15
DOCKED: ATOM     15  N   UNL     1     -52.438 -29.406  11.650 -0.00 +0.00    +0.141 N  
DOCKED: ATOM     16  C   UNL     1     -51.736 -28.136  11.456 -0.00 +0.00    +0.285 C  
DOCKED: ATOM     17  C   UNL     1     -53.690 -29.187  12.376 +0.00 +0.00    +0.285 C  
DOCKED: ENDBRANCH  14  15
DOCKED: ENDBRANCH  13  14
DOCKED: ENDBRANCH  12  13
DOCKED: ENDBRANCH   2  12
DOCKED: BRANCH   2  18
DOCKED: ATOM     18  C   UNL     1     -54.693 -27.716   6.901 -0.20 +0.00    +0.006 A  
DOCKED: ATOM     19  C   UNL     1     -53.950 -26.805   6.153 -0.19 +0.00    +0.001 A  
DOCKED: ATOM     20  C   UNL     1     -54.603 -25.854   5.366 -0.14 +0.00    +0.029 A  
DOCKED: ATOM     21  C   UNL     1     -55.996 -25.818   5.328 -0.06 +0.00    +0.140 A  
DOCKED: ATOM     22  C   UNL     1     -56.738 -26.730   6.077 -0.20 +0.00    +0.029 A  
DOCKED: ATOM     23  F   UNL     1     -56.621 -24.907   4.572 -0.04 -0.00    -0.204 F  
DOCKED: ATOM     24  C   UNL     1     -56.087 -27.681   6.865 -0.21 +0.00    +0.001 A  
DOCKED: ENDBRANCH   2  18
DOCKED: TORSDOF 5
DOCKED: TER
DOCKED: ENDMDL
________________________________________________________________________________


    FINAL DOCKED STATE:
    ________________________


Run:   412 / 512
Time taken for this run:   0.001s

DOCKED: MODEL        412
DOCKED: USER    Run = 412
DOCKED: USER
DOCKED: USER    Estimated Free Energy of Binding    =  -4.37 kcal/mol  [=(1)+(2)+(3)-(4)]
DOCKED: USER
DOCKED: USER    (1) Final Intermolecular Energy     =  -5.86 kcal/mol
DOCKED: USER        vdW + Hbond + desolv Energy     =  -5.86 kcal/mol
DOCKED: USER        Electrostatic Energy            =  +0.00 kcal/mol
DOCKED: USER        Moving Ligand-Fixed Receptor    =  -5.86 kcal/mol
DOCKED: USER        Moving Ligand-Moving Receptor   =  +0.00 kcal/mol
DOCKED: USER    (2) Final Total Internal Energy     =  -1.13 kcal/mol
DOCKED: USER    (3) Torsional Free Energy           =  +1.49 kcal/mol
DOCKED: USER    (4) Unbound System's Energy         =  -1.13 kcal/mol
DOCKED: USER
DOCKED: USER
DOCKED: REMARK  5 active torsions:
DOCKED: REMARK  status: ('A' for Active; 'I' for Inactive)
DOCKED: REMARK    1  A    between atoms: C_2  and  C_19 
DOCKED: REMARK    2  A    between atoms: C_2  and  C_11 
DOCKED: REMARK    3  A    between atoms: C_19  and  C_20 
DOCKED: REMARK    4  A    between atoms: C_20  and  C_21 
DOCKED: REMARK    5  A    between atoms: C_21  and  N_22 
DOCKED: USER                              x       y       z     vdW  Elec       q    Type
DOCKED: USER                           _______ _______ _______ _____ _____    ______ ____
DOCKED: ROOT
DOCKED: ATOM      1  O   UNL     1     -49.718 -30.795   9.004 -0.04 -0.00    -0.346 OA 
DOCKED: ATOM      2  C   UNL     1     -50.528 -30.038   8.049 -0.12 +0.00    +0.130 C  
DOCKED: ATOM      3  C   UNL     1     -51.252 -31.099   7.271 -0.22 +0.00    +0.004 A  
DOCKED: ATOM      4  C   UNL     1     -50.967 -32.347   7.807 -0.24 +0.00    +0.006 A  
DOCKED: ATOM      5  C   UNL     1     -50.058 -32.201   8.966 -0.14 +0.00    +0.169 C  
DOCKED: ATOM      6  C   UNL     1     -52.105 -30.969   6.185 -0.27 -0.00    -0.001 A  
DOCKED: ATOM      7  C   UNL     1     -51.515 -33.502   7.275 -0.33 +0.00    +0.008 A  
DOCKED: ATOM      8  C   UNL     1     -52.663 -32.124   5.635 -0.34 +0.00    +0.010 A  
DOCKED: ATOM      9  C   UNL     1     -52.370 -33.384   6.178 -0.32 +0.00    +0.068 A  
DOCKED: ATOM     10  N   UNL     1     -53.426 -35.508   5.137 -2.48 -0.00    -0.191 NA 
DOCKED: ATOM     11  C   UNL     1     -52.952 -34.556   5.603 -0.33 +0.00    +0.101 C  
DOCKED: ENDROOT
DOCKED: BRANCH   2  12
DOCKED: ATOM     12  C   UNL     1     -51.469 -29.128   8.829 -0.06 +0.00    +0.038 C  
DOCKED: BRANCH  12  13
DOCKED: ATOM     13  C   UNL     1     -51.042 -27.665   8.726 -0.03 +0.00    +0.038 C  
DOCKED: BRANCH  13  14
DOCKED: ATOM     14  C   UNL     1     -52.098 -26.835   7.999 -0.03 +0.00    +0.251 C  
DOCKED: BRANCH  14  15
DOCKED: ATOM     15  N   UNL     1     -52.118 -27.170   6.580 -0.12 +0.00    +0.141 N  
DOCKED: ATOM     16  C   UNL     1     -53.456 -27.599   6.170 -0.12 +0.00    +0.285 C  
DOCKED: ATOM     17  C   UNL     1     -51.682 -26.029   5.774 -0.08 +0.00    +0.285 C  
DOCKED: ENDBRANCH  14  15
DOCKED: ENDBRANCH  13  14
DOCKED: ENDBRANCH  12  13
DOCKED: ENDBRANCH   2  12
DOCKED: BRANCH   2  18
DOCKED: ATOM     18  C   UNL     1     -49.585 -29.244   7.209 -0.14 +0.00    +0.006 A  
DOCKED: ATOM     19  C   UNL     1     -48.437 -28.695   7.780 -0.07 +0.00    +0.001 A  
DOCKED: ATOM     20  C   UNL     1     -47.556 -27.952   6.993 -0.05 +0.00    +0.029 A  
DOCKED: ATOM     21  C   UNL     1     -47.823 -27.759   5.638 -0.07 +0.00    +0.140 A  
DOCKED: ATOM     22  C   UNL     1     -48.971 -28.309   5.068 -0.14 +0.00    +0.029 A  
DOCKED: ATOM     23  F   UNL     1     -46.976 -27.048   4.883 -0.00 -0.00    -0.204 F  
DOCKED: ATOM     24  C   UNL     1     -49.853 -29.052   5.854 -0.13 +0.00    +0.001 A  
DOCKED: ENDBRANCH   2  18
DOCKED: TORSDOF 5
DOCKED: TER
DOCKED: ENDMDL
________________________________________________________________________________


    FINAL DOCKED STATE:
    ________________________


Run:   413 / 512
Time taken for this run:   0.001s

DOCKED: MODEL        413
DOCKED: USER    Run = 413
DOCKED: USER
DOCKED: USER    Estimated Free Energy of Binding    =  -4.51 kcal/mol  [=(1)+(2)+(3)-(4)]
DOCKED: USER
DOCKED: USER    (1) Final Intermolecular Energy     =  -6.00 kcal/mol
DOCKED: USER        vdW + Hbond + desolv Energy     =  -6.00 kcal/mol
DOCKED: USER        Electrostatic Energy            =  +0.00 kcal/mol
DOCKED: USER        Moving Ligand-Fixed Receptor    =  -6.00 kcal/mol
DOCKED: USER        Moving Ligand-Moving Receptor   =  +0.00 kcal/mol
DOCKED: USER    (2) Final Total Internal Energy     =  -1.25 kcal/mol
DOCKED: USER    (3) Torsional Free Energy           =  +1.49 kcal/mol
DOCKED: USER    (4) Unbound System's Energy         =  -1.25 kcal/mol
DOCKED: USER
DOCKED: USER
DOCKED: REMARK  5 active torsions:
DOCKED: REMARK  status: ('A' for Active; 'I' for Inactive)
DOCKED: REMARK    1  A    between atoms: C_2  and  C_19 
DOCKED: REMARK    2  A    between atoms: C_2  and  C_11 
DOCKED: REMARK    3  A    between atoms: C_19  and  C_20 
DOCKED: REMARK    4  A    between atoms: C_20  and  C_21 
DOCKED: REMARK    5  A    between atoms: C_21  and  N_22 
DOCKED: USER                              x       y       z     vdW  Elec       q    Type
DOCKED: USER                           _______ _______ _______ _____ _____    ______ ____
DOCKED: ROOT
DOCKED: ATOM      1  O   UNL     1     -46.428 -24.404   0.006 -0.04 -0.00    -0.346 OA 
DOCKED: ATOM      2  C   UNL     1     -47.764 -24.848   0.407 -0.14 +0.00    +0.130 C  
DOCKED: ATOM      3  C   UNL     1     -48.664 -24.289  -0.657 -0.22 +0.00    +0.004 A  
DOCKED: ATOM      4  C   UNL     1     -47.899 -23.674  -1.639 -0.19 +0.00    +0.006 A  
DOCKED: ATOM      5  C   UNL     1     -46.462 -23.794  -1.305 -0.09 +0.00    +0.169 C  
DOCKED: ATOM      6  C   UNL     1     -50.047 -24.331  -0.754 -0.29 -0.00    -0.001 A  
DOCKED: ATOM      7  C   UNL     1     -48.487 -23.080  -2.743 -0.28 +0.00    +0.008 A  
DOCKED: ATOM      8  C   UNL     1     -50.654 -23.732  -1.859 -0.22 +0.00    +0.010 A  
DOCKED: ATOM      9  C   UNL     1     -49.878 -23.110  -2.848 -0.35 +0.00    +0.068 A  
DOCKED: ATOM     10  N   UNL     1     -51.038 -22.013  -4.889 -2.35 -0.00    -0.191 NA 
DOCKED: ATOM     11  C   UNL     1     -50.518 -22.505  -3.974 -0.34 +0.00    +0.101 C  
DOCKED: ENDROOT
DOCKED: BRANCH   2  12
DOCKED: ATOM     12  C   UNL     1     -47.773 -26.372   0.451 -0.12 +0.00    +0.038 C  
DOCKED: BRANCH  12  13
DOCKED: ATOM     13  C   UNL     1     -49.106 -26.906   0.972 -0.21 +0.00    +0.038 C  
DOCKED: BRANCH  13  14
DOCKED: ATOM     14  C   UNL     1     -48.903 -27.784   2.204 -0.10 +0.00    +0.251 C  
DOCKED: BRANCH  14  15
DOCKED: ATOM     15  N   UNL     1     -48.345 -27.000   3.300 -0.07 +0.00    +0.141 N  
DOCKED: ATOM     16  C   UNL     1     -49.343 -26.800   4.351 -0.06 +0.00    +0.285 C  
DOCKED: ATOM     17  C   UNL     1     -47.155 -27.653   3.848 -0.04 +0.00    +0.285 C  
DOCKED: ENDBRANCH  14  15
DOCKED: ENDBRANCH  13  14
DOCKED: ENDBRANCH  12  13
DOCKED: ENDBRANCH   2  12
DOCKED: BRANCH   2  18
DOCKED: ATOM     18  C   UNL     1     -48.029 -24.269   1.756 -0.17 +0.00    +0.006 A  
DOCKED: ATOM     19  C   UNL     1     -46.977 -24.071   2.649 -0.11 +0.00    +0.001 A  
DOCKED: ATOM     20  C   UNL     1     -47.226 -23.529   3.910 -0.08 +0.00    +0.029 A  
DOCKED: ATOM     21  C   UNL     1     -48.527 -23.186   4.277 -0.10 +0.00    +0.140 A  
DOCKED: ATOM     22  C   UNL     1     -49.579 -23.385   3.384 -0.19 +0.00    +0.029 A  
DOCKED: ATOM     23  F   UNL     1     -48.765 -22.665   5.487 -0.04 -0.00    -0.204 F  
DOCKED: ATOM     24  C   UNL     1     -49.331 -23.927   2.122 -0.18 +0.00    +0.001 A  
DOCKED: ENDBRANCH   2  18
DOCKED: TORSDOF 5
DOCKED: TER
DOCKED: ENDMDL
________________________________________________________________________________


    FINAL DOCKED STATE:
    ________________________


Run:   414 / 512
Time taken for this run:   0.001s

DOCKED: MODEL        414
DOCKED: USER    Run = 414
DOCKED: USER
DOCKED: USER    Estimated Free Energy of Binding    =  -3.86 kcal/mol  [=(1)+(2)+(3)-(4)]
DOCKED: USER
DOCKED: USER    (1) Final Intermolecular Energy     =  -5.35 kcal/mol
DOCKED: USER        vdW + Hbond + desolv Energy     =  -5.35 kcal/mol
DOCKED: USER        Electrostatic Energy            =  +0.00 kcal/mol
DOCKED: USER        Moving Ligand-Fixed Receptor    =  -5.35 kcal/mol
DOCKED: USER        Moving Ligand-Moving Receptor   =  +0.00 kcal/mol
DOCKED: USER    (2) Final Total Internal Energy     =  -1.35 kcal/mol
DOCKED: USER    (3) Torsional Free Energy           =  +1.49 kcal/mol
DOCKED: USER    (4) Unbound System's Energy         =  -1.35 kcal/mol
DOCKED: USER
DOCKED: USER
DOCKED: REMARK  5 active torsions:
DOCKED: REMARK  status: ('A' for Active; 'I' for Inactive)
DOCKED: REMARK    1  A    between atoms: C_2  and  C_19 
DOCKED: REMARK    2  A    between atoms: C_2  and  C_11 
DOCKED: REMARK    3  A    between atoms: C_19  and  C_20 
DOCKED: REMARK    4  A    between atoms: C_20  and  C_21 
DOCKED: REMARK    5  A    between atoms: C_21  and  N_22 
DOCKED: USER                              x       y       z     vdW  Elec       q    Type
DOCKED: USER                           _______ _______ _______ _____ _____    ______ ____
DOCKED: ROOT
DOCKED: ATOM      1  O   UNL     1     -49.346 -31.345   8.721 -0.07 -0.00    -0.346 OA 
DOCKED: ATOM      2  C   UNL     1     -50.576 -30.586   8.495 -0.10 +0.00    +0.130 C  
DOCKED: ATOM      3  C   UNL     1     -51.431 -31.519   7.688 -0.20 +0.00    +0.004 A  
DOCKED: ATOM      4  C   UNL     1     -50.792 -32.744   7.559 -0.27 +0.00    +0.006 A  
DOCKED: ATOM      5  C   UNL     1     -49.495 -32.712   8.271 -0.15 +0.00    +0.169 C  
DOCKED: ATOM      6  C   UNL     1     -52.680 -31.305   7.123 -0.23 -0.00    -0.001 A  
DOCKED: ATOM      7  C   UNL     1     -51.373 -33.790   6.862 -0.37 +0.00    +0.008 A  
DOCKED: ATOM      8  C   UNL     1     -53.277 -32.349   6.414 -0.28 +0.00    +0.010 A  
DOCKED: ATOM      9  C   UNL     1     -52.627 -33.585   6.285 -0.31 +0.00    +0.068 A  
DOCKED: ATOM     10  N   UNL     1     -53.765 -35.503   4.965 -2.35 -0.00    -0.191 NA 
DOCKED: ATOM     11  C   UNL     1     -53.254 -34.642   5.556 -0.33 +0.00    +0.101 C  
DOCKED: ENDROOT
DOCKED: BRANCH   2  12
DOCKED: ATOM     12  C   UNL     1     -51.187 -30.241   9.848 -0.04 +0.00    +0.038 C  
DOCKED: BRANCH  12  13
DOCKED: ATOM     13  C   UNL     1     -51.939 -31.432  10.439 -0.05 +0.00    +0.038 C  
DOCKED: BRANCH  13  14
DOCKED: ATOM     14  C   UNL     1     -53.328 -31.019  10.923 -0.01 +0.00    +0.251 C  
DOCKED: BRANCH  14  15
DOCKED: ATOM     15  N   UNL     1     -54.212 -30.785   9.787 -0.02 +0.00    +0.141 N  
DOCKED: ATOM     16  C   UNL     1     -55.190 -31.866   9.663 -0.01 +0.00    +0.285 C  
DOCKED: ATOM     17  C   UNL     1     -54.894 -29.497   9.921 -0.00 +0.00    +0.285 C  
DOCKED: ENDBRANCH  14  15
DOCKED: ENDBRANCH  13  14
DOCKED: ENDBRANCH  12  13
DOCKED: ENDBRANCH   2  12
DOCKED: BRANCH   2  18
DOCKED: ATOM     18  C   UNL     1     -50.196 -29.352   7.746 -0.12 +0.00    +0.006 A  
DOCKED: ATOM     19  C   UNL     1     -51.050 -28.250   7.739 -0.09 +0.00    +0.001 A  
DOCKED: ATOM     20  C   UNL     1     -50.693 -27.097   7.038 -0.07 +0.00    +0.029 A  
DOCKED: ATOM     21  C   UNL     1     -49.484 -27.048   6.346 -0.06 +0.00    +0.140 A  
DOCKED: ATOM     22  C   UNL     1     -48.630 -28.151   6.353 -0.10 +0.00    +0.029 A  
DOCKED: ATOM     23  F   UNL     1     -49.141 -25.941   5.675 -0.00 -0.00    -0.204 F  
DOCKED: ATOM     24  C   UNL     1     -48.986 -29.305   7.054 -0.13 +0.00    +0.001 A  
DOCKED: ENDBRANCH   2  18
DOCKED: TORSDOF 5
DOCKED: TER
DOCKED: ENDMDL
________________________________________________________________________________


    FINAL DOCKED STATE:
    ________________________


Run:   415 / 512
Time taken for this run:   0.001s

DOCKED: MODEL        415
DOCKED: USER    Run = 415
DOCKED: USER
DOCKED: USER    Estimated Free Energy of Binding    =  -5.43 kcal/mol  [=(1)+(2)+(3)-(4)]
DOCKED: USER
DOCKED: USER    (1) Final Intermolecular Energy     =  -6.92 kcal/mol
DOCKED: USER        vdW + Hbond + desolv Energy     =  -6.92 kcal/mol
DOCKED: USER        Electrostatic Energy            =  +0.00 kcal/mol
DOCKED: USER        Moving Ligand-Fixed Receptor    =  -6.92 kcal/mol
DOCKED: USER        Moving Ligand-Moving Receptor   =  +0.00 kcal/mol
DOCKED: USER    (2) Final Total Internal Energy     =  -1.10 kcal/mol
DOCKED: USER    (3) Torsional Free Energy           =  +1.49 kcal/mol
DOCKED: USER    (4) Unbound System's Energy         =  -1.10 kcal/mol
DOCKED: USER
DOCKED: USER
DOCKED: REMARK  5 active torsions:
DOCKED: REMARK  status: ('A' for Active; 'I' for Inactive)
DOCKED: REMARK    1  A    between atoms: C_2  and  C_19 
DOCKED: REMARK    2  A    between atoms: C_2  and  C_11 
DOCKED: REMARK    3  A    between atoms: C_19  and  C_20 
DOCKED: REMARK    4  A    between atoms: C_20  and  C_21 
DOCKED: REMARK    5  A    between atoms: C_21  and  N_22 
DOCKED: USER                              x       y       z     vdW  Elec       q    Type
DOCKED: USER                           _______ _______ _______ _____ _____    ______ ____
DOCKED: ROOT
DOCKED: ATOM      1  O   UNL     1     -50.664 -34.356   8.050 -0.13 -0.00    -0.346 OA 
DOCKED: ATOM      2  C   UNL     1     -51.300 -33.043   7.940 -0.24 +0.00    +0.130 C  
DOCKED: ATOM      3  C   UNL     1     -51.915 -33.054   6.570 -0.34 +0.00    +0.004 A  
DOCKED: ATOM      4  C   UNL     1     -51.743 -34.304   5.991 -0.41 +0.00    +0.006 A  
DOCKED: ATOM      5  C   UNL     1     -51.023 -35.196   6.928 -0.19 +0.00    +0.169 C  
DOCKED: ATOM      6  C   UNL     1     -52.584 -32.044   5.895 -0.34 -0.00    -0.001 A  
DOCKED: ATOM      7  C   UNL     1     -52.225 -34.584   4.724 -0.38 +0.00    +0.008 A  
DOCKED: ATOM      8  C   UNL     1     -53.073 -32.309   4.615 +0.21 +0.00    +0.010 A  
DOCKED: ATOM      9  C   UNL     1     -52.895 -33.573   4.033 -0.42 +0.00    +0.068 A  
DOCKED: ATOM     10  N   UNL     1     -53.819 -34.034   1.657 -2.89 -0.00    -0.191 NA 
DOCKED: ATOM     11  C   UNL     1     -53.404 -33.827   2.722 -0.44 +0.00    +0.101 C  
DOCKED: ENDROOT
DOCKED: BRANCH   2  12
DOCKED: ATOM     12  C   UNL     1     -52.333 -32.912   9.053 -0.16 +0.00    +0.038 C  
DOCKED: BRANCH  12  13
DOCKED: ATOM     13  C   UNL     1     -53.718 -33.349   8.582 -0.18 +0.00    +0.038 C  
DOCKED: BRANCH  13  14
DOCKED: ATOM     14  C   UNL     1     -54.791 -32.361   9.038 -0.03 +0.00    +0.251 C  
DOCKED: BRANCH  14  15
DOCKED: ATOM     15  N   UNL     1     -54.985 -31.323   8.032 -0.08 +0.00    +0.141 N  
DOCKED: ATOM     16  C   UNL     1     -56.140 -31.633   7.187 -0.11 +0.00    +0.285 C  
DOCKED: ATOM     17  C   UNL     1     -55.157 -30.016   8.666 -0.03 +0.00    +0.285 C  
DOCKED: ENDBRANCH  14  15
DOCKED: ENDBRANCH  13  14
DOCKED: ENDBRANCH  12  13
DOCKED: ENDBRANCH   2  12
DOCKED: BRANCH   2  18
DOCKED: ATOM     18  C   UNL     1     -50.221 -32.022   8.084 -0.21 +0.00    +0.006 A  
DOCKED: ATOM     19  C   UNL     1     -50.187 -30.919   7.232 -0.11 +0.00    +0.001 A  
DOCKED: ATOM     20  C   UNL     1     -49.177 -29.966   7.367 -0.11 +0.00    +0.029 A  
DOCKED: ATOM     21  C   UNL     1     -48.203 -30.116   8.354 -0.08 +0.00    +0.140 A  
DOCKED: ATOM     22  C   UNL     1     -48.238 -31.220   9.206 -0.11 +0.00    +0.029 A  
DOCKED: ATOM     23  F   UNL     1     -47.235 -29.200   8.485 -0.01 -0.00    -0.204 F  
DOCKED: ATOM     24  C   UNL     1     -49.248 -32.175   9.071 -0.17 +0.00    +0.001 A  
DOCKED: ENDBRANCH   2  18
DOCKED: TORSDOF 5
DOCKED: TER
DOCKED: ENDMDL
________________________________________________________________________________


    FINAL DOCKED STATE:
    ________________________


Run:   416 / 512
Time taken for this run:   0.001s

DOCKED: MODEL        416
DOCKED: USER    Run = 416
DOCKED: USER
DOCKED: USER    Estimated Free Energy of Binding    =  -3.67 kcal/mol  [=(1)+(2)+(3)-(4)]
DOCKED: USER
DOCKED: USER    (1) Final Intermolecular Energy     =  -5.17 kcal/mol
DOCKED: USER        vdW + Hbond + desolv Energy     =  -5.17 kcal/mol
DOCKED: USER        Electrostatic Energy            =  +0.00 kcal/mol
DOCKED: USER        Moving Ligand-Fixed Receptor    =  -5.17 kcal/mol
DOCKED: USER        Moving Ligand-Moving Receptor   =  +0.00 kcal/mol
DOCKED: USER    (2) Final Total Internal Energy     =  -1.19 kcal/mol
DOCKED: USER    (3) Torsional Free Energy           =  +1.49 kcal/mol
DOCKED: USER    (4) Unbound System's Energy         =  -1.19 kcal/mol
DOCKED: USER
DOCKED: USER
DOCKED: REMARK  5 active torsions:
DOCKED: REMARK  status: ('A' for Active; 'I' for Inactive)
DOCKED: REMARK    1  A    between atoms: C_2  and  C_19 
DOCKED: REMARK    2  A    between atoms: C_2  and  C_11 
DOCKED: REMARK    3  A    between atoms: C_19  and  C_20 
DOCKED: REMARK    4  A    between atoms: C_20  and  C_21 
DOCKED: REMARK    5  A    between atoms: C_21  and  N_22 
DOCKED: USER                              x       y       z     vdW  Elec       q    Type
DOCKED: USER                           _______ _______ _______ _____ _____    ______ ____
DOCKED: ROOT
DOCKED: ATOM      1  O   UNL     1     -44.915 -20.802  -5.588 -0.04 -0.00    -0.346 OA 
DOCKED: ATOM      2  C   UNL     1     -45.108 -20.858  -4.138 -0.09 +0.00    +0.130 C  
DOCKED: ATOM      3  C   UNL     1     -46.550 -21.246  -3.982 -0.17 +0.00    +0.004 A  
DOCKED: ATOM      4  C   UNL     1     -47.103 -21.497  -5.230 -0.23 +0.00    +0.006 A  
DOCKED: ATOM      5  C   UNL     1     -46.079 -21.308  -6.281 -0.13 +0.00    +0.169 C  
DOCKED: ATOM      6  C   UNL     1     -47.308 -21.377  -2.828 -0.24 -0.00    -0.001 A  
DOCKED: ATOM      7  C   UNL     1     -48.426 -21.881  -5.367 -0.35 +0.00    +0.008 A  
DOCKED: ATOM      8  C   UNL     1     -48.645 -21.759  -2.950 -0.33 +0.00    +0.010 A  
DOCKED: ATOM      9  C   UNL     1     -49.201 -22.010  -4.213 -0.39 +0.00    +0.068 A  
DOCKED: ATOM     10  N   UNL     1     -51.685 -22.723  -4.404 -2.37 -0.00    -0.191 NA 
DOCKED: ATOM     11  C   UNL     1     -50.571 -22.402  -4.318 -0.29 +0.00    +0.101 C  
DOCKED: ENDROOT
DOCKED: BRANCH   2  12
DOCKED: ATOM     12  C   UNL     1     -44.149 -21.895  -3.564 -0.04 +0.00    +0.038 C  
DOCKED: BRANCH  12  13
DOCKED: ATOM     13  C   UNL     1     -44.772 -22.634  -2.381 -0.05 +0.00    +0.038 C  
DOCKED: BRANCH  13  14
DOCKED: ATOM     14  C   UNL     1     -44.726 -24.146  -2.591 -0.00 +0.00    +0.251 C  
DOCKED: BRANCH  14  15
DOCKED: ATOM     15  N   UNL     1     -45.169 -24.484  -3.939 -0.02 +0.00    +0.141 N  
DOCKED: ATOM     16  C   UNL     1     -44.096 -25.142  -4.685 -0.00 +0.00    +0.285 C  
DOCKED: ATOM     17  C   UNL     1     -46.355 -25.341  -3.891 -0.07 +0.00    +0.285 C  
DOCKED: ENDBRANCH  14  15
DOCKED: ENDBRANCH  13  14
DOCKED: ENDBRANCH  12  13
DOCKED: ENDBRANCH   2  12
DOCKED: BRANCH   2  18
DOCKED: ATOM     18  C   UNL     1     -44.810 -19.497  -3.605 -0.12 +0.00    +0.006 A  
DOCKED: ATOM     19  C   UNL     1     -43.528 -19.191  -3.150 -0.05 +0.00    +0.001 A  
DOCKED: ATOM     20  C   UNL     1     -43.252 -17.918  -2.651 -0.03 +0.00    +0.029 A  
DOCKED: ATOM     21  C   UNL     1     -44.257 -16.952  -2.608 -0.04 +0.00    +0.140 A  
DOCKED: ATOM     22  C   UNL     1     -45.539 -17.258  -3.064 -0.16 +0.00    +0.029 A  
DOCKED: ATOM     23  F   UNL     1     -43.990 -15.729  -2.131 +0.01 -0.00    -0.204 F  
DOCKED: ATOM     24  C   UNL     1     -45.817 -18.532  -3.562 +0.03 +0.00    +0.001 A  
DOCKED: ENDBRANCH   2  18
DOCKED: TORSDOF 5
DOCKED: TER
DOCKED: ENDMDL
________________________________________________________________________________


    FINAL DOCKED STATE:
    ________________________


Run:   417 / 512
Time taken for this run:   0.001s

DOCKED: MODEL        417
DOCKED: USER    Run = 417
DOCKED: USER
DOCKED: USER    Estimated Free Energy of Binding    =  -4.68 kcal/mol  [=(1)+(2)+(3)-(4)]
DOCKED: USER
DOCKED: USER    (1) Final Intermolecular Energy     =  -6.17 kcal/mol
DOCKED: USER        vdW + Hbond + desolv Energy     =  -6.17 kcal/mol
DOCKED: USER        Electrostatic Energy            =  +0.00 kcal/mol
DOCKED: USER        Moving Ligand-Fixed Receptor    =  -6.17 kcal/mol
DOCKED: USER        Moving Ligand-Moving Receptor   =  +0.00 kcal/mol
DOCKED: USER    (2) Final Total Internal Energy     =  -1.21 kcal/mol
DOCKED: USER    (3) Torsional Free Energy           =  +1.49 kcal/mol
DOCKED: USER    (4) Unbound System's Energy         =  -1.21 kcal/mol
DOCKED: USER
DOCKED: USER
DOCKED: REMARK  5 active torsions:
DOCKED: REMARK  status: ('A' for Active; 'I' for Inactive)
DOCKED: REMARK    1  A    between atoms: C_2  and  C_19 
DOCKED: REMARK    2  A    between atoms: C_2  and  C_11 
DOCKED: REMARK    3  A    between atoms: C_19  and  C_20 
DOCKED: REMARK    4  A    between atoms: C_20  and  C_21 
DOCKED: REMARK    5  A    between atoms: C_21  and  N_22 
DOCKED: USER                              x       y       z     vdW  Elec       q    Type
DOCKED: USER                           _______ _______ _______ _____ _____    ______ ____
DOCKED: ROOT
DOCKED: ATOM      1  O   UNL     1     -49.447 -25.302   0.866 -0.09 -0.00    -0.346 OA 
DOCKED: ATOM      2  C   UNL     1     -48.158 -24.956   0.265 -0.16 +0.00    +0.130 C  
DOCKED: ATOM      3  C   UNL     1     -48.532 -24.259  -1.011 -0.23 +0.00    +0.004 A  
DOCKED: ATOM      4  C   UNL     1     -49.910 -24.120  -1.081 -0.25 +0.00    +0.006 A  
DOCKED: ATOM      5  C   UNL     1     -50.535 -24.695   0.131 -0.20 +0.00    +0.169 C  
DOCKED: ATOM      6  C   UNL     1     -47.716 -23.777  -2.024 -0.20 -0.00    -0.001 A  
DOCKED: ATOM      7  C   UNL     1     -50.519 -23.502  -2.160 -0.38 +0.00    +0.008 A  
DOCKED: ATOM      8  C   UNL     1     -48.314 -23.155  -3.121 -0.27 +0.00    +0.010 A  
DOCKED: ATOM      9  C   UNL     1     -49.709 -23.018  -3.188 -0.32 +0.00    +0.068 A  
DOCKED: ATOM     10  N   UNL     1     -50.787 -21.854  -5.237 -2.48 -0.00    -0.191 NA 
DOCKED: ATOM     11  C   UNL     1     -50.304 -22.377  -4.318 -0.40 +0.00    +0.101 C  
DOCKED: ENDROOT
DOCKED: BRANCH   2  12
DOCKED: ATOM     12  C   UNL     1     -47.400 -24.055   1.233 -0.15 +0.00    +0.038 C  
DOCKED: BRANCH  12  13
DOCKED: ATOM     13  C   UNL     1     -48.157 -23.892   2.550 -0.16 +0.00    +0.038 C  
DOCKED: BRANCH  13  14
DOCKED: ATOM     14  C   UNL     1     -48.282 -25.228   3.281 -0.07 +0.00    +0.251 C  
DOCKED: BRANCH  14  15
DOCKED: ATOM     15  N   UNL     1     -49.363 -25.173   4.257 -0.06 +0.00    +0.141 N  
DOCKED: ATOM     16  C   UNL     1     -50.641 -24.898   3.597 -0.09 +0.00    +0.285 C  
DOCKED: ATOM     17  C   UNL     1     -49.441 -26.424   5.012 -0.05 +0.00    +0.285 C  
DOCKED: ENDBRANCH  14  15
DOCKED: ENDBRANCH  13  14
DOCKED: ENDBRANCH  12  13
DOCKED: ENDBRANCH   2  12
DOCKED: BRANCH   2  18
DOCKED: ATOM     18  C   UNL     1     -47.426 -26.236   0.036 -0.10 +0.00    +0.006 A  
DOCKED: ATOM     19  C   UNL     1     -48.133 -27.433  -0.072 -0.18 +0.00    +0.001 A  
DOCKED: ATOM     20  C   UNL     1     -47.447 -28.629  -0.286 -0.18 +0.00    +0.029 A  
DOCKED: ATOM     21  C   UNL     1     -46.057 -28.627  -0.392 -0.08 +0.00    +0.140 A  
DOCKED: ATOM     22  C   UNL     1     -45.350 -27.429  -0.284 -0.02 +0.00    +0.029 A  
DOCKED: ATOM     23  F   UNL     1     -45.399 -29.775  -0.599 -0.03 -0.00    -0.204 F  
DOCKED: ATOM     24  C   UNL     1     -46.036 -26.232  -0.070 -0.03 +0.00    +0.001 A  
DOCKED: ENDBRANCH   2  18
DOCKED: TORSDOF 5
DOCKED: TER
DOCKED: ENDMDL
________________________________________________________________________________


    FINAL DOCKED STATE:
    ________________________


Run:   418 / 512
Time taken for this run:   0.001s

DOCKED: MODEL        418
DOCKED: USER    Run = 418
DOCKED: USER
DOCKED: USER    Estimated Free Energy of Binding    =  -4.15 kcal/mol  [=(1)+(2)+(3)-(4)]
DOCKED: USER
DOCKED: USER    (1) Final Intermolecular Energy     =  -5.64 kcal/mol
DOCKED: USER        vdW + Hbond + desolv Energy     =  -5.64 kcal/mol
DOCKED: USER        Electrostatic Energy            =  +0.00 kcal/mol
DOCKED: USER        Moving Ligand-Fixed Receptor    =  -5.64 kcal/mol
DOCKED: USER        Moving Ligand-Moving Receptor   =  +0.00 kcal/mol
DOCKED: USER    (2) Final Total Internal Energy     =  -0.98 kcal/mol
DOCKED: USER    (3) Torsional Free Energy           =  +1.49 kcal/mol
DOCKED: USER    (4) Unbound System's Energy         =  -0.98 kcal/mol
DOCKED: USER
DOCKED: USER
DOCKED: REMARK  5 active torsions:
DOCKED: REMARK  status: ('A' for Active; 'I' for Inactive)
DOCKED: REMARK    1  A    between atoms: C_2  and  C_19 
DOCKED: REMARK    2  A    between atoms: C_2  and  C_11 
DOCKED: REMARK    3  A    between atoms: C_19  and  C_20 
DOCKED: REMARK    4  A    between atoms: C_20  and  C_21 
DOCKED: REMARK    5  A    between atoms: C_21  and  N_22 
DOCKED: USER                              x       y       z     vdW  Elec       q    Type
DOCKED: USER                           _______ _______ _______ _____ _____    ______ ____
DOCKED: ROOT
DOCKED: ATOM      1  O   UNL     1     -54.751 -28.855   7.492 -0.08 -0.00    -0.346 OA 
DOCKED: ATOM      2  C   UNL     1     -53.298 -29.033   7.490 -0.16 +0.00    +0.130 C  
DOCKED: ATOM      3  C   UNL     1     -53.110 -30.452   7.039 -0.22 +0.00    +0.004 A  
DOCKED: ATOM      4  C   UNL     1     -54.339 -31.003   6.705 -0.19 +0.00    +0.006 A  
DOCKED: ATOM      5  C   UNL     1     -55.408 -29.998   6.897 -0.19 +0.00    +0.169 C  
DOCKED: ATOM      6  C   UNL     1     -51.943 -31.193   6.922 -0.26 -0.00    -0.001 A  
DOCKED: ATOM      7  C   UNL     1     -54.445 -32.306   6.250 -0.23 +0.00    +0.008 A  
DOCKED: ATOM      8  C   UNL     1     -52.034 -32.510   6.468 -0.32 +0.00    +0.010 A  
DOCKED: ATOM      9  C   UNL     1     -53.279 -33.064   6.134 -0.27 +0.00    +0.068 A  
DOCKED: ATOM     10  N   UNL     1     -53.411 -35.510   5.291 -2.58 -0.00    -0.191 NA 
DOCKED: ATOM     11  C   UNL     1     -53.352 -34.413   5.670 -0.37 +0.00    +0.101 C  
DOCKED: ENDROOT
DOCKED: BRANCH   2  12
DOCKED: ATOM     12  C   UNL     1     -52.689 -28.019   6.529 -0.19 +0.00    +0.038 C  
DOCKED: BRANCH  12  13
DOCKED: ATOM     13  C   UNL     1     -51.218 -27.761   6.850 -0.13 +0.00    +0.038 C  
DOCKED: BRANCH  13  14
DOCKED: ATOM     14  C   UNL     1     -50.562 -26.903   5.770 -0.08 +0.00    +0.251 C  
DOCKED: BRANCH  14  15
DOCKED: ATOM     15  N   UNL     1     -49.611 -27.696   5.000 -0.10 +0.00    +0.141 N  
DOCKED: ATOM     16  C   UNL     1     -48.513 -26.858   4.517 -0.05 +0.00    +0.285 C  
DOCKED: ATOM     17  C   UNL     1     -49.090 -28.802   5.805 -0.11 +0.00    +0.285 C  
DOCKED: ENDBRANCH  14  15
DOCKED: ENDBRANCH  13  14
DOCKED: ENDBRANCH  12  13
DOCKED: ENDBRANCH   2  12
DOCKED: BRANCH   2  18
DOCKED: ATOM     18  C   UNL     1     -52.828 -28.800   8.887 -0.05 +0.00    +0.006 A  
DOCKED: ATOM     19  C   UNL     1     -53.027 -27.559   9.491 -0.02 +0.00    +0.001 A  
DOCKED: ATOM     20  C   UNL     1     -52.587 -27.342  10.798 -0.00 +0.00    +0.029 A  
DOCKED: ATOM     21  C   UNL     1     -51.950 -28.366  11.498 -0.00 +0.00    +0.140 A  
DOCKED: ATOM     22  C   UNL     1     -51.753 -29.607  10.893 -0.01 +0.00    +0.029 A  
DOCKED: ATOM     23  F   UNL     1     -51.530 -28.158  12.752 +0.00 -0.00    -0.204 F  
DOCKED: ATOM     24  C   UNL     1     -52.192 -29.825   9.586 -0.03 +0.00    +0.001 A  
DOCKED: ENDBRANCH   2  18
DOCKED: TORSDOF 5
DOCKED: TER
DOCKED: ENDMDL
________________________________________________________________________________


    FINAL DOCKED STATE:
    ________________________


Run:   419 / 512
Time taken for this run:   0.001s

DOCKED: MODEL        419
DOCKED: USER    Run = 419
DOCKED: USER
DOCKED: USER    Estimated Free Energy of Binding    =  -3.99 kcal/mol  [=(1)+(2)+(3)-(4)]
DOCKED: USER
DOCKED: USER    (1) Final Intermolecular Energy     =  -5.48 kcal/mol
DOCKED: USER        vdW + Hbond + desolv Energy     =  -5.48 kcal/mol
DOCKED: USER        Electrostatic Energy            =  +0.00 kcal/mol
DOCKED: USER        Moving Ligand-Fixed Receptor    =  -5.48 kcal/mol
DOCKED: USER        Moving Ligand-Moving Receptor   =  +0.00 kcal/mol
DOCKED: USER    (2) Final Total Internal Energy     =  -1.50 kcal/mol
DOCKED: USER    (3) Torsional Free Energy           =  +1.49 kcal/mol
DOCKED: USER    (4) Unbound System's Energy         =  -1.50 kcal/mol
DOCKED: USER
DOCKED: USER
DOCKED: REMARK  5 active torsions:
DOCKED: REMARK  status: ('A' for Active; 'I' for Inactive)
DOCKED: REMARK    1  A    between atoms: C_2  and  C_19 
DOCKED: REMARK    2  A    between atoms: C_2  and  C_11 
DOCKED: REMARK    3  A    between atoms: C_19  and  C_20 
DOCKED: REMARK    4  A    between atoms: C_20  and  C_21 
DOCKED: REMARK    5  A    between atoms: C_21  and  N_22 
DOCKED: USER                              x       y       z     vdW  Elec       q    Type
DOCKED: USER                           _______ _______ _______ _____ _____    ______ ____
DOCKED: ROOT
DOCKED: ATOM      1  O   UNL     1     -50.795 -28.919   7.177 -0.05 -0.00    -0.346 OA 
DOCKED: ATOM      2  C   UNL     1     -52.063 -29.027   7.899 -0.10 +0.00    +0.130 C  
DOCKED: ATOM      3  C   UNL     1     -52.627 -30.341   7.442 -0.18 +0.00    +0.004 A  
DOCKED: ATOM      4  C   UNL     1     -51.712 -30.980   6.618 -0.27 +0.00    +0.006 A  
DOCKED: ATOM      5  C   UNL     1     -50.493 -30.152   6.484 -0.10 +0.00    +0.169 C  
DOCKED: ATOM      6  C   UNL     1     -53.847 -30.929   7.742 -0.15 -0.00    -0.001 A  
DOCKED: ATOM      7  C   UNL     1     -51.984 -32.219   6.064 -0.33 +0.00    +0.008 A  
DOCKED: ATOM      8  C   UNL     1     -54.138 -32.177   7.187 -0.19 +0.00    +0.010 A  
DOCKED: ATOM      9  C   UNL     1     -53.211 -32.818   6.353 -0.25 +0.00    +0.068 A  
DOCKED: ATOM     10  N   UNL     1     -53.781 -35.136   5.343 -2.56 -0.00    -0.191 NA 
DOCKED: ATOM     11  C   UNL     1     -53.526 -34.096   5.796 -0.36 +0.00    +0.101 C  
DOCKED: ENDROOT
DOCKED: BRANCH   2  12
DOCKED: ATOM     12  C   UNL     1     -51.771 -28.994   9.395 -0.04 +0.00    +0.038 C  
DOCKED: BRANCH  12  13
DOCKED: ATOM     13  C   UNL     1     -50.274 -29.111   9.672 -0.03 +0.00    +0.038 C  
DOCKED: BRANCH  13  14
DOCKED: ATOM     14  C   UNL     1     -49.940 -30.451  10.326 -0.02 +0.00    +0.251 C  
DOCKED: BRANCH  14  15
DOCKED: ATOM     15  N   UNL     1     -50.364 -31.553   9.470 -0.07 +0.00    +0.141 N  
DOCKED: ATOM     16  C   UNL     1     -49.203 -32.254   8.919 -0.11 +0.00    +0.285 C  
DOCKED: ATOM     17  C   UNL     1     -51.215 -32.485  10.212 -0.05 +0.00    +0.285 C  
DOCKED: ENDBRANCH  14  15
DOCKED: ENDBRANCH  13  14
DOCKED: ENDBRANCH  12  13
DOCKED: ENDBRANCH   2  12
DOCKED: BRANCH   2  18
DOCKED: ATOM     18  C   UNL     1     -52.900 -27.861   7.488 -0.12 +0.00    +0.006 A  
DOCKED: ATOM     19  C   UNL     1     -53.570 -27.110   8.453 -0.05 +0.00    +0.001 A  
DOCKED: ATOM     20  C   UNL     1     -54.352 -26.020   8.068 -0.04 +0.00    +0.029 A  
DOCKED: ATOM     21  C   UNL     1     -54.462 -25.683   6.719 -0.08 +0.00    +0.140 A  
DOCKED: ATOM     22  C   UNL     1     -53.791 -26.435   5.755 -0.16 +0.00    +0.029 A  
DOCKED: ATOM     23  F   UNL     1     -55.211 -24.636   6.350 +0.00 -0.00    -0.204 F  
DOCKED: ATOM     24  C   UNL     1     -53.009 -27.525   6.140 -0.17 +0.00    +0.001 A  
DOCKED: ENDBRANCH   2  18
DOCKED: TORSDOF 5
DOCKED: TER
DOCKED: ENDMDL
________________________________________________________________________________


    FINAL DOCKED STATE:
    ________________________


Run:   420 / 512
Time taken for this run:   0.001s

DOCKED: MODEL        420
DOCKED: USER    Run = 420
DOCKED: USER
DOCKED: USER    Estimated Free Energy of Binding    =  -3.15 kcal/mol  [=(1)+(2)+(3)-(4)]
DOCKED: USER
DOCKED: USER    (1) Final Intermolecular Energy     =  -4.64 kcal/mol
DOCKED: USER        vdW + Hbond + desolv Energy     =  -4.64 kcal/mol
DOCKED: USER        Electrostatic Energy            =  +0.00 kcal/mol
DOCKED: USER        Moving Ligand-Fixed Receptor    =  -4.64 kcal/mol
DOCKED: USER        Moving Ligand-Moving Receptor   =  +0.00 kcal/mol
DOCKED: USER    (2) Final Total Internal Energy     =  -1.55 kcal/mol
DOCKED: USER    (3) Torsional Free Energy           =  +1.49 kcal/mol
DOCKED: USER    (4) Unbound System's Energy         =  -1.55 kcal/mol
DOCKED: USER
DOCKED: USER
DOCKED: REMARK  5 active torsions:
DOCKED: REMARK  status: ('A' for Active; 'I' for Inactive)
DOCKED: REMARK    1  A    between atoms: C_2  and  C_19 
DOCKED: REMARK    2  A    between atoms: C_2  and  C_11 
DOCKED: REMARK    3  A    between atoms: C_19  and  C_20 
DOCKED: REMARK    4  A    between atoms: C_20  and  C_21 
DOCKED: REMARK    5  A    between atoms: C_21  and  N_22 
DOCKED: USER                              x       y       z     vdW  Elec       q    Type
DOCKED: USER                           _______ _______ _______ _____ _____    ______ ____
DOCKED: ROOT
DOCKED: ATOM      1  O   UNL     1     -42.752 -31.420   0.572 +0.01 -0.00    -0.346 OA 
DOCKED: ATOM      2  C   UNL     1     -44.073 -31.648  -0.014 -0.07 +0.00    +0.130 C  
DOCKED: ATOM      3  C   UNL     1     -44.734 -32.596   0.945 -0.13 +0.00    +0.004 A  
DOCKED: ATOM      4  C   UNL     1     -43.906 -32.804   2.039 -0.09 +0.00    +0.006 A  
DOCKED: ATOM      5  C   UNL     1     -42.665 -32.012   1.889 -0.02 +0.00    +0.169 C  
DOCKED: ATOM      6  C   UNL     1     -45.972 -33.215   0.862 -0.15 -0.00    -0.001 A  
DOCKED: ATOM      7  C   UNL     1     -44.283 -33.637   3.080 -0.17 +0.00    +0.008 A  
DOCKED: ATOM      8  C   UNL     1     -46.365 -34.060   1.901 -0.27 +0.00    +0.010 A  
DOCKED: ATOM      9  C   UNL     1     -45.524 -34.270   3.004 -0.32 +0.00    +0.068 A  
DOCKED: ATOM     10  N   UNL     1     -46.286 -35.842   4.918 -2.59 -0.00    -0.191 NA 
DOCKED: ATOM     11  C   UNL     1     -45.944 -35.137   4.059 -0.21 +0.00    +0.101 C  
DOCKED: ENDROOT
DOCKED: BRANCH   2  12
DOCKED: ATOM     12  C   UNL     1     -44.794 -30.309  -0.116 -0.09 +0.00    +0.038 C  
DOCKED: BRANCH  12  13
DOCKED: ATOM     13  C   UNL     1     -43.924 -29.168   0.408 -0.02 +0.00    +0.038 C  
DOCKED: BRANCH  13  14
DOCKED: ATOM     14  C   UNL     1     -43.141 -28.509  -0.726 +0.00 +0.00    +0.251 C  
DOCKED: BRANCH  14  15
DOCKED: ATOM     15  N   UNL     1     -42.196 -29.456  -1.307 -0.00 +0.00    +0.141 N  
DOCKED: ATOM     16  C   UNL     1     -42.274 -29.431  -2.769 +0.00 +0.00    +0.285 C  
DOCKED: ATOM     17  C   UNL     1     -40.832 -29.159  -0.867 +0.00 +0.00    +0.285 C  
DOCKED: ENDBRANCH  14  15
DOCKED: ENDBRANCH  13  14
DOCKED: ENDBRANCH  12  13
DOCKED: ENDBRANCH   2  12
DOCKED: BRANCH   2  18
DOCKED: ATOM     18  C   UNL     1     -43.855 -32.246  -1.364 -0.09 +0.00    +0.006 A  
DOCKED: ATOM     19  C   UNL     1     -42.901 -33.248  -1.536 -0.05 +0.00    +0.001 A  
DOCKED: ATOM     20  C   UNL     1     -42.697 -33.806  -2.799 -0.05 +0.00    +0.029 A  
DOCKED: ATOM     21  C   UNL     1     -43.448 -33.362  -3.887 -0.07 +0.00    +0.140 A  
DOCKED: ATOM     22  C   UNL     1     -44.402 -32.359  -3.714 -0.12 +0.00    +0.029 A  
DOCKED: ATOM     23  F   UNL     1     -43.254 -33.898  -5.098 -0.02 -0.00    -0.204 F  
DOCKED: ATOM     24  C   UNL     1     -44.606 -31.800  -2.451 -0.12 +0.00    +0.001 A  
DOCKED: ENDBRANCH   2  18
DOCKED: TORSDOF 5
DOCKED: TER
DOCKED: ENDMDL
________________________________________________________________________________


    FINAL DOCKED STATE:
    ________________________


Run:   421 / 512
Time taken for this run:   0.001s

DOCKED: MODEL        421
DOCKED: USER    Run = 421
DOCKED: USER
DOCKED: USER    Estimated Free Energy of Binding    =  -4.92 kcal/mol  [=(1)+(2)+(3)-(4)]
DOCKED: USER
DOCKED: USER    (1) Final Intermolecular Energy     =  -6.41 kcal/mol
DOCKED: USER        vdW + Hbond + desolv Energy     =  -6.41 kcal/mol
DOCKED: USER        Electrostatic Energy            =  +0.00 kcal/mol
DOCKED: USER        Moving Ligand-Fixed Receptor    =  -6.41 kcal/mol
DOCKED: USER        Moving Ligand-Moving Receptor   =  +0.00 kcal/mol
DOCKED: USER    (2) Final Total Internal Energy     =  -1.36 kcal/mol
DOCKED: USER    (3) Torsional Free Energy           =  +1.49 kcal/mol
DOCKED: USER    (4) Unbound System's Energy         =  -1.36 kcal/mol
DOCKED: USER
DOCKED: USER
DOCKED: REMARK  5 active torsions:
DOCKED: REMARK  status: ('A' for Active; 'I' for Inactive)
DOCKED: REMARK    1  A    between atoms: C_2  and  C_19 
DOCKED: REMARK    2  A    between atoms: C_2  and  C_11 
DOCKED: REMARK    3  A    between atoms: C_19  and  C_20 
DOCKED: REMARK    4  A    between atoms: C_20  and  C_21 
DOCKED: REMARK    5  A    between atoms: C_21  and  N_22 
DOCKED: USER                              x       y       z     vdW  Elec       q    Type
DOCKED: USER                           _______ _______ _______ _____ _____    ______ ____
DOCKED: ROOT
DOCKED: ATOM      1  O   UNL     1     -47.485 -25.437  -0.253 -0.02 -0.00    -0.346 OA 
DOCKED: ATOM      2  C   UNL     1     -48.873 -25.247   0.173 -0.20 +0.00    +0.130 C  
DOCKED: ATOM      3  C   UNL     1     -49.480 -24.433  -0.933 -0.29 +0.00    +0.004 A  
DOCKED: ATOM      4  C   UNL     1     -48.555 -24.267  -1.953 -0.26 +0.00    +0.006 A  
DOCKED: ATOM      5  C   UNL     1     -47.294 -24.959  -1.605 -0.12 +0.00    +0.169 C  
DOCKED: ATOM      6  C   UNL     1     -50.754 -23.893  -1.033 -0.10 -0.00    -0.001 A  
DOCKED: ATOM      7  C   UNL     1     -48.866 -23.557  -3.100 -0.27 +0.00    +0.008 A  
DOCKED: ATOM      8  C   UNL     1     -51.082 -23.171  -2.181 -0.39 +0.00    +0.010 A  
DOCKED: ATOM      9  C   UNL     1     -50.143 -23.004  -3.210 -0.30 +0.00    +0.068 A  
DOCKED: ATOM     10  N   UNL     1     -50.786 -21.661  -5.330 -2.46 -0.00    -0.191 NA 
DOCKED: ATOM     11  C   UNL     1     -50.497 -22.263  -4.379 -0.25 +0.00    +0.101 C  
DOCKED: ENDROOT
DOCKED: BRANCH   2  12
DOCKED: ATOM     12  C   UNL     1     -49.522 -26.617   0.328 -0.25 +0.00    +0.038 C  
DOCKED: BRANCH  12  13
DOCKED: ATOM     13  C   UNL     1     -48.494 -27.681   0.707 -0.20 +0.00    +0.038 C  
DOCKED: BRANCH  13  14
DOCKED: ATOM     14  C   UNL     1     -48.591 -28.036   2.189 -0.12 +0.00    +0.251 C  
DOCKED: BRANCH  14  15
DOCKED: ATOM     15  N   UNL     1     -47.427 -27.532   2.909 -0.05 +0.00    +0.141 N  
DOCKED: ATOM     16  C   UNL     1     -47.060 -28.441   3.997 -0.07 +0.00    +0.285 C  
DOCKED: ATOM     17  C   UNL     1     -46.297 -27.349   1.998 -0.01 +0.00    +0.285 C  
DOCKED: ENDBRANCH  14  15
DOCKED: ENDBRANCH  13  14
DOCKED: ENDBRANCH  12  13
DOCKED: ENDBRANCH   2  12
DOCKED: BRANCH   2  18
DOCKED: ATOM     18  C   UNL     1     -48.833 -24.519   1.476 -0.19 +0.00    +0.006 A  
DOCKED: ATOM     19  C   UNL     1     -47.620 -24.348   2.141 -0.15 +0.00    +0.001 A  
DOCKED: ATOM     20  C   UNL     1     -47.584 -23.668   3.359 -0.06 +0.00    +0.029 A  
DOCKED: ATOM     21  C   UNL     1     -48.760 -23.160   3.909 -0.10 +0.00    +0.140 A  
DOCKED: ATOM     22  C   UNL     1     -49.973 -23.331   3.243 -0.21 +0.00    +0.029 A  
DOCKED: ATOM     23  F   UNL     1     -48.726 -22.505   5.077 -0.05 -0.00    -0.204 F  
DOCKED: ATOM     24  C   UNL     1     -50.010 -24.012   2.025 -0.25 +0.00    +0.001 A  
DOCKED: ENDBRANCH   2  18
DOCKED: TORSDOF 5
DOCKED: TER
DOCKED: ENDMDL
________________________________________________________________________________


    FINAL DOCKED STATE:
    ________________________


Run:   422 / 512
Time taken for this run:   0.001s

DOCKED: MODEL        422
DOCKED: USER    Run = 422
DOCKED: USER
DOCKED: USER    Estimated Free Energy of Binding    =  -4.32 kcal/mol  [=(1)+(2)+(3)-(4)]
DOCKED: USER
DOCKED: USER    (1) Final Intermolecular Energy     =  -5.81 kcal/mol
DOCKED: USER        vdW + Hbond + desolv Energy     =  -5.81 kcal/mol
DOCKED: USER        Electrostatic Energy            =  +0.00 kcal/mol
DOCKED: USER        Moving Ligand-Fixed Receptor    =  -5.81 kcal/mol
DOCKED: USER        Moving Ligand-Moving Receptor   =  +0.00 kcal/mol
DOCKED: USER    (2) Final Total Internal Energy     =  -1.02 kcal/mol
DOCKED: USER    (3) Torsional Free Energy           =  +1.49 kcal/mol
DOCKED: USER    (4) Unbound System's Energy         =  -1.02 kcal/mol
DOCKED: USER
DOCKED: USER
DOCKED: REMARK  5 active torsions:
DOCKED: REMARK  status: ('A' for Active; 'I' for Inactive)
DOCKED: REMARK    1  A    between atoms: C_2  and  C_19 
DOCKED: REMARK    2  A    between atoms: C_2  and  C_11 
DOCKED: REMARK    3  A    between atoms: C_19  and  C_20 
DOCKED: REMARK    4  A    between atoms: C_20  and  C_21 
DOCKED: REMARK    5  A    between atoms: C_21  and  N_22 
DOCKED: USER                              x       y       z     vdW  Elec       q    Type
DOCKED: USER                           _______ _______ _______ _____ _____    ______ ____
DOCKED: ROOT
DOCKED: ATOM      1  O   UNL     1     -51.402 -28.639   7.126 -0.05 -0.00    -0.346 OA 
DOCKED: ATOM      2  C   UNL     1     -52.843 -28.669   7.385 -0.15 +0.00    +0.130 C  
DOCKED: ATOM      3  C   UNL     1     -53.254 -30.051   6.967 -0.22 +0.00    +0.004 A  
DOCKED: ATOM      4  C   UNL     1     -52.131 -30.783   6.606 -0.26 +0.00    +0.006 A  
DOCKED: ATOM      5  C   UNL     1     -50.917 -29.954   6.769 -0.19 +0.00    +0.169 C  
DOCKED: ATOM      6  C   UNL     1     -54.519 -30.619   6.921 -0.22 -0.00    -0.001 A  
DOCKED: ATOM      7  C   UNL     1     -52.233 -32.098   6.184 -0.33 +0.00    +0.008 A  
DOCKED: ATOM      8  C   UNL     1     -54.639 -31.943   6.494 -0.23 +0.00    +0.010 A  
DOCKED: ATOM      9  C   UNL     1     -53.501 -32.678   6.128 -0.25 +0.00    +0.068 A  
DOCKED: ATOM     10  N   UNL     1     -53.759 -35.135   5.345 -2.56 -0.00    -0.191 NA 
DOCKED: ATOM     11  C   UNL     1     -53.643 -34.033   5.696 -0.36 +0.00    +0.101 C  
DOCKED: ENDROOT
DOCKED: BRANCH   2  12
DOCKED: ATOM     12  C   UNL     1     -53.072 -28.405   8.868 -0.05 +0.00    +0.038 C  
DOCKED: BRANCH  12  13
DOCKED: ATOM     13  C   UNL     1     -51.782 -27.973   9.563 -0.02 +0.00    +0.038 C  
DOCKED: BRANCH  13  14
DOCKED: ATOM     14  C   UNL     1     -51.963 -26.631  10.270 -0.00 +0.00    +0.251 C  
DOCKED: BRANCH  14  15
DOCKED: ATOM     15  N   UNL     1     -51.069 -26.539  11.419 +0.00 +0.00    +0.141 N  
DOCKED: ATOM     16  C   UNL     1     -51.565 -27.359  12.525 +0.00 +0.00    +0.285 C  
DOCKED: ATOM     17  C   UNL     1     -49.713 -26.949  11.051 -0.00 +0.00    +0.285 C  
DOCKED: ENDBRANCH  14  15
DOCKED: ENDBRANCH  13  14
DOCKED: ENDBRANCH  12  13
DOCKED: ENDBRANCH   2  12
DOCKED: BRANCH   2  18
DOCKED: ATOM     18  C   UNL     1     -53.459 -27.600   6.546 -0.20 +0.00    +0.006 A  
DOCKED: ATOM     19  C   UNL     1     -54.839 -27.400   6.576 -0.21 +0.00    +0.001 A  
DOCKED: ATOM     20  C   UNL     1     -55.414 -26.400   5.791 -0.11 +0.00    +0.029 A  
DOCKED: ATOM     21  C   UNL     1     -54.610 -25.603   4.977 -0.07 +0.00    +0.140 A  
DOCKED: ATOM     22  C   UNL     1     -53.231 -25.804   4.948 -0.15 +0.00    +0.029 A  
DOCKED: ATOM     23  F   UNL     1     -55.163 -24.642   4.225 -0.03 -0.00    -0.204 F  
DOCKED: ATOM     24  C   UNL     1     -52.654 -26.804   5.733 -0.15 +0.00    +0.001 A  
DOCKED: ENDBRANCH   2  18
DOCKED: TORSDOF 5
DOCKED: TER
DOCKED: ENDMDL
________________________________________________________________________________


    FINAL DOCKED STATE:
    ________________________


Run:   423 / 512
Time taken for this run:   0.001s

DOCKED: MODEL        423
DOCKED: USER    Run = 423
DOCKED: USER
DOCKED: USER    Estimated Free Energy of Binding    =  -4.19 kcal/mol  [=(1)+(2)+(3)-(4)]
DOCKED: USER
DOCKED: USER    (1) Final Intermolecular Energy     =  -5.68 kcal/mol
DOCKED: USER        vdW + Hbond + desolv Energy     =  -5.68 kcal/mol
DOCKED: USER        Electrostatic Energy            =  +0.00 kcal/mol
DOCKED: USER        Moving Ligand-Fixed Receptor    =  -5.68 kcal/mol
DOCKED: USER        Moving Ligand-Moving Receptor   =  +0.00 kcal/mol
DOCKED: USER    (2) Final Total Internal Energy     =  -1.16 kcal/mol
DOCKED: USER    (3) Torsional Free Energy           =  +1.49 kcal/mol
DOCKED: USER    (4) Unbound System's Energy         =  -1.16 kcal/mol
DOCKED: USER
DOCKED: USER
DOCKED: REMARK  5 active torsions:
DOCKED: REMARK  status: ('A' for Active; 'I' for Inactive)
DOCKED: REMARK    1  A    between atoms: C_2  and  C_19 
DOCKED: REMARK    2  A    between atoms: C_2  and  C_11 
DOCKED: REMARK    3  A    between atoms: C_19  and  C_20 
DOCKED: REMARK    4  A    between atoms: C_20  and  C_21 
DOCKED: REMARK    5  A    between atoms: C_21  and  N_22 
DOCKED: USER                              x       y       z     vdW  Elec       q    Type
DOCKED: USER                           _______ _______ _______ _____ _____    ______ ____
DOCKED: ROOT
DOCKED: ATOM      1  O   UNL     1     -49.509 -30.209   8.138 -0.06 -0.00    -0.346 OA 
DOCKED: ATOM      2  C   UNL     1     -50.672 -29.596   7.495 -0.14 +0.00    +0.130 C  
DOCKED: ATOM      3  C   UNL     1     -51.420 -30.763   6.918 -0.24 +0.00    +0.004 A  
DOCKED: ATOM      4  C   UNL     1     -50.800 -31.947   7.292 -0.23 +0.00    +0.006 A  
DOCKED: ATOM      5  C   UNL     1     -49.624 -31.651   8.140 -0.14 +0.00    +0.169 C  
DOCKED: ATOM      6  C   UNL     1     -52.565 -30.777   6.134 -0.21 -0.00    -0.001 A  
DOCKED: ATOM      7  C   UNL     1     -51.296 -33.177   6.895 -0.32 +0.00    +0.008 A  
DOCKED: ATOM      8  C   UNL     1     -53.075 -32.009   5.722 -0.28 +0.00    +0.010 A  
DOCKED: ATOM      9  C   UNL     1     -52.443 -33.203   6.101 -0.32 +0.00    +0.068 A  
DOCKED: ATOM     10  N   UNL     1     -53.418 -35.474   5.323 -2.58 -0.00    -0.191 NA 
DOCKED: ATOM     11  C   UNL     1     -52.981 -34.455   5.672 -0.36 +0.00    +0.101 C  
DOCKED: ENDROOT
DOCKED: BRANCH   2  12
DOCKED: ATOM     12  C   UNL     1     -51.470 -28.846   8.555 -0.06 +0.00    +0.038 C  
DOCKED: BRANCH  12  13
DOCKED: ATOM     13  C   UNL     1     -52.193 -29.809   9.494 -0.04 +0.00    +0.038 C  
DOCKED: BRANCH  13  14
DOCKED: ATOM     14  C   UNL     1     -53.669 -29.933   9.124 -0.02 +0.00    +0.251 C  
DOCKED: BRANCH  14  15
DOCKED: ATOM     15  N   UNL     1     -54.432 -30.458  10.250 -0.02 +0.00    +0.141 N  
DOCKED: ATOM     16  C   UNL     1     -55.582 -29.599  10.539 +0.00 +0.00    +0.285 C  
DOCKED: ATOM     17  C   UNL     1     -54.876 -31.826   9.980 -0.01 +0.00    +0.285 C  
DOCKED: ENDBRANCH  14  15
DOCKED: ENDBRANCH  13  14
DOCKED: ENDBRANCH  12  13
DOCKED: ENDBRANCH   2  12
DOCKED: BRANCH   2  18
DOCKED: ATOM     18  C   UNL     1     -50.154 -28.664   6.451 -0.16 +0.00    +0.006 A  
DOCKED: ATOM     19  C   UNL     1     -50.657 -27.367   6.363 -0.11 +0.00    +0.001 A  
DOCKED: ATOM     20  C   UNL     1     -50.172 -26.497   5.386 -0.09 +0.00    +0.029 A  
DOCKED: ATOM     21  C   UNL     1     -49.183 -26.924   4.500 -0.07 +0.00    +0.140 A  
DOCKED: ATOM     22  C   UNL     1     -48.680 -28.222   4.590 -0.14 +0.00    +0.029 A  
DOCKED: ATOM     23  F   UNL     1     -48.716 -26.088   3.564 -0.01 -0.00    -0.204 F  
DOCKED: ATOM     24  C   UNL     1     -49.165 -29.093   5.566 -0.06 +0.00    +0.001 A  
DOCKED: ENDBRANCH   2  18
DOCKED: TORSDOF 5
DOCKED: TER
DOCKED: ENDMDL
________________________________________________________________________________


    FINAL DOCKED STATE:
    ________________________


Run:   424 / 512
Time taken for this run:   0.001s

DOCKED: MODEL        424
DOCKED: USER    Run = 424
DOCKED: USER
DOCKED: USER    Estimated Free Energy of Binding    =  -4.64 kcal/mol  [=(1)+(2)+(3)-(4)]
DOCKED: USER
DOCKED: USER    (1) Final Intermolecular Energy     =  -6.13 kcal/mol
DOCKED: USER        vdW + Hbond + desolv Energy     =  -6.13 kcal/mol
DOCKED: USER        Electrostatic Energy            =  +0.00 kcal/mol
DOCKED: USER        Moving Ligand-Fixed Receptor    =  -6.13 kcal/mol
DOCKED: USER        Moving Ligand-Moving Receptor   =  +0.00 kcal/mol
DOCKED: USER    (2) Final Total Internal Energy     =  -1.03 kcal/mol
DOCKED: USER    (3) Torsional Free Energy           =  +1.49 kcal/mol
DOCKED: USER    (4) Unbound System's Energy         =  -1.03 kcal/mol
DOCKED: USER
DOCKED: USER
DOCKED: REMARK  5 active torsions:
DOCKED: REMARK  status: ('A' for Active; 'I' for Inactive)
DOCKED: REMARK    1  A    between atoms: C_2  and  C_19 
DOCKED: REMARK    2  A    between atoms: C_2  and  C_11 
DOCKED: REMARK    3  A    between atoms: C_19  and  C_20 
DOCKED: REMARK    4  A    between atoms: C_20  and  C_21 
DOCKED: REMARK    5  A    between atoms: C_21  and  N_22 
DOCKED: USER                              x       y       z     vdW  Elec       q    Type
DOCKED: USER                           _______ _______ _______ _____ _____    ______ ____
DOCKED: ROOT
DOCKED: ATOM      1  O   UNL     1     -55.487 -31.857   8.309 -0.01 -0.00    -0.346 OA 
DOCKED: ATOM      2  C   UNL     1     -54.118 -31.427   8.017 -0.11 +0.00    +0.130 C  
DOCKED: ATOM      3  C   UNL     1     -53.834 -32.023   6.669 -0.24 +0.00    +0.004 A  
DOCKED: ATOM      4  C   UNL     1     -54.976 -32.644   6.183 -0.26 +0.00    +0.006 A  
DOCKED: ATOM      5  C   UNL     1     -56.082 -32.494   7.155 -0.17 +0.00    +0.169 C  
DOCKED: ATOM      6  C   UNL     1     -52.663 -32.006   5.926 -0.33 -0.00    -0.001 A  
DOCKED: ATOM      7  C   UNL     1     -54.986 -33.270   4.948 -0.31 +0.00    +0.008 A  
DOCKED: ATOM      8  C   UNL     1     -52.655 -32.637   4.681 -0.34 +0.00    +0.010 A  
DOCKED: ATOM      9  C   UNL     1     -53.811 -33.265   4.194 -0.31 +0.00    +0.068 A  
DOCKED: ATOM     10  N   UNL     1     -53.764 -34.422   1.877 -2.32 -0.00    -0.191 NA 
DOCKED: ATOM     11  C   UNL     1     -53.785 -33.904   2.917 -0.31 +0.00    +0.101 C  
DOCKED: ENDROOT
DOCKED: BRANCH   2  12
DOCKED: ATOM     12  C   UNL     1     -54.081 -29.903   8.013 -0.14 +0.00    +0.038 C  
DOCKED: BRANCH  12  13
DOCKED: ATOM     13  C   UNL     1     -54.194 -29.348   6.595 -0.21 +0.00    +0.038 C  
DOCKED: BRANCH  13  14
DOCKED: ATOM     14  C   UNL     1     -55.406 -28.428   6.460 -0.14 +0.00    +0.251 C  
DOCKED: BRANCH  14  15
DOCKED: ATOM     15  N   UNL     1     -55.048 -27.061   6.820 -0.14 +0.00    +0.141 N  
DOCKED: ATOM     16  C   UNL     1     -53.801 -26.664   6.164 -0.13 +0.00    +0.285 C  
DOCKED: ATOM     17  C   UNL     1     -56.125 -26.135   6.465 -0.09 +0.00    +0.285 C  
DOCKED: ENDBRANCH  14  15
DOCKED: ENDBRANCH  13  14
DOCKED: ENDBRANCH  12  13
DOCKED: ENDBRANCH   2  12
DOCKED: BRANCH   2  18
DOCKED: ATOM     18  C   UNL     1     -53.247 -31.984   9.094 -0.08 +0.00    +0.006 A  
DOCKED: ATOM     19  C   UNL     1     -52.563 -31.123   9.951 -0.04 +0.00    +0.001 A  
DOCKED: ATOM     20  C   UNL     1     -51.749 -31.645  10.957 -0.04 +0.00    +0.029 A  
DOCKED: ATOM     21  C   UNL     1     -51.621 -33.025  11.105 -0.07 +0.00    +0.140 A  
DOCKED: ATOM     22  C   UNL     1     -52.306 -33.885  10.247 -0.17 +0.00    +0.029 A  
DOCKED: ATOM     23  F   UNL     1     -50.841 -33.525  12.072 -0.02 -0.00    -0.204 F  
DOCKED: ATOM     24  C   UNL     1     -53.120 -33.364   9.240 -0.15 +0.00    +0.001 A  
DOCKED: ENDBRANCH   2  18
DOCKED: TORSDOF 5
DOCKED: TER
DOCKED: ENDMDL
________________________________________________________________________________


    FINAL DOCKED STATE:
    ________________________


Run:   425 / 512
Time taken for this run:   0.001s

DOCKED: MODEL        425
DOCKED: USER    Run = 425
DOCKED: USER
DOCKED: USER    Estimated Free Energy of Binding    =  -4.44 kcal/mol  [=(1)+(2)+(3)-(4)]
DOCKED: USER
DOCKED: USER    (1) Final Intermolecular Energy     =  -5.94 kcal/mol
DOCKED: USER        vdW + Hbond + desolv Energy     =  -5.94 kcal/mol
DOCKED: USER        Electrostatic Energy            =  +0.00 kcal/mol
DOCKED: USER        Moving Ligand-Fixed Receptor    =  -5.94 kcal/mol
DOCKED: USER        Moving Ligand-Moving Receptor   =  +0.00 kcal/mol
DOCKED: USER    (2) Final Total Internal Energy     =  -1.44 kcal/mol
DOCKED: USER    (3) Torsional Free Energy           =  +1.49 kcal/mol
DOCKED: USER    (4) Unbound System's Energy         =  -1.44 kcal/mol
DOCKED: USER
DOCKED: USER
DOCKED: REMARK  5 active torsions:
DOCKED: REMARK  status: ('A' for Active; 'I' for Inactive)
DOCKED: REMARK    1  A    between atoms: C_2  and  C_19 
DOCKED: REMARK    2  A    between atoms: C_2  and  C_11 
DOCKED: REMARK    3  A    between atoms: C_19  and  C_20 
DOCKED: REMARK    4  A    between atoms: C_20  and  C_21 
DOCKED: REMARK    5  A    between atoms: C_21  and  N_22 
DOCKED: USER                              x       y       z     vdW  Elec       q    Type
DOCKED: USER                           _______ _______ _______ _____ _____    ______ ____
DOCKED: ROOT
DOCKED: ATOM      1  O   UNL     1     -50.708 -28.958   7.042 -0.06 -0.00    -0.346 OA 
DOCKED: ATOM      2  C   UNL     1     -52.109 -28.880   7.458 -0.13 +0.00    +0.130 C  
DOCKED: ATOM      3  C   UNL     1     -52.680 -30.207   7.047 -0.22 +0.00    +0.004 A  
DOCKED: ATOM      4  C   UNL     1     -51.670 -31.014   6.542 -0.28 +0.00    +0.006 A  
DOCKED: ATOM      5  C   UNL     1     -50.378 -30.294   6.595 -0.04 +0.00    +0.169 C  
DOCKED: ATOM      6  C   UNL     1     -53.986 -30.667   7.124 -0.21 -0.00    -0.001 A  
DOCKED: ATOM      7  C   UNL     1     -51.929 -32.298   6.096 -0.34 +0.00    +0.008 A  
DOCKED: ATOM      8  C   UNL     1     -54.265 -31.958   6.674 -0.22 +0.00    +0.010 A  
DOCKED: ATOM      9  C   UNL     1     -53.241 -32.770   6.163 -0.26 +0.00    +0.068 A  
DOCKED: ATOM     10  N   UNL     1     -53.791 -35.164   5.341 -2.56 -0.00    -0.191 NA 
DOCKED: ATOM     11  C   UNL     1     -53.545 -34.090   5.709 -0.36 +0.00    +0.101 C  
DOCKED: ENDROOT
DOCKED: BRANCH   2  12
DOCKED: ATOM     12  C   UNL     1     -52.153 -28.656   8.965 -0.05 +0.00    +0.038 C  
DOCKED: BRANCH  12  13
DOCKED: ATOM     13  C   UNL     1     -51.177 -29.577   9.694 -0.03 +0.00    +0.038 C  
DOCKED: BRANCH  13  14
DOCKED: ATOM     14  C   UNL     1     -51.903 -30.772  10.309 -0.01 +0.00    +0.251 C  
DOCKED: BRANCH  14  15
DOCKED: ATOM     15  N   UNL     1     -51.571 -31.994   9.586 -0.06 +0.00    +0.141 N  
DOCKED: ATOM     16  C   UNL     1     -50.207 -32.424   9.898 -0.07 +0.00    +0.285 C  
DOCKED: ATOM     17  C   UNL     1     -52.525 -33.057   9.906 -0.06 +0.00    +0.285 C  
DOCKED: ENDBRANCH  14  15
DOCKED: ENDBRANCH  13  14
DOCKED: ENDBRANCH  12  13
DOCKED: ENDBRANCH   2  12
DOCKED: BRANCH   2  18
DOCKED: ATOM     18  C   UNL     1     -52.718 -27.732   6.724 -0.17 +0.00    +0.006 A  
DOCKED: ATOM     19  C   UNL     1     -54.100 -27.546   6.747 -0.20 +0.00    +0.001 A  
DOCKED: ATOM     20  C   UNL     1     -54.669 -26.473   6.060 -0.17 +0.00    +0.029 A  
DOCKED: ATOM     21  C   UNL     1     -53.856 -25.587   5.354 -0.12 +0.00    +0.140 A  
DOCKED: ATOM     22  C   UNL     1     -52.474 -25.774   5.332 -0.15 +0.00    +0.029 A  
DOCKED: ATOM     23  F   UNL     1     -54.402 -24.556   4.696 -0.02 -0.00    -0.204 F  
DOCKED: ATOM     24  C   UNL     1     -51.904 -26.848   6.018 -0.13 +0.00    +0.001 A  
DOCKED: ENDBRANCH   2  18
DOCKED: TORSDOF 5
DOCKED: TER
DOCKED: ENDMDL
________________________________________________________________________________


    FINAL DOCKED STATE:
    ________________________


Run:   426 / 512
Time taken for this run:   0.001s

DOCKED: MODEL        426
DOCKED: USER    Run = 426
DOCKED: USER
DOCKED: USER    Estimated Free Energy of Binding    =  -5.54 kcal/mol  [=(1)+(2)+(3)-(4)]
DOCKED: USER
DOCKED: USER    (1) Final Intermolecular Energy     =  -7.03 kcal/mol
DOCKED: USER        vdW + Hbond + desolv Energy     =  -7.03 kcal/mol
DOCKED: USER        Electrostatic Energy            =  +0.00 kcal/mol
DOCKED: USER        Moving Ligand-Fixed Receptor    =  -7.03 kcal/mol
DOCKED: USER        Moving Ligand-Moving Receptor   =  +0.00 kcal/mol
DOCKED: USER    (2) Final Total Internal Energy     =  -1.47 kcal/mol
DOCKED: USER    (3) Torsional Free Energy           =  +1.49 kcal/mol
DOCKED: USER    (4) Unbound System's Energy         =  -1.47 kcal/mol
DOCKED: USER
DOCKED: USER
DOCKED: REMARK  5 active torsions:
DOCKED: REMARK  status: ('A' for Active; 'I' for Inactive)
DOCKED: REMARK    1  A    between atoms: C_2  and  C_19 
DOCKED: REMARK    2  A    between atoms: C_2  and  C_11 
DOCKED: REMARK    3  A    between atoms: C_19  and  C_20 
DOCKED: REMARK    4  A    between atoms: C_20  and  C_21 
DOCKED: REMARK    5  A    between atoms: C_21  and  N_22 
DOCKED: USER                              x       y       z     vdW  Elec       q    Type
DOCKED: USER                           _______ _______ _______ _____ _____    ______ ____
DOCKED: ROOT
DOCKED: ATOM      1  O   UNL     1     -51.669 -31.668   7.547 -0.07 -0.00    -0.346 OA 
DOCKED: ATOM      2  C   UNL     1     -52.388 -32.921   7.780 -0.18 +0.00    +0.130 C  
DOCKED: ATOM      3  C   UNL     1     -52.865 -33.322   6.414 -0.32 +0.00    +0.004 A  
DOCKED: ATOM      4  C   UNL     1     -52.369 -32.437   5.468 -0.35 +0.00    +0.006 A  
DOCKED: ATOM      5  C   UNL     1     -51.532 -31.411   6.130 -0.19 +0.00    +0.169 C  
DOCKED: ATOM      6  C   UNL     1     -53.665 -34.391   6.038 -0.32 -0.00    -0.001 A  
DOCKED: ATOM      7  C   UNL     1     -52.656 -32.585   4.122 -0.22 +0.00    +0.008 A  
DOCKED: ATOM      8  C   UNL     1     -53.967 -34.552   4.685 -0.43 +0.00    +0.010 A  
DOCKED: ATOM      9  C   UNL     1     -53.465 -33.654   3.732 -0.43 +0.00    +0.068 A  
DOCKED: ATOM     10  N   UNL     1     -54.041 -33.984   1.227 -3.24 -0.00    -0.191 NA 
DOCKED: ATOM     11  C   UNL     1     -53.783 -33.836   2.351 -0.28 +0.00    +0.101 C  
DOCKED: ENDROOT
DOCKED: BRANCH   2  12
DOCKED: ATOM     12  C   UNL     1     -51.419 -33.927   8.390 -0.29 +0.00    +0.038 C  
DOCKED: BRANCH  12  13
DOCKED: ATOM     13  C   UNL     1     -50.268 -33.227   9.109 -0.08 +0.00    +0.038 C  
DOCKED: BRANCH  13  14
DOCKED: ATOM     14  C   UNL     1     -50.616 -32.958  10.572 -0.08 +0.00    +0.251 C  
DOCKED: BRANCH  14  15
DOCKED: ATOM     15  N   UNL     1     -50.158 -31.631  10.966 -0.04 +0.00    +0.141 N  
DOCKED: ATOM     16  C   UNL     1     -48.831 -31.358  10.414 -0.04 +0.00    +0.285 C  
DOCKED: ATOM     17  C   UNL     1     -51.110 -30.607  10.532 -0.01 +0.00    +0.285 C  
DOCKED: ENDBRANCH  14  15
DOCKED: ENDBRANCH  13  14
DOCKED: ENDBRANCH  12  13
DOCKED: ENDBRANCH   2  12
DOCKED: BRANCH   2  18
DOCKED: ATOM     18  C   UNL     1     -53.506 -32.613   8.720 -0.11 +0.00    +0.006 A  
DOCKED: ATOM     19  C   UNL     1     -54.111 -31.358   8.695 -0.08 +0.00    +0.001 A  
DOCKED: ATOM     20  C   UNL     1     -55.157 -31.071   9.575 -0.04 +0.00    +0.029 A  
DOCKED: ATOM     21  C   UNL     1     -55.595 -32.040  10.476 -0.01 +0.00    +0.140 A  
DOCKED: ATOM     22  C   UNL     1     -54.989 -33.297  10.499 -0.08 +0.00    +0.029 A  
DOCKED: ATOM     23  F   UNL     1     -56.599 -31.766  11.318 +0.01 -0.00    -0.204 F  
DOCKED: ATOM     24  C   UNL     1     -53.943 -33.584   9.621 -0.14 +0.00    +0.001 A  
DOCKED: ENDBRANCH   2  18
DOCKED: TORSDOF 5
DOCKED: TER
DOCKED: ENDMDL
________________________________________________________________________________


    FINAL DOCKED STATE:
    ________________________


Run:   427 / 512
Time taken for this run:   0.001s

DOCKED: MODEL        427
DOCKED: USER    Run = 427
DOCKED: USER
DOCKED: USER    Estimated Free Energy of Binding    =  -5.56 kcal/mol  [=(1)+(2)+(3)-(4)]
DOCKED: USER
DOCKED: USER    (1) Final Intermolecular Energy     =  -7.05 kcal/mol
DOCKED: USER        vdW + Hbond + desolv Energy     =  -7.05 kcal/mol
DOCKED: USER        Electrostatic Energy            =  +0.00 kcal/mol
DOCKED: USER        Moving Ligand-Fixed Receptor    =  -7.05 kcal/mol
DOCKED: USER        Moving Ligand-Moving Receptor   =  +0.00 kcal/mol
DOCKED: USER    (2) Final Total Internal Energy     =  -1.29 kcal/mol
DOCKED: USER    (3) Torsional Free Energy           =  +1.49 kcal/mol
DOCKED: USER    (4) Unbound System's Energy         =  -1.29 kcal/mol
DOCKED: USER
DOCKED: USER
DOCKED: REMARK  5 active torsions:
DOCKED: REMARK  status: ('A' for Active; 'I' for Inactive)
DOCKED: REMARK    1  A    between atoms: C_2  and  C_19 
DOCKED: REMARK    2  A    between atoms: C_2  and  C_11 
DOCKED: REMARK    3  A    between atoms: C_19  and  C_20 
DOCKED: REMARK    4  A    between atoms: C_20  and  C_21 
DOCKED: REMARK    5  A    between atoms: C_21  and  N_22 
DOCKED: USER                              x       y       z     vdW  Elec       q    Type
DOCKED: USER                           _______ _______ _______ _____ _____    ______ ____
DOCKED: ROOT
DOCKED: ATOM      1  O   UNL     1     -51.433 -31.105   7.679 -0.07 -0.00    -0.346 OA 
DOCKED: ATOM      2  C   UNL     1     -51.419 -32.558   7.852 -0.21 +0.00    +0.130 C  
DOCKED: ATOM      3  C   UNL     1     -51.963 -33.080   6.554 -0.34 +0.00    +0.004 A  
DOCKED: ATOM      4  C   UNL     1     -52.167 -32.026   5.675 -0.31 +0.00    +0.006 A  
DOCKED: ATOM      5  C   UNL     1     -51.765 -30.753   6.316 -0.22 +0.00    +0.169 C  
DOCKED: ATOM      6  C   UNL     1     -52.245 -34.385   6.177 -0.36 -0.00    -0.001 A  
DOCKED: ATOM      7  C   UNL     1     -52.660 -32.236   4.399 +0.04 +0.00    +0.008 A  
DOCKED: ATOM      8  C   UNL     1     -52.747 -34.613   4.894 -0.50 +0.00    +0.010 A  
DOCKED: ATOM      9  C   UNL     1     -52.953 -33.544   4.010 -0.42 +0.00    +0.068 A  
DOCKED: ATOM     10  N   UNL     1     -53.881 -34.003   1.635 -2.95 -0.00    -0.191 NA 
DOCKED: ATOM     11  C   UNL     1     -53.466 -33.797   2.700 -0.41 +0.00    +0.101 C  
DOCKED: ENDROOT
DOCKED: BRANCH   2  12
DOCKED: ATOM     12  C   UNL     1     -49.983 -32.999   8.113 -0.24 +0.00    +0.038 C  
DOCKED: BRANCH  12  13
DOCKED: ATOM     13  C   UNL     1     -49.093 -31.811   8.473 -0.19 +0.00    +0.038 C  
DOCKED: BRANCH  13  14
DOCKED: ATOM     14  C   UNL     1     -49.498 -31.208   9.817 -0.05 +0.00    +0.251 C  
DOCKED: BRANCH  14  15
DOCKED: ATOM     15  N   UNL     1     -48.827 -31.905  10.908 -0.05 +0.00    +0.141 N  
DOCKED: ATOM     16  C   UNL     1     -49.697 -32.937  11.474 -0.06 +0.00    +0.285 C  
DOCKED: ATOM     17  C   UNL     1     -47.571 -32.497  10.446 -0.06 +0.00    +0.285 C  
DOCKED: ENDBRANCH  14  15
DOCKED: ENDBRANCH  13  14
DOCKED: ENDBRANCH  12  13
DOCKED: ENDBRANCH   2  12
DOCKED: BRANCH   2  18
DOCKED: ATOM     18  C   UNL     1     -52.298 -32.867   9.017 -0.14 +0.00    +0.006 A  
DOCKED: ATOM     19  C   UNL     1     -52.954 -31.836   9.688 -0.06 +0.00    +0.001 A  
DOCKED: ATOM     20  C   UNL     1     -53.775 -32.127  10.778 -0.04 +0.00    +0.029 A  
DOCKED: ATOM     21  C   UNL     1     -53.940 -33.447  11.195 -0.06 +0.00    +0.140 A  
DOCKED: ATOM     22  C   UNL     1     -53.283 -34.478  10.523 -0.11 +0.00    +0.029 A  
DOCKED: ATOM     23  F   UNL     1     -54.729 -33.726  12.240 +0.00 -0.00    -0.204 F  
DOCKED: ATOM     24  C   UNL     1     -52.461 -34.188   9.433 -0.23 +0.00    +0.001 A  
DOCKED: ENDBRANCH   2  18
DOCKED: TORSDOF 5
DOCKED: TER
DOCKED: ENDMDL
________________________________________________________________________________


    FINAL DOCKED STATE:
    ________________________


Run:   428 / 512
Time taken for this run:   0.001s

DOCKED: MODEL        428
DOCKED: USER    Run = 428
DOCKED: USER
DOCKED: USER    Estimated Free Energy of Binding    =  -3.79 kcal/mol  [=(1)+(2)+(3)-(4)]
DOCKED: USER
DOCKED: USER    (1) Final Intermolecular Energy     =  -5.28 kcal/mol
DOCKED: USER        vdW + Hbond + desolv Energy     =  -5.28 kcal/mol
DOCKED: USER        Electrostatic Energy            =  +0.00 kcal/mol
DOCKED: USER        Moving Ligand-Fixed Receptor    =  -5.28 kcal/mol
DOCKED: USER        Moving Ligand-Moving Receptor   =  +0.00 kcal/mol
DOCKED: USER    (2) Final Total Internal Energy     =  -1.28 kcal/mol
DOCKED: USER    (3) Torsional Free Energy           =  +1.49 kcal/mol
DOCKED: USER    (4) Unbound System's Energy         =  -1.28 kcal/mol
DOCKED: USER
DOCKED: USER
DOCKED: REMARK  5 active torsions:
DOCKED: REMARK  status: ('A' for Active; 'I' for Inactive)
DOCKED: REMARK    1  A    between atoms: C_2  and  C_19 
DOCKED: REMARK    2  A    between atoms: C_2  and  C_11 
DOCKED: REMARK    3  A    between atoms: C_19  and  C_20 
DOCKED: REMARK    4  A    between atoms: C_20  and  C_21 
DOCKED: REMARK    5  A    between atoms: C_21  and  N_22 
DOCKED: USER                              x       y       z     vdW  Elec       q    Type
DOCKED: USER                           _______ _______ _______ _____ _____    ______ ____
DOCKED: ROOT
DOCKED: ATOM      1  O   UNL     1     -51.585 -31.601  10.647 -0.01 -0.00    -0.346 OA 
DOCKED: ATOM      2  C   UNL     1     -50.428 -32.020   9.854 -0.09 +0.00    +0.130 C  
DOCKED: ATOM      3  C   UNL     1     -51.034 -32.769   8.703 -0.19 +0.00    +0.004 A  
DOCKED: ATOM      4  C   UNL     1     -52.418 -32.691   8.771 -0.13 +0.00    +0.006 A  
DOCKED: ATOM      5  C   UNL     1     -52.818 -31.886   9.946 -0.04 +0.00    +0.169 C  
DOCKED: ATOM      6  C   UNL     1     -50.410 -33.456   7.671 -0.27 -0.00    -0.001 A  
DOCKED: ATOM      7  C   UNL     1     -53.221 -33.295   7.819 -0.19 +0.00    +0.008 A  
DOCKED: ATOM      8  C   UNL     1     -51.207 -34.074   6.706 -0.39 +0.00    +0.010 A  
DOCKED: ATOM      9  C   UNL     1     -52.605 -33.994   6.780 -0.27 +0.00    +0.068 A  
DOCKED: ATOM     10  N   UNL     1     -54.054 -35.149   4.969 -2.08 -0.00    -0.191 NA 
DOCKED: ATOM     11  C   UNL     1     -53.404 -34.631   5.782 -0.25 +0.00    +0.101 C  
DOCKED: ENDROOT
DOCKED: BRANCH   2  12
DOCKED: ATOM     12  C   UNL     1     -49.666 -30.775   9.417 -0.08 +0.00    +0.038 C  
DOCKED: BRANCH  12  13
DOCKED: ATOM     13  C   UNL     1     -50.548 -29.530   9.484 -0.04 +0.00    +0.038 C  
DOCKED: BRANCH  13  14
DOCKED: ATOM     14  C   UNL     1     -50.421 -28.696   8.210 -0.04 +0.00    +0.251 C  
DOCKED: BRANCH  14  15
DOCKED: ATOM     15  N   UNL     1     -51.602 -28.867   7.372 -0.11 +0.00    +0.141 N  
DOCKED: ATOM     16  C   UNL     1     -51.821 -27.682   6.542 -0.11 +0.00    +0.285 C  
DOCKED: ATOM     17  C   UNL     1     -51.469 -30.058   6.531 -0.16 +0.00    +0.285 C  
DOCKED: ENDBRANCH  14  15
DOCKED: ENDBRANCH  13  14
DOCKED: ENDBRANCH  12  13
DOCKED: ENDBRANCH   2  12
DOCKED: BRANCH   2  18
DOCKED: ATOM     18  C   UNL     1     -49.588 -32.885  10.733 -0.11 +0.00    +0.006 A  
DOCKED: ATOM     19  C   UNL     1     -50.192 -33.739  11.654 -0.15 +0.00    +0.001 A  
DOCKED: ATOM     20  C   UNL     1     -49.405 -34.547  12.475 -0.17 +0.00    +0.029 A  
DOCKED: ATOM     21  C   UNL     1     -48.015 -34.500  12.374 -0.12 +0.00    +0.140 A  
DOCKED: ATOM     22  C   UNL     1     -47.411 -33.645  11.453 -0.11 +0.00    +0.029 A  
DOCKED: ATOM     23  F   UNL     1     -47.260 -35.277  13.161 -0.07 -0.00    -0.204 F  
DOCKED: ATOM     24  C   UNL     1     -48.198 -32.836  10.631 -0.10 +0.00    +0.001 A  
DOCKED: ENDBRANCH   2  18
DOCKED: TORSDOF 5
DOCKED: TER
DOCKED: ENDMDL
________________________________________________________________________________


    FINAL DOCKED STATE:
    ________________________


Run:   429 / 512
Time taken for this run:   0.001s

DOCKED: MODEL        429
DOCKED: USER    Run = 429
DOCKED: USER
DOCKED: USER    Estimated Free Energy of Binding    =  -3.92 kcal/mol  [=(1)+(2)+(3)-(4)]
DOCKED: USER
DOCKED: USER    (1) Final Intermolecular Energy     =  -5.41 kcal/mol
DOCKED: USER        vdW + Hbond + desolv Energy     =  -5.41 kcal/mol
DOCKED: USER        Electrostatic Energy            =  +0.00 kcal/mol
DOCKED: USER        Moving Ligand-Fixed Receptor    =  -5.41 kcal/mol
DOCKED: USER        Moving Ligand-Moving Receptor   =  +0.00 kcal/mol
DOCKED: USER    (2) Final Total Internal Energy     =  -1.55 kcal/mol
DOCKED: USER    (3) Torsional Free Energy           =  +1.49 kcal/mol
DOCKED: USER    (4) Unbound System's Energy         =  -1.55 kcal/mol
DOCKED: USER
DOCKED: USER
DOCKED: REMARK  5 active torsions:
DOCKED: REMARK  status: ('A' for Active; 'I' for Inactive)
DOCKED: REMARK    1  A    between atoms: C_2  and  C_19 
DOCKED: REMARK    2  A    between atoms: C_2  and  C_11 
DOCKED: REMARK    3  A    between atoms: C_19  and  C_20 
DOCKED: REMARK    4  A    between atoms: C_20  and  C_21 
DOCKED: REMARK    5  A    between atoms: C_21  and  N_22 
DOCKED: USER                              x       y       z     vdW  Elec       q    Type
DOCKED: USER                           _______ _______ _______ _____ _____    ______ ____
DOCKED: ROOT
DOCKED: ATOM      1  O   UNL     1     -43.173 -32.560  -1.459 +0.00 -0.00    -0.346 OA 
DOCKED: ATOM      2  C   UNL     1     -43.848 -31.541  -0.654 -0.06 +0.00    +0.130 C  
DOCKED: ATOM      3  C   UNL     1     -44.486 -32.324   0.457 -0.11 +0.00    +0.004 A  
DOCKED: ATOM      4  C   UNL     1     -44.117 -33.658   0.359 -0.12 +0.00    +0.006 A  
DOCKED: ATOM      5  C   UNL     1     -43.213 -33.846  -0.798 -0.06 +0.00    +0.169 C  
DOCKED: ATOM      6  C   UNL     1     -45.317 -31.888   1.478 -0.16 -0.00    -0.001 A  
DOCKED: ATOM      7  C   UNL     1     -44.567 -34.598   1.270 -0.21 +0.00    +0.008 A  
DOCKED: ATOM      8  C   UNL     1     -45.782 -32.825   2.403 -0.27 +0.00    +0.010 A  
DOCKED: ATOM      9  C   UNL     1     -45.408 -34.173   2.299 -0.28 +0.00    +0.068 A  
DOCKED: ATOM     10  N   UNL     1     -46.285 -35.885   4.035 -2.62 -0.00    -0.191 NA 
DOCKED: ATOM     11  C   UNL     1     -45.892 -35.117   3.256 -0.41 +0.00    +0.101 C  
DOCKED: ENDROOT
DOCKED: BRANCH   2  12
DOCKED: ATOM     12  C   UNL     1     -42.803 -30.549  -0.157 -0.01 +0.00    +0.038 C  
DOCKED: BRANCH  12  13
DOCKED: ATOM     13  C   UNL     1     -41.531 -30.610  -1.002 -0.00 +0.00    +0.038 C  
DOCKED: BRANCH  13  14
DOCKED: ATOM     14  C   UNL     1     -41.662 -29.746  -2.254 +0.00 +0.00    +0.251 C  
DOCKED: BRANCH  14  15
DOCKED: ATOM     15  N   UNL     1     -42.047 -30.565  -3.398 -0.00 +0.00    +0.141 N  
DOCKED: ATOM     16  C   UNL     1     -42.187 -29.741  -4.599 +0.00 +0.00    +0.285 C  
DOCKED: ATOM     17  C   UNL     1     -41.066 -31.628  -3.623 +0.00 +0.00    +0.285 C  
DOCKED: ENDBRANCH  14  15
DOCKED: ENDBRANCH  13  14
DOCKED: ENDBRANCH  12  13
DOCKED: ENDBRANCH   2  12
DOCKED: BRANCH   2  18
DOCKED: ATOM     18  C   UNL     1     -44.844 -30.873  -1.542 -0.12 +0.00    +0.006 A  
DOCKED: ATOM     19  C   UNL     1     -45.543 -29.755  -1.088 -0.13 +0.00    +0.001 A  
DOCKED: ATOM     20  C   UNL     1     -46.475 -29.132  -1.919 -0.19 +0.00    +0.029 A  
DOCKED: ATOM     21  C   UNL     1     -46.706 -29.626  -3.201 -0.20 +0.00    +0.140 A  
DOCKED: ATOM     22  C   UNL     1     -46.006 -30.744  -3.655 -0.18 +0.00    +0.029 A  
DOCKED: ATOM     23  F   UNL     1     -47.599 -29.027  -3.999 -0.14 -0.00    -0.204 F  
DOCKED: ATOM     24  C   UNL     1     -45.075 -31.369  -2.825 -0.14 +0.00    +0.001 A  
DOCKED: ENDBRANCH   2  18
DOCKED: TORSDOF 5
DOCKED: TER
DOCKED: ENDMDL
________________________________________________________________________________


    FINAL DOCKED STATE:
    ________________________


Run:   430 / 512
Time taken for this run:   0.001s

DOCKED: MODEL        430
DOCKED: USER    Run = 430
DOCKED: USER
DOCKED: USER    Estimated Free Energy of Binding    =  -5.39 kcal/mol  [=(1)+(2)+(3)-(4)]
DOCKED: USER
DOCKED: USER    (1) Final Intermolecular Energy     =  -6.88 kcal/mol
DOCKED: USER        vdW + Hbond + desolv Energy     =  -6.88 kcal/mol
DOCKED: USER        Electrostatic Energy            =  +0.00 kcal/mol
DOCKED: USER        Moving Ligand-Fixed Receptor    =  -6.88 kcal/mol
DOCKED: USER        Moving Ligand-Moving Receptor   =  +0.00 kcal/mol
DOCKED: USER    (2) Final Total Internal Energy     =  -1.01 kcal/mol
DOCKED: USER    (3) Torsional Free Energy           =  +1.49 kcal/mol
DOCKED: USER    (4) Unbound System's Energy         =  -1.01 kcal/mol
DOCKED: USER
DOCKED: USER
DOCKED: REMARK  5 active torsions:
DOCKED: REMARK  status: ('A' for Active; 'I' for Inactive)
DOCKED: REMARK    1  A    between atoms: C_2  and  C_19 
DOCKED: REMARK    2  A    between atoms: C_2  and  C_11 
DOCKED: REMARK    3  A    between atoms: C_19  and  C_20 
DOCKED: REMARK    4  A    between atoms: C_20  and  C_21 
DOCKED: REMARK    5  A    between atoms: C_21  and  N_22 
DOCKED: USER                              x       y       z     vdW  Elec       q    Type
DOCKED: USER                           _______ _______ _______ _____ _____    ______ ____
DOCKED: ROOT
DOCKED: ATOM      1  O   UNL     1     -53.330 -33.951   8.721 -0.09 -0.00    -0.346 OA 
DOCKED: ATOM      2  C   UNL     1     -52.754 -32.697   8.233 -0.13 +0.00    +0.130 C  
DOCKED: ATOM      3  C   UNL     1     -52.871 -32.804   6.740 -0.27 +0.00    +0.004 A  
DOCKED: ATOM      4  C   UNL     1     -53.554 -33.966   6.408 -0.31 +0.00    +0.006 A  
DOCKED: ATOM      5  C   UNL     1     -53.942 -34.690   7.639 -0.11 +0.00    +0.169 C  
DOCKED: ATOM      6  C   UNL     1     -52.420 -31.938   5.755 -0.33 -0.00    -0.001 A  
DOCKED: ATOM      7  C   UNL     1     -53.805 -34.302   5.088 -0.42 +0.00    +0.008 A  
DOCKED: ATOM      8  C   UNL     1     -52.661 -32.265   4.420 -0.01 +0.00    +0.010 A  
DOCKED: ATOM      9  C   UNL     1     -53.350 -33.441   4.088 -0.40 +0.00    +0.068 A  
DOCKED: ATOM     10  N   UNL     1     -53.785 -34.017   1.600 -2.95 -0.00    -0.191 NA 
DOCKED: ATOM     11  C   UNL     1     -53.589 -33.759   2.716 -0.36 +0.00    +0.101 C  
DOCKED: ENDROOT
DOCKED: BRANCH   2  12
DOCKED: ATOM     12  C   UNL     1     -53.559 -31.539   8.810 -0.09 +0.00    +0.038 C  
DOCKED: BRANCH  12  13
DOCKED: ATOM     13  C   UNL     1     -55.039 -31.655   8.449 -0.12 +0.00    +0.038 C  
DOCKED: BRANCH  13  14
DOCKED: ATOM     14  C   UNL     1     -55.333 -30.974   7.113 -0.13 +0.00    +0.251 C  
DOCKED: BRANCH  14  15
DOCKED: ATOM     15  N   UNL     1     -55.903 -29.650   7.334 -0.16 +0.00    +0.141 N  
DOCKED: ATOM     16  C   UNL     1     -56.219 -29.453   8.749 -0.02 +0.00    +0.285 C  
DOCKED: ATOM     17  C   UNL     1     -54.984 -28.610   6.869 -0.15 +0.00    +0.285 C  
DOCKED: ENDBRANCH  14  15
DOCKED: ENDBRANCH  13  14
DOCKED: ENDBRANCH  12  13
DOCKED: ENDBRANCH   2  12
DOCKED: BRANCH   2  18
DOCKED: ATOM     18  C   UNL     1     -51.338 -32.655   8.703 -0.17 +0.00    +0.006 A  
DOCKED: ATOM     19  C   UNL     1     -50.295 -32.780   7.786 -0.24 +0.00    +0.001 A  
DOCKED: ATOM     20  C   UNL     1     -48.972 -32.741   8.228 -0.09 +0.00    +0.029 A  
DOCKED: ATOM     21  C   UNL     1     -48.694 -32.577   9.584 -0.07 +0.00    +0.140 A  
DOCKED: ATOM     22  C   UNL     1     -49.737 -32.452  10.500 -0.10 +0.00    +0.029 A  
DOCKED: ATOM     23  F   UNL     1     -47.423 -32.538  10.007 -0.02 -0.00    -0.204 F  
DOCKED: ATOM     24  C   UNL     1     -51.061 -32.491  10.060 -0.11 +0.00    +0.001 A  
DOCKED: ENDBRANCH   2  18
DOCKED: TORSDOF 5
DOCKED: TER
DOCKED: ENDMDL
________________________________________________________________________________


    FINAL DOCKED STATE:
    ________________________


Run:   431 / 512
Time taken for this run:   0.001s

DOCKED: MODEL        431
DOCKED: USER    Run = 431
DOCKED: USER
DOCKED: USER    Estimated Free Energy of Binding    =  -5.23 kcal/mol  [=(1)+(2)+(3)-(4)]
DOCKED: USER
DOCKED: USER    (1) Final Intermolecular Energy     =  -6.72 kcal/mol
DOCKED: USER        vdW + Hbond + desolv Energy     =  -6.72 kcal/mol
DOCKED: USER        Electrostatic Energy            =  +0.00 kcal/mol
DOCKED: USER        Moving Ligand-Fixed Receptor    =  -6.72 kcal/mol
DOCKED: USER        Moving Ligand-Moving Receptor   =  +0.00 kcal/mol
DOCKED: USER    (2) Final Total Internal Energy     =  -1.06 kcal/mol
DOCKED: USER    (3) Torsional Free Energy           =  +1.49 kcal/mol
DOCKED: USER    (4) Unbound System's Energy         =  -1.06 kcal/mol
DOCKED: USER
DOCKED: USER
DOCKED: REMARK  5 active torsions:
DOCKED: REMARK  status: ('A' for Active; 'I' for Inactive)
DOCKED: REMARK    1  A    between atoms: C_2  and  C_19 
DOCKED: REMARK    2  A    between atoms: C_2  and  C_11 
DOCKED: REMARK    3  A    between atoms: C_19  and  C_20 
DOCKED: REMARK    4  A    between atoms: C_20  and  C_21 
DOCKED: REMARK    5  A    between atoms: C_21  and  N_22 
DOCKED: USER                              x       y       z     vdW  Elec       q    Type
DOCKED: USER                           _______ _______ _______ _____ _____    ______ ____
DOCKED: ROOT
DOCKED: ATOM      1  O   UNL     1     -51.596 -31.745   8.104 -0.05 -0.00    -0.346 OA 
DOCKED: ATOM      2  C   UNL     1     -52.734 -32.651   8.268 -0.13 +0.00    +0.130 C  
DOCKED: ATOM      3  C   UNL     1     -53.139 -32.978   6.860 -0.25 +0.00    +0.004 A  
DOCKED: ATOM      4  C   UNL     1     -52.245 -32.399   5.970 -0.35 +0.00    +0.006 A  
DOCKED: ATOM      5  C   UNL     1     -51.195 -31.671   6.716 -0.19 +0.00    +0.169 C  
DOCKED: ATOM      6  C   UNL     1     -54.207 -33.737   6.404 -0.28 -0.00    -0.001 A  
DOCKED: ATOM      7  C   UNL     1     -52.389 -32.554   4.602 -0.14 +0.00    +0.008 A  
DOCKED: ATOM      8  C   UNL     1     -54.368 -33.898   5.027 -0.38 +0.00    +0.010 A  
DOCKED: ATOM      9  C   UNL     1     -53.463 -33.310   4.131 -0.37 +0.00    +0.068 A  
DOCKED: ATOM     10  N   UNL     1     -53.788 -33.633   1.580 -3.18 -0.00    -0.191 NA 
DOCKED: ATOM     11  C   UNL     1     -53.643 -33.487   2.724 -0.34 +0.00    +0.101 C  
DOCKED: ENDROOT
DOCKED: BRANCH   2  12
DOCKED: ATOM     12  C   UNL     1     -52.267 -33.873   9.050 -0.24 +0.00    +0.038 C  
DOCKED: BRANCH  12  13
DOCKED: ATOM     13  C   UNL     1     -53.356 -34.379   9.995 -0.21 +0.00    +0.038 C  
DOCKED: BRANCH  13  14
DOCKED: ATOM     14  C   UNL     1     -52.841 -34.468  11.430 -0.10 +0.00    +0.251 C  
DOCKED: BRANCH  14  15
DOCKED: ATOM     15  N   UNL     1     -53.931 -34.251  12.374 -0.09 +0.00    +0.141 N  
DOCKED: ATOM     16  C   UNL     1     -53.973 -35.325  13.369 -0.13 +0.00    +0.285 C  
DOCKED: ATOM     17  C   UNL     1     -53.791 -32.953  13.035 -0.01 +0.00    +0.285 C  
DOCKED: ENDBRANCH  14  15
DOCKED: ENDBRANCH  13  14
DOCKED: ENDBRANCH  12  13
DOCKED: ENDBRANCH   2  12
DOCKED: BRANCH   2  18
DOCKED: ATOM     18  C   UNL     1     -53.784 -31.902   9.017 -0.08 +0.00    +0.006 A  
DOCKED: ATOM     19  C   UNL     1     -55.128 -32.063   8.681 -0.10 +0.00    +0.001 A  
DOCKED: ATOM     20  C   UNL     1     -56.110 -31.361   9.382 -0.06 +0.00    +0.029 A  
DOCKED: ATOM     21  C   UNL     1     -55.747 -30.500  10.417 -0.01 +0.00    +0.140 A  
DOCKED: ATOM     22  C   UNL     1     -54.402 -30.339  10.752 -0.01 +0.00    +0.029 A  
DOCKED: ATOM     23  F   UNL     1     -56.689 -29.828  11.090 +0.01 -0.00    -0.204 F  
DOCKED: ATOM     24  C   UNL     1     -53.420 -31.041  10.051 -0.04 +0.00    +0.001 A  
DOCKED: ENDBRANCH   2  18
DOCKED: TORSDOF 5
DOCKED: TER
DOCKED: ENDMDL
________________________________________________________________________________


    FINAL DOCKED STATE:
    ________________________


Run:   432 / 512
Time taken for this run:   0.001s

DOCKED: MODEL        432
DOCKED: USER    Run = 432
DOCKED: USER
DOCKED: USER    Estimated Free Energy of Binding    =  -3.96 kcal/mol  [=(1)+(2)+(3)-(4)]
DOCKED: USER
DOCKED: USER    (1) Final Intermolecular Energy     =  -5.45 kcal/mol
DOCKED: USER        vdW + Hbond + desolv Energy     =  -5.45 kcal/mol
DOCKED: USER        Electrostatic Energy            =  +0.00 kcal/mol
DOCKED: USER        Moving Ligand-Fixed Receptor    =  -5.45 kcal/mol
DOCKED: USER        Moving Ligand-Moving Receptor   =  +0.00 kcal/mol
DOCKED: USER    (2) Final Total Internal Energy     =  -1.29 kcal/mol
DOCKED: USER    (3) Torsional Free Energy           =  +1.49 kcal/mol
DOCKED: USER    (4) Unbound System's Energy         =  -1.29 kcal/mol
DOCKED: USER
DOCKED: USER
DOCKED: REMARK  5 active torsions:
DOCKED: REMARK  status: ('A' for Active; 'I' for Inactive)
DOCKED: REMARK    1  A    between atoms: C_2  and  C_19 
DOCKED: REMARK    2  A    between atoms: C_2  and  C_11 
DOCKED: REMARK    3  A    between atoms: C_19  and  C_20 
DOCKED: REMARK    4  A    between atoms: C_20  and  C_21 
DOCKED: REMARK    5  A    between atoms: C_21  and  N_22 
DOCKED: USER                              x       y       z     vdW  Elec       q    Type
DOCKED: USER                           _______ _______ _______ _____ _____    ______ ____
DOCKED: ROOT
DOCKED: ATOM      1  O   UNL     1     -46.391 -23.996  -0.410 -0.05 -0.00    -0.346 OA 
DOCKED: ATOM      2  C   UNL     1     -45.641 -23.067  -1.256 -0.09 +0.00    +0.130 C  
DOCKED: ATOM      3  C   UNL     1     -46.632 -22.659  -2.308 -0.14 +0.00    +0.004 A  
DOCKED: ATOM      4  C   UNL     1     -47.870 -23.217  -2.025 -0.20 +0.00    +0.006 A  
DOCKED: ATOM      5  C   UNL     1     -47.790 -24.011  -0.778 -0.13 +0.00    +0.169 C  
DOCKED: ATOM      6  C   UNL     1     -46.454 -21.849  -3.420 -0.14 -0.00    -0.001 A  
DOCKED: ATOM      7  C   UNL     1     -48.966 -22.991  -2.840 -0.33 +0.00    +0.008 A  
DOCKED: ATOM      8  C   UNL     1     -47.548 -21.614  -4.254 -0.26 +0.00    +0.010 A  
DOCKED: ATOM      9  C   UNL     1     -48.798 -22.182  -3.965 -0.34 +0.00    +0.068 A  
DOCKED: ATOM     10  N   UNL     1     -50.810 -21.723  -5.531 -2.54 -0.00    -0.191 NA 
DOCKED: ATOM     11  C   UNL     1     -49.908 -21.929  -4.829 -0.41 +0.00    +0.101 C  
DOCKED: ENDROOT
DOCKED: BRANCH   2  12
DOCKED: ATOM     12  C   UNL     1     -45.174 -21.900  -0.395 -0.13 +0.00    +0.038 C  
DOCKED: BRANCH  12  13
DOCKED: ATOM     13  C   UNL     1     -46.109 -20.699  -0.531 -0.07 +0.00    +0.038 C  
DOCKED: BRANCH  13  14
DOCKED: ATOM     14  C   UNL     1     -45.381 -19.501  -1.137 -0.10 +0.00    +0.251 C  
DOCKED: BRANCH  14  15
DOCKED: ATOM     15  N   UNL     1     -46.340 -18.505  -1.599 -0.16 +0.00    +0.141 N  
DOCKED: ATOM     16  C   UNL     1     -45.947 -17.978  -2.907 -0.10 +0.00    +0.285 C  
DOCKED: ATOM     17  C   UNL     1     -47.686 -19.077  -1.666 -0.20 +0.00    +0.285 C  
DOCKED: ENDBRANCH  14  15
DOCKED: ENDBRANCH  13  14
DOCKED: ENDBRANCH  12  13
DOCKED: ENDBRANCH   2  12
DOCKED: BRANCH   2  18
DOCKED: ATOM     18  C   UNL     1     -44.481 -23.824  -1.812 -0.02 +0.00    +0.006 A  
DOCKED: ATOM     19  C   UNL     1     -44.695 -25.004  -2.523 -0.01 +0.00    +0.001 A  
DOCKED: ATOM     20  C   UNL     1     -43.610 -25.711  -3.042 -0.00 +0.00    +0.029 A  
DOCKED: ATOM     21  C   UNL     1     -42.313 -25.236  -2.851 -0.00 +0.00    +0.140 A  
DOCKED: ATOM     22  C   UNL     1     -42.100 -24.055  -2.141 -0.00 +0.00    +0.029 A  
DOCKED: ATOM     23  F   UNL     1     -41.272 -25.914  -3.351 +0.00 -0.00    -0.204 F  
DOCKED: ATOM     24  C   UNL     1     -43.185 -23.348  -1.620 -0.01 +0.00    +0.001 A  
DOCKED: ENDBRANCH   2  18
DOCKED: TORSDOF 5
DOCKED: TER
DOCKED: ENDMDL
________________________________________________________________________________


    FINAL DOCKED STATE:
    ________________________


Run:   433 / 512
Time taken for this run:   0.001s

DOCKED: MODEL        433
DOCKED: USER    Run = 433
DOCKED: USER
DOCKED: USER    Estimated Free Energy of Binding    =  -4.16 kcal/mol  [=(1)+(2)+(3)-(4)]
DOCKED: USER
DOCKED: USER    (1) Final Intermolecular Energy     =  -5.65 kcal/mol
DOCKED: USER        vdW + Hbond + desolv Energy     =  -5.65 kcal/mol
DOCKED: USER        Electrostatic Energy            =  +0.00 kcal/mol
DOCKED: USER        Moving Ligand-Fixed Receptor    =  -5.65 kcal/mol
DOCKED: USER        Moving Ligand-Moving Receptor   =  +0.00 kcal/mol
DOCKED: USER    (2) Final Total Internal Energy     =  -1.42 kcal/mol
DOCKED: USER    (3) Torsional Free Energy           =  +1.49 kcal/mol
DOCKED: USER    (4) Unbound System's Energy         =  -1.42 kcal/mol
DOCKED: USER
DOCKED: USER
DOCKED: REMARK  5 active torsions:
DOCKED: REMARK  status: ('A' for Active; 'I' for Inactive)
DOCKED: REMARK    1  A    between atoms: C_2  and  C_19 
DOCKED: REMARK    2  A    between atoms: C_2  and  C_11 
DOCKED: REMARK    3  A    between atoms: C_19  and  C_20 
DOCKED: REMARK    4  A    between atoms: C_20  and  C_21 
DOCKED: REMARK    5  A    between atoms: C_21  and  N_22 
DOCKED: USER                              x       y       z     vdW  Elec       q    Type
DOCKED: USER                           _______ _______ _______ _____ _____    ______ ____
DOCKED: ROOT
DOCKED: ATOM      1  O   UNL     1     -49.098 -31.074   8.680 -0.07 -0.00    -0.346 OA 
DOCKED: ATOM      2  C   UNL     1     -50.298 -30.277   8.423 -0.10 +0.00    +0.130 C  
DOCKED: ATOM      3  C   UNL     1     -51.215 -31.228   7.708 -0.19 +0.00    +0.004 A  
DOCKED: ATOM      4  C   UNL     1     -50.635 -32.487   7.660 -0.25 +0.00    +0.006 A  
DOCKED: ATOM      5  C   UNL     1     -49.320 -32.462   8.339 -0.18 +0.00    +0.169 C  
DOCKED: ATOM      6  C   UNL     1     -52.466 -30.998   7.156 -0.23 -0.00    -0.001 A  
DOCKED: ATOM      7  C   UNL     1     -51.279 -33.554   7.057 -0.34 +0.00    +0.008 A  
DOCKED: ATOM      8  C   UNL     1     -53.127 -32.063   6.541 -0.27 +0.00    +0.010 A  
DOCKED: ATOM      9  C   UNL     1     -52.537 -33.335   6.493 -0.29 +0.00    +0.068 A  
DOCKED: ATOM     10  N   UNL     1     -53.793 -35.291   5.349 -2.55 -0.00    -0.191 NA 
DOCKED: ATOM     11  C   UNL     1     -53.229 -34.413   5.861 -0.32 +0.00    +0.101 C  
DOCKED: ENDROOT
DOCKED: BRANCH   2  12
DOCKED: ATOM     12  C   UNL     1     -50.858 -29.803   9.758 -0.03 +0.00    +0.038 C  
DOCKED: BRANCH  12  13
DOCKED: ATOM     13  C   UNL     1     -51.836 -30.820  10.344 -0.04 +0.00    +0.038 C  
DOCKED: BRANCH  13  14
DOCKED: ATOM     14  C   UNL     1     -51.149 -31.708  11.381 -0.02 +0.00    +0.251 C  
DOCKED: BRANCH  14  15
DOCKED: ATOM     15  N   UNL     1     -51.197 -33.104  10.964 -0.09 +0.00    +0.141 N  
DOCKED: ATOM     16  C   UNL     1     -50.172 -33.885  11.659 -0.09 +0.00    +0.285 C  
DOCKED: ATOM     17  C   UNL     1     -52.523 -33.672  11.213 -0.07 +0.00    +0.285 C  
DOCKED: ENDBRANCH  14  15
DOCKED: ENDBRANCH  13  14
DOCKED: ENDBRANCH  12  13
DOCKED: ENDBRANCH   2  12
DOCKED: BRANCH   2  18
DOCKED: ATOM     18  C   UNL     1     -49.881 -29.122   7.574 -0.12 +0.00    +0.006 A  
DOCKED: ATOM     19  C   UNL     1     -49.806 -29.267   6.189 -0.15 +0.00    +0.001 A  
DOCKED: ATOM     20  C   UNL     1     -49.416 -28.187   5.396 -0.13 +0.00    +0.029 A  
DOCKED: ATOM     21  C   UNL     1     -49.103 -26.965   5.989 -0.06 +0.00    +0.140 A  
DOCKED: ATOM     22  C   UNL     1     -49.179 -26.820   7.374 -0.03 +0.00    +0.029 A  
DOCKED: ATOM     23  F   UNL     1     -48.730 -25.927   5.228 -0.00 -0.00    -0.204 F  
DOCKED: ATOM     24  C   UNL     1     -49.569 -27.900   8.168 -0.04 +0.00    +0.001 A  
DOCKED: ENDBRANCH   2  18
DOCKED: TORSDOF 5
DOCKED: TER
DOCKED: ENDMDL
________________________________________________________________________________


    FINAL DOCKED STATE:
    ________________________


Run:   434 / 512
Time taken for this run:   0.001s

DOCKED: MODEL        434
DOCKED: USER    Run = 434
DOCKED: USER
DOCKED: USER    Estimated Free Energy of Binding    =  -4.71 kcal/mol  [=(1)+(2)+(3)-(4)]
DOCKED: USER
DOCKED: USER    (1) Final Intermolecular Energy     =  -6.21 kcal/mol
DOCKED: USER        vdW + Hbond + desolv Energy     =  -6.21 kcal/mol
DOCKED: USER        Electrostatic Energy            =  +0.00 kcal/mol
DOCKED: USER        Moving Ligand-Fixed Receptor    =  -6.21 kcal/mol
DOCKED: USER        Moving Ligand-Moving Receptor   =  +0.00 kcal/mol
DOCKED: USER    (2) Final Total Internal Energy     =  -1.17 kcal/mol
DOCKED: USER    (3) Torsional Free Energy           =  +1.49 kcal/mol
DOCKED: USER    (4) Unbound System's Energy         =  -1.17 kcal/mol
DOCKED: USER
DOCKED: USER
DOCKED: REMARK  5 active torsions:
DOCKED: REMARK  status: ('A' for Active; 'I' for Inactive)
DOCKED: REMARK    1  A    between atoms: C_2  and  C_19 
DOCKED: REMARK    2  A    between atoms: C_2  and  C_11 
DOCKED: REMARK    3  A    between atoms: C_19  and  C_20 
DOCKED: REMARK    4  A    between atoms: C_20  and  C_21 
DOCKED: REMARK    5  A    between atoms: C_21  and  N_22 
DOCKED: USER                              x       y       z     vdW  Elec       q    Type
DOCKED: USER                           _______ _______ _______ _____ _____    ______ ____
DOCKED: ROOT
DOCKED: ATOM      1  O   UNL     1     -52.344 -32.222   8.331 -0.02 -0.00    -0.346 OA 
DOCKED: ATOM      2  C   UNL     1     -53.799 -32.275   8.181 -0.11 +0.00    +0.130 C  
DOCKED: ATOM      3  C   UNL     1     -53.999 -32.713   6.759 -0.23 +0.00    +0.004 A  
DOCKED: ATOM      4  C   UNL     1     -52.769 -32.993   6.180 -0.34 +0.00    +0.006 A  
DOCKED: ATOM      5  C   UNL     1     -51.688 -32.776   7.167 -0.24 +0.00    +0.169 C  
DOCKED: ATOM      6  C   UNL     1     -55.175 -32.862   6.039 -0.28 -0.00    -0.001 A  
DOCKED: ATOM      7  C   UNL     1     -52.672 -33.425   4.868 -0.44 +0.00    +0.008 A  
DOCKED: ATOM      8  C   UNL     1     -55.094 -33.293   4.714 -0.22 +0.00    +0.010 A  
DOCKED: ATOM      9  C   UNL     1     -53.848 -33.573   4.132 -0.36 +0.00    +0.068 A  
DOCKED: ATOM     10  N   UNL     1     -53.733 -34.376   1.671 -2.43 -0.00    -0.191 NA 
DOCKED: ATOM     11  C   UNL     1     -53.785 -34.015   2.774 -0.30 +0.00    +0.101 C  
DOCKED: ENDROOT
DOCKED: BRANCH   2  12
DOCKED: ATOM     12  C   UNL     1     -54.353 -33.272   9.192 -0.14 +0.00    +0.038 C  
DOCKED: BRANCH  12  13
DOCKED: ATOM     13  C   UNL     1     -53.317 -33.615  10.261 -0.16 +0.00    +0.038 C  
DOCKED: BRANCH  13  14
DOCKED: ATOM     14  C   UNL     1     -52.371 -34.712   9.777 -0.13 +0.00    +0.251 C  
DOCKED: BRANCH  14  15
DOCKED: ATOM     15  N   UNL     1     -51.391 -35.028  10.810 -0.22 +0.00    +0.141 N  
DOCKED: ATOM     16  C   UNL     1     -50.435 -33.930  10.967 -0.02 +0.00    +0.285 C  
DOCKED: ATOM     17  C   UNL     1     -52.055 -35.308  12.083 -0.11 +0.00    +0.285 C  
DOCKED: ENDBRANCH  14  15
DOCKED: ENDBRANCH  13  14
DOCKED: ENDBRANCH  12  13
DOCKED: ENDBRANCH   2  12
DOCKED: BRANCH   2  18
DOCKED: ATOM     18  C   UNL     1     -54.315 -30.899   8.444 -0.09 +0.00    +0.006 A  
DOCKED: ATOM     19  C   UNL     1     -55.351 -30.707   9.356 -0.05 +0.00    +0.001 A  
DOCKED: ATOM     20  C   UNL     1     -55.833 -29.420   9.601 -0.04 +0.00    +0.029 A  
DOCKED: ATOM     21  C   UNL     1     -55.277 -28.329   8.934 -0.03 +0.00    +0.140 A  
DOCKED: ATOM     22  C   UNL     1     -54.241 -28.523   8.022 -0.11 +0.00    +0.029 A  
DOCKED: ATOM     23  F   UNL     1     -55.739 -27.094   9.170 +0.01 -0.00    -0.204 F  
DOCKED: ATOM     24  C   UNL     1     -53.759 -29.810   7.776 -0.15 +0.00    +0.001 A  
DOCKED: ENDBRANCH   2  18
DOCKED: TORSDOF 5
DOCKED: TER
DOCKED: ENDMDL
________________________________________________________________________________


    FINAL DOCKED STATE:
    ________________________


Run:   435 / 512
Time taken for this run:   0.001s

DOCKED: MODEL        435
DOCKED: USER    Run = 435
DOCKED: USER
DOCKED: USER    Estimated Free Energy of Binding    =  -6.04 kcal/mol  [=(1)+(2)+(3)-(4)]
DOCKED: USER
DOCKED: USER    (1) Final Intermolecular Energy     =  -7.53 kcal/mol
DOCKED: USER        vdW + Hbond + desolv Energy     =  -7.53 kcal/mol
DOCKED: USER        Electrostatic Energy            =  +0.00 kcal/mol
DOCKED: USER        Moving Ligand-Fixed Receptor    =  -7.53 kcal/mol
DOCKED: USER        Moving Ligand-Moving Receptor   =  +0.00 kcal/mol
DOCKED: USER    (2) Final Total Internal Energy     =  -1.02 kcal/mol
DOCKED: USER    (3) Torsional Free Energy           =  +1.49 kcal/mol
DOCKED: USER    (4) Unbound System's Energy         =  -1.02 kcal/mol
DOCKED: USER
DOCKED: USER
DOCKED: REMARK  5 active torsions:
DOCKED: REMARK  status: ('A' for Active; 'I' for Inactive)
DOCKED: REMARK    1  A    between atoms: C_2  and  C_19 
DOCKED: REMARK    2  A    between atoms: C_2  and  C_11 
DOCKED: REMARK    3  A    between atoms: C_19  and  C_20 
DOCKED: REMARK    4  A    between atoms: C_20  and  C_21 
DOCKED: REMARK    5  A    between atoms: C_21  and  N_22 
DOCKED: USER                              x       y       z     vdW  Elec       q    Type
DOCKED: USER                           _______ _______ _______ _____ _____    ______ ____
DOCKED: ROOT
DOCKED: ATOM      1  O   UNL     1     -50.906 -34.289   7.767 -0.22 -0.00    -0.346 OA 
DOCKED: ATOM      2  C   UNL     1     -52.046 -33.374   7.837 -0.22 +0.00    +0.130 C  
DOCKED: ATOM      3  C   UNL     1     -52.641 -33.435   6.460 -0.33 +0.00    +0.004 A  
DOCKED: ATOM      4  C   UNL     1     -51.969 -34.384   5.703 -0.44 +0.00    +0.006 A  
DOCKED: ATOM      5  C   UNL     1     -50.907 -35.017   6.517 -0.29 +0.00    +0.169 C  
DOCKED: ATOM      6  C   UNL     1     -53.700 -32.717   5.924 -0.30 -0.00    -0.001 A  
DOCKED: ATOM      7  C   UNL     1     -52.326 -34.643   4.390 -0.40 +0.00    +0.008 A  
DOCKED: ATOM      8  C   UNL     1     -54.069 -32.964   4.601 -0.10 +0.00    +0.010 A  
DOCKED: ATOM      9  C   UNL     1     -53.386 -33.923   3.838 -0.45 +0.00    +0.068 A  
DOCKED: ATOM     10  N   UNL     1     -54.101 -34.360   1.387 -2.91 -0.00    -0.191 NA 
DOCKED: ATOM     11  C   UNL     1     -53.780 -34.163   2.486 -0.30 +0.00    +0.101 C  
DOCKED: ENDROOT
DOCKED: BRANCH   2  12
DOCKED: ATOM     12  C   UNL     1     -52.998 -33.871   8.918 -0.23 +0.00    +0.038 C  
DOCKED: BRANCH  12  13
DOCKED: ATOM     13  C   UNL     1     -52.243 -34.567  10.049 -0.25 +0.00    +0.038 C  
DOCKED: BRANCH  13  14
DOCKED: ATOM     14  C   UNL     1     -53.137 -34.756  11.272 -0.03 +0.00    +0.251 C  
DOCKED: BRANCH  14  15
DOCKED: ATOM     15  N   UNL     1     -52.344 -35.177  12.421 -0.17 +0.00    +0.141 N  
DOCKED: ATOM     16  C   UNL     1     -50.937 -35.332  12.047 -0.15 +0.00    +0.285 C  
DOCKED: ATOM     17  C   UNL     1     -52.474 -34.215  13.517 -0.04 +0.00    +0.285 C  
DOCKED: ENDBRANCH  14  15
DOCKED: ENDBRANCH  13  14
DOCKED: ENDBRANCH  12  13
DOCKED: ENDBRANCH   2  12
DOCKED: BRANCH   2  18
DOCKED: ATOM     18  C   UNL     1     -51.503 -32.026   8.177 -0.18 +0.00    +0.006 A  
DOCKED: ATOM     19  C   UNL     1     -50.829 -31.282   7.209 -0.22 +0.00    +0.001 A  
DOCKED: ATOM     20  C   UNL     1     -50.322 -30.022   7.528 -0.15 +0.00    +0.029 A  
DOCKED: ATOM     21  C   UNL     1     -50.489 -29.508   8.812 -0.04 +0.00    +0.140 A  
DOCKED: ATOM     22  C   UNL     1     -51.163 -30.252   9.780 -0.03 +0.00    +0.029 A  
DOCKED: ATOM     23  F   UNL     1     -50.003 -28.298   9.118 +0.00 -0.00    -0.204 F  
DOCKED: ATOM     24  C   UNL     1     -51.670 -31.513   9.462 -0.07 +0.00    +0.001 A  
DOCKED: ENDBRANCH   2  18
DOCKED: TORSDOF 5
DOCKED: TER
DOCKED: ENDMDL
________________________________________________________________________________


    FINAL DOCKED STATE:
    ________________________


Run:   436 / 512
Time taken for this run:   0.001s

DOCKED: MODEL        436
DOCKED: USER    Run = 436
DOCKED: USER
DOCKED: USER    Estimated Free Energy of Binding    =  -4.28 kcal/mol  [=(1)+(2)+(3)-(4)]
DOCKED: USER
DOCKED: USER    (1) Final Intermolecular Energy     =  -5.77 kcal/mol
DOCKED: USER        vdW + Hbond + desolv Energy     =  -5.77 kcal/mol
DOCKED: USER        Electrostatic Energy            =  +0.00 kcal/mol
DOCKED: USER        Moving Ligand-Fixed Receptor    =  -5.77 kcal/mol
DOCKED: USER        Moving Ligand-Moving Receptor   =  +0.00 kcal/mol
DOCKED: USER    (2) Final Total Internal Energy     =  -0.81 kcal/mol
DOCKED: USER    (3) Torsional Free Energy           =  +1.49 kcal/mol
DOCKED: USER    (4) Unbound System's Energy         =  -0.81 kcal/mol
DOCKED: USER
DOCKED: USER
DOCKED: REMARK  5 active torsions:
DOCKED: REMARK  status: ('A' for Active; 'I' for Inactive)
DOCKED: REMARK    1  A    between atoms: C_2  and  C_19 
DOCKED: REMARK    2  A    between atoms: C_2  and  C_11 
DOCKED: REMARK    3  A    between atoms: C_19  and  C_20 
DOCKED: REMARK    4  A    between atoms: C_20  and  C_21 
DOCKED: REMARK    5  A    between atoms: C_21  and  N_22 
DOCKED: USER                              x       y       z     vdW  Elec       q    Type
DOCKED: USER                           _______ _______ _______ _____ _____    ______ ____
DOCKED: ROOT
DOCKED: ATOM      1  O   UNL     1     -50.629 -30.886   9.412 -0.02 -0.00    -0.346 OA 
DOCKED: ATOM      2  C   UNL     1     -50.833 -30.199   8.136 -0.11 +0.00    +0.130 C  
DOCKED: ATOM      3  C   UNL     1     -51.472 -31.242   7.265 -0.23 +0.00    +0.004 A  
DOCKED: ATOM      4  C   UNL     1     -51.715 -32.387   8.009 -0.20 +0.00    +0.006 A  
DOCKED: ATOM      5  C   UNL     1     -51.271 -32.182   9.406 -0.09 +0.00    +0.169 C  
DOCKED: ATOM      6  C   UNL     1     -51.822 -31.177   5.924 -0.20 -0.00    -0.001 A  
DOCKED: ATOM      7  C   UNL     1     -52.307 -33.503   7.442 -0.27 +0.00    +0.008 A  
DOCKED: ATOM      8  C   UNL     1     -52.417 -32.295   5.337 -0.33 +0.00    +0.010 A  
DOCKED: ATOM      9  C   UNL     1     -52.658 -33.452   6.093 -0.32 +0.00    +0.068 A  
DOCKED: ATOM     10  N   UNL     1     -53.768 -35.508   4.973 -2.36 -0.00    -0.191 NA 
DOCKED: ATOM     11  C   UNL     1     -53.270 -34.586   5.475 -0.37 +0.00    +0.101 C  
DOCKED: ENDROOT
DOCKED: BRANCH   2  12
DOCKED: ATOM     12  C   UNL     1     -51.732 -28.992   8.375 -0.08 +0.00    +0.038 C  
DOCKED: BRANCH  12  13
DOCKED: ATOM     13  C   UNL     1     -52.545 -28.647   7.128 -0.18 +0.00    +0.038 C  
DOCKED: BRANCH  13  14
DOCKED: ATOM     14  C   UNL     1     -54.041 -28.810   7.386 -0.14 +0.00    +0.251 C  
DOCKED: BRANCH  14  15
DOCKED: ATOM     15  N   UNL     1     -54.669 -27.507   7.572 -0.09 +0.00    +0.141 N  
DOCKED: ATOM     16  C   UNL     1     -55.194 -27.001   6.303 -0.11 +0.00    +0.285 C  
DOCKED: ATOM     17  C   UNL     1     -55.738 -27.587   8.568 -0.02 +0.00    +0.285 C  
DOCKED: ENDBRANCH  14  15
DOCKED: ENDBRANCH  13  14
DOCKED: ENDBRANCH  12  13
DOCKED: ENDBRANCH   2  12
DOCKED: BRANCH   2  18
DOCKED: ATOM     18  C   UNL     1     -49.487 -29.779   7.647 -0.13 +0.00    +0.006 A  
DOCKED: ATOM     19  C   UNL     1     -49.359 -28.645   6.845 -0.13 +0.00    +0.001 A  
DOCKED: ATOM     20  C   UNL     1     -48.100 -28.254   6.388 -0.09 +0.00    +0.029 A  
DOCKED: ATOM     21  C   UNL     1     -46.971 -28.995   6.734 -0.07 +0.00    +0.140 A  
DOCKED: ATOM     22  C   UNL     1     -47.100 -30.129   7.536 -0.10 +0.00    +0.029 A  
DOCKED: ATOM     23  F   UNL     1     -45.763 -28.618   6.297 -0.01 -0.00    -0.204 F  
DOCKED: ATOM     24  C   UNL     1     -48.359 -30.522   7.993 -0.12 +0.00    +0.001 A  
DOCKED: ENDBRANCH   2  18
DOCKED: TORSDOF 5
DOCKED: TER
DOCKED: ENDMDL
________________________________________________________________________________


    FINAL DOCKED STATE:
    ________________________


Run:   437 / 512
Time taken for this run:   0.001s

DOCKED: MODEL        437
DOCKED: USER    Run = 437
DOCKED: USER
DOCKED: USER    Estimated Free Energy of Binding    =  -3.80 kcal/mol  [=(1)+(2)+(3)-(4)]
DOCKED: USER
DOCKED: USER    (1) Final Intermolecular Energy     =  -5.30 kcal/mol
DOCKED: USER        vdW + Hbond + desolv Energy     =  -5.30 kcal/mol
DOCKED: USER        Electrostatic Energy            =  +0.00 kcal/mol
DOCKED: USER        Moving Ligand-Fixed Receptor    =  -5.30 kcal/mol
DOCKED: USER        Moving Ligand-Moving Receptor   =  +0.00 kcal/mol
DOCKED: USER    (2) Final Total Internal Energy     =  -1.30 kcal/mol
DOCKED: USER    (3) Torsional Free Energy           =  +1.49 kcal/mol
DOCKED: USER    (4) Unbound System's Energy         =  -1.30 kcal/mol
DOCKED: USER
DOCKED: USER
DOCKED: REMARK  5 active torsions:
DOCKED: REMARK  status: ('A' for Active; 'I' for Inactive)
DOCKED: REMARK    1  A    between atoms: C_2  and  C_19 
DOCKED: REMARK    2  A    between atoms: C_2  and  C_11 
DOCKED: REMARK    3  A    between atoms: C_19  and  C_20 
DOCKED: REMARK    4  A    between atoms: C_20  and  C_21 
DOCKED: REMARK    5  A    between atoms: C_21  and  N_22 
DOCKED: USER                              x       y       z     vdW  Elec       q    Type
DOCKED: USER                           _______ _______ _______ _____ _____    ______ ____
DOCKED: ROOT
DOCKED: ATOM      1  O   UNL     1     -50.490 -29.596   8.403 -0.02 -0.00    -0.346 OA 
DOCKED: ATOM      2  C   UNL     1     -49.655 -30.779   8.621 -0.11 +0.00    +0.130 C  
DOCKED: ATOM      3  C   UNL     1     -50.427 -31.889   7.968 -0.21 +0.00    +0.004 A  
DOCKED: ATOM      4  C   UNL     1     -51.548 -31.370   7.337 -0.23 +0.00    +0.006 A  
DOCKED: ATOM      5  C   UNL     1     -51.589 -29.901   7.513 -0.14 +0.00    +0.169 C  
DOCKED: ATOM      6  C   UNL     1     -50.153 -33.248   7.927 -0.23 -0.00    -0.001 A  
DOCKED: ATOM      7  C   UNL     1     -52.431 -32.185   6.650 -0.29 +0.00    +0.008 A  
DOCKED: ATOM      8  C   UNL     1     -51.036 -34.085   7.243 -0.37 +0.00    +0.010 A  
DOCKED: ATOM      9  C   UNL     1     -52.169 -33.555   6.607 -0.30 +0.00    +0.068 A  
DOCKED: ATOM     10  N   UNL     1     -53.786 -35.136   5.341 -2.56 -0.00    -0.191 NA 
DOCKED: ATOM     11  C   UNL     1     -53.061 -34.427   5.909 -0.29 +0.00    +0.101 C  
DOCKED: ENDROOT
DOCKED: BRANCH   2  12
DOCKED: ATOM     12  C   UNL     1     -48.298 -30.538   7.971 -0.13 +0.00    +0.038 C  
DOCKED: BRANCH  12  13
DOCKED: ATOM     13  C   UNL     1     -48.396 -29.521   6.836 -0.11 +0.00    +0.038 C  
DOCKED: BRANCH  13  14
DOCKED: ATOM     14  C   UNL     1     -47.965 -28.132   7.304 -0.04 +0.00    +0.251 C  
DOCKED: BRANCH  14  15
DOCKED: ATOM     15  N   UNL     1     -47.399 -28.202   8.646 -0.02 +0.00    +0.141 N  
DOCKED: ATOM     16  C   UNL     1     -45.945 -28.358   8.585 -0.01 +0.00    +0.285 C  
DOCKED: ATOM     17  C   UNL     1     -47.749 -27.007   9.416 -0.00 +0.00    +0.285 C  
DOCKED: ENDBRANCH  14  15
DOCKED: ENDBRANCH  13  14
DOCKED: ENDBRANCH  12  13
DOCKED: ENDBRANCH   2  12
DOCKED: BRANCH   2  18
DOCKED: ATOM     18  C   UNL     1     -49.522 -30.952  10.097 -0.06 +0.00    +0.006 A  
DOCKED: ATOM     19  C   UNL     1     -48.913 -32.096  10.612 -0.09 +0.00    +0.001 A  
DOCKED: ATOM     20  C   UNL     1     -48.790 -32.257  11.993 -0.06 +0.00    +0.029 A  
DOCKED: ATOM     21  C   UNL     1     -49.275 -31.275  12.855 -0.01 +0.00    +0.140 A  
DOCKED: ATOM     22  C   UNL     1     -49.884 -30.131  12.340 -0.00 +0.00    +0.029 A  
DOCKED: ATOM     23  F   UNL     1     -49.155 -31.429  14.180 +0.00 -0.00    -0.204 F  
DOCKED: ATOM     24  C   UNL     1     -50.008 -29.970  10.959 -0.01 +0.00    +0.001 A  
DOCKED: ENDBRANCH   2  18
DOCKED: TORSDOF 5
DOCKED: TER
DOCKED: ENDMDL
________________________________________________________________________________


    FINAL DOCKED STATE:
    ________________________


Run:   438 / 512
Time taken for this run:   0.001s

DOCKED: MODEL        438
DOCKED: USER    Run = 438
DOCKED: USER
DOCKED: USER    Estimated Free Energy of Binding    =  -4.34 kcal/mol  [=(1)+(2)+(3)-(4)]
DOCKED: USER
DOCKED: USER    (1) Final Intermolecular Energy     =  -5.83 kcal/mol
DOCKED: USER        vdW + Hbond + desolv Energy     =  -5.83 kcal/mol
DOCKED: USER        Electrostatic Energy            =  +0.00 kcal/mol
DOCKED: USER        Moving Ligand-Fixed Receptor    =  -5.83 kcal/mol
DOCKED: USER        Moving Ligand-Moving Receptor   =  +0.00 kcal/mol
DOCKED: USER    (2) Final Total Internal Energy     =  -1.05 kcal/mol
DOCKED: USER    (3) Torsional Free Energy           =  +1.49 kcal/mol
DOCKED: USER    (4) Unbound System's Energy         =  -1.05 kcal/mol
DOCKED: USER
DOCKED: USER
DOCKED: REMARK  5 active torsions:
DOCKED: REMARK  status: ('A' for Active; 'I' for Inactive)
DOCKED: REMARK    1  A    between atoms: C_2  and  C_19 
DOCKED: REMARK    2  A    between atoms: C_2  and  C_11 
DOCKED: REMARK    3  A    between atoms: C_19  and  C_20 
DOCKED: REMARK    4  A    between atoms: C_20  and  C_21 
DOCKED: REMARK    5  A    between atoms: C_21  and  N_22 
DOCKED: USER                              x       y       z     vdW  Elec       q    Type
DOCKED: USER                           _______ _______ _______ _____ _____    ______ ____
DOCKED: ROOT
DOCKED: ATOM      1  O   UNL     1     -49.615 -31.267   9.566 -0.03 -0.00    -0.346 OA 
DOCKED: ATOM      2  C   UNL     1     -50.135 -30.392   8.514 -0.10 +0.00    +0.130 C  
DOCKED: ATOM      3  C   UNL     1     -50.974 -31.306   7.669 -0.20 +0.00    +0.004 A  
DOCKED: ATOM      4  C   UNL     1     -51.021 -32.566   8.248 -0.22 +0.00    +0.006 A  
DOCKED: ATOM      5  C   UNL     1     -50.238 -32.571   9.504 -0.12 +0.00    +0.169 C  
DOCKED: ATOM      6  C   UNL     1     -51.652 -31.040   6.488 -0.28 -0.00    -0.001 A  
DOCKED: ATOM      7  C   UNL     1     -51.738 -33.599   7.669 -0.29 +0.00    +0.008 A  
DOCKED: ATOM      8  C   UNL     1     -52.376 -32.073   5.890 -0.34 +0.00    +0.010 A  
DOCKED: ATOM      9  C   UNL     1     -52.419 -33.346   6.478 -0.30 +0.00    +0.068 A  
DOCKED: ATOM     10  N   UNL     1     -53.776 -35.239   5.343 -2.56 -0.00    -0.191 NA 
DOCKED: ATOM     11  C   UNL     1     -53.167 -34.390   5.852 -0.35 +0.00    +0.101 C  
DOCKED: ENDROOT
DOCKED: BRANCH   2  12
DOCKED: ATOM     12  C   UNL     1     -50.944 -29.279   9.168 -0.05 +0.00    +0.038 C  
DOCKED: BRANCH  12  13
DOCKED: ATOM     13  C   UNL     1     -51.573 -28.359   8.123 -0.08 +0.00    +0.038 C  
DOCKED: BRANCH  13  14
DOCKED: ATOM     14  C   UNL     1     -52.823 -27.676   8.673 -0.02 +0.00    +0.251 C  
DOCKED: BRANCH  14  15
DOCKED: ATOM     15  N   UNL     1     -53.978 -27.982   7.837 -0.08 +0.00    +0.141 N  
DOCKED: ATOM     16  C   UNL     1     -53.757 -27.524   6.465 -0.15 +0.00    +0.285 C  
DOCKED: ATOM     17  C   UNL     1     -54.260 -29.418   7.854 -0.09 +0.00    +0.285 C  
DOCKED: ENDBRANCH  14  15
DOCKED: ENDBRANCH  13  14
DOCKED: ENDBRANCH  12  13
DOCKED: ENDBRANCH   2  12
DOCKED: BRANCH   2  18
DOCKED: ATOM     18  C   UNL     1     -48.956 -29.843   7.782 -0.12 +0.00    +0.006 A  
DOCKED: ATOM     19  C   UNL     1     -49.117 -29.306   6.505 -0.13 +0.00    +0.001 A  
DOCKED: ATOM     20  C   UNL     1     -48.014 -28.793   5.822 -0.12 +0.00    +0.029 A  
DOCKED: ATOM     21  C   UNL     1     -46.753 -28.816   6.415 -0.07 +0.00    +0.140 A  
DOCKED: ATOM     22  C   UNL     1     -46.593 -29.352   7.693 -0.06 +0.00    +0.029 A  
DOCKED: ATOM     23  F   UNL     1     -45.695 -28.321   5.760 -0.01 -0.00    -0.204 F  
DOCKED: ATOM     24  C   UNL     1     -47.695 -29.867   8.377 -0.08 +0.00    +0.001 A  
DOCKED: ENDBRANCH   2  18
DOCKED: TORSDOF 5
DOCKED: TER
DOCKED: ENDMDL
________________________________________________________________________________


    FINAL DOCKED STATE:
    ________________________


Run:   439 / 512
Time taken for this run:   0.001s

DOCKED: MODEL        439
DOCKED: USER    Run = 439
DOCKED: USER
DOCKED: USER    Estimated Free Energy of Binding    =  -4.10 kcal/mol  [=(1)+(2)+(3)-(4)]
DOCKED: USER
DOCKED: USER    (1) Final Intermolecular Energy     =  -5.59 kcal/mol
DOCKED: USER        vdW + Hbond + desolv Energy     =  -5.59 kcal/mol
DOCKED: USER        Electrostatic Energy            =  +0.00 kcal/mol
DOCKED: USER        Moving Ligand-Fixed Receptor    =  -5.59 kcal/mol
DOCKED: USER        Moving Ligand-Moving Receptor   =  +0.00 kcal/mol
DOCKED: USER    (2) Final Total Internal Energy     =  -1.22 kcal/mol
DOCKED: USER    (3) Torsional Free Energy           =  +1.49 kcal/mol
DOCKED: USER    (4) Unbound System's Energy         =  -1.22 kcal/mol
DOCKED: USER
DOCKED: USER
DOCKED: REMARK  5 active torsions:
DOCKED: REMARK  status: ('A' for Active; 'I' for Inactive)
DOCKED: REMARK    1  A    between atoms: C_2  and  C_19 
DOCKED: REMARK    2  A    between atoms: C_2  and  C_11 
DOCKED: REMARK    3  A    between atoms: C_19  and  C_20 
DOCKED: REMARK    4  A    between atoms: C_20  and  C_21 
DOCKED: REMARK    5  A    between atoms: C_21  and  N_22 
DOCKED: USER                              x       y       z     vdW  Elec       q    Type
DOCKED: USER                           _______ _______ _______ _____ _____    ______ ____
DOCKED: ROOT
DOCKED: ATOM      1  O   UNL     1     -50.320 -29.456   7.624 -0.05 -0.00    -0.346 OA 
DOCKED: ATOM      2  C   UNL     1     -51.754 -29.173   7.710 -0.12 +0.00    +0.130 C  
DOCKED: ATOM      3  C   UNL     1     -52.399 -30.427   7.195 -0.21 +0.00    +0.004 A  
DOCKED: ATOM      4  C   UNL     1     -51.425 -31.383   6.940 -0.26 +0.00    +0.006 A  
DOCKED: ATOM      5  C   UNL     1     -50.090 -30.841   7.276 -0.07 +0.00    +0.169 C  
DOCKED: ATOM      6  C   UNL     1     -53.741 -30.704   6.979 -0.22 -0.00    -0.001 A  
DOCKED: ATOM      7  C   UNL     1     -51.756 -32.638   6.460 -0.32 +0.00    +0.008 A  
DOCKED: ATOM      8  C   UNL     1     -54.090 -31.964   6.491 -0.24 +0.00    +0.010 A  
DOCKED: ATOM      9  C   UNL     1     -53.103 -32.926   6.234 -0.27 +0.00    +0.068 A  
DOCKED: ATOM     10  N   UNL     1     -53.786 -35.258   5.333 -2.55 -0.00    -0.191 NA 
DOCKED: ATOM     11  C   UNL     1     -53.480 -34.212   5.736 -0.36 +0.00    +0.101 C  
DOCKED: ENDROOT
DOCKED: BRANCH   2  12
DOCKED: ATOM     12  C   UNL     1     -52.101 -28.882   9.166 -0.04 +0.00    +0.038 C  
DOCKED: BRANCH  12  13
DOCKED: ATOM     13  C   UNL     1     -50.877 -29.019  10.068 -0.02 +0.00    +0.038 C  
DOCKED: BRANCH  13  14
DOCKED: ATOM     14  C   UNL     1     -49.993 -27.776   9.988 -0.00 +0.00    +0.251 C  
DOCKED: BRANCH  14  15
DOCKED: ATOM     15  N   UNL     1     -50.761 -26.585  10.332 -0.00 +0.00    +0.141 N  
DOCKED: ATOM     16  C   UNL     1     -51.476 -26.778  11.594 +0.00 +0.00    +0.285 C  
DOCKED: ATOM     17  C   UNL     1     -49.886 -25.414  10.418 +0.00 +0.00    +0.285 C  
DOCKED: ENDBRANCH  14  15
DOCKED: ENDBRANCH  13  14
DOCKED: ENDBRANCH  12  13
DOCKED: ENDBRANCH   2  12
DOCKED: BRANCH   2  18
DOCKED: ATOM     18  C   UNL     1     -52.017 -27.986   6.846 -0.15 +0.00    +0.006 A  
DOCKED: ATOM     19  C   UNL     1     -53.303 -27.452   6.770 -0.18 +0.00    +0.001 A  
DOCKED: ATOM     20  C   UNL     1     -53.548 -26.341   5.961 -0.16 +0.00    +0.029 A  
DOCKED: ATOM     21  C   UNL     1     -52.509 -25.767   5.231 -0.12 +0.00    +0.140 A  
DOCKED: ATOM     22  C   UNL     1     -51.223 -26.302   5.308 -0.10 +0.00    +0.029 A  
DOCKED: ATOM     23  F   UNL     1     -52.744 -24.700   4.456 -0.02 -0.00    -0.204 F  
DOCKED: ATOM     24  C   UNL     1     -50.977 -27.413   6.116 -0.12 +0.00    +0.001 A  
DOCKED: ENDBRANCH   2  18
DOCKED: TORSDOF 5
DOCKED: TER
DOCKED: ENDMDL
________________________________________________________________________________


    FINAL DOCKED STATE:
    ________________________


Run:   440 / 512
Time taken for this run:   0.001s

DOCKED: MODEL        440
DOCKED: USER    Run = 440
DOCKED: USER
DOCKED: USER    Estimated Free Energy of Binding    =  -3.83 kcal/mol  [=(1)+(2)+(3)-(4)]
DOCKED: USER
DOCKED: USER    (1) Final Intermolecular Energy     =  -5.32 kcal/mol
DOCKED: USER        vdW + Hbond + desolv Energy     =  -5.32 kcal/mol
DOCKED: USER        Electrostatic Energy            =  +0.00 kcal/mol
DOCKED: USER        Moving Ligand-Fixed Receptor    =  -5.32 kcal/mol
DOCKED: USER        Moving Ligand-Moving Receptor   =  +0.00 kcal/mol
DOCKED: USER    (2) Final Total Internal Energy     =  -1.29 kcal/mol
DOCKED: USER    (3) Torsional Free Energy           =  +1.49 kcal/mol
DOCKED: USER    (4) Unbound System's Energy         =  -1.29 kcal/mol
DOCKED: USER
DOCKED: USER
DOCKED: REMARK  5 active torsions:
DOCKED: REMARK  status: ('A' for Active; 'I' for Inactive)
DOCKED: REMARK    1  A    between atoms: C_2  and  C_19 
DOCKED: REMARK    2  A    between atoms: C_2  and  C_11 
DOCKED: REMARK    3  A    between atoms: C_19  and  C_20 
DOCKED: REMARK    4  A    between atoms: C_20  and  C_21 
DOCKED: REMARK    5  A    between atoms: C_21  and  N_22 
DOCKED: USER                              x       y       z     vdW  Elec       q    Type
DOCKED: USER                           _______ _______ _______ _____ _____    ______ ____
DOCKED: ROOT
DOCKED: ATOM      1  O   UNL     1     -51.509 -30.998  10.174 -0.00 -0.00    -0.346 OA 
DOCKED: ATOM      2  C   UNL     1     -50.371 -31.595   9.474 -0.09 +0.00    +0.130 C  
DOCKED: ATOM      3  C   UNL     1     -51.007 -32.458   8.422 -0.20 +0.00    +0.004 A  
DOCKED: ATOM      4  C   UNL     1     -52.384 -32.284   8.446 -0.13 +0.00    +0.006 A  
DOCKED: ATOM      5  C   UNL     1     -52.748 -31.300   9.490 -0.04 +0.00    +0.169 C  
DOCKED: ATOM      6  C   UNL     1     -50.414 -33.318   7.510 -0.27 -0.00    -0.001 A  
DOCKED: ATOM      7  C   UNL     1     -53.211 -32.963   7.568 -0.19 +0.00    +0.008 A  
DOCKED: ATOM      8  C   UNL     1     -51.236 -34.014   6.621 -0.38 +0.00    +0.010 A  
DOCKED: ATOM      9  C   UNL     1     -52.627 -33.836   6.650 -0.28 +0.00    +0.068 A  
DOCKED: ATOM     10  N   UNL     1     -54.122 -35.139   4.982 -2.08 -0.00    -0.191 NA 
DOCKED: ATOM     11  C   UNL     1     -53.452 -34.555   5.731 -0.30 +0.00    +0.101 C  
DOCKED: ENDROOT
DOCKED: BRANCH   2  12
DOCKED: ATOM     12  C   UNL     1     -49.522 -30.473   8.887 -0.10 +0.00    +0.038 C  
DOCKED: BRANCH  12  13
DOCKED: ATOM     13  C   UNL     1     -49.842 -30.247   7.411 -0.16 +0.00    +0.038 C  
DOCKED: BRANCH  13  14
DOCKED: ATOM     14  C   UNL     1     -50.131 -28.773   7.131 -0.10 +0.00    +0.251 C  
DOCKED: BRANCH  14  15
DOCKED: ATOM     15  N   UNL     1     -51.492 -28.438   7.532 -0.08 +0.00    +0.141 N  
DOCKED: ATOM     16  C   UNL     1     -51.768 -27.022   7.287 -0.06 +0.00    +0.285 C  
DOCKED: ATOM     17  C   UNL     1     -52.460 -29.275   6.821 -0.15 +0.00    +0.285 C  
DOCKED: ENDBRANCH  14  15
DOCKED: ENDBRANCH  13  14
DOCKED: ENDBRANCH  12  13
DOCKED: ENDBRANCH   2  12
DOCKED: BRANCH   2  18
DOCKED: ATOM     18  C   UNL     1     -49.601 -32.381  10.483 -0.10 +0.00    +0.006 A  
DOCKED: ATOM     19  C   UNL     1     -48.218 -32.232  10.573 -0.09 +0.00    +0.001 A  
DOCKED: ATOM     20  C   UNL     1     -47.499 -32.968  11.517 -0.09 +0.00    +0.029 A  
DOCKED: ATOM     21  C   UNL     1     -48.164 -33.849  12.368 -0.10 +0.00    +0.140 A  
DOCKED: ATOM     22  C   UNL     1     -49.548 -33.997  12.277 -0.14 +0.00    +0.029 A  
DOCKED: ATOM     23  F   UNL     1     -47.475 -34.553  13.275 -0.04 -0.00    -0.204 F  
DOCKED: ATOM     24  C   UNL     1     -50.268 -33.262  11.333 -0.13 +0.00    +0.001 A  
DOCKED: ENDBRANCH   2  18
DOCKED: TORSDOF 5
DOCKED: TER
DOCKED: ENDMDL
________________________________________________________________________________


    FINAL DOCKED STATE:
    ________________________


Run:   441 / 512
Time taken for this run:   0.001s

DOCKED: MODEL        441
DOCKED: USER    Run = 441
DOCKED: USER
DOCKED: USER    Estimated Free Energy of Binding    =  -3.85 kcal/mol  [=(1)+(2)+(3)-(4)]
DOCKED: USER
DOCKED: USER    (1) Final Intermolecular Energy     =  -5.34 kcal/mol
DOCKED: USER        vdW + Hbond + desolv Energy     =  -5.34 kcal/mol
DOCKED: USER        Electrostatic Energy            =  +0.00 kcal/mol
DOCKED: USER        Moving Ligand-Fixed Receptor    =  -5.34 kcal/mol
DOCKED: USER        Moving Ligand-Moving Receptor   =  +0.00 kcal/mol
DOCKED: USER    (2) Final Total Internal Energy     =  -1.37 kcal/mol
DOCKED: USER    (3) Torsional Free Energy           =  +1.49 kcal/mol
DOCKED: USER    (4) Unbound System's Energy         =  -1.37 kcal/mol
DOCKED: USER
DOCKED: USER
DOCKED: REMARK  5 active torsions:
DOCKED: REMARK  status: ('A' for Active; 'I' for Inactive)
DOCKED: REMARK    1  A    between atoms: C_2  and  C_19 
DOCKED: REMARK    2  A    between atoms: C_2  and  C_11 
DOCKED: REMARK    3  A    between atoms: C_19  and  C_20 
DOCKED: REMARK    4  A    between atoms: C_20  and  C_21 
DOCKED: REMARK    5  A    between atoms: C_21  and  N_22 
DOCKED: USER                              x       y       z     vdW  Elec       q    Type
DOCKED: USER                           _______ _______ _______ _____ _____    ______ ____
DOCKED: ROOT
DOCKED: ATOM      1  O   UNL     1     -53.521 -34.307   7.326 -0.77 -0.00    -0.346 OA 
DOCKED: ATOM      2  C   UNL     1     -52.557 -33.209   7.243 -0.23 +0.00    +0.130 C  
DOCKED: ATOM      3  C   UNL     1     -51.809 -33.288   8.542 -0.21 +0.00    +0.004 A  
DOCKED: ATOM      4  C   UNL     1     -52.230 -34.400   9.257 -0.26 +0.00    +0.006 A  
DOCKED: ATOM      5  C   UNL     1     -53.262 -35.130   8.487 -0.09 +0.00    +0.169 C  
DOCKED: ATOM      6  C   UNL     1     -50.825 -32.449   9.046 -0.16 -0.00    -0.001 A  
DOCKED: ATOM      7  C   UNL     1     -51.691 -34.708  10.494 -0.24 +0.00    +0.008 A  
DOCKED: ATOM      8  C   UNL     1     -50.274 -32.744  10.294 -0.12 +0.00    +0.010 A  
DOCKED: ATOM      9  C   UNL     1     -50.705 -33.869  11.014 -0.13 +0.00    +0.068 A  
DOCKED: ATOM     10  N   UNL     1     -49.658 -34.391  13.326 -0.07 -0.00    -0.191 NA 
DOCKED: ATOM     11  C   UNL     1     -50.128 -34.156  12.289 -0.16 +0.00    +0.101 C  
DOCKED: ENDROOT
DOCKED: BRANCH   2  12
DOCKED: ATOM     12  C   UNL     1     -51.665 -33.440   6.029 -0.39 +0.00    +0.038 C  
DOCKED: BRANCH  12  13
DOCKED: ATOM     13  C   UNL     1     -51.794 -34.870   5.508 -0.34 +0.00    +0.038 C  
DOCKED: BRANCH  13  14
DOCKED: ATOM     14  C   UNL     1     -53.065 -35.040   4.678 -0.23 +0.00    +0.251 C  
DOCKED: BRANCH  14  15
DOCKED: ATOM     15  N   UNL     1     -53.549 -33.743   4.221 -0.36 +0.00    +0.141 N  
DOCKED: ATOM     16  C   UNL     1     -53.408 -33.621   2.769 -0.25 +0.00    +0.285 C  
DOCKED: ATOM     17  C   UNL     1     -54.946 -33.546   4.613 -0.05 +0.00    +0.285 C  
DOCKED: ENDBRANCH  14  15
DOCKED: ENDBRANCH  13  14
DOCKED: ENDBRANCH  12  13
DOCKED: ENDBRANCH   2  12
DOCKED: BRANCH   2  18
DOCKED: ATOM     18  C   UNL     1     -53.343 -31.948   7.100 -0.21 +0.00    +0.006 A  
DOCKED: ATOM     19  C   UNL     1     -52.706 -30.770   6.714 -0.25 +0.00    +0.001 A  
DOCKED: ATOM     20  C   UNL     1     -53.443 -29.592   6.582 -0.19 +0.00    +0.029 A  
DOCKED: ATOM     21  C   UNL     1     -54.814 -29.594   6.835 -0.18 +0.00    +0.140 A  
DOCKED: ATOM     22  C   UNL     1     -55.450 -30.774   7.221 -0.20 +0.00    +0.029 A  
DOCKED: ATOM     23  F   UNL     1     -55.520 -28.464   6.706 -0.08 -0.00    -0.204 F  
DOCKED: ATOM     24  C   UNL     1     -54.714 -31.953   7.354 -0.19 +0.00    +0.001 A  
DOCKED: ENDBRANCH   2  18
DOCKED: TORSDOF 5
DOCKED: TER
DOCKED: ENDMDL
________________________________________________________________________________


    FINAL DOCKED STATE:
    ________________________


Run:   442 / 512
Time taken for this run:   0.001s

DOCKED: MODEL        442
DOCKED: USER    Run = 442
DOCKED: USER
DOCKED: USER    Estimated Free Energy of Binding    =  -4.22 kcal/mol  [=(1)+(2)+(3)-(4)]
DOCKED: USER
DOCKED: USER    (1) Final Intermolecular Energy     =  -5.71 kcal/mol
DOCKED: USER        vdW + Hbond + desolv Energy     =  -5.71 kcal/mol
DOCKED: USER        Electrostatic Energy            =  +0.00 kcal/mol
DOCKED: USER        Moving Ligand-Fixed Receptor    =  -5.71 kcal/mol
DOCKED: USER        Moving Ligand-Moving Receptor   =  +0.00 kcal/mol
DOCKED: USER    (2) Final Total Internal Energy     =  -1.40 kcal/mol
DOCKED: USER    (3) Torsional Free Energy           =  +1.49 kcal/mol
DOCKED: USER    (4) Unbound System's Energy         =  -1.40 kcal/mol
DOCKED: USER
DOCKED: USER
DOCKED: REMARK  5 active torsions:
DOCKED: REMARK  status: ('A' for Active; 'I' for Inactive)
DOCKED: REMARK    1  A    between atoms: C_2  and  C_19 
DOCKED: REMARK    2  A    between atoms: C_2  and  C_11 
DOCKED: REMARK    3  A    between atoms: C_19  and  C_20 
DOCKED: REMARK    4  A    between atoms: C_20  and  C_21 
DOCKED: REMARK    5  A    between atoms: C_21  and  N_22 
DOCKED: USER                              x       y       z     vdW  Elec       q    Type
DOCKED: USER                           _______ _______ _______ _____ _____    ______ ____
DOCKED: ROOT
DOCKED: ATOM      1  O   UNL     1     -43.178 -30.824   0.193 +0.01 -0.00    -0.346 OA 
DOCKED: ATOM      2  C   UNL     1     -44.615 -30.545   0.213 -0.06 +0.00    +0.130 C  
DOCKED: ATOM      3  C   UNL     1     -45.186 -31.660   1.041 -0.13 +0.00    +0.004 A  
DOCKED: ATOM      4  C   UNL     1     -44.156 -32.444   1.542 -0.09 +0.00    +0.006 A  
DOCKED: ATOM      5  C   UNL     1     -42.852 -31.904   1.099 -0.02 +0.00    +0.169 C  
DOCKED: ATOM      6  C   UNL     1     -46.510 -31.950   1.336 -0.28 -0.00    -0.001 A  
DOCKED: ATOM      7  C   UNL     1     -44.412 -33.541   2.347 -0.16 +0.00    +0.008 A  
DOCKED: ATOM      8  C   UNL     1     -46.784 -33.056   2.143 -0.30 +0.00    +0.010 A  
DOCKED: ATOM      9  C   UNL     1     -45.741 -33.847   2.646 -0.30 +0.00    +0.068 A  
DOCKED: ATOM     10  N   UNL     1     -46.285 -35.889   4.144 -2.66 -0.00    -0.191 NA 
DOCKED: ATOM     11  C   UNL     1     -46.041 -34.974   3.472 -0.34 +0.00    +0.101 C  
DOCKED: ENDROOT
DOCKED: BRANCH   2  12
DOCKED: ATOM     12  C   UNL     1     -44.831 -29.172   0.838 -0.04 +0.00    +0.038 C  
DOCKED: BRANCH  12  13
DOCKED: ATOM     13  C   UNL     1     -44.369 -29.143   2.293 -0.03 +0.00    +0.038 C  
DOCKED: BRANCH  13  14
DOCKED: ATOM     14  C   UNL     1     -45.449 -28.559   3.202 -0.03 +0.00    +0.251 C  
DOCKED: BRANCH  14  15
DOCKED: ATOM     15  N   UNL     1     -46.396 -29.597   3.595 -0.11 +0.00    +0.141 N  
DOCKED: ATOM     16  C   UNL     1     -45.801 -30.486   4.594 -0.06 +0.00    +0.285 C  
DOCKED: ATOM     17  C   UNL     1     -47.627 -29.001   4.115 -0.08 +0.00    +0.285 C  
DOCKED: ENDBRANCH  14  15
DOCKED: ENDBRANCH  13  14
DOCKED: ENDBRANCH  12  13
DOCKED: ENDBRANCH   2  12
DOCKED: BRANCH   2  18
DOCKED: ATOM     18  C   UNL     1     -45.084 -30.573  -1.203 -0.12 +0.00    +0.006 A  
DOCKED: ATOM     19  C   UNL     1     -44.649 -31.581  -2.062 -0.12 +0.00    +0.001 A  
DOCKED: ATOM     20  C   UNL     1     -45.089 -31.605  -3.386 -0.14 +0.00    +0.029 A  
DOCKED: ATOM     21  C   UNL     1     -45.963 -30.623  -3.849 -0.18 +0.00    +0.140 A  
DOCKED: ATOM     22  C   UNL     1     -46.398 -29.615  -2.989 -0.22 +0.00    +0.029 A  
DOCKED: ATOM     23  F   UNL     1     -46.386 -30.647  -5.119 -0.09 -0.00    -0.204 F  
DOCKED: ATOM     24  C   UNL     1     -45.958 -29.589  -1.664 -0.16 +0.00    +0.001 A  
DOCKED: ENDBRANCH   2  18
DOCKED: TORSDOF 5
DOCKED: TER
DOCKED: ENDMDL
________________________________________________________________________________


    FINAL DOCKED STATE:
    ________________________


Run:   443 / 512
Time taken for this run:   0.001s

DOCKED: MODEL        443
DOCKED: USER    Run = 443
DOCKED: USER
DOCKED: USER    Estimated Free Energy of Binding    =  -4.40 kcal/mol  [=(1)+(2)+(3)-(4)]
DOCKED: USER
DOCKED: USER    (1) Final Intermolecular Energy     =  -5.89 kcal/mol
DOCKED: USER        vdW + Hbond + desolv Energy     =  -5.89 kcal/mol
DOCKED: USER        Electrostatic Energy            =  +0.00 kcal/mol
DOCKED: USER        Moving Ligand-Fixed Receptor    =  -5.89 kcal/mol
DOCKED: USER        Moving Ligand-Moving Receptor   =  +0.00 kcal/mol
DOCKED: USER    (2) Final Total Internal Energy     =  -1.11 kcal/mol
DOCKED: USER    (3) Torsional Free Energy           =  +1.49 kcal/mol
DOCKED: USER    (4) Unbound System's Energy         =  -1.11 kcal/mol
DOCKED: USER
DOCKED: USER
DOCKED: REMARK  5 active torsions:
DOCKED: REMARK  status: ('A' for Active; 'I' for Inactive)
DOCKED: REMARK    1  A    between atoms: C_2  and  C_19 
DOCKED: REMARK    2  A    between atoms: C_2  and  C_11 
DOCKED: REMARK    3  A    between atoms: C_19  and  C_20 
DOCKED: REMARK    4  A    between atoms: C_20  and  C_21 
DOCKED: REMARK    5  A    between atoms: C_21  and  N_22 
DOCKED: USER                              x       y       z     vdW  Elec       q    Type
DOCKED: USER                           _______ _______ _______ _____ _____    ______ ____
DOCKED: ROOT
DOCKED: ATOM      1  O   UNL     1     -51.904 -30.984   8.513 -0.02 -0.00    -0.346 OA 
DOCKED: ATOM      2  C   UNL     1     -51.020 -32.141   8.372 -0.17 +0.00    +0.130 C  
DOCKED: ATOM      3  C   UNL     1     -51.496 -32.806   7.112 -0.30 +0.00    +0.004 A  
DOCKED: ATOM      4  C   UNL     1     -52.490 -32.036   6.525 -0.30 +0.00    +0.006 A  
DOCKED: ATOM      5  C   UNL     1     -52.729 -30.821   7.336 -0.17 +0.00    +0.169 C  
DOCKED: ATOM      6  C   UNL     1     -51.075 -33.991   6.527 -0.33 -0.00    -0.001 A  
DOCKED: ATOM      7  C   UNL     1     -53.097 -32.423   5.343 -0.30 +0.00    +0.008 A  
DOCKED: ATOM      8  C   UNL     1     -51.680 -34.397   5.337 -0.17 +0.00    +0.010 A  
DOCKED: ATOM      9  C   UNL     1     -52.686 -33.617   4.748 -0.40 +0.00    +0.068 A  
DOCKED: ATOM     10  N   UNL     1     -53.786 -34.397   2.535 -1.83 -0.00    -0.191 NA 
DOCKED: ATOM     11  C   UNL     1     -53.293 -34.048   3.528 -0.53 +0.00    +0.101 C  
DOCKED: ENDROOT
DOCKED: BRANCH   2  12
DOCKED: ATOM     12  C   UNL     1     -49.583 -31.643   8.273 -0.19 +0.00    +0.038 C  
DOCKED: BRANCH  12  13
DOCKED: ATOM     13  C   UNL     1     -49.504 -30.319   7.515 -0.13 +0.00    +0.038 C  
DOCKED: BRANCH  13  14
DOCKED: ATOM     14  C   UNL     1     -48.408 -29.422   8.088 -0.06 +0.00    +0.251 C  
DOCKED: BRANCH  14  15
DOCKED: ATOM     15  N   UNL     1     -48.956 -28.546   9.116 -0.02 +0.00    +0.141 N  
DOCKED: ATOM     16  C   UNL     1     -49.153 -29.279  10.367 -0.01 +0.00    +0.285 C  
DOCKED: ATOM     17  C   UNL     1     -48.077 -27.396   9.335 -0.00 +0.00    +0.285 C  
DOCKED: ENDBRANCH  14  15
DOCKED: ENDBRANCH  13  14
DOCKED: ENDBRANCH  12  13
DOCKED: ENDBRANCH   2  12
DOCKED: BRANCH   2  18
DOCKED: ATOM     18  C   UNL     1     -51.214 -32.988   9.585 -0.15 +0.00    +0.006 A  
DOCKED: ATOM     19  C   UNL     1     -52.171 -34.002   9.582 -0.22 +0.00    +0.001 A  
DOCKED: ATOM     20  C   UNL     1     -52.352 -34.793  10.717 -0.13 +0.00    +0.029 A  
DOCKED: ATOM     21  C   UNL     1     -51.574 -34.570  11.853 -0.16 +0.00    +0.140 A  
DOCKED: ATOM     22  C   UNL     1     -50.617 -33.556  11.855 -0.13 +0.00    +0.029 A  
DOCKED: ATOM     23  F   UNL     1     -51.747 -35.330  12.942 -0.05 -0.00    -0.204 F  
DOCKED: ATOM     24  C   UNL     1     -50.436 -32.764  10.720 -0.11 +0.00    +0.001 A  
DOCKED: ENDBRANCH   2  18
DOCKED: TORSDOF 5
DOCKED: TER
DOCKED: ENDMDL
________________________________________________________________________________


    FINAL DOCKED STATE:
    ________________________


Run:   444 / 512
Time taken for this run:   0.001s

DOCKED: MODEL        444
DOCKED: USER    Run = 444
DOCKED: USER
DOCKED: USER    Estimated Free Energy of Binding    =  -4.06 kcal/mol  [=(1)+(2)+(3)-(4)]
DOCKED: USER
DOCKED: USER    (1) Final Intermolecular Energy     =  -5.55 kcal/mol
DOCKED: USER        vdW + Hbond + desolv Energy     =  -5.55 kcal/mol
DOCKED: USER        Electrostatic Energy            =  +0.00 kcal/mol
DOCKED: USER        Moving Ligand-Fixed Receptor    =  -5.55 kcal/mol
DOCKED: USER        Moving Ligand-Moving Receptor   =  +0.00 kcal/mol
DOCKED: USER    (2) Final Total Internal Energy     =  -1.43 kcal/mol
DOCKED: USER    (3) Torsional Free Energy           =  +1.49 kcal/mol
DOCKED: USER    (4) Unbound System's Energy         =  -1.43 kcal/mol
DOCKED: USER
DOCKED: USER
DOCKED: REMARK  5 active torsions:
DOCKED: REMARK  status: ('A' for Active; 'I' for Inactive)
DOCKED: REMARK    1  A    between atoms: C_2  and  C_19 
DOCKED: REMARK    2  A    between atoms: C_2  and  C_11 
DOCKED: REMARK    3  A    between atoms: C_19  and  C_20 
DOCKED: REMARK    4  A    between atoms: C_20  and  C_21 
DOCKED: REMARK    5  A    between atoms: C_21  and  N_22 
DOCKED: USER                              x       y       z     vdW  Elec       q    Type
DOCKED: USER                           _______ _______ _______ _____ _____    ______ ____
DOCKED: ROOT
DOCKED: ATOM      1  O   UNL     1     -49.161 -31.157   8.938 -0.06 -0.00    -0.346 OA 
DOCKED: ATOM      2  C   UNL     1     -50.316 -30.324   8.600 -0.09 +0.00    +0.130 C  
DOCKED: ATOM      3  C   UNL     1     -51.217 -31.251   7.835 -0.18 +0.00    +0.004 A  
DOCKED: ATOM      4  C   UNL     1     -50.677 -32.529   7.832 -0.25 +0.00    +0.006 A  
DOCKED: ATOM      5  C   UNL     1     -49.407 -32.540   8.593 -0.16 +0.00    +0.169 C  
DOCKED: ATOM      6  C   UNL     1     -52.423 -30.986   7.204 -0.22 -0.00    -0.001 A  
DOCKED: ATOM      7  C   UNL     1     -51.317 -33.580   7.197 -0.34 +0.00    +0.008 A  
DOCKED: ATOM      8  C   UNL     1     -53.078 -32.034   6.555 -0.27 +0.00    +0.010 A  
DOCKED: ATOM      9  C   UNL     1     -52.528 -33.324   6.553 -0.28 +0.00    +0.068 A  
DOCKED: ATOM     10  N   UNL     1     -53.774 -35.248   5.344 -2.56 -0.00    -0.191 NA 
DOCKED: ATOM     11  C   UNL     1     -53.215 -34.385   5.886 -0.34 +0.00    +0.101 C  
DOCKED: ENDROOT
DOCKED: BRANCH   2  12
DOCKED: ATOM     12  C   UNL     1     -50.943 -29.821   9.894 -0.03 +0.00    +0.038 C  
DOCKED: BRANCH  12  13
DOCKED: ATOM     13  C   UNL     1     -50.868 -30.875  10.997 -0.03 +0.00    +0.038 C  
DOCKED: BRANCH  13  14
DOCKED: ATOM     14  C   UNL     1     -52.208 -31.588  11.168 -0.01 +0.00    +0.251 C  
DOCKED: BRANCH  14  15
DOCKED: ATOM     15  N   UNL     1     -51.998 -32.997  11.478 -0.06 +0.00    +0.141 N  
DOCKED: ATOM     16  C   UNL     1     -52.536 -33.845  10.414 -0.10 +0.00    +0.285 C  
DOCKED: ATOM     17  C   UNL     1     -50.575 -33.274  11.678 -0.07 +0.00    +0.285 C  
DOCKED: ENDBRANCH  14  15
DOCKED: ENDBRANCH  13  14
DOCKED: ENDBRANCH  12  13
DOCKED: ENDBRANCH   2  12
DOCKED: BRANCH   2  18
DOCKED: ATOM     18  C   UNL     1     -49.809 -29.191   7.771 -0.11 +0.00    +0.006 A  
DOCKED: ATOM     19  C   UNL     1     -49.757 -27.905   8.307 -0.04 +0.00    +0.001 A  
DOCKED: ATOM     20  C   UNL     1     -49.283 -26.846   7.531 -0.03 +0.00    +0.029 A  
DOCKED: ATOM     21  C   UNL     1     -48.861 -27.075   6.222 -0.05 +0.00    +0.140 A  
DOCKED: ATOM     22  C   UNL     1     -48.913 -28.362   5.687 -0.14 +0.00    +0.029 A  
DOCKED: ATOM     23  F   UNL     1     -48.404 -26.060   5.478 -0.00 -0.00    -0.204 F  
DOCKED: ATOM     24  C   UNL     1     -49.388 -29.422   6.462 -0.13 +0.00    +0.001 A  
DOCKED: ENDBRANCH   2  18
DOCKED: TORSDOF 5
DOCKED: TER
DOCKED: ENDMDL
________________________________________________________________________________


    FINAL DOCKED STATE:
    ________________________


Run:   445 / 512
Time taken for this run:   0.001s

DOCKED: MODEL        445
DOCKED: USER    Run = 445
DOCKED: USER
DOCKED: USER    Estimated Free Energy of Binding    =  -4.63 kcal/mol  [=(1)+(2)+(3)-(4)]
DOCKED: USER
DOCKED: USER    (1) Final Intermolecular Energy     =  -6.13 kcal/mol
DOCKED: USER        vdW + Hbond + desolv Energy     =  -6.13 kcal/mol
DOCKED: USER        Electrostatic Energy            =  +0.00 kcal/mol
DOCKED: USER        Moving Ligand-Fixed Receptor    =  -6.13 kcal/mol
DOCKED: USER        Moving Ligand-Moving Receptor   =  +0.00 kcal/mol
DOCKED: USER    (2) Final Total Internal Energy     =  -1.62 kcal/mol
DOCKED: USER    (3) Torsional Free Energy           =  +1.49 kcal/mol
DOCKED: USER    (4) Unbound System's Energy         =  -1.62 kcal/mol
DOCKED: USER
DOCKED: USER
DOCKED: REMARK  5 active torsions:
DOCKED: REMARK  status: ('A' for Active; 'I' for Inactive)
DOCKED: REMARK    1  A    between atoms: C_2  and  C_19 
DOCKED: REMARK    2  A    between atoms: C_2  and  C_11 
DOCKED: REMARK    3  A    between atoms: C_19  and  C_20 
DOCKED: REMARK    4  A    between atoms: C_20  and  C_21 
DOCKED: REMARK    5  A    between atoms: C_21  and  N_22 
DOCKED: USER                              x       y       z     vdW  Elec       q    Type
DOCKED: USER                           _______ _______ _______ _____ _____    ______ ____
DOCKED: ROOT
DOCKED: ATOM      1  O   UNL     1     -54.879 -32.966   8.170 -0.01 -0.00    -0.346 OA 
DOCKED: ATOM      2  C   UNL     1     -53.760 -32.135   7.725 -0.13 +0.00    +0.130 C  
DOCKED: ATOM      3  C   UNL     1     -53.597 -32.498   6.277 -0.28 +0.00    +0.004 A  
DOCKED: ATOM      4  C   UNL     1     -54.603 -33.375   5.899 -0.30 +0.00    +0.006 A  
DOCKED: ATOM      5  C   UNL     1     -55.496 -33.640   7.049 -0.18 +0.00    +0.169 C  
DOCKED: ATOM      6  C   UNL     1     -52.641 -32.076   5.364 -0.31 -0.00    -0.001 A  
DOCKED: ATOM      7  C   UNL     1     -54.687 -33.862   4.606 -0.34 +0.00    +0.008 A  
DOCKED: ATOM      8  C   UNL     1     -52.709 -32.561   4.057 -0.19 +0.00    +0.010 A  
DOCKED: ATOM      9  C   UNL     1     -53.728 -33.449   3.680 -0.34 +0.00    +0.068 A  
DOCKED: ATOM     10  N   UNL     1     -53.828 -34.328   1.245 -2.76 -0.00    -0.191 NA 
DOCKED: ATOM     11  C   UNL     1     -53.783 -33.934   2.337 -0.29 +0.00    +0.101 C  
DOCKED: ENDROOT
DOCKED: BRANCH   2  12
DOCKED: ATOM     12  C   UNL     1     -54.133 -30.672   7.932 -0.15 +0.00    +0.038 C  
DOCKED: BRANCH  12  13
DOCKED: ATOM     13  C   UNL     1     -55.288 -30.526   8.921 -0.08 +0.00    +0.038 C  
DOCKED: BRANCH  13  14
DOCKED: ATOM     14  C   UNL     1     -54.776 -30.473  10.359 -0.00 +0.00    +0.251 C  
DOCKED: BRANCH  14  15
DOCKED: ATOM     15  N   UNL     1     -54.632 -31.821  10.895 -0.02 +0.00    +0.141 N  
DOCKED: ATOM     16  C   UNL     1     -53.880 -31.799  12.151 -0.00 +0.00    +0.285 C  
DOCKED: ATOM     17  C   UNL     1     -55.943 -32.438  11.100 -0.00 +0.00    +0.285 C  
DOCKED: ENDBRANCH  14  15
DOCKED: ENDBRANCH  13  14
DOCKED: ENDBRANCH  12  13
DOCKED: ENDBRANCH   2  12
DOCKED: BRANCH   2  18
DOCKED: ATOM     18  C   UNL     1     -52.579 -32.512   8.555 -0.13 +0.00    +0.006 A  
DOCKED: ATOM     19  C   UNL     1     -51.605 -31.560   8.854 -0.11 +0.00    +0.001 A  
DOCKED: ATOM     20  C   UNL     1     -50.500 -31.914   9.630 -0.10 +0.00    +0.029 A  
DOCKED: ATOM     21  C   UNL     1     -50.372 -33.218  10.107 -0.06 +0.00    +0.140 A  
DOCKED: ATOM     22  C   UNL     1     -51.347 -34.169   9.808 -0.14 +0.00    +0.029 A  
DOCKED: ATOM     23  F   UNL     1     -49.313 -33.557  10.854 +0.00 -0.00    -0.204 F  
DOCKED: ATOM     24  C   UNL     1     -52.452 -33.816   9.031 -0.21 +0.00    +0.001 A  
DOCKED: ENDBRANCH   2  18
DOCKED: TORSDOF 5
DOCKED: TER
DOCKED: ENDMDL
________________________________________________________________________________


    FINAL DOCKED STATE:
    ________________________


Run:   446 / 512
Time taken for this run:   0.001s

DOCKED: MODEL        446
DOCKED: USER    Run = 446
DOCKED: USER
DOCKED: USER    Estimated Free Energy of Binding    =  -3.82 kcal/mol  [=(1)+(2)+(3)-(4)]
DOCKED: USER
DOCKED: USER    (1) Final Intermolecular Energy     =  -5.31 kcal/mol
DOCKED: USER        vdW + Hbond + desolv Energy     =  -5.31 kcal/mol
DOCKED: USER        Electrostatic Energy            =  +0.00 kcal/mol
DOCKED: USER        Moving Ligand-Fixed Receptor    =  -5.31 kcal/mol
DOCKED: USER        Moving Ligand-Moving Receptor   =  +0.00 kcal/mol
DOCKED: USER    (2) Final Total Internal Energy     =  -1.33 kcal/mol
DOCKED: USER    (3) Torsional Free Energy           =  +1.49 kcal/mol
DOCKED: USER    (4) Unbound System's Energy         =  -1.33 kcal/mol
DOCKED: USER
DOCKED: USER
DOCKED: REMARK  5 active torsions:
DOCKED: REMARK  status: ('A' for Active; 'I' for Inactive)
DOCKED: REMARK    1  A    between atoms: C_2  and  C_19 
DOCKED: REMARK    2  A    between atoms: C_2  and  C_11 
DOCKED: REMARK    3  A    between atoms: C_19  and  C_20 
DOCKED: REMARK    4  A    between atoms: C_20  and  C_21 
DOCKED: REMARK    5  A    between atoms: C_21  and  N_22 
DOCKED: USER                              x       y       z     vdW  Elec       q    Type
DOCKED: USER                           _______ _______ _______ _____ _____    ______ ____
DOCKED: ROOT
DOCKED: ATOM      1  O   UNL     1     -49.481 -31.249   8.974 -0.06 -0.00    -0.346 OA 
DOCKED: ATOM      2  C   UNL     1     -50.585 -30.439   8.458 -0.10 +0.00    +0.130 C  
DOCKED: ATOM      3  C   UNL     1     -51.376 -31.401   7.620 -0.20 +0.00    +0.004 A  
DOCKED: ATOM      4  C   UNL     1     -50.837 -32.674   7.736 -0.26 +0.00    +0.006 A  
DOCKED: ATOM      5  C   UNL     1     -49.676 -32.646   8.654 -0.15 +0.00    +0.169 C  
DOCKED: ATOM      6  C   UNL     1     -52.491 -31.170   6.828 -0.26 -0.00    -0.001 A  
DOCKED: ATOM      7  C   UNL     1     -51.386 -33.753   7.064 -0.36 +0.00    +0.008 A  
DOCKED: ATOM      8  C   UNL     1     -53.054 -32.247   6.141 -0.31 +0.00    +0.010 A  
DOCKED: ATOM      9  C   UNL     1     -52.504 -33.532   6.259 -0.31 +0.00    +0.068 A  
DOCKED: ATOM     10  N   UNL     1     -53.577 -35.510   4.975 -2.37 -0.00    -0.191 NA 
DOCKED: ATOM     11  C   UNL     1     -53.095 -34.623   5.551 -0.33 +0.00    +0.101 C  
DOCKED: ENDROOT
DOCKED: BRANCH   2  12
DOCKED: ATOM     12  C   UNL     1     -51.376 -29.892   9.640 -0.04 +0.00    +0.038 C  
DOCKED: BRANCH  12  13
DOCKED: ATOM     13  C   UNL     1     -50.717 -30.257  10.969 -0.02 +0.00    +0.038 C  
DOCKED: BRANCH  13  14
DOCKED: ATOM     14  C   UNL     1     -50.178 -29.014  11.674 -0.00 +0.00    +0.251 C  
DOCKED: BRANCH  14  15
DOCKED: ATOM     15  N   UNL     1     -48.827 -29.256  12.168 -0.00 +0.00    +0.141 N  
DOCKED: ATOM     16  C   UNL     1     -48.643 -30.672  12.493 -0.00 +0.00    +0.285 C  
DOCKED: ATOM     17  C   UNL     1     -47.833 -28.828  11.183 -0.00 +0.00    +0.285 C  
DOCKED: ENDBRANCH  14  15
DOCKED: ENDBRANCH  13  14
DOCKED: ENDBRANCH  12  13
DOCKED: ENDBRANCH   2  12
DOCKED: BRANCH   2  18
DOCKED: ATOM     18  C   UNL     1     -49.978 -29.334   7.659 -0.12 +0.00    +0.006 A  
DOCKED: ATOM     19  C   UNL     1     -49.572 -28.159   8.291 -0.04 +0.00    +0.001 A  
DOCKED: ATOM     20  C   UNL     1     -49.005 -27.127   7.542 -0.03 +0.00    +0.029 A  
DOCKED: ATOM     21  C   UNL     1     -48.845 -27.270   6.165 -0.06 +0.00    +0.140 A  
DOCKED: ATOM     22  C   UNL     1     -49.252 -28.446   5.534 -0.15 +0.00    +0.029 A  
DOCKED: ATOM     23  F   UNL     1     -48.299 -26.280   5.447 -0.00 -0.00    -0.204 F  
DOCKED: ATOM     24  C   UNL     1     -49.819 -29.479   6.282 -0.13 +0.00    +0.001 A  
DOCKED: ENDBRANCH   2  18
DOCKED: TORSDOF 5
DOCKED: TER
DOCKED: ENDMDL
________________________________________________________________________________


    FINAL DOCKED STATE:
    ________________________


Run:   447 / 512
Time taken for this run:   0.001s

DOCKED: MODEL        447
DOCKED: USER    Run = 447
DOCKED: USER
DOCKED: USER    Estimated Free Energy of Binding    =  -3.28 kcal/mol  [=(1)+(2)+(3)-(4)]
DOCKED: USER
DOCKED: USER    (1) Final Intermolecular Energy     =  -4.77 kcal/mol
DOCKED: USER        vdW + Hbond + desolv Energy     =  -4.77 kcal/mol
DOCKED: USER        Electrostatic Energy            =  +0.00 kcal/mol
DOCKED: USER        Moving Ligand-Fixed Receptor    =  -4.77 kcal/mol
DOCKED: USER        Moving Ligand-Moving Receptor   =  +0.00 kcal/mol
DOCKED: USER    (2) Final Total Internal Energy     =  -1.30 kcal/mol
DOCKED: USER    (3) Torsional Free Energy           =  +1.49 kcal/mol
DOCKED: USER    (4) Unbound System's Energy         =  -1.30 kcal/mol
DOCKED: USER
DOCKED: USER
DOCKED: REMARK  5 active torsions:
DOCKED: REMARK  status: ('A' for Active; 'I' for Inactive)
DOCKED: REMARK    1  A    between atoms: C_2  and  C_19 
DOCKED: REMARK    2  A    between atoms: C_2  and  C_11 
DOCKED: REMARK    3  A    between atoms: C_19  and  C_20 
DOCKED: REMARK    4  A    between atoms: C_20  and  C_21 
DOCKED: REMARK    5  A    between atoms: C_21  and  N_22 
DOCKED: USER                              x       y       z     vdW  Elec       q    Type
DOCKED: USER                           _______ _______ _______ _____ _____    ______ ____
DOCKED: ROOT
DOCKED: ATOM      1  O   UNL     1     -44.239 -22.733  -3.517 +0.01 -0.00    -0.346 OA 
DOCKED: ATOM      2  C   UNL     1     -44.318 -21.970  -4.763 -0.03 +0.00    +0.130 C  
DOCKED: ATOM      3  C   UNL     1     -45.791 -21.887  -5.041 -0.11 +0.00    +0.004 A  
DOCKED: ATOM      4  C   UNL     1     -46.497 -22.455  -3.990 -0.12 +0.00    +0.006 A  
DOCKED: ATOM      5  C   UNL     1     -45.556 -22.934  -2.953 -0.04 +0.00    +0.169 C  
DOCKED: ATOM      6  C   UNL     1     -46.453 -21.342  -6.131 -0.18 -0.00    -0.001 A  
DOCKED: ATOM      7  C   UNL     1     -47.881 -22.502  -3.994 -0.25 +0.00    +0.008 A  
DOCKED: ATOM      8  C   UNL     1     -47.849 -21.386  -6.152 -0.16 +0.00    +0.010 A  
DOCKED: ATOM      9  C   UNL     1     -48.558 -21.963  -5.088 -0.33 +0.00    +0.068 A  
DOCKED: ATOM     10  N   UNL     1     -51.148 -22.023  -5.155 -2.55 -0.00    -0.191 NA 
DOCKED: ATOM     11  C   UNL     1     -49.986 -21.997  -5.125 -0.38 +0.00    +0.101 C  
DOCKED: ENDROOT
DOCKED: BRANCH   2  12
DOCKED: ATOM     12  C   UNL     1     -43.679 -20.605  -4.536 -0.06 +0.00    +0.038 C  
DOCKED: BRANCH  12  13
DOCKED: ATOM     13  C   UNL     1     -44.238 -19.931  -3.284 -0.08 +0.00    +0.038 C  
DOCKED: BRANCH  13  14
DOCKED: ATOM     14  C   UNL     1     -45.418 -19.024  -3.629 -0.07 +0.00    +0.251 C  
DOCKED: BRANCH  14  15
DOCKED: ATOM     15  N   UNL     1     -46.293 -18.869  -2.473 -0.15 +0.00    +0.141 N  
DOCKED: ATOM     16  C   UNL     1     -46.118 -19.983  -1.540 -0.14 +0.00    +0.285 C  
DOCKED: ATOM     17  C   UNL     1     -46.034 -17.596  -1.798 -0.09 +0.00    +0.285 C  
DOCKED: ENDBRANCH  14  15
DOCKED: ENDBRANCH  13  14
DOCKED: ENDBRANCH  12  13
DOCKED: ENDBRANCH   2  12
DOCKED: BRANCH   2  18
DOCKED: ATOM     18  C   UNL     1     -43.574 -22.747  -5.798 -0.02 +0.00    +0.006 A  
DOCKED: ATOM     19  C   UNL     1     -42.317 -22.317  -6.221 -0.01 +0.00    +0.001 A  
DOCKED: ATOM     20  C   UNL     1     -41.622 -23.044  -7.189 -0.00 +0.00    +0.029 A  
DOCKED: ATOM     21  C   UNL     1     -42.185 -24.199  -7.731 -0.00 +0.00    +0.140 A  
DOCKED: ATOM     22  C   UNL     1     -43.442 -24.628  -7.307 -0.01 +0.00    +0.029 A  
DOCKED: ATOM     23  F   UNL     1     -41.517 -24.897  -8.658 +0.00 -0.00    -0.204 F  
DOCKED: ATOM     24  C   UNL     1     -44.138 -23.901  -6.339 -0.02 +0.00    +0.001 A  
DOCKED: ENDBRANCH   2  18
DOCKED: TORSDOF 5
DOCKED: TER
DOCKED: ENDMDL
________________________________________________________________________________


    FINAL DOCKED STATE:
    ________________________


Run:   448 / 512
Time taken for this run:   0.001s

DOCKED: MODEL        448
DOCKED: USER    Run = 448
DOCKED: USER
DOCKED: USER    Estimated Free Energy of Binding    =  -4.66 kcal/mol  [=(1)+(2)+(3)-(4)]
DOCKED: USER
DOCKED: USER    (1) Final Intermolecular Energy     =  -6.16 kcal/mol
DOCKED: USER        vdW + Hbond + desolv Energy     =  -6.16 kcal/mol
DOCKED: USER        Electrostatic Energy            =  +0.00 kcal/mol
DOCKED: USER        Moving Ligand-Fixed Receptor    =  -6.16 kcal/mol
DOCKED: USER        Moving Ligand-Moving Receptor   =  +0.00 kcal/mol
DOCKED: USER    (2) Final Total Internal Energy     =  -1.13 kcal/mol
DOCKED: USER    (3) Torsional Free Energy           =  +1.49 kcal/mol
DOCKED: USER    (4) Unbound System's Energy         =  -1.13 kcal/mol
DOCKED: USER
DOCKED: USER
DOCKED: REMARK  5 active torsions:
DOCKED: REMARK  status: ('A' for Active; 'I' for Inactive)
DOCKED: REMARK    1  A    between atoms: C_2  and  C_19 
DOCKED: REMARK    2  A    between atoms: C_2  and  C_11 
DOCKED: REMARK    3  A    between atoms: C_19  and  C_20 
DOCKED: REMARK    4  A    between atoms: C_20  and  C_21 
DOCKED: REMARK    5  A    between atoms: C_21  and  N_22 
DOCKED: USER                              x       y       z     vdW  Elec       q    Type
DOCKED: USER                           _______ _______ _______ _____ _____    ______ ____
DOCKED: ROOT
DOCKED: ATOM      1  O   UNL     1     -54.789 -31.875   8.218 -0.01 -0.00    -0.346 OA 
DOCKED: ATOM      2  C   UNL     1     -53.349 -31.982   7.976 -0.12 +0.00    +0.130 C  
DOCKED: ATOM      3  C   UNL     1     -53.259 -32.530   6.581 -0.27 +0.00    +0.004 A  
DOCKED: ATOM      4  C   UNL     1     -54.530 -32.623   6.033 -0.26 +0.00    +0.006 A  
DOCKED: ATOM      5  C   UNL     1     -55.534 -32.139   7.007 -0.17 +0.00    +0.169 C  
DOCKED: ATOM      6  C   UNL     1     -52.140 -32.904   5.851 -0.36 -0.00    -0.001 A  
DOCKED: ATOM      7  C   UNL     1     -54.728 -33.095   4.746 -0.13 +0.00    +0.008 A  
DOCKED: ATOM      8  C   UNL     1     -52.323 -33.386   4.554 -0.23 +0.00    +0.010 A  
DOCKED: ATOM      9  C   UNL     1     -53.610 -33.481   4.005 -0.38 +0.00    +0.068 A  
DOCKED: ATOM     10  N   UNL     1     -53.914 -34.376   1.592 -2.70 -0.00    -0.191 NA 
DOCKED: ATOM     11  C   UNL     1     -53.778 -33.975   2.674 -0.29 +0.00    +0.101 C  
DOCKED: ENDROOT
DOCKED: BRANCH   2  12
DOCKED: ATOM     12  C   UNL     1     -52.733 -30.594   8.110 -0.13 +0.00    +0.038 C  
DOCKED: BRANCH  12  13
DOCKED: ATOM     13  C   UNL     1     -53.399 -29.795   9.227 -0.05 +0.00    +0.038 C  
DOCKED: BRANCH  13  14
DOCKED: ATOM     14  C   UNL     1     -53.460 -28.309   8.878 -0.02 +0.00    +0.251 C  
DOCKED: BRANCH  14  15
DOCKED: ATOM     15  N   UNL     1     -54.810 -27.939   8.468 -0.04 +0.00    +0.141 N  
DOCKED: ATOM     16  C   UNL     1     -55.279 -26.777   9.224 -0.00 +0.00    +0.285 C  
DOCKED: ATOM     17  C   UNL     1     -54.854 -27.661   7.031 -0.13 +0.00    +0.285 C  
DOCKED: ENDBRANCH  14  15
DOCKED: ENDBRANCH  13  14
DOCKED: ENDBRANCH  12  13
DOCKED: ENDBRANCH   2  12
DOCKED: BRANCH   2  18
DOCKED: ATOM     18  C   UNL     1     -52.802 -32.915   9.004 -0.13 +0.00    +0.006 A  
DOCKED: ATOM     19  C   UNL     1     -53.629 -33.878   9.581 -0.17 +0.00    +0.001 A  
DOCKED: ATOM     20  C   UNL     1     -53.116 -34.750  10.542 -0.01 +0.00    +0.029 A  
DOCKED: ATOM     21  C   UNL     1     -51.779 -34.659  10.924 -0.18 +0.00    +0.140 A  
DOCKED: ATOM     22  C   UNL     1     -50.952 -33.696  10.345 -0.13 +0.00    +0.029 A  
DOCKED: ATOM     23  F   UNL     1     -51.286 -35.497  11.845 -0.10 -0.00    -0.204 F  
DOCKED: ATOM     24  C   UNL     1     -51.464 -32.823   9.384 -0.14 +0.00    +0.001 A  
DOCKED: ENDBRANCH   2  18
DOCKED: TORSDOF 5
DOCKED: TER
DOCKED: ENDMDL
________________________________________________________________________________


    FINAL DOCKED STATE:
    ________________________


Run:   449 / 512
Time taken for this run:   0.001s

DOCKED: MODEL        449
DOCKED: USER    Run = 449
DOCKED: USER
DOCKED: USER    Estimated Free Energy of Binding    =  -4.53 kcal/mol  [=(1)+(2)+(3)-(4)]
DOCKED: USER
DOCKED: USER    (1) Final Intermolecular Energy     =  -6.02 kcal/mol
DOCKED: USER        vdW + Hbond + desolv Energy     =  -6.02 kcal/mol
DOCKED: USER        Electrostatic Energy            =  +0.00 kcal/mol
DOCKED: USER        Moving Ligand-Fixed Receptor    =  -6.02 kcal/mol
DOCKED: USER        Moving Ligand-Moving Receptor   =  +0.00 kcal/mol
DOCKED: USER    (2) Final Total Internal Energy     =  -1.20 kcal/mol
DOCKED: USER    (3) Torsional Free Energy           =  +1.49 kcal/mol
DOCKED: USER    (4) Unbound System's Energy         =  -1.20 kcal/mol
DOCKED: USER
DOCKED: USER
DOCKED: REMARK  5 active torsions:
DOCKED: REMARK  status: ('A' for Active; 'I' for Inactive)
DOCKED: REMARK    1  A    between atoms: C_2  and  C_19 
DOCKED: REMARK    2  A    between atoms: C_2  and  C_11 
DOCKED: REMARK    3  A    between atoms: C_19  and  C_20 
DOCKED: REMARK    4  A    between atoms: C_20  and  C_21 
DOCKED: REMARK    5  A    between atoms: C_21  and  N_22 
DOCKED: USER                              x       y       z     vdW  Elec       q    Type
DOCKED: USER                           _______ _______ _______ _____ _____    ______ ____
DOCKED: ROOT
DOCKED: ATOM      1  O   UNL     1     -51.353 -28.637   6.657 -0.08 -0.00    -0.346 OA 
DOCKED: ATOM      2  C   UNL     1     -52.694 -28.733   7.236 -0.16 +0.00    +0.130 C  
DOCKED: ATOM      3  C   UNL     1     -53.132 -30.129   6.899 -0.23 +0.00    +0.004 A  
DOCKED: ATOM      4  C   UNL     1     -52.092 -30.808   6.279 -0.25 +0.00    +0.006 A  
DOCKED: ATOM      5  C   UNL     1     -50.907 -29.926   6.176 -0.12 +0.00    +0.169 C  
DOCKED: ATOM      6  C   UNL     1     -54.349 -30.752   7.132 -0.21 -0.00    -0.001 A  
DOCKED: ATOM      7  C   UNL     1     -52.232 -32.123   5.870 -0.34 +0.00    +0.008 A  
DOCKED: ATOM      8  C   UNL     1     -54.508 -32.077   6.721 -0.22 +0.00    +0.010 A  
DOCKED: ATOM      9  C   UNL     1     -53.455 -32.758   6.094 -0.26 +0.00    +0.068 A  
DOCKED: ATOM     10  N   UNL     1     -53.781 -35.218   5.348 -2.56 -0.00    -0.191 NA 
DOCKED: ATOM     11  C   UNL     1     -53.635 -34.115   5.682 -0.36 +0.00    +0.101 C  
DOCKED: ENDROOT
DOCKED: BRANCH   2  12
DOCKED: ATOM     12  C   UNL     1     -52.590 -28.490   8.737 -0.05 +0.00    +0.038 C  
DOCKED: BRANCH  12  13
DOCKED: ATOM     13  C   UNL     1     -51.288 -29.054   9.304 -0.04 +0.00    +0.038 C  
DOCKED: BRANCH  13  14
DOCKED: ATOM     14  C   UNL     1     -51.561 -29.987  10.482 -0.01 +0.00    +0.251 C  
DOCKED: BRANCH  14  15
DOCKED: ATOM     15  N   UNL     1     -50.682 -31.149  10.424 -0.03 +0.00    +0.141 N  
DOCKED: ATOM     16  C   UNL     1     -50.830 -31.968  11.628 -0.02 +0.00    +0.285 C  
DOCKED: ATOM     17  C   UNL     1     -50.961 -31.947   9.229 -0.06 +0.00    +0.285 C  
DOCKED: ENDBRANCH  14  15
DOCKED: ENDBRANCH  13  14
DOCKED: ENDBRANCH  12  13
DOCKED: ENDBRANCH   2  12
DOCKED: BRANCH   2  18
DOCKED: ATOM     18  C   UNL     1     -53.529 -27.687   6.578 -0.20 +0.00    +0.006 A  
DOCKED: ATOM     19  C   UNL     1     -54.907 -27.660   6.789 -0.21 +0.00    +0.001 A  
DOCKED: ATOM     20  C   UNL     1     -55.688 -26.681   6.173 -0.17 +0.00    +0.029 A  
DOCKED: ATOM     21  C   UNL     1     -55.090 -25.731   5.347 -0.10 +0.00    +0.140 A  
DOCKED: ATOM     22  C   UNL     1     -53.711 -25.757   5.136 -0.15 +0.00    +0.029 A  
DOCKED: ATOM     23  F   UNL     1     -55.839 -24.790   4.757 -0.02 -0.00    -0.204 F  
DOCKED: ATOM     24  C   UNL     1     -52.930 -26.737   5.752 -0.16 +0.00    +0.001 A  
DOCKED: ENDBRANCH   2  18
DOCKED: TORSDOF 5
DOCKED: TER
DOCKED: ENDMDL
________________________________________________________________________________


    FINAL DOCKED STATE:
    ________________________


Run:   450 / 512
Time taken for this run:   0.001s

DOCKED: MODEL        450
DOCKED: USER    Run = 450
DOCKED: USER
DOCKED: USER    Estimated Free Energy of Binding    =  -4.40 kcal/mol  [=(1)+(2)+(3)-(4)]
DOCKED: USER
DOCKED: USER    (1) Final Intermolecular Energy     =  -5.90 kcal/mol
DOCKED: USER        vdW + Hbond + desolv Energy     =  -5.90 kcal/mol
DOCKED: USER        Electrostatic Energy            =  +0.00 kcal/mol
DOCKED: USER        Moving Ligand-Fixed Receptor    =  -5.90 kcal/mol
DOCKED: USER        Moving Ligand-Moving Receptor   =  +0.00 kcal/mol
DOCKED: USER    (2) Final Total Internal Energy     =  -1.29 kcal/mol
DOCKED: USER    (3) Torsional Free Energy           =  +1.49 kcal/mol
DOCKED: USER    (4) Unbound System's Energy         =  -1.29 kcal/mol
DOCKED: USER
DOCKED: USER
DOCKED: REMARK  5 active torsions:
DOCKED: REMARK  status: ('A' for Active; 'I' for Inactive)
DOCKED: REMARK    1  A    between atoms: C_2  and  C_19 
DOCKED: REMARK    2  A    between atoms: C_2  and  C_11 
DOCKED: REMARK    3  A    between atoms: C_19  and  C_20 
DOCKED: REMARK    4  A    between atoms: C_20  and  C_21 
DOCKED: REMARK    5  A    between atoms: C_21  and  N_22 
DOCKED: USER                              x       y       z     vdW  Elec       q    Type
DOCKED: USER                           _______ _______ _______ _____ _____    ______ ____
DOCKED: ROOT
DOCKED: ATOM      1  O   UNL     1     -52.876 -31.005   8.482 -0.01 -0.00    -0.346 OA 
DOCKED: ATOM      2  C   UNL     1     -51.910 -32.104   8.453 -0.13 +0.00    +0.130 C  
DOCKED: ATOM      3  C   UNL     1     -52.183 -32.789   7.145 -0.27 +0.00    +0.004 A  
DOCKED: ATOM      4  C   UNL     1     -53.143 -32.079   6.438 -0.28 +0.00    +0.006 A  
DOCKED: ATOM      5  C   UNL     1     -53.557 -30.887   7.211 -0.17 +0.00    +0.169 C  
DOCKED: ATOM      6  C   UNL     1     -51.618 -33.941   6.617 -0.39 -0.00    -0.001 A  
DOCKED: ATOM      7  C   UNL     1     -53.573 -32.495   5.189 -0.11 +0.00    +0.008 A  
DOCKED: ATOM      8  C   UNL     1     -52.044 -34.376   5.361 -0.43 +0.00    +0.010 A  
DOCKED: ATOM      9  C   UNL     1     -53.017 -33.656   4.651 -0.41 +0.00    +0.068 A  
DOCKED: ATOM     10  N   UNL     1     -53.782 -34.489   2.320 -1.95 -0.00    -0.191 NA 
DOCKED: ATOM     11  C   UNL     1     -53.439 -34.115   3.366 -0.51 +0.00    +0.101 C  
DOCKED: ENDROOT
DOCKED: BRANCH   2  12
DOCKED: ATOM     12  C   UNL     1     -50.507 -31.516   8.533 -0.17 +0.00    +0.038 C  
DOCKED: BRANCH  12  13
DOCKED: ATOM     13  C   UNL     1     -50.106 -30.850   7.218 -0.11 +0.00    +0.038 C  
DOCKED: BRANCH  13  14
DOCKED: ATOM     14  C   UNL     1     -49.278 -29.591   7.470 -0.10 +0.00    +0.251 C  
DOCKED: BRANCH  14  15
DOCKED: ATOM     15  N   UNL     1     -50.146 -28.424   7.570 -0.06 +0.00    +0.141 N  
DOCKED: ATOM     16  C   UNL     1     -51.279 -28.544   6.651 -0.11 +0.00    +0.285 C  
DOCKED: ATOM     17  C   UNL     1     -50.622 -28.253   8.944 -0.01 +0.00    +0.285 C  
DOCKED: ENDBRANCH  14  15
DOCKED: ENDBRANCH  13  14
DOCKED: ENDBRANCH  12  13
DOCKED: ENDBRANCH   2  12
DOCKED: BRANCH   2  18
DOCKED: ATOM     18  C   UNL     1     -52.199 -32.970   9.633 -0.13 +0.00    +0.006 A  
DOCKED: ATOM     19  C   UNL     1     -51.482 -32.798  10.816 -0.10 +0.00    +0.001 A  
DOCKED: ATOM     20  C   UNL     1     -51.753 -33.608  11.919 -0.11 +0.00    +0.029 A  
DOCKED: ATOM     21  C   UNL     1     -52.741 -34.589  11.838 -0.12 +0.00    +0.140 A  
DOCKED: ATOM     22  C   UNL     1     -53.458 -34.760  10.655 +0.02 +0.00    +0.029 A  
DOCKED: ATOM     23  F   UNL     1     -53.002 -35.365  12.898 -0.04 -0.00    -0.204 F  
DOCKED: ATOM     24  C   UNL     1     -53.188 -33.950   9.551 -0.19 +0.00    +0.001 A  
DOCKED: ENDBRANCH   2  18
DOCKED: TORSDOF 5
DOCKED: TER
DOCKED: ENDMDL
________________________________________________________________________________


    FINAL DOCKED STATE:
    ________________________


Run:   451 / 512
Time taken for this run:   0.001s

DOCKED: MODEL        451
DOCKED: USER    Run = 451
DOCKED: USER
DOCKED: USER    Estimated Free Energy of Binding    =  -5.10 kcal/mol  [=(1)+(2)+(3)-(4)]
DOCKED: USER
DOCKED: USER    (1) Final Intermolecular Energy     =  -6.59 kcal/mol
DOCKED: USER        vdW + Hbond + desolv Energy     =  -6.59 kcal/mol
DOCKED: USER        Electrostatic Energy            =  +0.00 kcal/mol
DOCKED: USER        Moving Ligand-Fixed Receptor    =  -6.59 kcal/mol
DOCKED: USER        Moving Ligand-Moving Receptor   =  +0.00 kcal/mol
DOCKED: USER    (2) Final Total Internal Energy     =  -1.07 kcal/mol
DOCKED: USER    (3) Torsional Free Energy           =  +1.49 kcal/mol
DOCKED: USER    (4) Unbound System's Energy         =  -1.07 kcal/mol
DOCKED: USER
DOCKED: USER
DOCKED: REMARK  5 active torsions:
DOCKED: REMARK  status: ('A' for Active; 'I' for Inactive)
DOCKED: REMARK    1  A    between atoms: C_2  and  C_19 
DOCKED: REMARK    2  A    between atoms: C_2  and  C_11 
DOCKED: REMARK    3  A    between atoms: C_19  and  C_20 
DOCKED: REMARK    4  A    between atoms: C_20  and  C_21 
DOCKED: REMARK    5  A    between atoms: C_21  and  N_22 
DOCKED: USER                              x       y       z     vdW  Elec       q    Type
DOCKED: USER                           _______ _______ _______ _____ _____    ______ ____
DOCKED: ROOT
DOCKED: ATOM      1  O   UNL     1     -55.016 -32.289   8.176 -0.01 -0.00    -0.346 OA 
DOCKED: ATOM      2  C   UNL     1     -53.587 -32.119   7.909 -0.12 +0.00    +0.130 C  
DOCKED: ATOM      3  C   UNL     1     -53.434 -32.550   6.479 -0.27 +0.00    +0.004 A  
DOCKED: ATOM      4  C   UNL     1     -54.682 -32.835   5.942 -0.27 +0.00    +0.006 A  
DOCKED: ATOM      5  C   UNL     1     -55.732 -32.604   6.959 -0.18 +0.00    +0.169 C  
DOCKED: ATOM      6  C   UNL     1     -52.285 -32.670   5.712 -0.37 -0.00    -0.001 A  
DOCKED: ATOM      7  C   UNL     1     -54.823 -33.251   4.629 -0.23 +0.00    +0.008 A  
DOCKED: ATOM      8  C   UNL     1     -52.410 -33.092   4.387 -0.14 +0.00    +0.010 A  
DOCKED: ATOM      9  C   UNL     1     -53.673 -33.381   3.849 -0.35 +0.00    +0.068 A  
DOCKED: ATOM     10  N   UNL     1     -53.871 -34.158   1.385 -2.92 -0.00    -0.191 NA 
DOCKED: ATOM     11  C   UNL     1     -53.782 -33.810   2.490 -0.28 +0.00    +0.101 C  
DOCKED: ENDROOT
DOCKED: BRANCH   2  12
DOCKED: ATOM     12  C   UNL     1     -53.225 -30.655   8.129 -0.13 +0.00    +0.038 C  
DOCKED: BRANCH  12  13
DOCKED: ATOM     13  C   UNL     1     -51.822 -30.344   7.611 -0.18 +0.00    +0.038 C  
DOCKED: BRANCH  13  14
DOCKED: ATOM     14  C   UNL     1     -51.276 -29.063   8.239 -0.05 +0.00    +0.251 C  
DOCKED: BRANCH  14  15
DOCKED: ATOM     15  N   UNL     1     -51.737 -28.937   9.616 -0.02 +0.00    +0.141 N  
DOCKED: ATOM     16  C   UNL     1     -50.722 -29.432  10.547 -0.00 +0.00    +0.285 C  
DOCKED: ATOM     17  C   UNL     1     -52.071 -27.546   9.923 -0.00 +0.00    +0.285 C  
DOCKED: ENDBRANCH  14  15
DOCKED: ENDBRANCH  13  14
DOCKED: ENDBRANCH  12  13
DOCKED: ENDBRANCH   2  12
DOCKED: BRANCH   2  18
DOCKED: ATOM     18  C   UNL     1     -52.857 -33.003   8.864 -0.14 +0.00    +0.006 A  
DOCKED: ATOM     19  C   UNL     1     -52.585 -34.327   8.520 -0.27 +0.00    +0.001 A  
DOCKED: ATOM     20  C   UNL     1     -51.903 -35.153   9.414 -0.20 +0.00    +0.029 A  
DOCKED: ATOM     21  C   UNL     1     -51.493 -34.655  10.649 -0.17 +0.00    +0.140 A  
DOCKED: ATOM     22  C   UNL     1     -51.764 -33.331  10.993 -0.12 +0.00    +0.029 A  
DOCKED: ATOM     23  F   UNL     1     -50.836 -35.447  11.507 -0.10 -0.00    -0.204 F  
DOCKED: ATOM     24  C   UNL     1     -52.447 -32.504  10.100 -0.08 +0.00    +0.001 A  
DOCKED: ENDBRANCH   2  18
DOCKED: TORSDOF 5
DOCKED: TER
DOCKED: ENDMDL
________________________________________________________________________________


    FINAL DOCKED STATE:
    ________________________


Run:   452 / 512
Time taken for this run:   0.001s

DOCKED: MODEL        452
DOCKED: USER    Run = 452
DOCKED: USER
DOCKED: USER    Estimated Free Energy of Binding    =  -4.33 kcal/mol  [=(1)+(2)+(3)-(4)]
DOCKED: USER
DOCKED: USER    (1) Final Intermolecular Energy     =  -5.82 kcal/mol
DOCKED: USER        vdW + Hbond + desolv Energy     =  -5.82 kcal/mol
DOCKED: USER        Electrostatic Energy            =  +0.00 kcal/mol
DOCKED: USER        Moving Ligand-Fixed Receptor    =  -5.82 kcal/mol
DOCKED: USER        Moving Ligand-Moving Receptor   =  +0.00 kcal/mol
DOCKED: USER    (2) Final Total Internal Energy     =  -1.38 kcal/mol
DOCKED: USER    (3) Torsional Free Energy           =  +1.49 kcal/mol
DOCKED: USER    (4) Unbound System's Energy         =  -1.38 kcal/mol
DOCKED: USER
DOCKED: USER
DOCKED: REMARK  5 active torsions:
DOCKED: REMARK  status: ('A' for Active; 'I' for Inactive)
DOCKED: REMARK    1  A    between atoms: C_2  and  C_19 
DOCKED: REMARK    2  A    between atoms: C_2  and  C_11 
DOCKED: REMARK    3  A    between atoms: C_19  and  C_20 
DOCKED: REMARK    4  A    between atoms: C_20  and  C_21 
DOCKED: REMARK    5  A    between atoms: C_21  and  N_22 
DOCKED: USER                              x       y       z     vdW  Elec       q    Type
DOCKED: USER                           _______ _______ _______ _____ _____    ______ ____
DOCKED: ROOT
DOCKED: ATOM      1  O   UNL     1     -49.128 -30.888   8.485 -0.07 -0.00    -0.346 OA 
DOCKED: ATOM      2  C   UNL     1     -50.231 -30.117   7.910 -0.13 +0.00    +0.130 C  
DOCKED: ATOM      3  C   UNL     1     -51.088 -31.155   7.246 -0.23 +0.00    +0.004 A  
DOCKED: ATOM      4  C   UNL     1     -50.581 -32.419   7.512 -0.23 +0.00    +0.006 A  
DOCKED: ATOM      5  C   UNL     1     -49.378 -32.308   8.368 -0.17 +0.00    +0.169 C  
DOCKED: ATOM      6  C   UNL     1     -52.232 -30.995   6.478 -0.28 -0.00    -0.001 A  
DOCKED: ATOM      7  C   UNL     1     -51.192 -33.559   7.020 -0.35 +0.00    +0.008 A  
DOCKED: ATOM      8  C   UNL     1     -52.857 -32.135   5.970 -0.32 +0.00    +0.010 A  
DOCKED: ATOM      9  C   UNL     1     -52.340 -33.410   6.240 -0.32 +0.00    +0.068 A  
DOCKED: ATOM     10  N   UNL     1     -53.529 -35.506   5.287 -2.56 -0.00    -0.191 NA 
DOCKED: ATOM     11  C   UNL     1     -52.995 -34.566   5.714 -0.29 +0.00    +0.101 C  
DOCKED: ENDROOT
DOCKED: BRANCH   2  12
DOCKED: ATOM     12  C   UNL     1     -50.949 -29.386   9.038 -0.05 +0.00    +0.038 C  
DOCKED: BRANCH  12  13
DOCKED: ATOM     13  C   UNL     1     -50.660 -30.031  10.392 -0.03 +0.00    +0.038 C  
DOCKED: BRANCH  13  14
DOCKED: ATOM     14  C   UNL     1     -51.862 -30.833  10.887 -0.01 +0.00    +0.251 C  
DOCKED: BRANCH  14  15
DOCKED: ATOM     15  N   UNL     1     -51.538 -32.254  10.939 -0.04 +0.00    +0.141 N  
DOCKED: ATOM     16  C   UNL     1     -51.274 -32.673  12.316 -0.03 +0.00    +0.285 C  
DOCKED: ATOM     17  C   UNL     1     -52.624 -33.051  10.365 -0.05 +0.00    +0.285 C  
DOCKED: ENDBRANCH  14  15
DOCKED: ENDBRANCH  13  14
DOCKED: ENDBRANCH  12  13
DOCKED: ENDBRANCH   2  12
DOCKED: BRANCH   2  18
DOCKED: ATOM     18  C   UNL     1     -49.630 -29.153   6.941 -0.15 +0.00    +0.006 A  
DOCKED: ATOM     19  C   UNL     1     -50.421 -28.157   6.369 -0.14 +0.00    +0.001 A  
DOCKED: ATOM     20  C   UNL     1     -49.858 -27.256   5.464 -0.10 +0.00    +0.029 A  
DOCKED: ATOM     21  C   UNL     1     -48.507 -27.353   5.132 -0.07 +0.00    +0.140 A  
DOCKED: ATOM     22  C   UNL     1     -47.718 -28.349   5.705 -0.10 +0.00    +0.029 A  
DOCKED: ATOM     23  F   UNL     1     -47.967 -26.487   4.264 -0.00 -0.00    -0.204 F  
DOCKED: ATOM     24  C   UNL     1     -48.279 -29.251   6.611 -0.11 +0.00    +0.001 A  
DOCKED: ENDBRANCH   2  18
DOCKED: TORSDOF 5
DOCKED: TER
DOCKED: ENDMDL
________________________________________________________________________________


    FINAL DOCKED STATE:
    ________________________


Run:   453 / 512
Time taken for this run:   0.001s

DOCKED: MODEL        453
DOCKED: USER    Run = 453
DOCKED: USER
DOCKED: USER    Estimated Free Energy of Binding    =  -3.97 kcal/mol  [=(1)+(2)+(3)-(4)]
DOCKED: USER
DOCKED: USER    (1) Final Intermolecular Energy     =  -5.47 kcal/mol
DOCKED: USER        vdW + Hbond + desolv Energy     =  -5.47 kcal/mol
DOCKED: USER        Electrostatic Energy            =  +0.00 kcal/mol
DOCKED: USER        Moving Ligand-Fixed Receptor    =  -5.47 kcal/mol
DOCKED: USER        Moving Ligand-Moving Receptor   =  +0.00 kcal/mol
DOCKED: USER    (2) Final Total Internal Energy     =  -1.44 kcal/mol
DOCKED: USER    (3) Torsional Free Energy           =  +1.49 kcal/mol
DOCKED: USER    (4) Unbound System's Energy         =  -1.44 kcal/mol
DOCKED: USER
DOCKED: USER
DOCKED: REMARK  5 active torsions:
DOCKED: REMARK  status: ('A' for Active; 'I' for Inactive)
DOCKED: REMARK    1  A    between atoms: C_2  and  C_19 
DOCKED: REMARK    2  A    between atoms: C_2  and  C_11 
DOCKED: REMARK    3  A    between atoms: C_19  and  C_20 
DOCKED: REMARK    4  A    between atoms: C_20  and  C_21 
DOCKED: REMARK    5  A    between atoms: C_21  and  N_22 
DOCKED: USER                              x       y       z     vdW  Elec       q    Type
DOCKED: USER                           _______ _______ _______ _____ _____    ______ ____
DOCKED: ROOT
DOCKED: ATOM      1  O   UNL     1     -53.248 -29.385   8.958 -0.01 -0.00    -0.346 OA 
DOCKED: ATOM      2  C   UNL     1     -54.543 -29.457   8.281 -0.09 +0.00    +0.130 C  
DOCKED: ATOM      3  C   UNL     1     -54.483 -30.753   7.525 -0.18 +0.00    +0.004 A  
DOCKED: ATOM      4  C   UNL     1     -53.303 -31.417   7.830 -0.14 +0.00    +0.006 A  
DOCKED: ATOM      5  C   UNL     1     -52.518 -30.625   8.804 -0.05 +0.00    +0.169 C  
DOCKED: ATOM      6  C   UNL     1     -55.404 -31.305   6.647 -0.20 -0.00    -0.001 A  
DOCKED: ATOM      7  C   UNL     1     -53.001 -32.645   7.268 -0.21 +0.00    +0.008 A  
DOCKED: ATOM      8  C   UNL     1     -55.112 -32.542   6.068 -0.26 +0.00    +0.010 A  
DOCKED: ATOM      9  C   UNL     1     -53.917 -33.209   6.378 -0.23 +0.00    +0.068 A  
DOCKED: ATOM     10  N   UNL     1     -53.410 -35.505   5.291 -2.58 -0.00    -0.191 NA 
DOCKED: ATOM     11  C   UNL     1     -53.637 -34.475   5.778 -0.31 +0.00    +0.101 C  
DOCKED: ENDROOT
DOCKED: BRANCH   2  12
DOCKED: ATOM     12  C   UNL     1     -55.641 -29.438   9.338 -0.06 +0.00    +0.038 C  
DOCKED: BRANCH  12  13
DOCKED: ATOM     13  C   UNL     1     -55.283 -30.323  10.530 -0.03 +0.00    +0.038 C  
DOCKED: BRANCH  13  14
DOCKED: ATOM     14  C   UNL     1     -56.258 -31.491  10.660 -0.00 +0.00    +0.251 C  
DOCKED: BRANCH  14  15
DOCKED: ATOM     15  N   UNL     1     -55.533 -32.756  10.698 -0.03 +0.00    +0.141 N  
DOCKED: ATOM     16  C   UNL     1     -55.707 -33.489   9.444 -0.04 +0.00    +0.285 C  
DOCKED: ATOM     17  C   UNL     1     -54.111 -32.526  10.958 -0.01 +0.00    +0.285 C  
DOCKED: ENDBRANCH  14  15
DOCKED: ENDBRANCH  13  14
DOCKED: ENDBRANCH  12  13
DOCKED: ENDBRANCH   2  12
DOCKED: BRANCH   2  18
DOCKED: ATOM     18  C   UNL     1     -54.635 -28.266   7.387 -0.18 +0.00    +0.006 A  
DOCKED: ATOM     19  C   UNL     1     -53.487 -27.763   6.777 -0.19 +0.00    +0.001 A  
DOCKED: ATOM     20  C   UNL     1     -53.575 -26.648   5.941 -0.16 +0.00    +0.029 A  
DOCKED: ATOM     21  C   UNL     1     -54.809 -26.040   5.717 -0.12 +0.00    +0.140 A  
DOCKED: ATOM     22  C   UNL     1     -55.957 -26.544   6.328 -0.17 +0.00    +0.029 A  
DOCKED: ATOM     23  F   UNL     1     -54.892 -24.972   4.913 -0.03 -0.00    -0.204 F  
DOCKED: ATOM     24  C   UNL     1     -55.870 -27.658   7.164 -0.18 +0.00    +0.001 A  
DOCKED: ENDBRANCH   2  18
DOCKED: TORSDOF 5
DOCKED: TER
DOCKED: ENDMDL
________________________________________________________________________________


    FINAL DOCKED STATE:
    ________________________


Run:   454 / 512
Time taken for this run:   0.001s

DOCKED: MODEL        454
DOCKED: USER    Run = 454
DOCKED: USER
DOCKED: USER    Estimated Free Energy of Binding    =  -3.89 kcal/mol  [=(1)+(2)+(3)-(4)]
DOCKED: USER
DOCKED: USER    (1) Final Intermolecular Energy     =  -5.39 kcal/mol
DOCKED: USER        vdW + Hbond + desolv Energy     =  -5.39 kcal/mol
DOCKED: USER        Electrostatic Energy            =  +0.00 kcal/mol
DOCKED: USER        Moving Ligand-Fixed Receptor    =  -5.39 kcal/mol
DOCKED: USER        Moving Ligand-Moving Receptor   =  +0.00 kcal/mol
DOCKED: USER    (2) Final Total Internal Energy     =  -1.06 kcal/mol
DOCKED: USER    (3) Torsional Free Energy           =  +1.49 kcal/mol
DOCKED: USER    (4) Unbound System's Energy         =  -1.06 kcal/mol
DOCKED: USER
DOCKED: USER
DOCKED: REMARK  5 active torsions:
DOCKED: REMARK  status: ('A' for Active; 'I' for Inactive)
DOCKED: REMARK    1  A    between atoms: C_2  and  C_19 
DOCKED: REMARK    2  A    between atoms: C_2  and  C_11 
DOCKED: REMARK    3  A    between atoms: C_19  and  C_20 
DOCKED: REMARK    4  A    between atoms: C_20  and  C_21 
DOCKED: REMARK    5  A    between atoms: C_21  and  N_22 
DOCKED: USER                              x       y       z     vdW  Elec       q    Type
DOCKED: USER                           _______ _______ _______ _____ _____    ______ ____
DOCKED: ROOT
DOCKED: ATOM      1  O   UNL     1     -46.520 -25.240  -0.812 -0.01 -0.00    -0.346 OA 
DOCKED: ATOM      2  C   UNL     1     -46.398 -23.801  -0.574 -0.12 +0.00    +0.130 C  
DOCKED: ATOM      3  C   UNL     1     -47.303 -23.188  -1.603 -0.16 +0.00    +0.004 A  
DOCKED: ATOM      4  C   UNL     1     -47.970 -24.189  -2.294 -0.22 +0.00    +0.006 A  
DOCKED: ATOM      5  C   UNL     1     -47.568 -25.514  -1.771 -0.14 +0.00    +0.169 C  
DOCKED: ATOM      6  C   UNL     1     -47.528 -21.851  -1.895 +0.01 -0.00    -0.001 A  
DOCKED: ATOM      7  C   UNL     1     -48.875 -23.892  -3.299 -0.08 +0.00    +0.008 A  
DOCKED: ATOM      8  C   UNL     1     -48.434 -21.534  -2.908 -0.33 +0.00    +0.010 A  
DOCKED: ATOM      9  C   UNL     1     -49.104 -22.550  -3.606 -0.35 +0.00    +0.068 A  
DOCKED: ATOM     10  N   UNL     1     -50.785 -21.928  -5.478 -2.53 -0.00    -0.191 NA 
DOCKED: ATOM     11  C   UNL     1     -50.030 -22.207  -4.639 -0.42 +0.00    +0.101 C  
DOCKED: ENDROOT
DOCKED: BRANCH   2  12
DOCKED: ATOM     12  C   UNL     1     -46.839 -23.509   0.855 -0.08 +0.00    +0.038 C  
DOCKED: BRANCH  12  13
DOCKED: ATOM     13  C   UNL     1     -48.047 -24.357   1.249 -0.18 +0.00    +0.038 C  
DOCKED: BRANCH  13  14
DOCKED: ATOM     14  C   UNL     1     -48.619 -23.908   2.592 -0.13 +0.00    +0.251 C  
DOCKED: BRANCH  14  15
DOCKED: ATOM     15  N   UNL     1     -50.049 -24.186   2.653 -0.18 +0.00    +0.141 N  
DOCKED: ATOM     16  C   UNL     1     -50.687 -23.384   3.698 -0.14 +0.00    +0.285 C  
DOCKED: ATOM     17  C   UNL     1     -50.681 -23.928   1.358 -0.18 +0.00    +0.285 C  
DOCKED: ENDBRANCH  14  15
DOCKED: ENDBRANCH  13  14
DOCKED: ENDBRANCH  12  13
DOCKED: ENDBRANCH   2  12
DOCKED: BRANCH   2  18
DOCKED: ATOM     18  C   UNL     1     -44.962 -23.447  -0.777 -0.06 +0.00    +0.006 A  
DOCKED: ATOM     19  C   UNL     1     -44.424 -23.430  -2.063 -0.02 +0.00    +0.001 A  
DOCKED: ATOM     20  C   UNL     1     -43.082 -23.098  -2.252 -0.01 +0.00    +0.029 A  
DOCKED: ATOM     21  C   UNL     1     -42.281 -22.784  -1.155 -0.00 +0.00    +0.140 A  
DOCKED: ATOM     22  C   UNL     1     -42.820 -22.800   0.131 -0.02 +0.00    +0.029 A  
DOCKED: ATOM     23  F   UNL     1     -40.993 -22.463  -1.337 +0.00 -0.00    -0.204 F  
DOCKED: ATOM     24  C   UNL     1     -44.162 -23.133   0.321 -0.06 +0.00    +0.001 A  
DOCKED: ENDBRANCH   2  18
DOCKED: TORSDOF 5
DOCKED: TER
DOCKED: ENDMDL
________________________________________________________________________________


    FINAL DOCKED STATE:
    ________________________


Run:   455 / 512
Time taken for this run:   0.001s

DOCKED: MODEL        455
DOCKED: USER    Run = 455
DOCKED: USER
DOCKED: USER    Estimated Free Energy of Binding    =  -4.62 kcal/mol  [=(1)+(2)+(3)-(4)]
DOCKED: USER
DOCKED: USER    (1) Final Intermolecular Energy     =  -6.11 kcal/mol
DOCKED: USER        vdW + Hbond + desolv Energy     =  -6.11 kcal/mol
DOCKED: USER        Electrostatic Energy            =  +0.00 kcal/mol
DOCKED: USER        Moving Ligand-Fixed Receptor    =  -6.11 kcal/mol
DOCKED: USER        Moving Ligand-Moving Receptor   =  +0.00 kcal/mol
DOCKED: USER    (2) Final Total Internal Energy     =  -1.39 kcal/mol
DOCKED: USER    (3) Torsional Free Energy           =  +1.49 kcal/mol
DOCKED: USER    (4) Unbound System's Energy         =  -1.39 kcal/mol
DOCKED: USER
DOCKED: USER
DOCKED: REMARK  5 active torsions:
DOCKED: REMARK  status: ('A' for Active; 'I' for Inactive)
DOCKED: REMARK    1  A    between atoms: C_2  and  C_19 
DOCKED: REMARK    2  A    between atoms: C_2  and  C_11 
DOCKED: REMARK    3  A    between atoms: C_19  and  C_20 
DOCKED: REMARK    4  A    between atoms: C_20  and  C_21 
DOCKED: REMARK    5  A    between atoms: C_21  and  N_22 
DOCKED: USER                              x       y       z     vdW  Elec       q    Type
DOCKED: USER                           _______ _______ _______ _____ _____    ______ ____
DOCKED: ROOT
DOCKED: ATOM      1  O   UNL     1     -51.265 -32.581   7.848 -0.09 -0.00    -0.346 OA 
DOCKED: ATOM      2  C   UNL     1     -52.707 -32.335   7.883 -0.14 +0.00    +0.130 C  
DOCKED: ATOM      3  C   UNL     1     -53.184 -32.797   6.536 -0.28 +0.00    +0.004 A  
DOCKED: ATOM      4  C   UNL     1     -52.128 -33.361   5.835 -0.38 +0.00    +0.006 A  
DOCKED: ATOM      5  C   UNL     1     -50.900 -33.323   6.661 -0.15 +0.00    +0.169 C  
DOCKED: ATOM      6  C   UNL     1     -54.454 -32.734   5.981 -0.27 -0.00    -0.001 A  
DOCKED: ATOM      7  C   UNL     1     -52.301 -33.874   4.561 -0.33 +0.00    +0.008 A  
DOCKED: ATOM      8  C   UNL     1     -54.643 -33.243   4.695 -0.26 +0.00    +0.010 A  
DOCKED: ATOM      9  C   UNL     1     -53.572 -33.811   3.989 -0.42 +0.00    +0.068 A  
DOCKED: ATOM     10  N   UNL     1     -53.960 -34.752   1.606 -2.22 -0.00    -0.191 NA 
DOCKED: ATOM     11  C   UNL     1     -53.786 -34.329   2.675 -0.35 +0.00    +0.101 C  
DOCKED: ENDROOT
DOCKED: BRANCH   2  12
DOCKED: ATOM     12  C   UNL     1     -53.307 -33.136   9.032 -0.15 +0.00    +0.038 C  
DOCKED: BRANCH  12  13
DOCKED: ATOM     13  C   UNL     1     -52.300 -34.137   9.597 -0.25 +0.00    +0.038 C  
DOCKED: BRANCH  13  14
DOCKED: ATOM     14  C   UNL     1     -52.078 -33.908  11.091 -0.11 +0.00    +0.251 C  
DOCKED: BRANCH  14  15
DOCKED: ATOM     15  N   UNL     1     -51.577 -32.559  11.328 -0.05 +0.00    +0.141 N  
DOCKED: ATOM     16  C   UNL     1     -51.572 -32.255  12.760 -0.01 +0.00    +0.285 C  
DOCKED: ATOM     17  C   UNL     1     -50.232 -32.403  10.771 -0.05 +0.00    +0.285 C  
DOCKED: ENDBRANCH  14  15
DOCKED: ENDBRANCH  13  14
DOCKED: ENDBRANCH  12  13
DOCKED: ENDBRANCH   2  12
DOCKED: BRANCH   2  18
DOCKED: ATOM     18  C   UNL     1     -52.894 -30.869   8.094 -0.12 +0.00    +0.006 A  
DOCKED: ATOM     19  C   UNL     1     -53.545 -30.407   9.237 -0.05 +0.00    +0.001 A  
DOCKED: ATOM     20  C   UNL     1     -53.720 -29.037   9.433 -0.03 +0.00    +0.029 A  
DOCKED: ATOM     21  C   UNL     1     -53.242 -28.131   8.487 -0.04 +0.00    +0.140 A  
DOCKED: ATOM     22  C   UNL     1     -52.591 -28.593   7.344 -0.15 +0.00    +0.029 A  
DOCKED: ATOM     23  F   UNL     1     -53.408 -26.815   8.677 +0.00 -0.00    -0.204 F  
DOCKED: ATOM     24  C   UNL     1     -52.416 -29.964   7.147 -0.20 +0.00    +0.001 A  
DOCKED: ENDBRANCH   2  18
DOCKED: TORSDOF 5
DOCKED: TER
DOCKED: ENDMDL
________________________________________________________________________________


    FINAL DOCKED STATE:
    ________________________


Run:   456 / 512
Time taken for this run:   0.001s

DOCKED: MODEL        456
DOCKED: USER    Run = 456
DOCKED: USER
DOCKED: USER    Estimated Free Energy of Binding    =  -4.24 kcal/mol  [=(1)+(2)+(3)-(4)]
DOCKED: USER
DOCKED: USER    (1) Final Intermolecular Energy     =  -5.73 kcal/mol
DOCKED: USER        vdW + Hbond + desolv Energy     =  -5.73 kcal/mol
DOCKED: USER        Electrostatic Energy            =  +0.00 kcal/mol
DOCKED: USER        Moving Ligand-Fixed Receptor    =  -5.73 kcal/mol
DOCKED: USER        Moving Ligand-Moving Receptor   =  +0.00 kcal/mol
DOCKED: USER    (2) Final Total Internal Energy     =  -1.54 kcal/mol
DOCKED: USER    (3) Torsional Free Energy           =  +1.49 kcal/mol
DOCKED: USER    (4) Unbound System's Energy         =  -1.54 kcal/mol
DOCKED: USER
DOCKED: USER
DOCKED: REMARK  5 active torsions:
DOCKED: REMARK  status: ('A' for Active; 'I' for Inactive)
DOCKED: REMARK    1  A    between atoms: C_2  and  C_19 
DOCKED: REMARK    2  A    between atoms: C_2  and  C_11 
DOCKED: REMARK    3  A    between atoms: C_19  and  C_20 
DOCKED: REMARK    4  A    between atoms: C_20  and  C_21 
DOCKED: REMARK    5  A    between atoms: C_21  and  N_22 
DOCKED: USER                              x       y       z     vdW  Elec       q    Type
DOCKED: USER                           _______ _______ _______ _____ _____    ______ ____
DOCKED: ROOT
DOCKED: ATOM      1  O   UNL     1     -49.235 -31.029   8.500 -0.07 -0.00    -0.346 OA 
DOCKED: ATOM      2  C   UNL     1     -50.268 -30.217   7.854 -0.13 +0.00    +0.130 C  
DOCKED: ATOM      3  C   UNL     1     -51.160 -31.229   7.195 -0.24 +0.00    +0.004 A  
DOCKED: ATOM      4  C   UNL     1     -50.740 -32.509   7.527 -0.26 +0.00    +0.006 A  
DOCKED: ATOM      5  C   UNL     1     -49.566 -32.436   8.425 -0.18 +0.00    +0.169 C  
DOCKED: ATOM      6  C   UNL     1     -52.263 -31.032   6.378 -0.28 -0.00    -0.001 A  
DOCKED: ATOM      7  C   UNL     1     -51.400 -33.630   7.053 -0.35 +0.00    +0.008 A  
DOCKED: ATOM      8  C   UNL     1     -52.937 -32.152   5.887 -0.32 +0.00    +0.010 A  
DOCKED: ATOM      9  C   UNL     1     -52.508 -33.444   6.224 -0.31 +0.00    +0.068 A  
DOCKED: ATOM     10  N   UNL     1     -53.784 -35.501   5.301 -2.52 -0.00    -0.191 NA 
DOCKED: ATOM     11  C   UNL     1     -53.211 -34.579   5.714 -0.29 +0.00    +0.101 C  
DOCKED: ENDROOT
DOCKED: BRANCH   2  12
DOCKED: ATOM     12  C   UNL     1     -50.982 -29.404   8.926 -0.06 +0.00    +0.038 C  
DOCKED: BRANCH  12  13
DOCKED: ATOM     13  C   UNL     1     -50.062 -28.344   9.528 -0.02 +0.00    +0.038 C  
DOCKED: BRANCH  13  14
DOCKED: ATOM     14  C   UNL     1     -49.146 -28.950  10.590 -0.00 +0.00    +0.251 C  
DOCKED: BRANCH  14  15
DOCKED: ATOM     15  N   UNL     1     -47.775 -28.491  10.400 -0.00 +0.00    +0.141 N  
DOCKED: ATOM     16  C   UNL     1     -46.921 -29.589   9.945 -0.01 +0.00    +0.285 C  
DOCKED: ATOM     17  C   UNL     1     -47.731 -27.383   9.444 -0.00 +0.00    +0.285 C  
DOCKED: ENDBRANCH  14  15
DOCKED: ENDBRANCH  13  14
DOCKED: ENDBRANCH  12  13
DOCKED: ENDBRANCH   2  12
DOCKED: BRANCH   2  18
DOCKED: ATOM     18  C   UNL     1     -49.575 -29.328   6.876 -0.15 +0.00    +0.006 A  
DOCKED: ATOM     19  C   UNL     1     -50.294 -28.344   6.199 -0.15 +0.00    +0.001 A  
DOCKED: ATOM     20  C   UNL     1     -49.645 -27.514   5.284 -0.10 +0.00    +0.029 A  
DOCKED: ATOM     21  C   UNL     1     -48.280 -27.668   5.049 -0.08 +0.00    +0.140 A  
DOCKED: ATOM     22  C   UNL     1     -47.561 -28.653   5.727 -0.11 +0.00    +0.029 A  
DOCKED: ATOM     23  F   UNL     1     -47.657 -26.870   4.172 -0.00 -0.00    -0.204 F  
DOCKED: ATOM     24  C   UNL     1     -48.210 -29.484   6.641 -0.08 +0.00    +0.001 A  
DOCKED: ENDBRANCH   2  18
DOCKED: TORSDOF 5
DOCKED: TER
DOCKED: ENDMDL
________________________________________________________________________________


    FINAL DOCKED STATE:
    ________________________


Run:   457 / 512
Time taken for this run:   0.001s

DOCKED: MODEL        457
DOCKED: USER    Run = 457
DOCKED: USER
DOCKED: USER    Estimated Free Energy of Binding    =  -3.56 kcal/mol  [=(1)+(2)+(3)-(4)]
DOCKED: USER
DOCKED: USER    (1) Final Intermolecular Energy     =  -5.06 kcal/mol
DOCKED: USER        vdW + Hbond + desolv Energy     =  -5.06 kcal/mol
DOCKED: USER        Electrostatic Energy            =  +0.00 kcal/mol
DOCKED: USER        Moving Ligand-Fixed Receptor    =  -5.06 kcal/mol
DOCKED: USER        Moving Ligand-Moving Receptor   =  +0.00 kcal/mol
DOCKED: USER    (2) Final Total Internal Energy     =  -1.27 kcal/mol
DOCKED: USER    (3) Torsional Free Energy           =  +1.49 kcal/mol
DOCKED: USER    (4) Unbound System's Energy         =  -1.27 kcal/mol
DOCKED: USER
DOCKED: USER
DOCKED: REMARK  5 active torsions:
DOCKED: REMARK  status: ('A' for Active; 'I' for Inactive)
DOCKED: REMARK    1  A    between atoms: C_2  and  C_19 
DOCKED: REMARK    2  A    between atoms: C_2  and  C_11 
DOCKED: REMARK    3  A    between atoms: C_19  and  C_20 
DOCKED: REMARK    4  A    between atoms: C_20  and  C_21 
DOCKED: REMARK    5  A    between atoms: C_21  and  N_22 
DOCKED: USER                              x       y       z     vdW  Elec       q    Type
DOCKED: USER                           _______ _______ _______ _____ _____    ______ ____
DOCKED: ROOT
DOCKED: ATOM      1  O   UNL     1     -43.747 -29.904   1.298 +0.01 -0.00    -0.346 OA 
DOCKED: ATOM      2  C   UNL     1     -44.102 -30.811   0.206 -0.05 +0.00    +0.130 C  
DOCKED: ATOM      3  C   UNL     1     -44.603 -32.040   0.909 -0.10 +0.00    +0.004 A  
DOCKED: ATOM      4  C   UNL     1     -44.636 -31.815   2.277 -0.10 +0.00    +0.006 A  
DOCKED: ATOM      5  C   UNL     1     -44.179 -30.438   2.571 -0.03 +0.00    +0.169 C  
DOCKED: ATOM      6  C   UNL     1     -45.008 -33.256   0.377 -0.15 -0.00    -0.001 A  
DOCKED: ATOM      7  C   UNL     1     -45.068 -32.792   3.158 -0.21 +0.00    +0.008 A  
DOCKED: ATOM      8  C   UNL     1     -45.442 -34.253   1.253 -0.27 +0.00    +0.010 A  
DOCKED: ATOM      9  C   UNL     1     -45.472 -34.021   2.636 -0.29 +0.00    +0.068 A  
DOCKED: ATOM     10  N   UNL     1     -46.288 -35.892   4.233 -2.68 -0.00    -0.191 NA 
DOCKED: ATOM     11  C   UNL     1     -45.921 -35.053   3.517 -0.39 +0.00    +0.101 C  
DOCKED: ENDROOT
DOCKED: BRANCH   2  12
DOCKED: ATOM     12  C   UNL     1     -45.169 -30.141  -0.651 -0.11 +0.00    +0.038 C  
DOCKED: BRANCH  12  13
DOCKED: ATOM     13  C   UNL     1     -46.568 -30.632  -0.283 -0.04 +0.00    +0.038 C  
DOCKED: BRANCH  13  14
DOCKED: ATOM     14  C   UNL     1     -47.433 -29.485   0.238 -0.17 +0.00    +0.251 C  
DOCKED: BRANCH  14  15
DOCKED: ATOM     15  N   UNL     1     -47.815 -29.728   1.624 -0.22 +0.00    +0.141 N  
DOCKED: ATOM     16  C   UNL     1     -47.182 -28.751   2.512 -0.08 +0.00    +0.285 C  
DOCKED: ATOM     17  C   UNL     1     -49.270 -29.682   1.774 -0.12 +0.00    +0.285 C  
DOCKED: ENDBRANCH  14  15
DOCKED: ENDBRANCH  13  14
DOCKED: ENDBRANCH  12  13
DOCKED: ENDBRANCH   2  12
DOCKED: BRANCH   2  18
DOCKED: ATOM     18  C   UNL     1     -42.857 -31.057  -0.579 -0.02 +0.00    +0.006 A  
DOCKED: ATOM     19  C   UNL     1     -42.020 -32.121  -0.243 -0.01 +0.00    +0.001 A  
DOCKED: ATOM     20  C   UNL     1     -40.856 -32.349  -0.978 -0.00 +0.00    +0.029 A  
DOCKED: ATOM     21  C   UNL     1     -40.531 -31.514  -2.046 -0.00 +0.00    +0.140 A  
DOCKED: ATOM     22  C   UNL     1     -41.368 -30.451  -2.381 -0.00 +0.00    +0.029 A  
DOCKED: ATOM     23  F   UNL     1     -39.414 -31.735  -2.752 +0.00 -0.00    -0.204 F  
DOCKED: ATOM     24  C   UNL     1     -42.533 -30.221  -1.647 -0.01 +0.00    +0.001 A  
DOCKED: ENDBRANCH   2  18
DOCKED: TORSDOF 5
DOCKED: TER
DOCKED: ENDMDL
________________________________________________________________________________


    FINAL DOCKED STATE:
    ________________________


Run:   458 / 512
Time taken for this run:   0.001s

DOCKED: MODEL        458
DOCKED: USER    Run = 458
DOCKED: USER
DOCKED: USER    Estimated Free Energy of Binding    =  -3.68 kcal/mol  [=(1)+(2)+(3)-(4)]
DOCKED: USER
DOCKED: USER    (1) Final Intermolecular Energy     =  -5.17 kcal/mol
DOCKED: USER        vdW + Hbond + desolv Energy     =  -5.17 kcal/mol
DOCKED: USER        Electrostatic Energy            =  +0.00 kcal/mol
DOCKED: USER        Moving Ligand-Fixed Receptor    =  -5.17 kcal/mol
DOCKED: USER        Moving Ligand-Moving Receptor   =  +0.00 kcal/mol
DOCKED: USER    (2) Final Total Internal Energy     =  -1.57 kcal/mol
DOCKED: USER    (3) Torsional Free Energy           =  +1.49 kcal/mol
DOCKED: USER    (4) Unbound System's Energy         =  -1.57 kcal/mol
DOCKED: USER
DOCKED: USER
DOCKED: REMARK  5 active torsions:
DOCKED: REMARK  status: ('A' for Active; 'I' for Inactive)
DOCKED: REMARK    1  A    between atoms: C_2  and  C_19 
DOCKED: REMARK    2  A    between atoms: C_2  and  C_11 
DOCKED: REMARK    3  A    between atoms: C_19  and  C_20 
DOCKED: REMARK    4  A    between atoms: C_20  and  C_21 
DOCKED: REMARK    5  A    between atoms: C_21  and  N_22 
DOCKED: USER                              x       y       z     vdW  Elec       q    Type
DOCKED: USER                           _______ _______ _______ _____ _____    ______ ____
DOCKED: ROOT
DOCKED: ATOM      1  O   UNL     1     -47.689 -25.110   0.307 -0.04 -0.00    -0.346 OA 
DOCKED: ATOM      2  C   UNL     1     -46.721 -24.229  -0.348 -0.12 +0.00    +0.130 C  
DOCKED: ATOM      3  C   UNL     1     -47.489 -23.641  -1.496 -0.17 +0.00    +0.004 A  
DOCKED: ATOM      4  C   UNL     1     -48.810 -24.062  -1.439 -0.26 +0.00    +0.006 A  
DOCKED: ATOM      5  C   UNL     1     -49.009 -24.934  -0.259 -0.22 +0.00    +0.169 C  
DOCKED: ATOM      6  C   UNL     1     -47.055 -22.793  -2.504 -0.16 -0.00    -0.001 A  
DOCKED: ATOM      7  C   UNL     1     -49.737 -23.656  -2.383 -0.31 +0.00    +0.008 A  
DOCKED: ATOM      8  C   UNL     1     -47.977 -22.377  -3.466 -0.27 +0.00    +0.010 A  
DOCKED: ATOM      9  C   UNL     1     -49.312 -22.807  -3.405 -0.34 +0.00    +0.068 A  
DOCKED: ATOM     10  N   UNL     1     -50.999 -22.013  -5.205 -2.55 -0.00    -0.191 NA 
DOCKED: ATOM     11  C   UNL     1     -50.242 -22.370  -4.398 -0.40 +0.00    +0.101 C  
DOCKED: ENDROOT
DOCKED: BRANCH   2  12
DOCKED: ATOM     12  C   UNL     1     -46.264 -23.181   0.660 -0.09 +0.00    +0.038 C  
DOCKED: BRANCH  12  13
DOCKED: ATOM     13  C   UNL     1     -46.588 -23.605   2.091 -0.01 +0.00    +0.038 C  
DOCKED: BRANCH  13  14
DOCKED: ATOM     14  C   UNL     1     -45.596 -24.654   2.591 -0.05 +0.00    +0.251 C  
DOCKED: BRANCH  14  15
DOCKED: ATOM     15  N   UNL     1     -46.307 -25.791   3.164 -0.02 +0.00    +0.141 N  
DOCKED: ATOM     16  C   UNL     1     -47.737 -25.502   3.280 -0.04 +0.00    +0.285 C  
DOCKED: ATOM     17  C   UNL     1     -46.096 -26.992   2.353 -0.01 +0.00    +0.285 C  
DOCKED: ENDBRANCH  14  15
DOCKED: ENDBRANCH  13  14
DOCKED: ENDBRANCH  12  13
DOCKED: ENDBRANCH   2  12
DOCKED: BRANCH   2  18
DOCKED: ATOM     18  C   UNL     1     -45.580 -25.085  -0.788 -0.04 +0.00    +0.006 A  
DOCKED: ATOM     19  C   UNL     1     -44.273 -24.614  -0.679 -0.02 +0.00    +0.001 A  
DOCKED: ATOM     20  C   UNL     1     -43.208 -25.415  -1.092 -0.00 +0.00    +0.029 A  
DOCKED: ATOM     21  C   UNL     1     -43.451 -26.686  -1.612 -0.00 +0.00    +0.140 A  
DOCKED: ATOM     22  C   UNL     1     -44.759 -27.156  -1.721 -0.01 +0.00    +0.029 A  
DOCKED: ATOM     23  F   UNL     1     -42.428 -27.455  -2.006 +0.00 -0.00    -0.204 F  
DOCKED: ATOM     24  C   UNL     1     -45.826 -26.355  -1.309 -0.03 +0.00    +0.001 A  
DOCKED: ENDBRANCH   2  18
DOCKED: TORSDOF 5
DOCKED: TER
DOCKED: ENDMDL
________________________________________________________________________________


    FINAL DOCKED STATE:
    ________________________


Run:   459 / 512
Time taken for this run:   0.001s

DOCKED: MODEL        459
DOCKED: USER    Run = 459
DOCKED: USER
DOCKED: USER    Estimated Free Energy of Binding    =  -5.42 kcal/mol  [=(1)+(2)+(3)-(4)]
DOCKED: USER
DOCKED: USER    (1) Final Intermolecular Energy     =  -6.91 kcal/mol
DOCKED: USER        vdW + Hbond + desolv Energy     =  -6.91 kcal/mol
DOCKED: USER        Electrostatic Energy            =  +0.00 kcal/mol
DOCKED: USER        Moving Ligand-Fixed Receptor    =  -6.91 kcal/mol
DOCKED: USER        Moving Ligand-Moving Receptor   =  +0.00 kcal/mol
DOCKED: USER    (2) Final Total Internal Energy     =  -1.06 kcal/mol
DOCKED: USER    (3) Torsional Free Energy           =  +1.49 kcal/mol
DOCKED: USER    (4) Unbound System's Energy         =  -1.06 kcal/mol
DOCKED: USER
DOCKED: USER
DOCKED: REMARK  5 active torsions:
DOCKED: REMARK  status: ('A' for Active; 'I' for Inactive)
DOCKED: REMARK    1  A    between atoms: C_2  and  C_19 
DOCKED: REMARK    2  A    between atoms: C_2  and  C_11 
DOCKED: REMARK    3  A    between atoms: C_19  and  C_20 
DOCKED: REMARK    4  A    between atoms: C_20  and  C_21 
DOCKED: REMARK    5  A    between atoms: C_21  and  N_22 
DOCKED: USER                              x       y       z     vdW  Elec       q    Type
DOCKED: USER                           _______ _______ _______ _____ _____    ______ ____
DOCKED: ROOT
DOCKED: ATOM      1  O   UNL     1     -55.260 -32.465   8.419 +0.00 -0.00    -0.346 OA 
DOCKED: ATOM      2  C   UNL     1     -53.845 -32.165   8.197 -0.10 +0.00    +0.130 C  
DOCKED: ATOM      3  C   UNL     1     -53.626 -32.515   6.753 -0.24 +0.00    +0.004 A  
DOCKED: ATOM      4  C   UNL     1     -54.833 -32.878   6.172 -0.27 +0.00    +0.006 A  
DOCKED: ATOM      5  C   UNL     1     -55.921 -32.782   7.171 -0.16 +0.00    +0.169 C  
DOCKED: ATOM      6  C   UNL     1     -52.454 -32.503   6.011 -0.35 -0.00    -0.001 A  
DOCKED: ATOM      7  C   UNL     1     -54.910 -33.242   4.839 -0.27 +0.00    +0.008 A  
DOCKED: ATOM      8  C   UNL     1     -52.515 -32.872   4.666 -0.29 +0.00    +0.010 A  
DOCKED: ATOM      9  C   UNL     1     -53.737 -33.240   4.083 -0.30 +0.00    +0.068 A  
DOCKED: ATOM     10  N   UNL     1     -53.815 -33.915   1.583 -3.03 -0.00    -0.191 NA 
DOCKED: ATOM     11  C   UNL     1     -53.780 -33.613   2.705 -0.25 +0.00    +0.101 C  
DOCKED: ENDROOT
DOCKED: BRANCH   2  12
DOCKED: ATOM     12  C   UNL     1     -53.613 -30.688   8.491 -0.10 +0.00    +0.038 C  
DOCKED: BRANCH  12  13
DOCKED: ATOM     13  C   UNL     1     -54.099 -29.808   7.341 -0.22 +0.00    +0.038 C  
DOCKED: BRANCH  13  14
DOCKED: ATOM     14  C   UNL     1     -55.431 -29.143   7.683 -0.12 +0.00    +0.251 C  
DOCKED: BRANCH  14  15
DOCKED: ATOM     15  N   UNL     1     -55.479 -27.793   7.135 -0.15 +0.00    +0.141 N  
DOCKED: ATOM     16  C   UNL     1     -54.244 -27.484   6.413 -0.14 +0.00    +0.285 C  
DOCKED: ATOM     17  C   UNL     1     -56.636 -27.636   6.252 -0.06 +0.00    +0.285 C  
DOCKED: ENDBRANCH  14  15
DOCKED: ENDBRANCH  13  14
DOCKED: ENDBRANCH  12  13
DOCKED: ENDBRANCH   2  12
DOCKED: BRANCH   2  18
DOCKED: ATOM     18  C   UNL     1     -53.065 -33.029   9.130 -0.13 +0.00    +0.006 A  
DOCKED: ATOM     19  C   UNL     1     -51.676 -33.092   9.024 -0.17 +0.00    +0.001 A  
DOCKED: ATOM     20  C   UNL     1     -50.947 -33.901   9.897 -0.02 +0.00    +0.029 A  
DOCKED: ATOM     21  C   UNL     1     -51.607 -34.645  10.874 -0.18 +0.00    +0.140 A  
DOCKED: ATOM     22  C   UNL     1     -52.996 -34.581  10.979 -0.11 +0.00    +0.029 A  
DOCKED: ATOM     23  F   UNL     1     -50.907 -35.419  11.713 -0.10 -0.00    -0.204 F  
DOCKED: ATOM     24  C   UNL     1     -53.726 -33.773  10.106 -0.15 +0.00    +0.001 A  
DOCKED: ENDBRANCH   2  18
DOCKED: TORSDOF 5
DOCKED: TER
DOCKED: ENDMDL
________________________________________________________________________________


    FINAL DOCKED STATE:
    ________________________


Run:   460 / 512
Time taken for this run:   0.001s

DOCKED: MODEL        460
DOCKED: USER    Run = 460
DOCKED: USER
DOCKED: USER    Estimated Free Energy of Binding    =  -4.09 kcal/mol  [=(1)+(2)+(3)-(4)]
DOCKED: USER
DOCKED: USER    (1) Final Intermolecular Energy     =  -5.58 kcal/mol
DOCKED: USER        vdW + Hbond + desolv Energy     =  -5.58 kcal/mol
DOCKED: USER        Electrostatic Energy            =  +0.00 kcal/mol
DOCKED: USER        Moving Ligand-Fixed Receptor    =  -5.58 kcal/mol
DOCKED: USER        Moving Ligand-Moving Receptor   =  +0.00 kcal/mol
DOCKED: USER    (2) Final Total Internal Energy     =  -1.45 kcal/mol
DOCKED: USER    (3) Torsional Free Energy           =  +1.49 kcal/mol
DOCKED: USER    (4) Unbound System's Energy         =  -1.45 kcal/mol
DOCKED: USER
DOCKED: USER
DOCKED: REMARK  5 active torsions:
DOCKED: REMARK  status: ('A' for Active; 'I' for Inactive)
DOCKED: REMARK    1  A    between atoms: C_2  and  C_19 
DOCKED: REMARK    2  A    between atoms: C_2  and  C_11 
DOCKED: REMARK    3  A    between atoms: C_19  and  C_20 
DOCKED: REMARK    4  A    between atoms: C_20  and  C_21 
DOCKED: REMARK    5  A    between atoms: C_21  and  N_22 
DOCKED: USER                              x       y       z     vdW  Elec       q    Type
DOCKED: USER                           _______ _______ _______ _____ _____    ______ ____
DOCKED: ROOT
DOCKED: ATOM      1  O   UNL     1     -50.085 -29.851   8.146 -0.04 -0.00    -0.346 OA 
DOCKED: ATOM      2  C   UNL     1     -51.410 -29.405   7.714 -0.12 +0.00    +0.130 C  
DOCKED: ATOM      3  C   UNL     1     -52.030 -30.638   7.124 -0.23 +0.00    +0.004 A  
DOCKED: ATOM      4  C   UNL     1     -51.179 -31.720   7.303 -0.24 +0.00    +0.006 A  
DOCKED: ATOM      5  C   UNL     1     -49.961 -31.287   8.024 -0.15 +0.00    +0.169 C  
DOCKED: ATOM      6  C   UNL     1     -53.254 -30.793   6.490 -0.24 -0.00    -0.001 A  
DOCKED: ATOM      7  C   UNL     1     -51.518 -32.985   6.853 -0.32 +0.00    +0.008 A  
DOCKED: ATOM      8  C   UNL     1     -53.608 -32.061   6.027 -0.23 +0.00    +0.010 A  
DOCKED: ATOM      9  C   UNL     1     -52.744 -33.152   6.209 -0.29 +0.00    +0.068 A  
DOCKED: ATOM     10  N   UNL     1     -53.434 -35.494   5.342 -2.60 -0.00    -0.191 NA 
DOCKED: ATOM     11  C   UNL     1     -53.124 -34.443   5.730 -0.35 +0.00    +0.101 C  
DOCKED: ENDROOT
DOCKED: BRANCH   2  12
DOCKED: ATOM     12  C   UNL     1     -52.165 -28.885   8.931 -0.05 +0.00    +0.038 C  
DOCKED: BRANCH  12  13
DOCKED: ATOM     13  C   UNL     1     -51.341 -29.044  10.208 -0.02 +0.00    +0.038 C  
DOCKED: BRANCH  13  14
DOCKED: ATOM     14  C   UNL     1     -50.299 -27.934  10.331 -0.00 +0.00    +0.251 C  
DOCKED: BRANCH  14  15
DOCKED: ATOM     15  N   UNL     1     -50.763 -26.726   9.659 -0.00 +0.00    +0.141 N  
DOCKED: ATOM     16  C   UNL     1     -51.248 -25.748  10.634 +0.00 +0.00    +0.285 C  
DOCKED: ATOM     17  C   UNL     1     -49.693 -26.145   8.846 -0.00 +0.00    +0.285 C  
DOCKED: ENDBRANCH  14  15
DOCKED: ENDBRANCH  13  14
DOCKED: ENDBRANCH  12  13
DOCKED: ENDBRANCH   2  12
DOCKED: BRANCH   2  18
DOCKED: ATOM     18  C   UNL     1     -51.199 -28.322   6.709 -0.15 +0.00    +0.006 A  
DOCKED: ATOM     19  C   UNL     1     -50.007 -28.262   5.988 -0.14 +0.00    +0.001 A  
DOCKED: ATOM     20  C   UNL     1     -49.811 -27.249   5.049 -0.07 +0.00    +0.029 A  
DOCKED: ATOM     21  C   UNL     1     -50.807 -26.298   4.831 -0.04 +0.00    +0.140 A  
DOCKED: ATOM     22  C   UNL     1     -52.000 -26.359   5.552 -0.12 +0.00    +0.029 A  
DOCKED: ATOM     23  F   UNL     1     -50.620 -25.327   3.928 -0.02 -0.00    -0.204 F  
DOCKED: ATOM     24  C   UNL     1     -52.196 -27.372   6.492 -0.15 +0.00    +0.001 A  
DOCKED: ENDBRANCH   2  18
DOCKED: TORSDOF 5
DOCKED: TER
DOCKED: ENDMDL
________________________________________________________________________________


    FINAL DOCKED STATE:
    ________________________


Run:   461 / 512
Time taken for this run:   0.001s

DOCKED: MODEL        461
DOCKED: USER    Run = 461
DOCKED: USER
DOCKED: USER    Estimated Free Energy of Binding    =  -3.94 kcal/mol  [=(1)+(2)+(3)-(4)]
DOCKED: USER
DOCKED: USER    (1) Final Intermolecular Energy     =  -5.43 kcal/mol
DOCKED: USER        vdW + Hbond + desolv Energy     =  -5.43 kcal/mol
DOCKED: USER        Electrostatic Energy            =  +0.00 kcal/mol
DOCKED: USER        Moving Ligand-Fixed Receptor    =  -5.43 kcal/mol
DOCKED: USER        Moving Ligand-Moving Receptor   =  +0.00 kcal/mol
DOCKED: USER    (2) Final Total Internal Energy     =  -1.33 kcal/mol
DOCKED: USER    (3) Torsional Free Energy           =  +1.49 kcal/mol
DOCKED: USER    (4) Unbound System's Energy         =  -1.33 kcal/mol
DOCKED: USER
DOCKED: USER
DOCKED: REMARK  5 active torsions:
DOCKED: REMARK  status: ('A' for Active; 'I' for Inactive)
DOCKED: REMARK    1  A    between atoms: C_2  and  C_19 
DOCKED: REMARK    2  A    between atoms: C_2  and  C_11 
DOCKED: REMARK    3  A    between atoms: C_19  and  C_20 
DOCKED: REMARK    4  A    between atoms: C_20  and  C_21 
DOCKED: REMARK    5  A    between atoms: C_21  and  N_22 
DOCKED: USER                              x       y       z     vdW  Elec       q    Type
DOCKED: USER                           _______ _______ _______ _____ _____    ______ ____
DOCKED: ROOT
DOCKED: ATOM      1  O   UNL     1     -50.221 -29.559   7.948 -0.04 -0.00    -0.346 OA 
DOCKED: ATOM      2  C   UNL     1     -49.717 -30.759   8.616 -0.11 +0.00    +0.130 C  
DOCKED: ATOM      3  C   UNL     1     -50.532 -31.871   8.021 -0.21 +0.00    +0.004 A  
DOCKED: ATOM      4  C   UNL     1     -51.351 -31.366   7.021 -0.25 +0.00    +0.006 A  
DOCKED: ATOM      5  C   UNL     1     -51.130 -29.910   6.878 -0.19 +0.00    +0.169 C  
DOCKED: ATOM      6  C   UNL     1     -50.538 -33.223   8.331 -0.23 -0.00    -0.001 A  
DOCKED: ATOM      7  C   UNL     1     -52.203 -32.188   6.304 -0.33 +0.00    +0.008 A  
DOCKED: ATOM      8  C   UNL     1     -51.396 -34.065   7.620 -0.34 +0.00    +0.010 A  
DOCKED: ATOM      9  C   UNL     1     -52.223 -33.550   6.611 -0.30 +0.00    +0.068 A  
DOCKED: ATOM     10  N   UNL     1     -53.799 -35.140   5.307 -2.51 -0.00    -0.191 NA 
DOCKED: ATOM     11  C   UNL     1     -53.093 -34.427   5.892 -0.30 +0.00    +0.101 C  
DOCKED: ENDROOT
DOCKED: BRANCH   2  12
DOCKED: ATOM     12  C   UNL     1     -48.228 -30.889   8.318 -0.14 +0.00    +0.038 C  
DOCKED: BRANCH  12  13
DOCKED: ATOM     13  C   UNL     1     -47.458 -29.654   8.782 -0.06 +0.00    +0.038 C  
DOCKED: BRANCH  13  14
DOCKED: ATOM     14  C   UNL     1     -47.557 -28.526   7.756 -0.04 +0.00    +0.251 C  
DOCKED: BRANCH  14  15
DOCKED: ATOM     15  N   UNL     1     -47.749 -29.073   6.418 -0.10 +0.00    +0.141 N  
DOCKED: ATOM     16  C   UNL     1     -48.443 -28.110   5.562 -0.09 +0.00    +0.285 C  
DOCKED: ATOM     17  C   UNL     1     -46.464 -29.447   5.825 -0.07 +0.00    +0.285 C  
DOCKED: ENDBRANCH  14  15
DOCKED: ENDBRANCH  13  14
DOCKED: ENDBRANCH  12  13
DOCKED: ENDBRANCH   2  12
DOCKED: BRANCH   2  18
DOCKED: ATOM     18  C   UNL     1     -49.960 -30.579  10.077 -0.04 +0.00    +0.006 A  
DOCKED: ATOM     19  C   UNL     1     -49.678 -31.618  10.964 -0.06 +0.00    +0.001 A  
DOCKED: ATOM     20  C   UNL     1     -49.905 -31.448  12.330 -0.02 +0.00    +0.029 A  
DOCKED: ATOM     21  C   UNL     1     -50.413 -30.241  12.808 -0.00 +0.00    +0.140 A  
DOCKED: ATOM     22  C   UNL     1     -50.695 -29.203  11.921 -0.00 +0.00    +0.029 A  
DOCKED: ATOM     23  F   UNL     1     -50.630 -30.078  14.119 -0.00 -0.00    -0.204 F  
DOCKED: ATOM     24  C   UNL     1     -50.468 -29.371  10.554 -0.01 +0.00    +0.001 A  
DOCKED: ENDBRANCH   2  18
DOCKED: TORSDOF 5
DOCKED: TER
DOCKED: ENDMDL
________________________________________________________________________________


    FINAL DOCKED STATE:
    ________________________


Run:   462 / 512
Time taken for this run:   0.001s

DOCKED: MODEL        462
DOCKED: USER    Run = 462
DOCKED: USER
DOCKED: USER    Estimated Free Energy of Binding    =  -3.98 kcal/mol  [=(1)+(2)+(3)-(4)]
DOCKED: USER
DOCKED: USER    (1) Final Intermolecular Energy     =  -5.47 kcal/mol
DOCKED: USER        vdW + Hbond + desolv Energy     =  -5.47 kcal/mol
DOCKED: USER        Electrostatic Energy            =  +0.00 kcal/mol
DOCKED: USER        Moving Ligand-Fixed Receptor    =  -5.47 kcal/mol
DOCKED: USER        Moving Ligand-Moving Receptor   =  +0.00 kcal/mol
DOCKED: USER    (2) Final Total Internal Energy     =  -1.06 kcal/mol
DOCKED: USER    (3) Torsional Free Energy           =  +1.49 kcal/mol
DOCKED: USER    (4) Unbound System's Energy         =  -1.06 kcal/mol
DOCKED: USER
DOCKED: USER
DOCKED: REMARK  5 active torsions:
DOCKED: REMARK  status: ('A' for Active; 'I' for Inactive)
DOCKED: REMARK    1  A    between atoms: C_2  and  C_19 
DOCKED: REMARK    2  A    between atoms: C_2  and  C_11 
DOCKED: REMARK    3  A    between atoms: C_19  and  C_20 
DOCKED: REMARK    4  A    between atoms: C_20  and  C_21 
DOCKED: REMARK    5  A    between atoms: C_21  and  N_22 
DOCKED: USER                              x       y       z     vdW  Elec       q    Type
DOCKED: USER                           _______ _______ _______ _____ _____    ______ ____
DOCKED: ROOT
DOCKED: ATOM      1  O   UNL     1     -43.335 -33.819  -1.881 -0.01 -0.00    -0.346 OA 
DOCKED: ATOM      2  C   UNL     1     -43.624 -32.612  -1.105 -0.08 +0.00    +0.130 C  
DOCKED: ATOM      3  C   UNL     1     -44.272 -33.135   0.144 -0.12 +0.00    +0.004 A  
DOCKED: ATOM      4  C   UNL     1     -44.256 -34.522   0.134 -0.15 +0.00    +0.006 A  
DOCKED: ATOM      5  C   UNL     1     -43.594 -35.008  -1.098 -0.08 +0.00    +0.169 C  
DOCKED: ATOM      6  C   UNL     1     -44.823 -32.438   1.210 -0.13 -0.00    -0.001 A  
DOCKED: ATOM      7  C   UNL     1     -44.790 -35.257   1.179 -0.27 +0.00    +0.008 A  
DOCKED: ATOM      8  C   UNL     1     -45.369 -33.164   2.269 -0.25 +0.00    +0.010 A  
DOCKED: ATOM      9  C   UNL     1     -45.351 -34.567   2.254 -0.30 +0.00    +0.068 A  
DOCKED: ATOM     10  N   UNL     1     -46.369 -35.885   4.239 -2.60 -0.00    -0.191 NA 
DOCKED: ATOM     11  C   UNL     1     -45.913 -35.294   3.348 -0.41 +0.00    +0.101 C  
DOCKED: ENDROOT
DOCKED: BRANCH   2  12
DOCKED: ATOM     12  C   UNL     1     -42.311 -31.888  -0.833 -0.02 +0.00    +0.038 C  
DOCKED: BRANCH  12  13
DOCKED: ATOM     13  C   UNL     1     -41.678 -32.353   0.477 -0.02 +0.00    +0.038 C  
DOCKED: BRANCH  13  14
DOCKED: ATOM     14  C   UNL     1     -40.888 -33.645   0.277 -0.01 +0.00    +0.251 C  
DOCKED: BRANCH  14  15
DOCKED: ATOM     15  N   UNL     1     -39.492 -33.448   0.652 -0.01 +0.00    +0.141 N  
DOCKED: ATOM     16  C   UNL     1     -38.612 -33.680  -0.494 -0.00 +0.00    +0.285 C  
DOCKED: ATOM     17  C   UNL     1     -39.287 -32.101   1.186 +0.00 +0.00    +0.285 C  
DOCKED: ENDBRANCH  14  15
DOCKED: ENDBRANCH  13  14
DOCKED: ENDBRANCH  12  13
DOCKED: ENDBRANCH   2  12
DOCKED: BRANCH   2  18
DOCKED: ATOM     18  C   UNL     1     -44.541 -31.773  -1.930 -0.12 +0.00    +0.006 A  
DOCKED: ATOM     19  C   UNL     1     -44.782 -32.106  -3.262 -0.12 +0.00    +0.001 A  
DOCKED: ATOM     20  C   UNL     1     -45.640 -31.320  -4.032 -0.17 +0.00    +0.029 A  
DOCKED: ATOM     21  C   UNL     1     -46.256 -30.202  -3.469 -0.20 +0.00    +0.140 A  
DOCKED: ATOM     22  C   UNL     1     -46.014 -29.870  -2.136 -0.18 +0.00    +0.029 A  
DOCKED: ATOM     23  F   UNL     1     -47.081 -29.449  -4.207 -0.12 -0.00    -0.204 F  
DOCKED: ATOM     24  C   UNL     1     -45.156 -30.655  -1.365 -0.13 +0.00    +0.001 A  
DOCKED: ENDBRANCH   2  18
DOCKED: TORSDOF 5
DOCKED: TER
DOCKED: ENDMDL
________________________________________________________________________________


    FINAL DOCKED STATE:
    ________________________


Run:   463 / 512
Time taken for this run:   0.001s

DOCKED: MODEL        463
DOCKED: USER    Run = 463
DOCKED: USER
DOCKED: USER    Estimated Free Energy of Binding    =  -3.79 kcal/mol  [=(1)+(2)+(3)-(4)]
DOCKED: USER
DOCKED: USER    (1) Final Intermolecular Energy     =  -5.28 kcal/mol
DOCKED: USER        vdW + Hbond + desolv Energy     =  -5.28 kcal/mol
DOCKED: USER        Electrostatic Energy            =  +0.00 kcal/mol
DOCKED: USER        Moving Ligand-Fixed Receptor    =  -5.28 kcal/mol
DOCKED: USER        Moving Ligand-Moving Receptor   =  +0.00 kcal/mol
DOCKED: USER    (2) Final Total Internal Energy     =  -0.96 kcal/mol
DOCKED: USER    (3) Torsional Free Energy           =  +1.49 kcal/mol
DOCKED: USER    (4) Unbound System's Energy         =  -0.96 kcal/mol
DOCKED: USER
DOCKED: USER
DOCKED: REMARK  5 active torsions:
DOCKED: REMARK  status: ('A' for Active; 'I' for Inactive)
DOCKED: REMARK    1  A    between atoms: C_2  and  C_19 
DOCKED: REMARK    2  A    between atoms: C_2  and  C_11 
DOCKED: REMARK    3  A    between atoms: C_19  and  C_20 
DOCKED: REMARK    4  A    between atoms: C_20  and  C_21 
DOCKED: REMARK    5  A    between atoms: C_21  and  N_22 
DOCKED: USER                              x       y       z     vdW  Elec       q    Type
DOCKED: USER                           _______ _______ _______ _____ _____    ______ ____
DOCKED: ROOT
DOCKED: ATOM      1  O   UNL     1     -47.118 -25.395  -0.456 -0.01 -0.00    -0.346 OA 
DOCKED: ATOM      2  C   UNL     1     -46.273 -25.273  -1.645 -0.06 +0.00    +0.130 C  
DOCKED: ATOM      3  C   UNL     1     -47.123 -24.500  -2.612 -0.14 +0.00    +0.004 A  
DOCKED: ATOM      4  C   UNL     1     -48.305 -24.118  -1.993 -0.24 +0.00    +0.006 A  
DOCKED: ATOM      5  C   UNL     1     -48.314 -24.593  -0.591 -0.18 +0.00    +0.169 C  
DOCKED: ATOM      6  C   UNL     1     -46.865 -24.153  -3.930 -0.14 -0.00    -0.001 A  
DOCKED: ATOM      7  C   UNL     1     -49.266 -23.384  -2.667 -0.33 +0.00    +0.008 A  
DOCKED: ATOM      8  C   UNL     1     -47.827 -23.417  -4.625 -0.22 +0.00    +0.010 A  
DOCKED: ATOM      9  C   UNL     1     -49.021 -23.035  -3.996 -0.25 +0.00    +0.068 A  
DOCKED: ATOM     10  N   UNL     1     -50.783 -21.665  -5.312 -2.45 -0.00    -0.191 NA 
DOCKED: ATOM     11  C   UNL     1     -49.993 -22.280  -4.722 -0.40 +0.00    +0.101 C  
DOCKED: ENDROOT
DOCKED: BRANCH   2  12
DOCKED: ATOM     12  C   UNL     1     -44.997 -24.536  -1.256 -0.03 +0.00    +0.038 C  
DOCKED: BRANCH  12  13
DOCKED: ATOM     13  C   UNL     1     -45.192 -23.717   0.018 -0.09 +0.00    +0.038 C  
DOCKED: BRANCH  13  14
DOCKED: ATOM     14  C   UNL     1     -43.856 -23.211   0.556 -0.03 +0.00    +0.251 C  
DOCKED: BRANCH  14  15
DOCKED: ATOM     15  N   UNL     1     -44.066 -22.084   1.458 -0.07 +0.00    +0.141 N  
DOCKED: ATOM     16  C   UNL     1     -42.789 -21.602   1.987 -0.03 +0.00    +0.285 C  
DOCKED: ATOM     17  C   UNL     1     -44.773 -21.001   0.773 -0.02 +0.00    +0.285 C  
DOCKED: ENDBRANCH  14  15
DOCKED: ENDBRANCH  13  14
DOCKED: ENDBRANCH  12  13
DOCKED: ENDBRANCH   2  12
DOCKED: BRANCH   2  18
DOCKED: ATOM     18  C   UNL     1     -45.974 -26.658  -2.112 -0.06 +0.00    +0.006 A  
DOCKED: ATOM     19  C   UNL     1     -46.831 -27.706  -1.776 -0.15 +0.00    +0.001 A  
DOCKED: ATOM     20  C   UNL     1     -46.550 -29.002  -2.213 -0.20 +0.00    +0.029 A  
DOCKED: ATOM     21  C   UNL     1     -45.415 -29.247  -2.984 -0.09 +0.00    +0.140 A  
DOCKED: ATOM     22  C   UNL     1     -44.559 -28.198  -3.320 -0.02 +0.00    +0.029 A  
DOCKED: ATOM     23  F   UNL     1     -45.146 -30.490  -3.405 -0.05 -0.00    -0.204 F  
DOCKED: ATOM     24  C   UNL     1     -44.838 -26.902  -2.883 -0.02 +0.00    +0.001 A  
DOCKED: ENDBRANCH   2  18
DOCKED: TORSDOF 5
DOCKED: TER
DOCKED: ENDMDL
________________________________________________________________________________


    FINAL DOCKED STATE:
    ________________________


Run:   464 / 512
Time taken for this run:   0.001s

DOCKED: MODEL        464
DOCKED: USER    Run = 464
DOCKED: USER
DOCKED: USER    Estimated Free Energy of Binding    =  -4.23 kcal/mol  [=(1)+(2)+(3)-(4)]
DOCKED: USER
DOCKED: USER    (1) Final Intermolecular Energy     =  -5.72 kcal/mol
DOCKED: USER        vdW + Hbond + desolv Energy     =  -5.72 kcal/mol
DOCKED: USER        Electrostatic Energy            =  +0.00 kcal/mol
DOCKED: USER        Moving Ligand-Fixed Receptor    =  -5.72 kcal/mol
DOCKED: USER        Moving Ligand-Moving Receptor   =  +0.00 kcal/mol
DOCKED: USER    (2) Final Total Internal Energy     =  -1.34 kcal/mol
DOCKED: USER    (3) Torsional Free Energy           =  +1.49 kcal/mol
DOCKED: USER    (4) Unbound System's Energy         =  -1.34 kcal/mol
DOCKED: USER
DOCKED: USER
DOCKED: REMARK  5 active torsions:
DOCKED: REMARK  status: ('A' for Active; 'I' for Inactive)
DOCKED: REMARK    1  A    between atoms: C_2  and  C_19 
DOCKED: REMARK    2  A    between atoms: C_2  and  C_11 
DOCKED: REMARK    3  A    between atoms: C_19  and  C_20 
DOCKED: REMARK    4  A    between atoms: C_20  and  C_21 
DOCKED: REMARK    5  A    between atoms: C_21  and  N_22 
DOCKED: USER                              x       y       z     vdW  Elec       q    Type
DOCKED: USER                           _______ _______ _______ _____ _____    ______ ____
DOCKED: ROOT
DOCKED: ATOM      1  O   UNL     1     -54.591 -33.450   9.639 -0.02 -0.00    -0.346 OA 
DOCKED: ATOM      2  C   UNL     1     -53.329 -32.752   9.388 -0.09 +0.00    +0.130 C  
DOCKED: ATOM      3  C   UNL     1     -53.071 -32.991   7.929 -0.17 +0.00    +0.004 A  
DOCKED: ATOM      4  C   UNL     1     -54.144 -33.670   7.369 -0.22 +0.00    +0.006 A  
DOCKED: ATOM      5  C   UNL     1     -55.177 -33.913   8.400 -0.14 +0.00    +0.169 C  
DOCKED: ATOM      6  C   UNL     1     -51.978 -32.626   7.155 -0.28 -0.00    -0.001 A  
DOCKED: ATOM      7  C   UNL     1     -54.161 -34.010   6.027 -0.31 +0.00    +0.008 A  
DOCKED: ATOM      8  C   UNL     1     -51.978 -32.966   5.802 -0.35 +0.00    +0.010 A  
DOCKED: ATOM      9  C   UNL     1     -53.064 -33.654   5.241 -0.37 +0.00    +0.068 A  
DOCKED: ATOM     10  N   UNL     1     -53.035 -34.265   2.723 -1.64 -0.00    -0.191 NA 
DOCKED: ATOM     11  C   UNL     1     -53.048 -33.992   3.852 -0.53 +0.00    +0.101 C  
DOCKED: ENDROOT
DOCKED: BRANCH   2  12
DOCKED: ATOM     12  C   UNL     1     -53.518 -31.278   9.724 -0.06 +0.00    +0.038 C  
DOCKED: BRANCH  12  13
DOCKED: ATOM     13  C   UNL     1     -54.678 -30.671   8.937 -0.08 +0.00    +0.038 C  
DOCKED: BRANCH  13  14
DOCKED: ATOM     14  C   UNL     1     -54.171 -29.878   7.734 -0.11 +0.00    +0.251 C  
DOCKED: BRANCH  14  15
DOCKED: ATOM     15  N   UNL     1     -55.187 -29.834   6.690 -0.20 +0.00    +0.141 N  
DOCKED: ATOM     16  C   UNL     1     -56.228 -30.832   6.941 -0.13 +0.00    +0.285 C  
DOCKED: ATOM     17  C   UNL     1     -55.777 -28.497   6.600 -0.12 +0.00    +0.285 C  
DOCKED: ENDBRANCH  14  15
DOCKED: ENDBRANCH  13  14
DOCKED: ENDBRANCH  12  13
DOCKED: ENDBRANCH   2  12
DOCKED: BRANCH   2  18
DOCKED: ATOM     18  C   UNL     1     -52.302 -33.378  10.271 -0.14 +0.00    +0.006 A  
DOCKED: ATOM     19  C   UNL     1     -51.515 -32.579  11.100 -0.08 +0.00    +0.001 A  
DOCKED: ATOM     20  C   UNL     1     -50.555 -33.165  11.925 -0.10 +0.00    +0.029 A  
DOCKED: ATOM     21  C   UNL     1     -50.382 -34.549  11.920 -0.14 +0.00    +0.140 A  
DOCKED: ATOM     22  C   UNL     1     -51.169 -35.347  11.091 -0.17 +0.00    +0.029 A  
DOCKED: ATOM     23  F   UNL     1     -49.461 -35.112  12.713 -0.07 -0.00    -0.204 F  
DOCKED: ATOM     24  C   UNL     1     -52.130 -34.762  10.265 -0.22 +0.00    +0.001 A  
DOCKED: ENDBRANCH   2  18
DOCKED: TORSDOF 5
DOCKED: TER
DOCKED: ENDMDL
________________________________________________________________________________


    FINAL DOCKED STATE:
    ________________________


Run:   465 / 512
Time taken for this run:   0.001s

DOCKED: MODEL        465
DOCKED: USER    Run = 465
DOCKED: USER
DOCKED: USER    Estimated Free Energy of Binding    =  -3.87 kcal/mol  [=(1)+(2)+(3)-(4)]
DOCKED: USER
DOCKED: USER    (1) Final Intermolecular Energy     =  -5.36 kcal/mol
DOCKED: USER        vdW + Hbond + desolv Energy     =  -5.36 kcal/mol
DOCKED: USER        Electrostatic Energy            =  +0.00 kcal/mol
DOCKED: USER        Moving Ligand-Fixed Receptor    =  -5.36 kcal/mol
DOCKED: USER        Moving Ligand-Moving Receptor   =  +0.00 kcal/mol
DOCKED: USER    (2) Final Total Internal Energy     =  -1.00 kcal/mol
DOCKED: USER    (3) Torsional Free Energy           =  +1.49 kcal/mol
DOCKED: USER    (4) Unbound System's Energy         =  -1.00 kcal/mol
DOCKED: USER
DOCKED: USER
DOCKED: REMARK  5 active torsions:
DOCKED: REMARK  status: ('A' for Active; 'I' for Inactive)
DOCKED: REMARK    1  A    between atoms: C_2  and  C_19 
DOCKED: REMARK    2  A    between atoms: C_2  and  C_11 
DOCKED: REMARK    3  A    between atoms: C_19  and  C_20 
DOCKED: REMARK    4  A    between atoms: C_20  and  C_21 
DOCKED: REMARK    5  A    between atoms: C_21  and  N_22 
DOCKED: USER                              x       y       z     vdW  Elec       q    Type
DOCKED: USER                           _______ _______ _______ _____ _____    ______ ____
DOCKED: ROOT
DOCKED: ATOM      1  O   UNL     1     -43.747 -30.063   0.592 +0.01 -0.00    -0.346 OA 
DOCKED: ATOM      2  C   UNL     1     -45.202 -29.927   0.667 -0.07 +0.00    +0.130 C  
DOCKED: ATOM      3  C   UNL     1     -45.648 -31.194   1.340 -0.16 +0.00    +0.004 A  
DOCKED: ATOM      4  C   UNL     1     -44.538 -31.937   1.716 -0.10 +0.00    +0.006 A  
DOCKED: ATOM      5  C   UNL     1     -43.300 -31.220   1.336 -0.02 +0.00    +0.169 C  
DOCKED: ATOM      6  C   UNL     1     -46.931 -31.646   1.608 -0.32 -0.00    -0.001 A  
DOCKED: ATOM      7  C   UNL     1     -44.672 -33.152   2.366 -0.17 +0.00    +0.008 A  
DOCKED: ATOM      8  C   UNL     1     -47.083 -32.871   2.258 -0.18 +0.00    +0.010 A  
DOCKED: ATOM      9  C   UNL     1     -45.959 -33.621   2.635 -0.30 +0.00    +0.068 A  
DOCKED: ATOM     10  N   UNL     1     -46.275 -35.890   3.845 -2.54 -0.00    -0.191 NA 
DOCKED: ATOM     11  C   UNL     1     -46.133 -34.872   3.302 -0.33 +0.00    +0.101 C  
DOCKED: ENDROOT
DOCKED: BRANCH   2  12
DOCKED: ATOM     12  C   UNL     1     -45.530 -28.678   1.476 -0.04 +0.00    +0.038 C  
DOCKED: BRANCH  12  13
DOCKED: ATOM     13  C   UNL     1     -44.260 -27.947   1.910 -0.01 +0.00    +0.038 C  
DOCKED: BRANCH  13  14
DOCKED: ATOM     14  C   UNL     1     -44.325 -27.561   3.386 -0.00 +0.00    +0.251 C  
DOCKED: BRANCH  14  15
DOCKED: ATOM     15  N   UNL     1     -44.590 -26.134   3.526 -0.01 +0.00    +0.141 N  
DOCKED: ATOM     16  C   UNL     1     -45.638 -25.898   4.520 -0.01 +0.00    +0.285 C  
DOCKED: ATOM     17  C   UNL     1     -43.368 -25.417   3.896 -0.00 +0.00    +0.285 C  
DOCKED: ENDBRANCH  14  15
DOCKED: ENDBRANCH  13  14
DOCKED: ENDBRANCH  12  13
DOCKED: ENDBRANCH   2  12
DOCKED: BRANCH   2  18
DOCKED: ATOM     18  C   UNL     1     -45.702 -29.807  -0.734 -0.13 +0.00    +0.006 A  
DOCKED: ATOM     19  C   UNL     1     -46.514 -28.732  -1.094 -0.16 +0.00    +0.001 A  
DOCKED: ATOM     20  C   UNL     1     -46.981 -28.621  -2.405 -0.22 +0.00    +0.029 A  
DOCKED: ATOM     21  C   UNL     1     -46.635 -29.583  -3.352 -0.21 +0.00    +0.140 A  
DOCKED: ATOM     22  C   UNL     1     -45.823 -30.658  -2.991 -0.16 +0.00    +0.029 A  
DOCKED: ATOM     23  F   UNL     1     -47.082 -29.475  -4.610 -0.12 -0.00    -0.204 F  
DOCKED: ATOM     24  C   UNL     1     -45.356 -30.771  -1.681 -0.12 +0.00    +0.001 A  
DOCKED: ENDBRANCH   2  18
DOCKED: TORSDOF 5
DOCKED: TER
DOCKED: ENDMDL
________________________________________________________________________________


    FINAL DOCKED STATE:
    ________________________


Run:   466 / 512
Time taken for this run:   0.001s

DOCKED: MODEL        466
DOCKED: USER    Run = 466
DOCKED: USER
DOCKED: USER    Estimated Free Energy of Binding    =  -3.50 kcal/mol  [=(1)+(2)+(3)-(4)]
DOCKED: USER
DOCKED: USER    (1) Final Intermolecular Energy     =  -5.00 kcal/mol
DOCKED: USER        vdW + Hbond + desolv Energy     =  -5.00 kcal/mol
DOCKED: USER        Electrostatic Energy            =  +0.00 kcal/mol
DOCKED: USER        Moving Ligand-Fixed Receptor    =  -5.00 kcal/mol
DOCKED: USER        Moving Ligand-Moving Receptor   =  +0.00 kcal/mol
DOCKED: USER    (2) Final Total Internal Energy     =  -1.47 kcal/mol
DOCKED: USER    (3) Torsional Free Energy           =  +1.49 kcal/mol
DOCKED: USER    (4) Unbound System's Energy         =  -1.47 kcal/mol
DOCKED: USER
DOCKED: USER
DOCKED: REMARK  5 active torsions:
DOCKED: REMARK  status: ('A' for Active; 'I' for Inactive)
DOCKED: REMARK    1  A    between atoms: C_2  and  C_19 
DOCKED: REMARK    2  A    between atoms: C_2  and  C_11 
DOCKED: REMARK    3  A    between atoms: C_19  and  C_20 
DOCKED: REMARK    4  A    between atoms: C_20  and  C_21 
DOCKED: REMARK    5  A    between atoms: C_21  and  N_22 
DOCKED: USER                              x       y       z     vdW  Elec       q    Type
DOCKED: USER                           _______ _______ _______ _____ _____    ______ ____
DOCKED: ROOT
DOCKED: ATOM      1  O   UNL     1     -46.435 -25.098  -1.032 -0.01 -0.00    -0.346 OA 
DOCKED: ATOM      2  C   UNL     1     -46.288 -23.664  -0.777 -0.11 +0.00    +0.130 C  
DOCKED: ATOM      3  C   UNL     1     -47.214 -23.025  -1.772 -0.16 +0.00    +0.004 A  
DOCKED: ATOM      4  C   UNL     1     -47.912 -24.008  -2.458 -0.21 +0.00    +0.006 A  
DOCKED: ATOM      5  C   UNL     1     -47.512 -25.346  -1.965 -0.14 +0.00    +0.169 C  
DOCKED: ATOM      6  C   UNL     1     -47.430 -21.681  -2.039 -0.14 -0.00    -0.001 A  
DOCKED: ATOM      7  C   UNL     1     -48.840 -23.686  -3.433 -0.13 +0.00    +0.008 A  
DOCKED: ATOM      8  C   UNL     1     -48.360 -21.339  -3.022 -0.32 +0.00    +0.010 A  
DOCKED: ATOM      9  C   UNL     1     -49.062 -22.337  -3.715 -0.36 +0.00    +0.068 A  
DOCKED: ATOM     10  N   UNL     1     -50.785 -21.668  -5.530 -2.56 -0.00    -0.191 NA 
DOCKED: ATOM     11  C   UNL     1     -50.012 -21.968  -4.717 -0.42 +0.00    +0.101 C  
DOCKED: ENDROOT
DOCKED: BRANCH   2  12
DOCKED: ATOM     12  C   UNL     1     -46.686 -23.387   0.668 -0.05 +0.00    +0.038 C  
DOCKED: BRANCH  12  13
DOCKED: ATOM     13  C   UNL     1     -46.583 -24.647   1.525 -0.12 +0.00    +0.038 C  
DOCKED: BRANCH  13  14
DOCKED: ATOM     14  C   UNL     1     -45.469 -24.516   2.562 -0.05 +0.00    +0.251 C  
DOCKED: BRANCH  14  15
DOCKED: ATOM     15  N   UNL     1     -44.165 -24.672   1.928 -0.02 +0.00    +0.141 N  
DOCKED: ATOM     16  C   UNL     1     -43.232 -23.652   2.409 -0.02 +0.00    +0.285 C  
DOCKED: ATOM     17  C   UNL     1     -43.627 -26.010   2.178 -0.00 +0.00    +0.285 C  
DOCKED: ENDBRANCH  14  15
DOCKED: ENDBRANCH  13  14
DOCKED: ENDBRANCH  12  13
DOCKED: ENDBRANCH   2  12
DOCKED: BRANCH   2  18
DOCKED: ATOM     18  C   UNL     1     -44.854 -23.323  -1.015 -0.06 +0.00    +0.006 A  
DOCKED: ATOM     19  C   UNL     1     -44.004 -24.260  -1.602 -0.01 +0.00    +0.001 A  
DOCKED: ATOM     20  C   UNL     1     -42.664 -23.940  -1.824 -0.00 +0.00    +0.029 A  
DOCKED: ATOM     21  C   UNL     1     -42.177 -22.686  -1.460 -0.00 +0.00    +0.140 A  
DOCKED: ATOM     22  C   UNL     1     -43.028 -21.750  -0.873 -0.02 +0.00    +0.029 A  
DOCKED: ATOM     23  F   UNL     1     -40.891 -22.379  -1.674 +0.00 -0.00    -0.204 F  
DOCKED: ATOM     24  C   UNL     1     -44.369 -22.069  -0.650 -0.07 +0.00    +0.001 A  
DOCKED: ENDBRANCH   2  18
DOCKED: TORSDOF 5
DOCKED: TER
DOCKED: ENDMDL
________________________________________________________________________________


    FINAL DOCKED STATE:
    ________________________


Run:   467 / 512
Time taken for this run:   0.001s

DOCKED: MODEL        467
DOCKED: USER    Run = 467
DOCKED: USER
DOCKED: USER    Estimated Free Energy of Binding    =  -4.36 kcal/mol  [=(1)+(2)+(3)-(4)]
DOCKED: USER
DOCKED: USER    (1) Final Intermolecular Energy     =  -5.85 kcal/mol
DOCKED: USER        vdW + Hbond + desolv Energy     =  -5.85 kcal/mol
DOCKED: USER        Electrostatic Energy            =  +0.00 kcal/mol
DOCKED: USER        Moving Ligand-Fixed Receptor    =  -5.85 kcal/mol
DOCKED: USER        Moving Ligand-Moving Receptor   =  +0.00 kcal/mol
DOCKED: USER    (2) Final Total Internal Energy     =  -0.93 kcal/mol
DOCKED: USER    (3) Torsional Free Energy           =  +1.49 kcal/mol
DOCKED: USER    (4) Unbound System's Energy         =  -0.93 kcal/mol
DOCKED: USER
DOCKED: USER
DOCKED: REMARK  5 active torsions:
DOCKED: REMARK  status: ('A' for Active; 'I' for Inactive)
DOCKED: REMARK    1  A    between atoms: C_2  and  C_19 
DOCKED: REMARK    2  A    between atoms: C_2  and  C_11 
DOCKED: REMARK    3  A    between atoms: C_19  and  C_20 
DOCKED: REMARK    4  A    between atoms: C_20  and  C_21 
DOCKED: REMARK    5  A    between atoms: C_21  and  N_22 
DOCKED: USER                              x       y       z     vdW  Elec       q    Type
DOCKED: USER                           _______ _______ _______ _____ _____    ______ ____
DOCKED: ROOT
DOCKED: ATOM      1  O   UNL     1     -50.762 -33.613   8.520 -0.10 -0.00    -0.346 OA 
DOCKED: ATOM      2  C   UNL     1     -51.810 -32.599   8.403 -0.15 +0.00    +0.130 C  
DOCKED: ATOM      3  C   UNL     1     -52.370 -32.819   7.028 -0.27 +0.00    +0.004 A  
DOCKED: ATOM      4  C   UNL     1     -51.773 -33.931   6.452 -0.39 +0.00    +0.006 A  
DOCKED: ATOM      5  C   UNL     1     -50.799 -34.523   7.396 -0.21 +0.00    +0.169 C  
DOCKED: ATOM      6  C   UNL     1     -53.340 -32.099   6.345 -0.28 -0.00    -0.001 A  
DOCKED: ATOM      7  C   UNL     1     -52.118 -34.357   5.181 -0.41 +0.00    +0.008 A  
DOCKED: ATOM      8  C   UNL     1     -53.696 -32.514   5.061 +0.03 +0.00    +0.010 A  
DOCKED: ATOM      9  C   UNL     1     -53.088 -33.638   4.482 -0.42 +0.00    +0.068 A  
DOCKED: ATOM     10  N   UNL     1     -53.775 -34.384   2.098 -2.22 -0.00    -0.191 NA 
DOCKED: ATOM     11  C   UNL     1     -53.467 -34.049   3.167 -0.49 +0.00    +0.101 C  
DOCKED: ENDROOT
DOCKED: BRANCH   2  12
DOCKED: ATOM     12  C   UNL     1     -52.834 -32.833   9.506 -0.12 +0.00    +0.038 C  
DOCKED: BRANCH  12  13
DOCKED: ATOM     13  C   UNL     1     -54.253 -32.903   8.944 -0.13 +0.00    +0.038 C  
DOCKED: BRANCH  13  14
DOCKED: ATOM     14  C   UNL     1     -55.130 -33.833   9.779 -0.07 +0.00    +0.251 C  
DOCKED: BRANCH  14  15
DOCKED: ATOM     15  N   UNL     1     -55.324 -35.103   9.089 -0.16 +0.00    +0.141 N  
DOCKED: ATOM     16  C   UNL     1     -56.684 -35.199   8.557 -0.12 +0.00    +0.285 C  
DOCKED: ATOM     17  C   UNL     1     -54.346 -35.258   8.011 +0.23 +0.00    +0.285 C  
DOCKED: ENDBRANCH  14  15
DOCKED: ENDBRANCH  13  14
DOCKED: ENDBRANCH  12  13
DOCKED: ENDBRANCH   2  12
DOCKED: BRANCH   2  18
DOCKED: ATOM     18  C   UNL     1     -51.149 -31.269   8.556 -0.13 +0.00    +0.006 A  
DOCKED: ATOM     19  C   UNL     1     -50.930 -30.742   9.828 -0.05 +0.00    +0.001 A  
DOCKED: ATOM     20  C   UNL     1     -50.313 -29.499   9.969 -0.02 +0.00    +0.029 A  
DOCKED: ATOM     21  C   UNL     1     -49.914 -28.786   8.840 -0.03 +0.00    +0.140 A  
DOCKED: ATOM     22  C   UNL     1     -50.133 -29.314   7.568 -0.12 +0.00    +0.029 A  
DOCKED: ATOM     23  F   UNL     1     -49.320 -27.593   8.976 +0.00 -0.00    -0.204 F  
DOCKED: ATOM     24  C   UNL     1     -50.751 -30.557   7.425 -0.19 +0.00    +0.001 A  
DOCKED: ENDBRANCH   2  18
DOCKED: TORSDOF 5
DOCKED: TER
DOCKED: ENDMDL
________________________________________________________________________________


    FINAL DOCKED STATE:
    ________________________


Run:   468 / 512
Time taken for this run:   0.001s

DOCKED: MODEL        468
DOCKED: USER    Run = 468
DOCKED: USER
DOCKED: USER    Estimated Free Energy of Binding    =  -4.37 kcal/mol  [=(1)+(2)+(3)-(4)]
DOCKED: USER
DOCKED: USER    (1) Final Intermolecular Energy     =  -5.86 kcal/mol
DOCKED: USER        vdW + Hbond + desolv Energy     =  -5.86 kcal/mol
DOCKED: USER        Electrostatic Energy            =  +0.00 kcal/mol
DOCKED: USER        Moving Ligand-Fixed Receptor    =  -5.86 kcal/mol
DOCKED: USER        Moving Ligand-Moving Receptor   =  +0.00 kcal/mol
DOCKED: USER    (2) Final Total Internal Energy     =  -1.29 kcal/mol
DOCKED: USER    (3) Torsional Free Energy           =  +1.49 kcal/mol
DOCKED: USER    (4) Unbound System's Energy         =  -1.29 kcal/mol
DOCKED: USER
DOCKED: USER
DOCKED: REMARK  5 active torsions:
DOCKED: REMARK  status: ('A' for Active; 'I' for Inactive)
DOCKED: REMARK    1  A    between atoms: C_2  and  C_19 
DOCKED: REMARK    2  A    between atoms: C_2  and  C_11 
DOCKED: REMARK    3  A    between atoms: C_19  and  C_20 
DOCKED: REMARK    4  A    between atoms: C_20  and  C_21 
DOCKED: REMARK    5  A    between atoms: C_21  and  N_22 
DOCKED: USER                              x       y       z     vdW  Elec       q    Type
DOCKED: USER                           _______ _______ _______ _____ _____    ______ ____
DOCKED: ROOT
DOCKED: ATOM      1  O   UNL     1     -43.712 -29.967   0.919 +0.01 -0.00    -0.346 OA 
DOCKED: ATOM      2  C   UNL     1     -45.167 -29.950   0.764 -0.07 +0.00    +0.130 C  
DOCKED: ATOM      3  C   UNL     1     -45.613 -31.229   1.411 -0.16 +0.00    +0.004 A  
DOCKED: ATOM      4  C   UNL     1     -44.522 -31.868   1.983 -0.09 +0.00    +0.006 A  
DOCKED: ATOM      5  C   UNL     1     -43.299 -31.063   1.769 -0.02 +0.00    +0.169 C  
DOCKED: ATOM      6  C   UNL     1     -46.884 -31.778   1.497 -0.31 -0.00    -0.001 A  
DOCKED: ATOM      7  C   UNL     1     -44.661 -33.072   2.652 -0.17 +0.00    +0.008 A  
DOCKED: ATOM      8  C   UNL     1     -47.041 -32.993   2.165 -0.24 +0.00    +0.010 A  
DOCKED: ATOM      9  C   UNL     1     -45.935 -33.637   2.740 -0.30 +0.00    +0.068 A  
DOCKED: ATOM     10  N   UNL     1     -46.260 -35.890   3.976 -2.57 -0.00    -0.191 NA 
DOCKED: ATOM     11  C   UNL     1     -46.114 -34.880   3.421 -0.31 +0.00    +0.101 C  
DOCKED: ENDROOT
DOCKED: BRANCH   2  12
DOCKED: ATOM     12  C   UNL     1     -45.712 -28.710   1.464 -0.05 +0.00    +0.038 C  
DOCKED: BRANCH  12  13
DOCKED: ATOM     13  C   UNL     1     -46.303 -29.055   2.829 -0.10 +0.00    +0.038 C  
DOCKED: BRANCH  13  14
DOCKED: ATOM     14  C   UNL     1     -47.792 -28.722   2.883 -0.12 +0.00    +0.251 C  
DOCKED: BRANCH  14  15
DOCKED: ATOM     15  N   UNL     1     -48.322 -28.547   1.536 -0.17 +0.00    +0.141 N  
DOCKED: ATOM     16  C   UNL     1     -49.294 -29.595   1.223 -0.19 +0.00    +0.285 C  
DOCKED: ATOM     17  C   UNL     1     -48.936 -27.226   1.392 -0.11 +0.00    +0.285 C  
DOCKED: ENDBRANCH  14  15
DOCKED: ENDBRANCH  13  14
DOCKED: ENDBRANCH  12  13
DOCKED: ENDBRANCH   2  12
DOCKED: BRANCH   2  18
DOCKED: ATOM     18  C   UNL     1     -45.450 -29.909  -0.700 -0.12 +0.00    +0.006 A  
DOCKED: ATOM     19  C   UNL     1     -46.706 -29.511  -1.157 -0.19 +0.00    +0.001 A  
DOCKED: ATOM     20  C   UNL     1     -46.969 -29.474  -2.527 -0.18 +0.00    +0.029 A  
DOCKED: ATOM     21  C   UNL     1     -45.977 -29.834  -3.437 -0.18 +0.00    +0.140 A  
DOCKED: ATOM     22  C   UNL     1     -44.721 -30.232  -2.980 -0.10 +0.00    +0.029 A  
DOCKED: ATOM     23  F   UNL     1     -46.230 -29.797  -4.752 -0.06 -0.00    -0.204 F  
DOCKED: ATOM     24  C   UNL     1     -44.457 -30.270  -1.610 -0.08 +0.00    +0.001 A  
DOCKED: ENDBRANCH   2  18
DOCKED: TORSDOF 5
DOCKED: TER
DOCKED: ENDMDL
________________________________________________________________________________


    FINAL DOCKED STATE:
    ________________________


Run:   469 / 512
Time taken for this run:   0.001s

DOCKED: MODEL        469
DOCKED: USER    Run = 469
DOCKED: USER
DOCKED: USER    Estimated Free Energy of Binding    =  -3.96 kcal/mol  [=(1)+(2)+(3)-(4)]
DOCKED: USER
DOCKED: USER    (1) Final Intermolecular Energy     =  -5.45 kcal/mol
DOCKED: USER        vdW + Hbond + desolv Energy     =  -5.45 kcal/mol
DOCKED: USER        Electrostatic Energy            =  +0.00 kcal/mol
DOCKED: USER        Moving Ligand-Fixed Receptor    =  -5.45 kcal/mol
DOCKED: USER        Moving Ligand-Moving Receptor   =  +0.00 kcal/mol
DOCKED: USER    (2) Final Total Internal Energy     =  -1.35 kcal/mol
DOCKED: USER    (3) Torsional Free Energy           =  +1.49 kcal/mol
DOCKED: USER    (4) Unbound System's Energy         =  -1.35 kcal/mol
DOCKED: USER
DOCKED: USER
DOCKED: REMARK  5 active torsions:
DOCKED: REMARK  status: ('A' for Active; 'I' for Inactive)
DOCKED: REMARK    1  A    between atoms: C_2  and  C_19 
DOCKED: REMARK    2  A    between atoms: C_2  and  C_11 
DOCKED: REMARK    3  A    between atoms: C_19  and  C_20 
DOCKED: REMARK    4  A    between atoms: C_20  and  C_21 
DOCKED: REMARK    5  A    between atoms: C_21  and  N_22 
DOCKED: USER                              x       y       z     vdW  Elec       q    Type
DOCKED: USER                           _______ _______ _______ _____ _____    ______ ____
DOCKED: ROOT
DOCKED: ATOM      1  O   UNL     1     -49.296 -31.114   8.630 -0.07 -0.00    -0.346 OA 
DOCKED: ATOM      2  C   UNL     1     -50.472 -30.341   8.229 -0.11 +0.00    +0.130 C  
DOCKED: ATOM      3  C   UNL     1     -51.310 -31.329   7.470 -0.21 +0.00    +0.004 A  
DOCKED: ATOM      4  C   UNL     1     -50.719 -32.583   7.527 -0.26 +0.00    +0.006 A  
DOCKED: ATOM      5  C   UNL     1     -49.475 -32.517   8.326 -0.18 +0.00    +0.169 C  
DOCKED: ATOM      6  C   UNL     1     -52.505 -31.136   6.793 -0.26 -0.00    -0.001 A  
DOCKED: ATOM      7  C   UNL     1     -51.296 -33.680   6.910 -0.36 +0.00    +0.008 A  
DOCKED: ATOM      8  C   UNL     1     -53.097 -32.231   6.162 -0.30 +0.00    +0.010 A  
DOCKED: ATOM      9  C   UNL     1     -52.496 -33.497   6.220 -0.31 +0.00    +0.068 A  
DOCKED: ATOM     10  N   UNL     1     -53.624 -35.510   5.042 -2.41 -0.00    -0.191 NA 
DOCKED: ATOM     11  C   UNL     1     -53.117 -34.607   5.570 -0.33 +0.00    +0.101 C  
DOCKED: ENDROOT
DOCKED: BRANCH   2  12
DOCKED: ATOM     12  C   UNL     1     -51.160 -29.821   9.486 -0.04 +0.00    +0.038 C  
DOCKED: BRANCH  12  13
DOCKED: ATOM     13  C   UNL     1     -50.803 -30.667  10.706 -0.03 +0.00    +0.038 C  
DOCKED: BRANCH  13  14
DOCKED: ATOM     14  C   UNL     1     -49.664 -30.032  11.501 -0.00 +0.00    +0.251 C  
DOCKED: BRANCH  14  15
DOCKED: ATOM     15  N   UNL     1     -48.775 -31.061  12.025 -0.01 +0.00    +0.141 N  
DOCKED: ATOM     16  C   UNL     1     -49.497 -32.321  12.212 -0.03 +0.00    +0.285 C  
DOCKED: ATOM     17  C   UNL     1     -47.632 -31.259  11.132 -0.02 +0.00    +0.285 C  
DOCKED: ENDBRANCH  14  15
DOCKED: ENDBRANCH  13  14
DOCKED: ENDBRANCH  12  13
DOCKED: ENDBRANCH   2  12
DOCKED: BRANCH   2  18
DOCKED: ATOM     18  C   UNL     1     -49.985 -29.216   7.378 -0.14 +0.00    +0.006 A  
DOCKED: ATOM     19  C   UNL     1     -49.198 -29.481   6.257 -0.03 +0.00    +0.001 A  
DOCKED: ATOM     20  C   UNL     1     -48.743 -28.428   5.462 -0.14 +0.00    +0.029 A  
DOCKED: ATOM     21  C   UNL     1     -49.076 -27.114   5.788 -0.06 +0.00    +0.140 A  
DOCKED: ATOM     22  C   UNL     1     -49.863 -26.850   6.909 -0.05 +0.00    +0.029 A  
DOCKED: ATOM     23  F   UNL     1     -48.640 -26.104   5.024 -0.01 -0.00    -0.204 F  
DOCKED: ATOM     24  C   UNL     1     -50.318 -27.903   7.705 -0.07 +0.00    +0.001 A  
DOCKED: ENDBRANCH   2  18
DOCKED: TORSDOF 5
DOCKED: TER
DOCKED: ENDMDL
________________________________________________________________________________


    FINAL DOCKED STATE:
    ________________________


Run:   470 / 512
Time taken for this run:   0.001s

DOCKED: MODEL        470
DOCKED: USER    Run = 470
DOCKED: USER
DOCKED: USER    Estimated Free Energy of Binding    =  -3.50 kcal/mol  [=(1)+(2)+(3)-(4)]
DOCKED: USER
DOCKED: USER    (1) Final Intermolecular Energy     =  -5.00 kcal/mol
DOCKED: USER        vdW + Hbond + desolv Energy     =  -5.00 kcal/mol
DOCKED: USER        Electrostatic Energy            =  +0.00 kcal/mol
DOCKED: USER        Moving Ligand-Fixed Receptor    =  -5.00 kcal/mol
DOCKED: USER        Moving Ligand-Moving Receptor   =  +0.00 kcal/mol
DOCKED: USER    (2) Final Total Internal Energy     =  -1.37 kcal/mol
DOCKED: USER    (3) Torsional Free Energy           =  +1.49 kcal/mol
DOCKED: USER    (4) Unbound System's Energy         =  -1.37 kcal/mol
DOCKED: USER
DOCKED: USER
DOCKED: REMARK  5 active torsions:
DOCKED: REMARK  status: ('A' for Active; 'I' for Inactive)
DOCKED: REMARK    1  A    between atoms: C_2  and  C_19 
DOCKED: REMARK    2  A    between atoms: C_2  and  C_11 
DOCKED: REMARK    3  A    between atoms: C_19  and  C_20 
DOCKED: REMARK    4  A    between atoms: C_20  and  C_21 
DOCKED: REMARK    5  A    between atoms: C_21  and  N_22 
DOCKED: USER                              x       y       z     vdW  Elec       q    Type
DOCKED: USER                           _______ _______ _______ _____ _____    ______ ____
DOCKED: ROOT
DOCKED: ATOM      1  O   UNL     1     -43.758 -32.445  -1.477 -0.01 -0.00    -0.346 OA 
DOCKED: ATOM      2  C   UNL     1     -43.783 -31.495  -0.364 -0.05 +0.00    +0.130 C  
DOCKED: ATOM      3  C   UNL     1     -44.346 -32.293   0.777 -0.09 +0.00    +0.004 A  
DOCKED: ATOM      4  C   UNL     1     -44.523 -33.611   0.382 -0.14 +0.00    +0.006 A  
DOCKED: ATOM      5  C   UNL     1     -44.085 -33.779  -1.022 -0.09 +0.00    +0.169 C  
DOCKED: ATOM      6  C   UNL     1     -44.664 -31.887   2.064 -0.11 -0.00    -0.001 A  
DOCKED: ATOM      7  C   UNL     1     -45.026 -34.563   1.253 -0.25 +0.00    +0.008 A  
DOCKED: ATOM      8  C   UNL     1     -45.177 -32.834   2.953 -0.22 +0.00    +0.010 A  
DOCKED: ATOM      9  C   UNL     1     -45.356 -34.165   2.549 -0.28 +0.00    +0.068 A  
DOCKED: ATOM     10  N   UNL     1     -46.304 -35.899   4.225 -2.66 -0.00    -0.191 NA 
DOCKED: ATOM     11  C   UNL     1     -45.879 -35.121   3.473 -0.38 +0.00    +0.101 C  
DOCKED: ENDROOT
DOCKED: BRANCH   2  12
DOCKED: ATOM     12  C   UNL     1     -42.359 -31.015  -0.107 -0.01 +0.00    +0.038 C  
DOCKED: BRANCH  12  13
DOCKED: ATOM     13  C   UNL     1     -41.711 -31.784   1.043 -0.01 +0.00    +0.038 C  
DOCKED: BRANCH  13  14
DOCKED: ATOM     14  C   UNL     1     -40.617 -32.719   0.531 -0.00 +0.00    +0.251 C  
DOCKED: BRANCH  14  15
DOCKED: ATOM     15  N   UNL     1     -41.185 -34.010   0.160 -0.02 +0.00    +0.141 N  
DOCKED: ATOM     16  C   UNL     1     -40.860 -34.337  -1.229 -0.01 +0.00    +0.285 C  
DOCKED: ATOM     17  C   UNL     1     -40.701 -35.062   1.056 -0.04 +0.00    +0.285 C  
DOCKED: ENDBRANCH  14  15
DOCKED: ENDBRANCH  13  14
DOCKED: ENDBRANCH  12  13
DOCKED: ENDBRANCH   2  12
DOCKED: BRANCH   2  18
DOCKED: ATOM     18  C   UNL     1     -44.666 -30.365  -0.774 -0.08 +0.00    +0.006 A  
DOCKED: ATOM     19  C   UNL     1     -44.536 -29.120  -0.160 -0.03 +0.00    +0.001 A  
DOCKED: ATOM     20  C   UNL     1     -45.363 -28.064  -0.545 -0.03 +0.00    +0.029 A  
DOCKED: ATOM     21  C   UNL     1     -46.317 -28.254  -1.543 -0.11 +0.00    +0.140 A  
DOCKED: ATOM     22  C   UNL     1     -46.447 -29.499  -2.157 -0.20 +0.00    +0.029 A  
DOCKED: ATOM     23  F   UNL     1     -47.109 -27.239  -1.913 -0.04 -0.00    -0.204 F  
DOCKED: ATOM     24  C   UNL     1     -45.620 -30.556  -1.773 -0.13 +0.00    +0.001 A  
DOCKED: ENDBRANCH   2  18
DOCKED: TORSDOF 5
DOCKED: TER
DOCKED: ENDMDL
________________________________________________________________________________


    FINAL DOCKED STATE:
    ________________________


Run:   471 / 512
Time taken for this run:   0.001s

DOCKED: MODEL        471
DOCKED: USER    Run = 471
DOCKED: USER
DOCKED: USER    Estimated Free Energy of Binding    =  -3.92 kcal/mol  [=(1)+(2)+(3)-(4)]
DOCKED: USER
DOCKED: USER    (1) Final Intermolecular Energy     =  -5.41 kcal/mol
DOCKED: USER        vdW + Hbond + desolv Energy     =  -5.41 kcal/mol
DOCKED: USER        Electrostatic Energy            =  +0.00 kcal/mol
DOCKED: USER        Moving Ligand-Fixed Receptor    =  -5.41 kcal/mol
DOCKED: USER        Moving Ligand-Moving Receptor   =  +0.00 kcal/mol
DOCKED: USER    (2) Final Total Internal Energy     =  -1.38 kcal/mol
DOCKED: USER    (3) Torsional Free Energy           =  +1.49 kcal/mol
DOCKED: USER    (4) Unbound System's Energy         =  -1.38 kcal/mol
DOCKED: USER
DOCKED: USER
DOCKED: REMARK  5 active torsions:
DOCKED: REMARK  status: ('A' for Active; 'I' for Inactive)
DOCKED: REMARK    1  A    between atoms: C_2  and  C_19 
DOCKED: REMARK    2  A    between atoms: C_2  and  C_11 
DOCKED: REMARK    3  A    between atoms: C_19  and  C_20 
DOCKED: REMARK    4  A    between atoms: C_20  and  C_21 
DOCKED: REMARK    5  A    between atoms: C_21  and  N_22 
DOCKED: USER                              x       y       z     vdW  Elec       q    Type
DOCKED: USER                           _______ _______ _______ _____ _____    ______ ____
DOCKED: ROOT
DOCKED: ATOM      1  O   UNL     1     -53.025 -28.850   7.687 -0.05 -0.00    -0.346 OA 
DOCKED: ATOM      2  C   UNL     1     -51.709 -29.414   7.385 -0.15 +0.00    +0.130 C  
DOCKED: ATOM      3  C   UNL     1     -52.014 -30.809   6.921 -0.25 +0.00    +0.004 A  
DOCKED: ATOM      4  C   UNL     1     -53.388 -30.990   6.858 -0.23 +0.00    +0.006 A  
DOCKED: ATOM      5  C   UNL     1     -54.078 -29.743   7.256 -0.18 +0.00    +0.169 C  
DOCKED: ATOM      6  C   UNL     1     -51.145 -31.832   6.573 -0.18 -0.00    -0.001 A  
DOCKED: ATOM      7  C   UNL     1     -53.939 -32.193   6.450 -0.25 +0.00    +0.008 A  
DOCKED: ATOM      8  C   UNL     1     -51.684 -33.053   6.164 -0.33 +0.00    +0.010 A  
DOCKED: ATOM      9  C   UNL     1     -53.074 -33.232   6.103 -0.29 +0.00    +0.068 A  
DOCKED: ATOM     10  N   UNL     1     -54.042 -35.510   5.335 -2.43 -0.00    -0.191 NA 
DOCKED: ATOM     11  C   UNL     1     -53.608 -34.489   5.680 -0.33 +0.00    +0.101 C  
DOCKED: ENDROOT
DOCKED: BRANCH   2  12
DOCKED: ATOM     12  C   UNL     1     -51.054 -28.560   6.306 -0.13 +0.00    +0.038 C  
DOCKED: BRANCH  12  13
DOCKED: ATOM     13  C   UNL     1     -51.054 -27.082   6.689 -0.11 +0.00    +0.038 C  
DOCKED: BRANCH  13  14
DOCKED: ATOM     14  C   UNL     1     -52.025 -26.288   5.816 -0.10 +0.00    +0.251 C  
DOCKED: BRANCH  14  15
DOCKED: ATOM     15  N   UNL     1     -53.133 -25.785   6.619 -0.07 +0.00    +0.141 N  
DOCKED: ATOM     16  C   UNL     1     -54.404 -26.339   6.149 -0.12 +0.00    +0.285 C  
DOCKED: ATOM     17  C   UNL     1     -52.932 -26.104   8.033 -0.02 +0.00    +0.285 C  
DOCKED: ENDBRANCH  14  15
DOCKED: ENDBRANCH  13  14
DOCKED: ENDBRANCH  12  13
DOCKED: ENDBRANCH   2  12
DOCKED: BRANCH   2  18
DOCKED: ATOM     18  C   UNL     1     -50.919 -29.382   8.651 -0.06 +0.00    +0.006 A  
DOCKED: ATOM     19  C   UNL     1     -51.525 -28.975   9.839 -0.02 +0.00    +0.001 A  
DOCKED: ATOM     20  C   UNL     1     -50.785 -28.944  11.022 -0.00 +0.00    +0.029 A  
DOCKED: ATOM     21  C   UNL     1     -49.443 -29.322  11.015 -0.00 +0.00    +0.140 A  
DOCKED: ATOM     22  C   UNL     1     -48.838 -29.729   9.826 -0.03 +0.00    +0.029 A  
DOCKED: ATOM     23  F   UNL     1     -48.734 -29.294  12.151 +0.00 -0.00    -0.204 F  
DOCKED: ATOM     24  C   UNL     1     -49.577 -29.759   8.642 -0.08 +0.00    +0.001 A  
DOCKED: ENDBRANCH   2  18
DOCKED: TORSDOF 5
DOCKED: TER
DOCKED: ENDMDL
________________________________________________________________________________


    FINAL DOCKED STATE:
    ________________________


Run:   472 / 512
Time taken for this run:   0.001s

DOCKED: MODEL        472
DOCKED: USER    Run = 472
DOCKED: USER
DOCKED: USER    Estimated Free Energy of Binding    =  -3.50 kcal/mol  [=(1)+(2)+(3)-(4)]
DOCKED: USER
DOCKED: USER    (1) Final Intermolecular Energy     =  -5.00 kcal/mol
DOCKED: USER        vdW + Hbond + desolv Energy     =  -5.00 kcal/mol
DOCKED: USER        Electrostatic Energy            =  +0.00 kcal/mol
DOCKED: USER        Moving Ligand-Fixed Receptor    =  -5.00 kcal/mol
DOCKED: USER        Moving Ligand-Moving Receptor   =  +0.00 kcal/mol
DOCKED: USER    (2) Final Total Internal Energy     =  -1.24 kcal/mol
DOCKED: USER    (3) Torsional Free Energy           =  +1.49 kcal/mol
DOCKED: USER    (4) Unbound System's Energy         =  -1.24 kcal/mol
DOCKED: USER
DOCKED: USER
DOCKED: REMARK  5 active torsions:
DOCKED: REMARK  status: ('A' for Active; 'I' for Inactive)
DOCKED: REMARK    1  A    between atoms: C_2  and  C_19 
DOCKED: REMARK    2  A    between atoms: C_2  and  C_11 
DOCKED: REMARK    3  A    between atoms: C_19  and  C_20 
DOCKED: REMARK    4  A    between atoms: C_20  and  C_21 
DOCKED: REMARK    5  A    between atoms: C_21  and  N_22 
DOCKED: USER                              x       y       z     vdW  Elec       q    Type
DOCKED: USER                           _______ _______ _______ _____ _____    ______ ____
DOCKED: ROOT
DOCKED: ATOM      1  O   UNL     1     -44.830 -28.844   1.367 +0.01 -0.00    -0.346 OA 
DOCKED: ATOM      2  C   UNL     1     -45.862 -29.592   0.648 -0.09 +0.00    +0.130 C  
DOCKED: ATOM      3  C   UNL     1     -45.943 -30.896   1.387 -0.17 +0.00    +0.004 A  
DOCKED: ATOM      4  C   UNL     1     -45.111 -30.856   2.497 -0.11 +0.00    +0.006 A  
DOCKED: ATOM      5  C   UNL     1     -44.442 -29.538   2.576 -0.03 +0.00    +0.169 C  
DOCKED: ATOM      6  C   UNL     1     -46.701 -32.023   1.107 -0.19 -0.00    -0.001 A  
DOCKED: ATOM      7  C   UNL     1     -45.005 -31.935   3.358 -0.16 +0.00    +0.008 A  
DOCKED: ATOM      8  C   UNL     1     -46.602 -33.122   1.963 -0.33 +0.00    +0.010 A  
DOCKED: ATOM      9  C   UNL     1     -45.758 -33.077   3.083 -0.24 +0.00    +0.068 A  
DOCKED: ATOM     10  N   UNL     1     -45.601 -35.132   4.653 -2.15 -0.00    -0.191 NA 
DOCKED: ATOM     11  C   UNL     1     -45.671 -34.210   3.949 -0.22 +0.00    +0.101 C  
DOCKED: ENDROOT
DOCKED: BRANCH   2  12
DOCKED: ATOM     12  C   UNL     1     -47.161 -28.796   0.703 -0.17 +0.00    +0.038 C  
DOCKED: BRANCH  12  13
DOCKED: ATOM     13  C   UNL     1     -48.171 -29.445   1.648 -0.29 +0.00    +0.038 C  
DOCKED: BRANCH  13  14
DOCKED: ATOM     14  C   UNL     1     -48.729 -28.425   2.640 -0.09 +0.00    +0.251 C  
DOCKED: BRANCH  14  15
DOCKED: ATOM     15  N   UNL     1     -47.678 -27.965   3.539 -0.08 +0.00    +0.141 N  
DOCKED: ATOM     16  C   UNL     1     -48.138 -26.822   4.329 -0.04 +0.00    +0.285 C  
DOCKED: ATOM     17  C   UNL     1     -47.243 -29.049   4.421 -0.09 +0.00    +0.285 C  
DOCKED: ENDBRANCH  14  15
DOCKED: ENDBRANCH  13  14
DOCKED: ENDBRANCH  12  13
DOCKED: ENDBRANCH   2  12
DOCKED: BRANCH   2  18
DOCKED: ATOM     18  C   UNL     1     -45.387 -29.749  -0.758 -0.11 +0.00    +0.006 A  
DOCKED: ATOM     19  C   UNL     1     -44.032 -29.611  -1.055 -0.03 +0.00    +0.001 A  
DOCKED: ATOM     20  C   UNL     1     -43.589 -29.758  -2.370 -0.02 +0.00    +0.029 A  
DOCKED: ATOM     21  C   UNL     1     -44.501 -30.044  -3.385 -0.06 +0.00    +0.140 A  
DOCKED: ATOM     22  C   UNL     1     -45.856 -30.182  -3.087 -0.20 +0.00    +0.029 A  
DOCKED: ATOM     23  F   UNL     1     -44.075 -30.187  -4.647 +0.00 -0.00    -0.204 F  
DOCKED: ATOM     24  C   UNL     1     -46.300 -30.034  -1.772 -0.14 +0.00    +0.001 A  
DOCKED: ENDBRANCH   2  18
DOCKED: TORSDOF 5
DOCKED: TER
DOCKED: ENDMDL
________________________________________________________________________________


    FINAL DOCKED STATE:
    ________________________


Run:   473 / 512
Time taken for this run:   0.001s

DOCKED: MODEL        473
DOCKED: USER    Run = 473
DOCKED: USER
DOCKED: USER    Estimated Free Energy of Binding    =  -6.10 kcal/mol  [=(1)+(2)+(3)-(4)]
DOCKED: USER
DOCKED: USER    (1) Final Intermolecular Energy     =  -7.59 kcal/mol
DOCKED: USER        vdW + Hbond + desolv Energy     =  -7.59 kcal/mol
DOCKED: USER        Electrostatic Energy            =  +0.00 kcal/mol
DOCKED: USER        Moving Ligand-Fixed Receptor    =  -7.59 kcal/mol
DOCKED: USER        Moving Ligand-Moving Receptor   =  +0.00 kcal/mol
DOCKED: USER    (2) Final Total Internal Energy     =  -0.87 kcal/mol
DOCKED: USER    (3) Torsional Free Energy           =  +1.49 kcal/mol
DOCKED: USER    (4) Unbound System's Energy         =  -0.87 kcal/mol
DOCKED: USER
DOCKED: USER
DOCKED: REMARK  5 active torsions:
DOCKED: REMARK  status: ('A' for Active; 'I' for Inactive)
DOCKED: REMARK    1  A    between atoms: C_2  and  C_19 
DOCKED: REMARK    2  A    between atoms: C_2  and  C_11 
DOCKED: REMARK    3  A    between atoms: C_19  and  C_20 
DOCKED: REMARK    4  A    between atoms: C_20  and  C_21 
DOCKED: REMARK    5  A    between atoms: C_21  and  N_22 
DOCKED: USER                              x       y       z     vdW  Elec       q    Type
DOCKED: USER                           _______ _______ _______ _____ _____    ______ ____
DOCKED: ROOT
DOCKED: ATOM      1  O   UNL     1     -50.453 -34.773   7.611 -0.22 -0.00    -0.346 OA 
DOCKED: ATOM      2  C   UNL     1     -51.261 -33.559   7.743 -0.28 +0.00    +0.130 C  
DOCKED: ATOM      3  C   UNL     1     -51.986 -33.467   6.431 -0.36 +0.00    +0.004 A  
DOCKED: ATOM      4  C   UNL     1     -51.703 -34.586   5.661 -0.37 +0.00    +0.006 A  
DOCKED: ATOM      5  C   UNL     1     -50.796 -35.490   6.403 -0.28 +0.00    +0.169 C  
DOCKED: ATOM      6  C   UNL     1     -52.836 -32.476   5.962 -0.34 -0.00    -0.001 A  
DOCKED: ATOM      7  C   UNL     1     -52.253 -34.752   4.402 -0.35 +0.00    +0.008 A  
DOCKED: ATOM      8  C   UNL     1     -53.396 -32.627   4.692 -0.07 +0.00    +0.010 A  
DOCKED: ATOM      9  C   UNL     1     -53.106 -33.759   3.916 -0.45 +0.00    +0.068 A  
DOCKED: ATOM     10  N   UNL     1     -54.165 -34.010   1.565 -3.09 -0.00    -0.191 NA 
DOCKED: ATOM     11  C   UNL     1     -53.690 -33.897   2.619 -0.30 +0.00    +0.101 C  
DOCKED: ENDROOT
DOCKED: BRANCH   2  12
DOCKED: ATOM     12  C   UNL     1     -52.201 -33.732   8.930 -0.24 +0.00    +0.038 C  
DOCKED: BRANCH  12  13
DOCKED: ATOM     13  C   UNL     1     -52.304 -32.448   9.750 -0.10 +0.00    +0.038 C  
DOCKED: BRANCH  13  14
DOCKED: ATOM     14  C   UNL     1     -52.998 -32.704  11.087 -0.03 +0.00    +0.251 C  
DOCKED: BRANCH  14  15
DOCKED: ATOM     15  N   UNL     1     -52.048 -33.232  12.059 -0.05 +0.00    +0.141 N  
DOCKED: ATOM     16  C   UNL     1     -52.283 -32.647  13.380 -0.01 +0.00    +0.285 C  
DOCKED: ATOM     17  C   UNL     1     -52.137 -34.691  12.127 -0.12 +0.00    +0.285 C  
DOCKED: ENDBRANCH  14  15
DOCKED: ENDBRANCH  13  14
DOCKED: ENDBRANCH  12  13
DOCKED: ENDBRANCH   2  12
DOCKED: BRANCH   2  18
DOCKED: ATOM     18  C   UNL     1     -50.315 -32.427   7.966 -0.24 +0.00    +0.006 A  
DOCKED: ATOM     19  C   UNL     1     -49.260 -32.567   8.867 -0.17 +0.00    +0.001 A  
DOCKED: ATOM     20  C   UNL     1     -48.377 -31.508   9.075 -0.13 +0.00    +0.029 A  
DOCKED: ATOM     21  C   UNL     1     -48.548 -30.311   8.382 -0.08 +0.00    +0.140 A  
DOCKED: ATOM     22  C   UNL     1     -49.602 -30.171   7.480 -0.13 +0.00    +0.029 A  
DOCKED: ATOM     23  F   UNL     1     -47.698 -29.294   8.580 -0.01 -0.00    -0.204 F  
DOCKED: ATOM     24  C   UNL     1     -50.487 -31.230   7.271 -0.17 +0.00    +0.001 A  
DOCKED: ENDBRANCH   2  18
DOCKED: TORSDOF 5
DOCKED: TER
DOCKED: ENDMDL
________________________________________________________________________________


    FINAL DOCKED STATE:
    ________________________


Run:   474 / 512
Time taken for this run:   0.001s

DOCKED: MODEL        474
DOCKED: USER    Run = 474
DOCKED: USER
DOCKED: USER    Estimated Free Energy of Binding    =  -3.80 kcal/mol  [=(1)+(2)+(3)-(4)]
DOCKED: USER
DOCKED: USER    (1) Final Intermolecular Energy     =  -5.29 kcal/mol
DOCKED: USER        vdW + Hbond + desolv Energy     =  -5.29 kcal/mol
DOCKED: USER        Electrostatic Energy            =  +0.00 kcal/mol
DOCKED: USER        Moving Ligand-Fixed Receptor    =  -5.29 kcal/mol
DOCKED: USER        Moving Ligand-Moving Receptor   =  +0.00 kcal/mol
DOCKED: USER    (2) Final Total Internal Energy     =  -1.18 kcal/mol
DOCKED: USER    (3) Torsional Free Energy           =  +1.49 kcal/mol
DOCKED: USER    (4) Unbound System's Energy         =  -1.18 kcal/mol
DOCKED: USER
DOCKED: USER
DOCKED: REMARK  5 active torsions:
DOCKED: REMARK  status: ('A' for Active; 'I' for Inactive)
DOCKED: REMARK    1  A    between atoms: C_2  and  C_19 
DOCKED: REMARK    2  A    between atoms: C_2  and  C_11 
DOCKED: REMARK    3  A    between atoms: C_19  and  C_20 
DOCKED: REMARK    4  A    between atoms: C_20  and  C_21 
DOCKED: REMARK    5  A    between atoms: C_21  and  N_22 
DOCKED: USER                              x       y       z     vdW  Elec       q    Type
DOCKED: USER                           _______ _______ _______ _____ _____    ______ ____
DOCKED: ROOT
DOCKED: ATOM      1  O   UNL     1     -44.997 -24.872  -2.141 +0.01 -0.00    -0.346 OA 
DOCKED: ATOM      2  C   UNL     1     -46.093 -24.983  -1.178 -0.05 +0.00    +0.130 C  
DOCKED: ATOM      3  C   UNL     1     -47.256 -24.345  -1.881 -0.15 +0.00    +0.004 A  
DOCKED: ATOM      4  C   UNL     1     -46.887 -24.000  -3.174 -0.13 +0.00    +0.006 A  
DOCKED: ATOM      5  C   UNL     1     -45.481 -24.391  -3.417 -0.03 +0.00    +0.169 C  
DOCKED: ATOM      6  C   UNL     1     -48.540 -24.100  -1.418 -0.25 -0.00    -0.001 A  
DOCKED: ATOM      7  C   UNL     1     -47.782 -23.397  -4.042 -0.21 +0.00    +0.008 A  
DOCKED: ATOM      8  C   UNL     1     -49.453 -23.489  -2.280 -0.33 +0.00    +0.010 A  
DOCKED: ATOM      9  C   UNL     1     -49.076 -23.140  -3.585 -0.27 +0.00    +0.068 A  
DOCKED: ATOM     10  N   UNL     1     -50.796 -22.013  -5.161 -2.55 -0.00    -0.191 NA 
DOCKED: ATOM     11  C   UNL     1     -50.024 -22.518  -4.454 -0.35 +0.00    +0.101 C  
DOCKED: ENDROOT
DOCKED: BRANCH   2  12
DOCKED: ATOM     12  C   UNL     1     -46.321 -26.459  -0.873 -0.06 +0.00    +0.038 C  
DOCKED: BRANCH  12  13
DOCKED: ATOM     13  C   UNL     1     -46.760 -27.224  -2.121 -0.14 +0.00    +0.038 C  
DOCKED: BRANCH  13  14
DOCKED: ATOM     14  C   UNL     1     -45.585 -27.973  -2.747 -0.05 +0.00    +0.251 C  
DOCKED: BRANCH  14  15
DOCKED: ATOM     15  N   UNL     1     -46.062 -28.915  -3.752 -0.13 +0.00    +0.141 N  
DOCKED: ATOM     16  C   UNL     1     -47.509 -28.789  -3.932 -0.17 +0.00    +0.285 C  
DOCKED: ATOM     17  C   UNL     1     -45.372 -28.703  -5.026 -0.04 +0.00    +0.285 C  
DOCKED: ENDBRANCH  14  15
DOCKED: ENDBRANCH  13  14
DOCKED: ENDBRANCH  12  13
DOCKED: ENDBRANCH   2  12
DOCKED: BRANCH   2  18
DOCKED: ATOM     18  C   UNL     1     -45.675 -24.239   0.047 -0.08 +0.00    +0.006 A  
DOCKED: ATOM     19  C   UNL     1     -45.539 -24.914   1.259 -0.05 +0.00    +0.001 A  
DOCKED: ATOM     20  C   UNL     1     -45.148 -24.217   2.403 -0.07 +0.00    +0.029 A  
DOCKED: ATOM     21  C   UNL     1     -44.893 -22.849   2.333 -0.05 +0.00    +0.140 A  
DOCKED: ATOM     22  C   UNL     1     -45.029 -22.174   1.120 +0.00 +0.00    +0.029 A  
DOCKED: ATOM     23  F   UNL     1     -44.516 -22.180   3.431 -0.03 -0.00    -0.204 F  
DOCKED: ATOM     24  C   UNL     1     -45.421 -22.870  -0.025 -0.12 +0.00    +0.001 A  
DOCKED: ENDBRANCH   2  18
DOCKED: TORSDOF 5
DOCKED: TER
DOCKED: ENDMDL
________________________________________________________________________________


    FINAL DOCKED STATE:
    ________________________


Run:   475 / 512
Time taken for this run:   0.001s

DOCKED: MODEL        475
DOCKED: USER    Run = 475
DOCKED: USER
DOCKED: USER    Estimated Free Energy of Binding    =  -3.30 kcal/mol  [=(1)+(2)+(3)-(4)]
DOCKED: USER
DOCKED: USER    (1) Final Intermolecular Energy     =  -4.79 kcal/mol
DOCKED: USER        vdW + Hbond + desolv Energy     =  -4.79 kcal/mol
DOCKED: USER        Electrostatic Energy            =  +0.00 kcal/mol
DOCKED: USER        Moving Ligand-Fixed Receptor    =  -4.79 kcal/mol
DOCKED: USER        Moving Ligand-Moving Receptor   =  +0.00 kcal/mol
DOCKED: USER    (2) Final Total Internal Energy     =  -1.43 kcal/mol
DOCKED: USER    (3) Torsional Free Energy           =  +1.49 kcal/mol
DOCKED: USER    (4) Unbound System's Energy         =  -1.43 kcal/mol
DOCKED: USER
DOCKED: USER
DOCKED: REMARK  5 active torsions:
DOCKED: REMARK  status: ('A' for Active; 'I' for Inactive)
DOCKED: REMARK    1  A    between atoms: C_2  and  C_19 
DOCKED: REMARK    2  A    between atoms: C_2  and  C_11 
DOCKED: REMARK    3  A    between atoms: C_19  and  C_20 
DOCKED: REMARK    4  A    between atoms: C_20  and  C_21 
DOCKED: REMARK    5  A    between atoms: C_21  and  N_22 
DOCKED: USER                              x       y       z     vdW  Elec       q    Type
DOCKED: USER                           _______ _______ _______ _____ _____    ______ ____
DOCKED: ROOT
DOCKED: ATOM      1  O   UNL     1     -45.095 -29.293   2.784 -0.01 -0.00    -0.346 OA 
DOCKED: ATOM      2  C   UNL     1     -45.669 -29.901   1.583 -0.08 +0.00    +0.130 C  
DOCKED: ATOM      3  C   UNL     1     -45.808 -31.352   1.945 -0.19 +0.00    +0.004 A  
DOCKED: ATOM      4  C   UNL     1     -45.449 -31.537   3.273 -0.17 +0.00    +0.006 A  
DOCKED: ATOM      5  C   UNL     1     -45.065 -30.241   3.876 -0.08 +0.00    +0.169 C  
DOCKED: ATOM      6  C   UNL     1     -46.229 -32.419   1.166 -0.23 -0.00    -0.001 A  
DOCKED: ATOM      7  C   UNL     1     -45.493 -32.789   3.863 -0.21 +0.00    +0.008 A  
DOCKED: ATOM      8  C   UNL     1     -46.276 -33.688   1.745 -0.33 +0.00    +0.010 A  
DOCKED: ATOM      9  C   UNL     1     -45.910 -33.872   3.087 -0.30 +0.00    +0.068 A  
DOCKED: ATOM     10  N   UNL     1     -46.012 -36.240   4.133 -2.29 -0.00    -0.191 NA 
DOCKED: ATOM     11  C   UNL     1     -45.965 -35.178   3.664 -0.34 +0.00    +0.101 C  
DOCKED: ENDROOT
DOCKED: BRANCH   2  12
DOCKED: ATOM     12  C   UNL     1     -47.008 -29.231   1.296 -0.17 +0.00    +0.038 C  
DOCKED: BRANCH  12  13
DOCKED: ATOM     13  C   UNL     1     -47.186 -27.964   2.130 -0.09 +0.00    +0.038 C  
DOCKED: BRANCH  13  14
DOCKED: ATOM     14  C   UNL     1     -46.618 -26.745   1.407 -0.02 +0.00    +0.251 C  
DOCKED: BRANCH  14  15
DOCKED: ATOM     15  N   UNL     1     -45.705 -26.017   2.280 -0.02 +0.00    +0.141 N  
DOCKED: ATOM     16  C   UNL     1     -44.316 -26.372   1.986 -0.00 +0.00    +0.285 C  
DOCKED: ATOM     17  C   UNL     1     -45.900 -24.573   2.141 -0.06 +0.00    +0.285 C  
DOCKED: ENDBRANCH  14  15
DOCKED: ENDBRANCH  13  14
DOCKED: ENDBRANCH  12  13
DOCKED: ENDBRANCH   2  12
DOCKED: BRANCH   2  18
DOCKED: ATOM     18  C   UNL     1     -44.702 -29.670   0.471 -0.05 +0.00    +0.006 A  
DOCKED: ATOM     19  C   UNL     1     -45.154 -29.624  -0.848 -0.09 +0.00    +0.001 A  
DOCKED: ATOM     20  C   UNL     1     -44.248 -29.408  -1.887 -0.04 +0.00    +0.029 A  
DOCKED: ATOM     21  C   UNL     1     -42.893 -29.237  -1.606 -0.00 +0.00    +0.140 A  
DOCKED: ATOM     22  C   UNL     1     -42.442 -29.283  -0.288 -0.00 +0.00    +0.029 A  
DOCKED: ATOM     23  F   UNL     1     -42.024 -29.028  -2.604 +0.00 -0.00    -0.204 F  
DOCKED: ATOM     24  C   UNL     1     -43.347 -29.500   0.753 -0.01 +0.00    +0.001 A  
DOCKED: ENDBRANCH   2  18
DOCKED: TORSDOF 5
DOCKED: TER
DOCKED: ENDMDL
________________________________________________________________________________


    FINAL DOCKED STATE:
    ________________________


Run:   476 / 512
Time taken for this run:   0.001s

DOCKED: MODEL        476
DOCKED: USER    Run = 476
DOCKED: USER
DOCKED: USER    Estimated Free Energy of Binding    =  -4.13 kcal/mol  [=(1)+(2)+(3)-(4)]
DOCKED: USER
DOCKED: USER    (1) Final Intermolecular Energy     =  -5.62 kcal/mol
DOCKED: USER        vdW + Hbond + desolv Energy     =  -5.62 kcal/mol
DOCKED: USER        Electrostatic Energy            =  +0.00 kcal/mol
DOCKED: USER        Moving Ligand-Fixed Receptor    =  -5.62 kcal/mol
DOCKED: USER        Moving Ligand-Moving Receptor   =  +0.00 kcal/mol
DOCKED: USER    (2) Final Total Internal Energy     =  -1.08 kcal/mol
DOCKED: USER    (3) Torsional Free Energy           =  +1.49 kcal/mol
DOCKED: USER    (4) Unbound System's Energy         =  -1.08 kcal/mol
DOCKED: USER
DOCKED: USER
DOCKED: REMARK  5 active torsions:
DOCKED: REMARK  status: ('A' for Active; 'I' for Inactive)
DOCKED: REMARK    1  A    between atoms: C_2  and  C_19 
DOCKED: REMARK    2  A    between atoms: C_2  and  C_11 
DOCKED: REMARK    3  A    between atoms: C_19  and  C_20 
DOCKED: REMARK    4  A    between atoms: C_20  and  C_21 
DOCKED: REMARK    5  A    between atoms: C_21  and  N_22 
DOCKED: USER                              x       y       z     vdW  Elec       q    Type
DOCKED: USER                           _______ _______ _______ _____ _____    ______ ____
DOCKED: ROOT
DOCKED: ATOM      1  O   UNL     1     -55.986 -29.212   7.532 -0.07 -0.00    -0.346 OA 
DOCKED: ATOM      2  C   UNL     1     -54.556 -29.036   7.276 -0.20 +0.00    +0.130 C  
DOCKED: ATOM      3  C   UNL     1     -54.097 -30.400   6.846 -0.23 +0.00    +0.004 A  
DOCKED: ATOM      4  C   UNL     1     -55.188 -31.253   6.758 -0.21 +0.00    +0.006 A  
DOCKED: ATOM      5  C   UNL     1     -56.427 -30.522   7.105 -0.20 +0.00    +0.169 C  
DOCKED: ATOM      6  C   UNL     1     -52.819 -30.846   6.547 -0.26 -0.00    -0.001 A  
DOCKED: ATOM      7  C   UNL     1     -55.040 -32.575   6.374 -0.25 +0.00    +0.008 A  
DOCKED: ATOM      8  C   UNL     1     -52.652 -32.178   6.162 -0.32 +0.00    +0.010 A  
DOCKED: ATOM      9  C   UNL     1     -53.757 -33.037   6.076 -0.25 +0.00    +0.068 A  
DOCKED: ATOM     10  N   UNL     1     -53.414 -35.502   5.354 -2.61 -0.00    -0.191 NA 
DOCKED: ATOM     11  C   UNL     1     -53.568 -34.397   5.679 -0.36 +0.00    +0.101 C  
DOCKED: ENDROOT
DOCKED: BRANCH   2  12
DOCKED: ATOM     12  C   UNL     1     -54.387 -27.983   6.187 -0.13 +0.00    +0.038 C  
DOCKED: BRANCH  12  13
DOCKED: ATOM     13  C   UNL     1     -52.959 -27.441   6.154 -0.19 +0.00    +0.038 C  
DOCKED: BRANCH  13  14
DOCKED: ATOM     14  C   UNL     1     -52.937 -25.979   5.712 -0.12 +0.00    +0.251 C  
DOCKED: BRANCH  14  15
DOCKED: ATOM     15  N   UNL     1     -53.113 -25.099   6.861 -0.04 +0.00    +0.141 N  
DOCKED: ATOM     16  C   UNL     1     -52.334 -23.871   6.694 -0.01 +0.00    +0.285 C  
DOCKED: ATOM     17  C   UNL     1     -54.528 -24.779   7.054 -0.02 +0.00    +0.285 C  
DOCKED: ENDBRANCH  14  15
DOCKED: ENDBRANCH  13  14
DOCKED: ENDBRANCH  12  13
DOCKED: ENDBRANCH   2  12
DOCKED: BRANCH   2  18
DOCKED: ATOM     18  C   UNL     1     -53.935 -28.590   8.557 -0.07 +0.00    +0.006 A  
DOCKED: ATOM     19  C   UNL     1     -52.853 -29.292   9.088 -0.04 +0.00    +0.001 A  
DOCKED: ATOM     20  C   UNL     1     -52.274 -28.875  10.287 -0.01 +0.00    +0.029 A  
DOCKED: ATOM     21  C   UNL     1     -52.774 -27.756  10.951 -0.00 +0.00    +0.140 A  
DOCKED: ATOM     22  C   UNL     1     -53.856 -27.054  10.419 -0.01 +0.00    +0.029 A  
DOCKED: ATOM     23  F   UNL     1     -52.216 -27.354  12.101 +0.00 -0.00    -0.204 F  
DOCKED: ATOM     24  C   UNL     1     -54.437 -27.472   9.221 -0.03 +0.00    +0.001 A  
DOCKED: ENDBRANCH   2  18
DOCKED: TORSDOF 5
DOCKED: TER
DOCKED: ENDMDL
________________________________________________________________________________


    FINAL DOCKED STATE:
    ________________________


Run:   477 / 512
Time taken for this run:   0.001s

DOCKED: MODEL        477
DOCKED: USER    Run = 477
DOCKED: USER
DOCKED: USER    Estimated Free Energy of Binding    =  -5.21 kcal/mol  [=(1)+(2)+(3)-(4)]
DOCKED: USER
DOCKED: USER    (1) Final Intermolecular Energy     =  -6.70 kcal/mol
DOCKED: USER        vdW + Hbond + desolv Energy     =  -6.70 kcal/mol
DOCKED: USER        Electrostatic Energy            =  +0.00 kcal/mol
DOCKED: USER        Moving Ligand-Fixed Receptor    =  -6.70 kcal/mol
DOCKED: USER        Moving Ligand-Moving Receptor   =  +0.00 kcal/mol
DOCKED: USER    (2) Final Total Internal Energy     =  -1.00 kcal/mol
DOCKED: USER    (3) Torsional Free Energy           =  +1.49 kcal/mol
DOCKED: USER    (4) Unbound System's Energy         =  -1.00 kcal/mol
DOCKED: USER
DOCKED: USER
DOCKED: REMARK  5 active torsions:
DOCKED: REMARK  status: ('A' for Active; 'I' for Inactive)
DOCKED: REMARK    1  A    between atoms: C_2  and  C_19 
DOCKED: REMARK    2  A    between atoms: C_2  and  C_11 
DOCKED: REMARK    3  A    between atoms: C_19  and  C_20 
DOCKED: REMARK    4  A    between atoms: C_20  and  C_21 
DOCKED: REMARK    5  A    between atoms: C_21  and  N_22 
DOCKED: USER                              x       y       z     vdW  Elec       q    Type
DOCKED: USER                           _______ _______ _______ _____ _____    ______ ____
DOCKED: ROOT
DOCKED: ATOM      1  O   UNL     1     -52.234 -31.226   8.126 -0.03 -0.00    -0.346 OA 
DOCKED: ATOM      2  C   UNL     1     -51.546 -32.517   8.106 -0.19 +0.00    +0.130 C  
DOCKED: ATOM      3  C   UNL     1     -51.950 -33.119   6.791 -0.33 +0.00    +0.004 A  
DOCKED: ATOM      4  C   UNL     1     -52.710 -32.206   6.073 -0.33 +0.00    +0.006 A  
DOCKED: ATOM      5  C   UNL     1     -52.850 -30.952   6.846 -0.21 +0.00    +0.169 C  
DOCKED: ATOM      6  C   UNL     1     -51.657 -34.370   6.266 -0.42 -0.00    -0.001 A  
DOCKED: ATOM      7  C   UNL     1     -53.206 -32.511   4.817 -0.16 +0.00    +0.008 A  
DOCKED: ATOM      8  C   UNL     1     -52.153 -34.694   5.002 -0.41 +0.00    +0.010 A  
DOCKED: ATOM      9  C   UNL     1     -52.923 -33.769   4.281 -0.43 +0.00    +0.068 A  
DOCKED: ATOM     10  N   UNL     1     -53.824 -34.400   1.936 -2.36 -0.00    -0.191 NA 
DOCKED: ATOM     11  C   UNL     1     -53.421 -34.117   2.988 -0.48 +0.00    +0.101 C  
DOCKED: ENDROOT
DOCKED: BRANCH   2  12
DOCKED: ATOM     12  C   UNL     1     -50.046 -32.268   8.209 -0.24 +0.00    +0.038 C  
DOCKED: BRANCH  12  13
DOCKED: ATOM     13  C   UNL     1     -49.743 -31.050   9.080 -0.12 +0.00    +0.038 C  
DOCKED: BRANCH  13  14
DOCKED: ATOM     14  C   UNL     1     -48.558 -31.319  10.006 -0.05 +0.00    +0.251 C  
DOCKED: BRANCH  14  15
DOCKED: ATOM     15  N   UNL     1     -47.432 -30.464   9.649 -0.03 +0.00    +0.141 N  
DOCKED: ATOM     16  C   UNL     1     -47.577 -29.139  10.255 -0.01 +0.00    +0.285 C  
DOCKED: ATOM     17  C   UNL     1     -46.168 -31.075  10.063 -0.02 +0.00    +0.285 C  
DOCKED: ENDBRANCH  14  15
DOCKED: ENDBRANCH  13  14
DOCKED: ENDBRANCH  12  13
DOCKED: ENDBRANCH   2  12
DOCKED: BRANCH   2  18
DOCKED: ATOM     18  C   UNL     1     -52.044 -33.295   9.278 -0.17 +0.00    +0.006 A  
DOCKED: ATOM     19  C   UNL     1     -53.387 -33.215   9.647 -0.12 +0.00    +0.001 A  
DOCKED: ATOM     20  C   UNL     1     -53.851 -33.942  10.744 -0.13 +0.00    +0.029 A  
DOCKED: ATOM     21  C   UNL     1     -52.974 -34.748  11.469 -0.08 +0.00    +0.140 A  
DOCKED: ATOM     22  C   UNL     1     -51.632 -34.827  11.099 -0.23 +0.00    +0.029 A  
DOCKED: ATOM     23  F   UNL     1     -53.420 -35.447  12.520 -0.04 -0.00    -0.204 F  
DOCKED: ATOM     24  C   UNL     1     -51.166 -34.100  10.002 -0.13 +0.00    +0.001 A  
DOCKED: ENDBRANCH   2  18
DOCKED: TORSDOF 5
DOCKED: TER
DOCKED: ENDMDL
________________________________________________________________________________


    FINAL DOCKED STATE:
    ________________________


Run:   478 / 512
Time taken for this run:   0.001s

DOCKED: MODEL        478
DOCKED: USER    Run = 478
DOCKED: USER
DOCKED: USER    Estimated Free Energy of Binding    =  -4.03 kcal/mol  [=(1)+(2)+(3)-(4)]
DOCKED: USER
DOCKED: USER    (1) Final Intermolecular Energy     =  -5.53 kcal/mol
DOCKED: USER        vdW + Hbond + desolv Energy     =  -5.53 kcal/mol
DOCKED: USER        Electrostatic Energy            =  +0.00 kcal/mol
DOCKED: USER        Moving Ligand-Fixed Receptor    =  -5.53 kcal/mol
DOCKED: USER        Moving Ligand-Moving Receptor   =  +0.00 kcal/mol
DOCKED: USER    (2) Final Total Internal Energy     =  -1.32 kcal/mol
DOCKED: USER    (3) Torsional Free Energy           =  +1.49 kcal/mol
DOCKED: USER    (4) Unbound System's Energy         =  -1.32 kcal/mol
DOCKED: USER
DOCKED: USER
DOCKED: REMARK  5 active torsions:
DOCKED: REMARK  status: ('A' for Active; 'I' for Inactive)
DOCKED: REMARK    1  A    between atoms: C_2  and  C_19 
DOCKED: REMARK    2  A    between atoms: C_2  and  C_11 
DOCKED: REMARK    3  A    between atoms: C_19  and  C_20 
DOCKED: REMARK    4  A    between atoms: C_20  and  C_21 
DOCKED: REMARK    5  A    between atoms: C_21  and  N_22 
DOCKED: USER                              x       y       z     vdW  Elec       q    Type
DOCKED: USER                           _______ _______ _______ _____ _____    ______ ____
DOCKED: ROOT
DOCKED: ATOM      1  O   UNL     1     -52.252 -28.802   7.251 -0.06 -0.00    -0.346 OA 
DOCKED: ATOM      2  C   UNL     1     -51.076 -29.623   7.543 -0.14 +0.00    +0.130 C  
DOCKED: ATOM      3  C   UNL     1     -51.490 -31.005   7.126 -0.24 +0.00    +0.004 A  
DOCKED: ATOM      4  C   UNL     1     -52.750 -30.960   6.545 -0.26 +0.00    +0.006 A  
DOCKED: ATOM      5  C   UNL     1     -53.244 -29.565   6.525 -0.17 +0.00    +0.169 C  
DOCKED: ATOM      6  C   UNL     1     -50.803 -32.204   7.242 -0.24 -0.00    -0.001 A  
DOCKED: ATOM      7  C   UNL     1     -53.364 -32.105   6.067 -0.28 +0.00    +0.008 A  
DOCKED: ATOM      8  C   UNL     1     -51.410 -33.368   6.768 -0.34 +0.00    +0.010 A  
DOCKED: ATOM      9  C   UNL     1     -52.684 -33.318   6.183 -0.30 +0.00    +0.068 A  
DOCKED: ATOM     10  N   UNL     1     -53.782 -35.496   5.308 -2.53 -0.00    -0.191 NA 
DOCKED: ATOM     11  C   UNL     1     -53.290 -34.519   5.701 -0.32 +0.00    +0.101 C  
DOCKED: ENDROOT
DOCKED: BRANCH   2  12
DOCKED: ATOM     12  C   UNL     1     -49.901 -29.087   6.734 -0.17 +0.00    +0.038 C  
DOCKED: BRANCH  12  13
DOCKED: ATOM     13  C   UNL     1     -49.282 -27.859   7.399 -0.07 +0.00    +0.038 C  
DOCKED: BRANCH  13  14
DOCKED: ATOM     14  C   UNL     1     -49.559 -26.596   6.586 -0.04 +0.00    +0.251 C  
DOCKED: BRANCH  14  15
DOCKED: ATOM     15  N   UNL     1     -50.498 -26.882   5.508 -0.09 +0.00    +0.141 N  
DOCKED: ATOM     16  C   UNL     1     -51.778 -26.215   5.749 -0.09 +0.00    +0.285 C  
DOCKED: ATOM     17  C   UNL     1     -49.944 -26.468   4.218 -0.03 +0.00    +0.285 C  
DOCKED: ENDBRANCH  14  15
DOCKED: ENDBRANCH  13  14
DOCKED: ENDBRANCH  12  13
DOCKED: ENDBRANCH   2  12
DOCKED: BRANCH   2  18
DOCKED: ATOM     18  C   UNL     1     -50.818 -29.510   9.008 -0.05 +0.00    +0.006 A  
DOCKED: ATOM     19  C   UNL     1     -51.637 -28.707   9.800 -0.02 +0.00    +0.001 A  
DOCKED: ATOM     20  C   UNL     1     -51.394 -28.602  11.170 -0.00 +0.00    +0.029 A  
DOCKED: ATOM     21  C   UNL     1     -50.334 -29.301  11.746 -0.00 +0.00    +0.140 A  
DOCKED: ATOM     22  C   UNL     1     -49.516 -30.105  10.953 -0.02 +0.00    +0.029 A  
DOCKED: ATOM     23  F   UNL     1     -50.103 -29.201  13.062 +0.00 -0.00    -0.204 F  
DOCKED: ATOM     24  C   UNL     1     -49.758 -30.210   9.583 -0.05 +0.00    +0.001 A  
DOCKED: ENDBRANCH   2  18
DOCKED: TORSDOF 5
DOCKED: TER
DOCKED: ENDMDL
________________________________________________________________________________


    FINAL DOCKED STATE:
    ________________________


Run:   479 / 512
Time taken for this run:   0.001s

DOCKED: MODEL        479
DOCKED: USER    Run = 479
DOCKED: USER
DOCKED: USER    Estimated Free Energy of Binding    =  -3.94 kcal/mol  [=(1)+(2)+(3)-(4)]
DOCKED: USER
DOCKED: USER    (1) Final Intermolecular Energy     =  -5.43 kcal/mol
DOCKED: USER        vdW + Hbond + desolv Energy     =  -5.43 kcal/mol
DOCKED: USER        Electrostatic Energy            =  +0.00 kcal/mol
DOCKED: USER        Moving Ligand-Fixed Receptor    =  -5.43 kcal/mol
DOCKED: USER        Moving Ligand-Moving Receptor   =  +0.00 kcal/mol
DOCKED: USER    (2) Final Total Internal Energy     =  -1.47 kcal/mol
DOCKED: USER    (3) Torsional Free Energy           =  +1.49 kcal/mol
DOCKED: USER    (4) Unbound System's Energy         =  -1.47 kcal/mol
DOCKED: USER
DOCKED: USER
DOCKED: REMARK  5 active torsions:
DOCKED: REMARK  status: ('A' for Active; 'I' for Inactive)
DOCKED: REMARK    1  A    between atoms: C_2  and  C_19 
DOCKED: REMARK    2  A    between atoms: C_2  and  C_11 
DOCKED: REMARK    3  A    between atoms: C_19  and  C_20 
DOCKED: REMARK    4  A    between atoms: C_20  and  C_21 
DOCKED: REMARK    5  A    between atoms: C_21  and  N_22 
DOCKED: USER                              x       y       z     vdW  Elec       q    Type
DOCKED: USER                           _______ _______ _______ _____ _____    ______ ____
DOCKED: ROOT
DOCKED: ATOM      1  O   UNL     1     -50.293 -29.309   7.474 -0.05 -0.00    -0.346 OA 
DOCKED: ATOM      2  C   UNL     1     -49.718 -30.448   8.189 -0.12 +0.00    +0.130 C  
DOCKED: ATOM      3  C   UNL     1     -50.517 -31.621   7.701 -0.20 +0.00    +0.004 A  
DOCKED: ATOM      4  C   UNL     1     -51.397 -31.206   6.711 -0.26 +0.00    +0.006 A  
DOCKED: ATOM      5  C   UNL     1     -51.235 -29.755   6.470 -0.19 +0.00    +0.169 C  
DOCKED: ATOM      6  C   UNL     1     -50.462 -32.950   8.092 -0.26 -0.00    -0.001 A  
DOCKED: ATOM      7  C   UNL     1     -52.251 -32.099   6.086 -0.34 +0.00    +0.008 A  
DOCKED: ATOM      8  C   UNL     1     -51.320 -33.862   7.474 -0.34 +0.00    +0.010 A  
DOCKED: ATOM      9  C   UNL     1     -52.209 -33.438   6.475 -0.31 +0.00    +0.068 A  
DOCKED: ATOM     10  N   UNL     1     -53.783 -35.157   5.344 -2.56 -0.00    -0.191 NA 
DOCKED: ATOM     11  C   UNL     1     -53.078 -34.386   5.852 -0.35 +0.00    +0.101 C  
DOCKED: ENDROOT
DOCKED: BRANCH   2  12
DOCKED: ATOM     12  C   UNL     1     -48.240 -30.547   7.830 -0.09 +0.00    +0.038 C  
DOCKED: BRANCH  12  13
DOCKED: ATOM     13  C   UNL     1     -47.828 -29.443   6.858 -0.12 +0.00    +0.038 C  
DOCKED: BRANCH  13  14
DOCKED: ATOM     14  C   UNL     1     -47.486 -28.154   7.602 -0.03 +0.00    +0.251 C  
DOCKED: BRANCH  14  15
DOCKED: ATOM     15  N   UNL     1     -48.182 -27.022   7.002 -0.02 +0.00    +0.141 N  
DOCKED: ATOM     16  C   UNL     1     -48.738 -27.390   5.699 -0.06 +0.00    +0.285 C  
DOCKED: ATOM     17  C   UNL     1     -49.242 -26.539   7.888 -0.01 +0.00    +0.285 C  
DOCKED: ENDBRANCH  14  15
DOCKED: ENDBRANCH  13  14
DOCKED: ENDBRANCH  12  13
DOCKED: ENDBRANCH   2  12
DOCKED: BRANCH   2  18
DOCKED: ATOM     18  C   UNL     1     -49.901 -30.186   9.647 -0.05 +0.00    +0.006 A  
DOCKED: ATOM     19  C   UNL     1     -48.861 -29.632  10.392 -0.02 +0.00    +0.001 A  
DOCKED: ATOM     20  C   UNL     1     -49.034 -29.387  11.754 -0.00 +0.00    +0.029 A  
DOCKED: ATOM     21  C   UNL     1     -50.246 -29.696  12.370 -0.00 +0.00    +0.140 A  
DOCKED: ATOM     22  C   UNL     1     -51.287 -30.250  11.624 -0.01 +0.00    +0.029 A  
DOCKED: ATOM     23  F   UNL     1     -50.413 -29.459  13.678 +0.00 -0.00    -0.204 F  
DOCKED: ATOM     24  C   UNL     1     -51.114 -30.495  10.261 -0.03 +0.00    +0.001 A  
DOCKED: ENDBRANCH   2  18
DOCKED: TORSDOF 5
DOCKED: TER
DOCKED: ENDMDL
________________________________________________________________________________


    FINAL DOCKED STATE:
    ________________________


Run:   480 / 512
Time taken for this run:   0.001s

DOCKED: MODEL        480
DOCKED: USER    Run = 480
DOCKED: USER
DOCKED: USER    Estimated Free Energy of Binding    =  -3.69 kcal/mol  [=(1)+(2)+(3)-(4)]
DOCKED: USER
DOCKED: USER    (1) Final Intermolecular Energy     =  -5.18 kcal/mol
DOCKED: USER        vdW + Hbond + desolv Energy     =  -5.18 kcal/mol
DOCKED: USER        Electrostatic Energy            =  +0.00 kcal/mol
DOCKED: USER        Moving Ligand-Fixed Receptor    =  -5.18 kcal/mol
DOCKED: USER        Moving Ligand-Moving Receptor   =  +0.00 kcal/mol
DOCKED: USER    (2) Final Total Internal Energy     =  -1.37 kcal/mol
DOCKED: USER    (3) Torsional Free Energy           =  +1.49 kcal/mol
DOCKED: USER    (4) Unbound System's Energy         =  -1.37 kcal/mol
DOCKED: USER
DOCKED: USER
DOCKED: REMARK  5 active torsions:
DOCKED: REMARK  status: ('A' for Active; 'I' for Inactive)
DOCKED: REMARK    1  A    between atoms: C_2  and  C_19 
DOCKED: REMARK    2  A    between atoms: C_2  and  C_11 
DOCKED: REMARK    3  A    between atoms: C_19  and  C_20 
DOCKED: REMARK    4  A    between atoms: C_20  and  C_21 
DOCKED: REMARK    5  A    between atoms: C_21  and  N_22 
DOCKED: USER                              x       y       z     vdW  Elec       q    Type
DOCKED: USER                           _______ _______ _______ _____ _____    ______ ____
DOCKED: ROOT
DOCKED: ATOM      1  O   UNL     1     -49.856 -32.626  10.309 -0.05 -0.00    -0.346 OA 
DOCKED: ATOM      2  C   UNL     1     -49.792 -31.695   9.182 -0.13 +0.00    +0.130 C  
DOCKED: ATOM      3  C   UNL     1     -50.703 -32.307   8.157 -0.22 +0.00    +0.004 A  
DOCKED: ATOM      4  C   UNL     1     -51.318 -33.430   8.692 -0.22 +0.00    +0.006 A  
DOCKED: ATOM      5  C   UNL     1     -50.875 -33.629  10.090 -0.10 +0.00    +0.169 C  
DOCKED: ATOM      6  C   UNL     1     -50.973 -31.896   6.860 -0.19 -0.00    -0.001 A  
DOCKED: ATOM      7  C   UNL     1     -52.217 -34.180   7.952 -0.28 +0.00    +0.008 A  
DOCKED: ATOM      8  C   UNL     1     -51.874 -32.644   6.100 -0.34 +0.00    +0.010 A  
DOCKED: ATOM      9  C   UNL     1     -52.493 -33.780   6.643 -0.29 +0.00    +0.068 A  
DOCKED: ATOM     10  N   UNL     1     -54.163 -35.143   5.206 -2.21 -0.00    -0.191 NA 
DOCKED: ATOM     11  C   UNL     1     -53.413 -34.532   5.851 -0.26 +0.00    +0.101 C  
DOCKED: ENDROOT
DOCKED: BRANCH   2  12
DOCKED: ATOM     12  C   UNL     1     -50.269 -30.328   9.659 -0.05 +0.00    +0.038 C  
DOCKED: BRANCH  12  13
DOCKED: ATOM     13  C   UNL     1     -51.717 -30.069   9.248 -0.05 +0.00    +0.038 C  
DOCKED: BRANCH  13  14
DOCKED: ATOM     14  C   UNL     1     -52.624 -29.956  10.472 -0.01 +0.00    +0.251 C  
DOCKED: BRANCH  14  15
DOCKED: ATOM     15  N   UNL     1     -53.113 -31.272  10.865 -0.01 +0.00    +0.141 N  
DOCKED: ATOM     16  C   UNL     1     -52.745 -31.567  12.250 -0.00 +0.00    +0.285 C  
DOCKED: ATOM     17  C   UNL     1     -54.565 -31.354  10.697 -0.00 +0.00    +0.285 C  
DOCKED: ENDBRANCH  14  15
DOCKED: ENDBRANCH  13  14
DOCKED: ENDBRANCH  12  13
DOCKED: ENDBRANCH   2  12
DOCKED: BRANCH   2  18
DOCKED: ATOM     18  C   UNL     1     -48.368 -31.643   8.738 -0.15 +0.00    +0.006 A  
DOCKED: ATOM     19  C   UNL     1     -47.768 -30.415   8.464 -0.10 +0.00    +0.001 A  
DOCKED: ATOM     20  C   UNL     1     -46.437 -30.369   8.048 -0.08 +0.00    +0.029 A  
DOCKED: ATOM     21  C   UNL     1     -45.708 -31.549   7.909 -0.08 +0.00    +0.140 A  
DOCKED: ATOM     22  C   UNL     1     -46.309 -32.777   8.184 -0.18 +0.00    +0.029 A  
DOCKED: ATOM     23  F   UNL     1     -44.430 -31.504   7.512 -0.00 -0.00    -0.204 F  
DOCKED: ATOM     24  C   UNL     1     -47.641 -32.825   8.599 -0.15 +0.00    +0.001 A  
DOCKED: ENDBRANCH   2  18
DOCKED: TORSDOF 5
DOCKED: TER
DOCKED: ENDMDL
________________________________________________________________________________


    FINAL DOCKED STATE:
    ________________________


Run:   481 / 512
Time taken for this run:   0.001s

DOCKED: MODEL        481
DOCKED: USER    Run = 481
DOCKED: USER
DOCKED: USER    Estimated Free Energy of Binding    =  -5.66 kcal/mol  [=(1)+(2)+(3)-(4)]
DOCKED: USER
DOCKED: USER    (1) Final Intermolecular Energy     =  -7.15 kcal/mol
DOCKED: USER        vdW + Hbond + desolv Energy     =  -7.15 kcal/mol
DOCKED: USER        Electrostatic Energy            =  +0.00 kcal/mol
DOCKED: USER        Moving Ligand-Fixed Receptor    =  -7.15 kcal/mol
DOCKED: USER        Moving Ligand-Moving Receptor   =  +0.00 kcal/mol
DOCKED: USER    (2) Final Total Internal Energy     =  -1.21 kcal/mol
DOCKED: USER    (3) Torsional Free Energy           =  +1.49 kcal/mol
DOCKED: USER    (4) Unbound System's Energy         =  -1.21 kcal/mol
DOCKED: USER
DOCKED: USER
DOCKED: REMARK  5 active torsions:
DOCKED: REMARK  status: ('A' for Active; 'I' for Inactive)
DOCKED: REMARK    1  A    between atoms: C_2  and  C_19 
DOCKED: REMARK    2  A    between atoms: C_2  and  C_11 
DOCKED: REMARK    3  A    between atoms: C_19  and  C_20 
DOCKED: REMARK    4  A    between atoms: C_20  and  C_21 
DOCKED: REMARK    5  A    between atoms: C_21  and  N_22 
DOCKED: USER                              x       y       z     vdW  Elec       q    Type
DOCKED: USER                           _______ _______ _______ _____ _____    ______ ____
DOCKED: ROOT
DOCKED: ATOM      1  O   UNL     1     -51.529 -31.144   7.820 -0.05 -0.00    -0.346 OA 
DOCKED: ATOM      2  C   UNL     1     -51.500 -32.603   7.929 -0.21 +0.00    +0.130 C  
DOCKED: ATOM      3  C   UNL     1     -52.005 -33.073   6.596 -0.33 +0.00    +0.004 A  
DOCKED: ATOM      4  C   UNL     1     -52.201 -31.983   5.760 -0.33 +0.00    +0.006 A  
DOCKED: ATOM      5  C   UNL     1     -51.832 -30.736   6.466 -0.24 +0.00    +0.169 C  
DOCKED: ATOM      6  C   UNL     1     -52.261 -34.364   6.155 -0.37 -0.00    -0.001 A  
DOCKED: ATOM      7  C   UNL     1     -52.660 -32.143   4.463 +0.08 +0.00    +0.008 A  
DOCKED: ATOM      8  C   UNL     1     -52.729 -34.541   4.852 -0.50 +0.00    +0.010 A  
DOCKED: ATOM      9  C   UNL     1     -52.927 -33.436   4.010 -0.41 +0.00    +0.068 A  
DOCKED: ATOM     10  N   UNL     1     -53.791 -33.800   1.595 -3.09 -0.00    -0.191 NA 
DOCKED: ATOM     11  C   UNL     1     -53.404 -33.637   2.678 -0.42 +0.00    +0.101 C  
DOCKED: ENDROOT
DOCKED: BRANCH   2  12
DOCKED: ATOM     12  C   UNL     1     -50.066 -33.038   8.207 -0.23 +0.00    +0.038 C  
DOCKED: BRANCH  12  13
DOCKED: ATOM     13  C   UNL     1     -49.568 -32.495   9.545 -0.16 +0.00    +0.038 C  
DOCKED: BRANCH  13  14
DOCKED: ATOM     14  C   UNL     1     -48.101 -32.078   9.457 -0.10 +0.00    +0.251 C  
DOCKED: BRANCH  14  15
DOCKED: ATOM     15  N   UNL     1     -47.996 -30.661   9.127 -0.06 +0.00    +0.141 N  
DOCKED: ATOM     16  C   UNL     1     -47.397 -30.483   7.804 -0.06 +0.00    +0.285 C  
DOCKED: ATOM     17  C   UNL     1     -49.311 -30.020   9.180 -0.04 +0.00    +0.285 C  
DOCKED: ENDBRANCH  14  15
DOCKED: ENDBRANCH  13  14
DOCKED: ENDBRANCH  12  13
DOCKED: ENDBRANCH   2  12
DOCKED: BRANCH   2  18
DOCKED: ATOM     18  C   UNL     1     -52.403 -32.974   9.058 -0.14 +0.00    +0.006 A  
DOCKED: ATOM     19  C   UNL     1     -53.318 -32.046   9.551 -0.07 +0.00    +0.001 A  
DOCKED: ATOM     20  C   UNL     1     -54.162 -32.394  10.607 -0.05 +0.00    +0.029 A  
DOCKED: ATOM     21  C   UNL     1     -54.090 -33.669  11.166 -0.07 +0.00    +0.140 A  
DOCKED: ATOM     22  C   UNL     1     -53.174 -34.597  10.672 -0.07 +0.00    +0.029 A  
DOCKED: ATOM     23  F   UNL     1     -54.901 -34.003  12.178 -0.00 -0.00    -0.204 F  
DOCKED: ATOM     24  C   UNL     1     -52.329 -34.249   9.616 -0.24 +0.00    +0.001 A  
DOCKED: ENDBRANCH   2  18
DOCKED: TORSDOF 5
DOCKED: TER
DOCKED: ENDMDL
________________________________________________________________________________


    FINAL DOCKED STATE:
    ________________________


Run:   482 / 512
Time taken for this run:   0.001s

DOCKED: MODEL        482
DOCKED: USER    Run = 482
DOCKED: USER
DOCKED: USER    Estimated Free Energy of Binding    =  -3.55 kcal/mol  [=(1)+(2)+(3)-(4)]
DOCKED: USER
DOCKED: USER    (1) Final Intermolecular Energy     =  -5.05 kcal/mol
DOCKED: USER        vdW + Hbond + desolv Energy     =  -5.05 kcal/mol
DOCKED: USER        Electrostatic Energy            =  +0.00 kcal/mol
DOCKED: USER        Moving Ligand-Fixed Receptor    =  -5.05 kcal/mol
DOCKED: USER        Moving Ligand-Moving Receptor   =  +0.00 kcal/mol
DOCKED: USER    (2) Final Total Internal Energy     =  -1.22 kcal/mol
DOCKED: USER    (3) Torsional Free Energy           =  +1.49 kcal/mol
DOCKED: USER    (4) Unbound System's Energy         =  -1.22 kcal/mol
DOCKED: USER
DOCKED: USER
DOCKED: REMARK  5 active torsions:
DOCKED: REMARK  status: ('A' for Active; 'I' for Inactive)
DOCKED: REMARK    1  A    between atoms: C_2  and  C_19 
DOCKED: REMARK    2  A    between atoms: C_2  and  C_11 
DOCKED: REMARK    3  A    between atoms: C_19  and  C_20 
DOCKED: REMARK    4  A    between atoms: C_20  and  C_21 
DOCKED: REMARK    5  A    between atoms: C_21  and  N_22 
DOCKED: USER                              x       y       z     vdW  Elec       q    Type
DOCKED: USER                           _______ _______ _______ _____ _____    ______ ____
DOCKED: ROOT
DOCKED: ATOM      1  O   UNL     1     -47.676 -25.090   1.161 -0.04 -0.00    -0.346 OA 
DOCKED: ATOM      2  C   UNL     1     -48.683 -25.417   0.150 -0.19 +0.00    +0.130 C  
DOCKED: ATOM      3  C   UNL     1     -48.413 -24.438  -0.956 -0.23 +0.00    +0.004 A  
DOCKED: ATOM      4  C   UNL     1     -47.284 -23.691  -0.653 -0.12 +0.00    +0.006 A  
DOCKED: ATOM      5  C   UNL     1     -46.728 -24.125   0.648 -0.12 +0.00    +0.169 C  
DOCKED: ATOM      6  C   UNL     1     -49.106 -24.233  -2.140 -0.29 -0.00    -0.001 A  
DOCKED: ATOM      7  C   UNL     1     -46.812 -22.716  -1.515 -0.15 +0.00    +0.008 A  
DOCKED: ATOM      8  C   UNL     1     -48.645 -23.250  -3.018 -0.29 +0.00    +0.010 A  
DOCKED: ATOM      9  C   UNL     1     -47.504 -22.496  -2.707 -0.18 +0.00    +0.068 A  
DOCKED: ATOM     10  N   UNL     1     -46.673 -20.683  -4.362 -0.75 -0.00    -0.191 NA 
DOCKED: ATOM     11  C   UNL     1     -47.046 -21.496  -3.619 -0.19 +0.00    +0.101 C  
DOCKED: ENDROOT
DOCKED: BRANCH   2  12
DOCKED: ATOM     12  C   UNL     1     -48.483 -26.866  -0.279 -0.21 +0.00    +0.038 C  
DOCKED: BRANCH  12  13
DOCKED: ATOM     13  C   UNL     1     -47.349 -26.995  -1.294 -0.16 +0.00    +0.038 C  
DOCKED: BRANCH  13  14
DOCKED: ATOM     14  C   UNL     1     -47.784 -27.821  -2.503 -0.17 +0.00    +0.251 C  
DOCKED: BRANCH  14  15
DOCKED: ATOM     15  N   UNL     1     -46.809 -27.697  -3.580 -0.16 +0.00    +0.141 N  
DOCKED: ATOM     16  C   UNL     1     -47.029 -28.727  -4.596 -0.19 +0.00    +0.285 C  
DOCKED: ATOM     17  C   UNL     1     -46.875 -26.365  -4.184 -0.09 +0.00    +0.285 C  
DOCKED: ENDBRANCH  14  15
DOCKED: ENDBRANCH  13  14
DOCKED: ENDBRANCH  12  13
DOCKED: ENDBRANCH   2  12
DOCKED: BRANCH   2  18
DOCKED: ATOM     18  C   UNL     1     -50.019 -25.223   0.786 -0.28 +0.00    +0.006 A  
DOCKED: ATOM     19  C   UNL     1     -50.853 -26.319   1.001 -0.29 +0.00    +0.001 A  
DOCKED: ATOM     20  C   UNL     1     -52.102 -26.136   1.596 -0.22 +0.00    +0.029 A  
DOCKED: ATOM     21  C   UNL     1     -52.515 -24.859   1.974 -0.16 +0.00    +0.140 A  
DOCKED: ATOM     22  C   UNL     1     -51.679 -23.763   1.758 -0.31 +0.00    +0.029 A  
DOCKED: ATOM     23  F   UNL     1     -53.713 -24.684   2.546 -0.06 -0.00    -0.204 F  
DOCKED: ATOM     24  C   UNL     1     -50.429 -23.945   1.163 -0.22 +0.00    +0.001 A  
DOCKED: ENDBRANCH   2  18
DOCKED: TORSDOF 5
DOCKED: TER
DOCKED: ENDMDL
________________________________________________________________________________


    FINAL DOCKED STATE:
    ________________________


Run:   483 / 512
Time taken for this run:   0.001s

DOCKED: MODEL        483
DOCKED: USER    Run = 483
DOCKED: USER
DOCKED: USER    Estimated Free Energy of Binding    =  -6.61 kcal/mol  [=(1)+(2)+(3)-(4)]
DOCKED: USER
DOCKED: USER    (1) Final Intermolecular Energy     =  -8.10 kcal/mol
DOCKED: USER        vdW + Hbond + desolv Energy     =  -8.10 kcal/mol
DOCKED: USER        Electrostatic Energy            =  +0.00 kcal/mol
DOCKED: USER        Moving Ligand-Fixed Receptor    =  -8.10 kcal/mol
DOCKED: USER        Moving Ligand-Moving Receptor   =  +0.00 kcal/mol
DOCKED: USER    (2) Final Total Internal Energy     =  -1.32 kcal/mol
DOCKED: USER    (3) Torsional Free Energy           =  +1.49 kcal/mol
DOCKED: USER    (4) Unbound System's Energy         =  -1.32 kcal/mol
DOCKED: USER
DOCKED: USER
DOCKED: REMARK  5 active torsions:
DOCKED: REMARK  status: ('A' for Active; 'I' for Inactive)
DOCKED: REMARK    1  A    between atoms: C_2  and  C_19 
DOCKED: REMARK    2  A    between atoms: C_2  and  C_11 
DOCKED: REMARK    3  A    between atoms: C_19  and  C_20 
DOCKED: REMARK    4  A    between atoms: C_20  and  C_21 
DOCKED: REMARK    5  A    between atoms: C_21  and  N_22 
DOCKED: USER                              x       y       z     vdW  Elec       q    Type
DOCKED: USER                           _______ _______ _______ _____ _____    ______ ____
DOCKED: ROOT
DOCKED: ATOM      1  O   UNL     1     -50.934 -35.006   7.536 -0.56 -0.00    -0.346 OA 
DOCKED: ATOM      2  C   UNL     1     -52.076 -34.117   7.752 -0.27 +0.00    +0.130 C  
DOCKED: ATOM      3  C   UNL     1     -52.665 -33.947   6.382 -0.36 +0.00    +0.004 A  
DOCKED: ATOM      4  C   UNL     1     -51.988 -34.755   5.479 -0.40 +0.00    +0.006 A  
DOCKED: ATOM      5  C   UNL     1     -50.928 -35.514   6.181 -0.11 +0.00    +0.169 C  
DOCKED: ATOM      6  C   UNL     1     -53.722 -33.149   5.969 -0.31 -0.00    -0.001 A  
DOCKED: ATOM      7  C   UNL     1     -52.338 -34.791   4.141 -0.34 +0.00    +0.008 A  
DOCKED: ATOM      8  C   UNL     1     -54.085 -33.171   4.621 -0.27 +0.00    +0.010 A  
DOCKED: ATOM      9  C   UNL     1     -53.397 -33.988   3.712 -0.46 +0.00    +0.068 A  
DOCKED: ATOM     10  N   UNL     1     -54.100 -34.009   1.218 -3.29 -0.00    -0.191 NA 
DOCKED: ATOM     11  C   UNL     1     -53.784 -33.999   2.337 -0.29 +0.00    +0.101 C  
DOCKED: ENDROOT
DOCKED: BRANCH   2  12
DOCKED: ATOM     12  C   UNL     1     -53.033 -34.789   8.730 -0.29 +0.00    +0.038 C  
DOCKED: BRANCH  12  13
DOCKED: ATOM     13  C   UNL     1     -54.435 -34.192   8.637 -0.23 +0.00    +0.038 C  
DOCKED: BRANCH  13  14
DOCKED: ATOM     14  C   UNL     1     -54.718 -33.265   9.818 -0.05 +0.00    +0.251 C  
DOCKED: BRANCH  14  15
DOCKED: ATOM     15  N   UNL     1     -54.292 -31.905   9.509 -0.04 +0.00    +0.141 N  
DOCKED: ATOM     16  C   UNL     1     -55.239 -31.263   8.596 -0.03 +0.00    +0.285 C  
DOCKED: ATOM     17  C   UNL     1     -54.156 -31.117  10.735 -0.00 +0.00    +0.285 C  
DOCKED: ENDBRANCH  14  15
DOCKED: ENDBRANCH  13  14
DOCKED: ENDBRANCH  12  13
DOCKED: ENDBRANCH   2  12
DOCKED: BRANCH   2  18
DOCKED: ATOM     18  C   UNL     1     -51.537 -32.844   8.316 -0.20 +0.00    +0.006 A  
DOCKED: ATOM     19  C   UNL     1     -51.469 -31.703   7.518 -0.22 +0.00    +0.001 A  
DOCKED: ATOM     20  C   UNL     1     -50.964 -30.514   8.046 -0.13 +0.00    +0.029 A  
DOCKED: ATOM     21  C   UNL     1     -50.529 -30.468   9.370 -0.04 +0.00    +0.140 A  
DOCKED: ATOM     22  C   UNL     1     -50.598 -31.610  10.167 -0.07 +0.00    +0.029 A  
DOCKED: ATOM     23  F   UNL     1     -50.046 -29.326   9.877 +0.00 -0.00    -0.204 F  
DOCKED: ATOM     24  C   UNL     1     -51.102 -32.800   9.640 -0.14 +0.00    +0.001 A  
DOCKED: ENDBRANCH   2  18
DOCKED: TORSDOF 5
DOCKED: TER
DOCKED: ENDMDL
________________________________________________________________________________


    FINAL DOCKED STATE:
    ________________________


Run:   484 / 512
Time taken for this run:   0.001s

DOCKED: MODEL        484
DOCKED: USER    Run = 484
DOCKED: USER
DOCKED: USER    Estimated Free Energy of Binding    =  -3.76 kcal/mol  [=(1)+(2)+(3)-(4)]
DOCKED: USER
DOCKED: USER    (1) Final Intermolecular Energy     =  -5.25 kcal/mol
DOCKED: USER        vdW + Hbond + desolv Energy     =  -5.25 kcal/mol
DOCKED: USER        Electrostatic Energy            =  +0.00 kcal/mol
DOCKED: USER        Moving Ligand-Fixed Receptor    =  -5.25 kcal/mol
DOCKED: USER        Moving Ligand-Moving Receptor   =  +0.00 kcal/mol
DOCKED: USER    (2) Final Total Internal Energy     =  -1.53 kcal/mol
DOCKED: USER    (3) Torsional Free Energy           =  +1.49 kcal/mol
DOCKED: USER    (4) Unbound System's Energy         =  -1.53 kcal/mol
DOCKED: USER
DOCKED: USER
DOCKED: REMARK  5 active torsions:
DOCKED: REMARK  status: ('A' for Active; 'I' for Inactive)
DOCKED: REMARK    1  A    between atoms: C_2  and  C_19 
DOCKED: REMARK    2  A    between atoms: C_2  and  C_11 
DOCKED: REMARK    3  A    between atoms: C_19  and  C_20 
DOCKED: REMARK    4  A    between atoms: C_20  and  C_21 
DOCKED: REMARK    5  A    between atoms: C_21  and  N_22 
DOCKED: USER                              x       y       z     vdW  Elec       q    Type
DOCKED: USER                           _______ _______ _______ _____ _____    ______ ____
DOCKED: ROOT
DOCKED: ATOM      1  O   UNL     1     -42.769 -32.039  -0.676 +0.01 -0.00    -0.346 OA 
DOCKED: ATOM      2  C   UNL     1     -43.793 -31.173  -0.090 -0.05 +0.00    +0.130 C  
DOCKED: ATOM      3  C   UNL     1     -44.492 -32.061   0.899 -0.10 +0.00    +0.004 A  
DOCKED: ATOM      4  C   UNL     1     -43.854 -33.292   0.954 -0.09 +0.00    +0.006 A  
DOCKED: ATOM      5  C   UNL     1     -42.698 -33.300   0.029 -0.03 +0.00    +0.169 C  
DOCKED: ATOM      6  C   UNL     1     -45.597 -31.796   1.694 -0.19 -0.00    -0.001 A  
DOCKED: ATOM      7  C   UNL     1     -44.298 -34.296   1.796 -0.19 +0.00    +0.008 A  
DOCKED: ATOM      8  C   UNL     1     -46.060 -32.800   2.546 -0.29 +0.00    +0.010 A  
DOCKED: ATOM      9  C   UNL     1     -45.413 -34.044   2.597 -0.28 +0.00    +0.068 A  
DOCKED: ATOM     10  N   UNL     1     -46.293 -35.885   4.193 -2.67 -0.00    -0.191 NA 
DOCKED: ATOM     11  C   UNL     1     -45.899 -35.060   3.477 -0.39 +0.00    +0.101 C  
DOCKED: ENDROOT
DOCKED: BRANCH   2  12
DOCKED: ATOM     12  C   UNL     1     -43.101 -29.984   0.566 -0.01 +0.00    +0.038 C  
DOCKED: BRANCH  12  13
DOCKED: ATOM     13  C   UNL     1     -41.741 -29.709  -0.072 -0.00 +0.00    +0.038 C  
DOCKED: BRANCH  13  14
DOCKED: ATOM     14  C   UNL     1     -41.780 -28.443  -0.925 -0.00 +0.00    +0.251 C  
DOCKED: BRANCH  14  15
DOCKED: ATOM     15  N   UNL     1     -42.444 -28.708  -2.196 -0.00 +0.00    +0.141 N  
DOCKED: ATOM     16  C   UNL     1     -42.735 -27.457  -2.898 +0.00 +0.00    +0.285 C  
DOCKED: ATOM     17  C   UNL     1     -41.620 -29.581  -3.036 +0.00 +0.00    +0.285 C  
DOCKED: ENDBRANCH  14  15
DOCKED: ENDBRANCH  13  14
DOCKED: ENDBRANCH  12  13
DOCKED: ENDBRANCH   2  12
DOCKED: BRANCH   2  18
DOCKED: ATOM     18  C   UNL     1     -44.681 -30.731  -1.205 -0.10 +0.00    +0.006 A  
DOCKED: ATOM     19  C   UNL     1     -45.376 -29.526  -1.106 -0.11 +0.00    +0.001 A  
DOCKED: ATOM     20  C   UNL     1     -46.207 -29.115  -2.149 -0.17 +0.00    +0.029 A  
DOCKED: ATOM     21  C   UNL     1     -46.341 -29.907  -3.288 -0.20 +0.00    +0.140 A  
DOCKED: ATOM     22  C   UNL     1     -45.645 -31.112  -3.386 -0.14 +0.00    +0.029 A  
DOCKED: ATOM     23  F   UNL     1     -47.136 -29.511  -4.290 -0.13 -0.00    -0.204 F  
DOCKED: ATOM     24  C   UNL     1     -44.814 -31.525  -2.343 -0.13 +0.00    +0.001 A  
DOCKED: ENDBRANCH   2  18
DOCKED: TORSDOF 5
DOCKED: TER
DOCKED: ENDMDL
________________________________________________________________________________


    FINAL DOCKED STATE:
    ________________________


Run:   485 / 512
Time taken for this run:   0.001s

DOCKED: MODEL        485
DOCKED: USER    Run = 485
DOCKED: USER
DOCKED: USER    Estimated Free Energy of Binding    =  -3.78 kcal/mol  [=(1)+(2)+(3)-(4)]
DOCKED: USER
DOCKED: USER    (1) Final Intermolecular Energy     =  -5.27 kcal/mol
DOCKED: USER        vdW + Hbond + desolv Energy     =  -5.27 kcal/mol
DOCKED: USER        Electrostatic Energy            =  +0.00 kcal/mol
DOCKED: USER        Moving Ligand-Fixed Receptor    =  -5.27 kcal/mol
DOCKED: USER        Moving Ligand-Moving Receptor   =  +0.00 kcal/mol
DOCKED: USER    (2) Final Total Internal Energy     =  -1.43 kcal/mol
DOCKED: USER    (3) Torsional Free Energy           =  +1.49 kcal/mol
DOCKED: USER    (4) Unbound System's Energy         =  -1.43 kcal/mol
DOCKED: USER
DOCKED: USER
DOCKED: REMARK  5 active torsions:
DOCKED: REMARK  status: ('A' for Active; 'I' for Inactive)
DOCKED: REMARK    1  A    between atoms: C_2  and  C_19 
DOCKED: REMARK    2  A    between atoms: C_2  and  C_11 
DOCKED: REMARK    3  A    between atoms: C_19  and  C_20 
DOCKED: REMARK    4  A    between atoms: C_20  and  C_21 
DOCKED: REMARK    5  A    between atoms: C_21  and  N_22 
DOCKED: USER                              x       y       z     vdW  Elec       q    Type
DOCKED: USER                           _______ _______ _______ _____ _____    ______ ____
DOCKED: ROOT
DOCKED: ATOM      1  O   UNL     1     -52.338 -28.730   7.306 -0.06 -0.00    -0.346 OA 
DOCKED: ATOM      2  C   UNL     1     -51.188 -29.509   7.768 -0.12 +0.00    +0.130 C  
DOCKED: ATOM      3  C   UNL     1     -51.505 -30.911   7.334 -0.21 +0.00    +0.004 A  
DOCKED: ATOM      4  C   UNL     1     -52.677 -30.916   6.592 -0.26 +0.00    +0.006 A  
DOCKED: ATOM      5  C   UNL     1     -53.204 -29.538   6.474 -0.17 +0.00    +0.169 C  
DOCKED: ATOM      6  C   UNL     1     -50.805 -32.085   7.567 -0.24 -0.00    -0.001 A  
DOCKED: ATOM      7  C   UNL     1     -53.191 -32.088   6.064 -0.30 +0.00    +0.008 A  
DOCKED: ATOM      8  C   UNL     1     -51.312 -33.277   7.045 -0.33 +0.00    +0.010 A  
DOCKED: ATOM      9  C   UNL     1     -52.499 -33.278   6.297 -0.30 +0.00    +0.068 A  
DOCKED: ATOM     10  N   UNL     1     -53.410 -35.506   5.338 -2.61 -0.00    -0.191 NA 
DOCKED: ATOM     11  C   UNL     1     -53.001 -34.506   5.769 -0.28 +0.00    +0.101 C  
DOCKED: ENDROOT
DOCKED: BRANCH   2  12
DOCKED: ATOM     12  C   UNL     1     -49.932 -28.953   7.109 -0.15 +0.00    +0.038 C  
DOCKED: BRANCH  12  13
DOCKED: ATOM     13  C   UNL     1     -50.212 -27.625   6.408 -0.12 +0.00    +0.038 C  
DOCKED: BRANCH  13  14
DOCKED: ATOM     14  C   UNL     1     -50.368 -26.492   7.420 -0.02 +0.00    +0.251 C  
DOCKED: BRANCH  14  15
DOCKED: ATOM     15  N   UNL     1     -49.285 -26.529   8.395 -0.01 +0.00    +0.141 N  
DOCKED: ATOM     16  C   UNL     1     -48.160 -25.706   7.947 -0.00 +0.00    +0.285 C  
DOCKED: ATOM     17  C   UNL     1     -49.754 -26.077   9.705 -0.00 +0.00    +0.285 C  
DOCKED: ENDBRANCH  14  15
DOCKED: ENDBRANCH  13  14
DOCKED: ENDBRANCH  12  13
DOCKED: ENDBRANCH   2  12
DOCKED: BRANCH   2  18
DOCKED: ATOM     18  C   UNL     1     -51.129 -29.359   9.252 -0.04 +0.00    +0.006 A  
DOCKED: ATOM     19  C   UNL     1     -52.280 -29.027   9.965 -0.02 +0.00    +0.001 A  
DOCKED: ATOM     20  C   UNL     1     -52.222 -28.887  11.353 -0.00 +0.00    +0.029 A  
DOCKED: ATOM     21  C   UNL     1     -51.016 -29.080  12.024 -0.00 +0.00    +0.140 A  
DOCKED: ATOM     22  C   UNL     1     -49.865 -29.412  11.310 -0.01 +0.00    +0.029 A  
DOCKED: ATOM     23  F   UNL     1     -50.962 -28.947  13.356 +0.00 -0.00    -0.204 F  
DOCKED: ATOM     24  C   UNL     1     -49.921 -29.552   9.922 -0.03 +0.00    +0.001 A  
DOCKED: ENDBRANCH   2  18
DOCKED: TORSDOF 5
DOCKED: TER
DOCKED: ENDMDL
________________________________________________________________________________


    FINAL DOCKED STATE:
    ________________________


Run:   486 / 512
Time taken for this run:   0.001s

DOCKED: MODEL        486
DOCKED: USER    Run = 486
DOCKED: USER
DOCKED: USER    Estimated Free Energy of Binding    =  -5.33 kcal/mol  [=(1)+(2)+(3)-(4)]
DOCKED: USER
DOCKED: USER    (1) Final Intermolecular Energy     =  -6.82 kcal/mol
DOCKED: USER        vdW + Hbond + desolv Energy     =  -6.82 kcal/mol
DOCKED: USER        Electrostatic Energy            =  +0.00 kcal/mol
DOCKED: USER        Moving Ligand-Fixed Receptor    =  -6.82 kcal/mol
DOCKED: USER        Moving Ligand-Moving Receptor   =  +0.00 kcal/mol
DOCKED: USER    (2) Final Total Internal Energy     =  -0.86 kcal/mol
DOCKED: USER    (3) Torsional Free Energy           =  +1.49 kcal/mol
DOCKED: USER    (4) Unbound System's Energy         =  -0.86 kcal/mol
DOCKED: USER
DOCKED: USER
DOCKED: REMARK  5 active torsions:
DOCKED: REMARK  status: ('A' for Active; 'I' for Inactive)
DOCKED: REMARK    1  A    between atoms: C_2  and  C_19 
DOCKED: REMARK    2  A    between atoms: C_2  and  C_11 
DOCKED: REMARK    3  A    between atoms: C_19  and  C_20 
DOCKED: REMARK    4  A    between atoms: C_20  and  C_21 
DOCKED: REMARK    5  A    between atoms: C_21  and  N_22 
DOCKED: USER                              x       y       z     vdW  Elec       q    Type
DOCKED: USER                           _______ _______ _______ _____ _____    ______ ____
DOCKED: ROOT
DOCKED: ATOM      1  O   UNL     1     -51.663 -32.253   8.211 -0.05 -0.00    -0.346 OA 
DOCKED: ATOM      2  C   UNL     1     -53.030 -32.769   8.301 -0.13 +0.00    +0.130 C  
DOCKED: ATOM      3  C   UNL     1     -53.412 -33.026   6.871 -0.24 +0.00    +0.004 A  
DOCKED: ATOM      4  C   UNL     1     -52.323 -32.784   6.046 -0.36 +0.00    +0.006 A  
DOCKED: ATOM      5  C   UNL     1     -51.158 -32.368   6.860 -0.23 +0.00    +0.169 C  
DOCKED: ATOM      6  C   UNL     1     -54.623 -33.451   6.345 -0.28 -0.00    -0.001 A  
DOCKED: ATOM      7  C   UNL     1     -52.406 -32.952   4.675 -0.25 +0.00    +0.008 A  
DOCKED: ATOM      8  C   UNL     1     -54.724 -33.622   4.963 -0.36 +0.00    +0.010 A  
DOCKED: ATOM      9  C   UNL     1     -53.621 -33.374   4.133 -0.36 +0.00    +0.068 A  
DOCKED: ATOM     10  N   UNL     1     -53.843 -33.705   1.573 -3.14 -0.00    -0.191 NA 
DOCKED: ATOM     11  C   UNL     1     -53.744 -33.556   2.721 -0.28 +0.00    +0.101 C  
DOCKED: ENDROOT
DOCKED: BRANCH   2  12
DOCKED: ATOM     12  C   UNL     1     -53.012 -34.037   9.147 -0.23 +0.00    +0.038 C  
DOCKED: BRANCH  12  13
DOCKED: ATOM     13  C   UNL     1     -54.352 -34.767   9.084 -0.23 +0.00    +0.038 C  
DOCKED: BRANCH  13  14
DOCKED: ATOM     14  C   UNL     1     -55.239 -34.391  10.269 -0.08 +0.00    +0.251 C  
DOCKED: BRANCH  14  15
DOCKED: ATOM     15  N   UNL     1     -55.357 -35.514  11.192 -0.13 +0.00    +0.141 N  
DOCKED: ATOM     16  C   UNL     1     -54.747 -35.188  12.482 -0.11 +0.00    +0.285 C  
DOCKED: ATOM     17  C   UNL     1     -56.760 -35.888  11.373 -0.11 +0.00    +0.285 C  
DOCKED: ENDBRANCH  14  15
DOCKED: ENDBRANCH  13  14
DOCKED: ENDBRANCH  12  13
DOCKED: ENDBRANCH   2  12
DOCKED: BRANCH   2  18
DOCKED: ATOM     18  C   UNL     1     -53.857 -31.705   8.941 -0.07 +0.00    +0.006 A  
DOCKED: ATOM     19  C   UNL     1     -53.281 -30.840   9.871 -0.04 +0.00    +0.001 A  
DOCKED: ATOM     20  C   UNL     1     -54.056 -29.846  10.469 -0.02 +0.00    +0.029 A  
DOCKED: ATOM     21  C   UNL     1     -55.404 -29.718  10.138 -0.01 +0.00    +0.140 A  
DOCKED: ATOM     22  C   UNL     1     -55.979 -30.584   9.208 -0.06 +0.00    +0.029 A  
DOCKED: ATOM     23  F   UNL     1     -56.147 -28.762  10.712 +0.01 -0.00    -0.204 F  
DOCKED: ATOM     24  C   UNL     1     -55.205 -31.579   8.609 -0.09 +0.00    +0.001 A  
DOCKED: ENDBRANCH   2  18
DOCKED: TORSDOF 5
DOCKED: TER
DOCKED: ENDMDL
________________________________________________________________________________


    FINAL DOCKED STATE:
    ________________________


Run:   487 / 512
Time taken for this run:   0.001s

DOCKED: MODEL        487
DOCKED: USER    Run = 487
DOCKED: USER
DOCKED: USER    Estimated Free Energy of Binding    =  -3.46 kcal/mol  [=(1)+(2)+(3)-(4)]
DOCKED: USER
DOCKED: USER    (1) Final Intermolecular Energy     =  -4.96 kcal/mol
DOCKED: USER        vdW + Hbond + desolv Energy     =  -4.96 kcal/mol
DOCKED: USER        Electrostatic Energy            =  +0.00 kcal/mol
DOCKED: USER        Moving Ligand-Fixed Receptor    =  -4.96 kcal/mol
DOCKED: USER        Moving Ligand-Moving Receptor   =  +0.00 kcal/mol
DOCKED: USER    (2) Final Total Internal Energy     =  -1.44 kcal/mol
DOCKED: USER    (3) Torsional Free Energy           =  +1.49 kcal/mol
DOCKED: USER    (4) Unbound System's Energy         =  -1.44 kcal/mol
DOCKED: USER
DOCKED: USER
DOCKED: REMARK  5 active torsions:
DOCKED: REMARK  status: ('A' for Active; 'I' for Inactive)
DOCKED: REMARK    1  A    between atoms: C_2  and  C_19 
DOCKED: REMARK    2  A    between atoms: C_2  and  C_11 
DOCKED: REMARK    3  A    between atoms: C_19  and  C_20 
DOCKED: REMARK    4  A    between atoms: C_20  and  C_21 
DOCKED: REMARK    5  A    between atoms: C_21  and  N_22 
DOCKED: USER                              x       y       z     vdW  Elec       q    Type
DOCKED: USER                           _______ _______ _______ _____ _____    ______ ____
DOCKED: ROOT
DOCKED: ATOM      1  O   UNL     1     -44.503 -21.114  -6.640 -0.02 -0.00    -0.346 OA 
DOCKED: ATOM      2  C   UNL     1     -44.558 -21.126  -5.177 -0.07 +0.00    +0.130 C  
DOCKED: ATOM      3  C   UNL     1     -46.007 -21.377  -4.874 -0.15 +0.00    +0.004 A  
DOCKED: ATOM      4  C   UNL     1     -46.700 -21.599  -6.055 -0.19 +0.00    +0.006 A  
DOCKED: ATOM      5  C   UNL     1     -45.770 -21.525  -7.205 -0.11 +0.00    +0.169 C  
DOCKED: ATOM      6  C   UNL     1     -46.657 -21.417  -3.649 -0.17 -0.00    -0.001 A  
DOCKED: ATOM      7  C   UNL     1     -48.059 -21.863  -6.055 -0.30 +0.00    +0.008 A  
DOCKED: ATOM      8  C   UNL     1     -48.028 -21.677  -3.632 -0.31 +0.00    +0.010 A  
DOCKED: ATOM      9  C   UNL     1     -48.725 -21.900  -4.829 -0.35 +0.00    +0.068 A  
DOCKED: ATOM     10  N   UNL     1     -51.269 -22.386  -4.762 -2.49 -0.00    -0.191 NA 
DOCKED: ATOM     11  C   UNL     1     -50.128 -22.167  -4.792 -0.36 +0.00    +0.101 C  
DOCKED: ENDROOT
DOCKED: BRANCH   2  12
DOCKED: ATOM     12  C   UNL     1     -43.644 -22.235  -4.669 -0.03 +0.00    +0.038 C  
DOCKED: BRANCH  12  13
DOCKED: ATOM     13  C   UNL     1     -43.379 -23.278  -5.753 -0.01 +0.00    +0.038 C  
DOCKED: BRANCH  13  14
DOCKED: ATOM     14  C   UNL     1     -43.893 -24.653  -5.330 +0.00 +0.00    +0.251 C  
DOCKED: BRANCH  14  15
DOCKED: ATOM     15  N   UNL     1     -45.340 -24.622  -5.157 -0.03 +0.00    +0.141 N  
DOCKED: ATOM     16  C   UNL     1     -46.017 -24.973  -6.406 -0.08 +0.00    +0.285 C  
DOCKED: ATOM     17  C   UNL     1     -45.751 -25.531  -4.085 -0.04 +0.00    +0.285 C  
DOCKED: ENDBRANCH  14  15
DOCKED: ENDBRANCH  13  14
DOCKED: ENDBRANCH  12  13
DOCKED: ENDBRANCH   2  12
DOCKED: BRANCH   2  18
DOCKED: ATOM     18  C   UNL     1     -44.090 -19.787  -4.712 -0.08 +0.00    +0.006 A  
DOCKED: ATOM     19  C   UNL     1     -44.115 -19.473  -3.354 -0.07 +0.00    +0.001 A  
DOCKED: ATOM     20  C   UNL     1     -43.678 -18.221  -2.921 -0.05 +0.00    +0.029 A  
DOCKED: ATOM     21  C   UNL     1     -43.215 -17.286  -3.845 -0.03 +0.00    +0.140 A  
DOCKED: ATOM     22  C   UNL     1     -43.189 -17.601  -5.204 -0.05 +0.00    +0.029 A  
DOCKED: ATOM     23  F   UNL     1     -42.793 -16.085  -3.429 +0.01 -0.00    -0.204 F  
DOCKED: ATOM     24  C   UNL     1     -43.627 -18.853  -5.638 +0.03 +0.00    +0.001 A  
DOCKED: ENDBRANCH   2  18
DOCKED: TORSDOF 5
DOCKED: TER
DOCKED: ENDMDL
________________________________________________________________________________


    FINAL DOCKED STATE:
    ________________________


Run:   488 / 512
Time taken for this run:   0.001s

DOCKED: MODEL        488
DOCKED: USER    Run = 488
DOCKED: USER
DOCKED: USER    Estimated Free Energy of Binding    =  -3.95 kcal/mol  [=(1)+(2)+(3)-(4)]
DOCKED: USER
DOCKED: USER    (1) Final Intermolecular Energy     =  -5.45 kcal/mol
DOCKED: USER        vdW + Hbond + desolv Energy     =  -5.45 kcal/mol
DOCKED: USER        Electrostatic Energy            =  +0.00 kcal/mol
DOCKED: USER        Moving Ligand-Fixed Receptor    =  -5.45 kcal/mol
DOCKED: USER        Moving Ligand-Moving Receptor   =  +0.00 kcal/mol
DOCKED: USER    (2) Final Total Internal Energy     =  -1.12 kcal/mol
DOCKED: USER    (3) Torsional Free Energy           =  +1.49 kcal/mol
DOCKED: USER    (4) Unbound System's Energy         =  -1.12 kcal/mol
DOCKED: USER
DOCKED: USER
DOCKED: REMARK  5 active torsions:
DOCKED: REMARK  status: ('A' for Active; 'I' for Inactive)
DOCKED: REMARK    1  A    between atoms: C_2  and  C_19 
DOCKED: REMARK    2  A    between atoms: C_2  and  C_11 
DOCKED: REMARK    3  A    between atoms: C_19  and  C_20 
DOCKED: REMARK    4  A    between atoms: C_20  and  C_21 
DOCKED: REMARK    5  A    between atoms: C_21  and  N_22 
DOCKED: USER                              x       y       z     vdW  Elec       q    Type
DOCKED: USER                           _______ _______ _______ _____ _____    ______ ____
DOCKED: ROOT
DOCKED: ATOM      1  O   UNL     1     -43.903 -30.009   0.789 +0.01 -0.00    -0.346 OA 
DOCKED: ATOM      2  C   UNL     1     -45.336 -30.115   0.512 -0.08 +0.00    +0.130 C  
DOCKED: ATOM      3  C   UNL     1     -45.745 -31.378   1.212 -0.18 +0.00    +0.004 A  
DOCKED: ATOM      4  C   UNL     1     -44.667 -31.890   1.919 -0.10 +0.00    +0.006 A  
DOCKED: ATOM      5  C   UNL     1     -43.490 -31.009   1.749 -0.02 +0.00    +0.169 C  
DOCKED: ATOM      6  C   UNL     1     -46.977 -32.017   1.231 -0.26 -0.00    -0.001 A  
DOCKED: ATOM      7  C   UNL     1     -44.779 -33.053   2.661 -0.18 +0.00    +0.008 A  
DOCKED: ATOM      8  C   UNL     1     -47.105 -33.193   1.972 -0.14 +0.00    +0.010 A  
DOCKED: ATOM      9  C   UNL     1     -46.011 -33.708   2.684 -0.30 +0.00    +0.068 A  
DOCKED: ATOM     10  N   UNL     1     -46.284 -35.891   4.052 -2.62 -0.00    -0.191 NA 
DOCKED: ATOM     11  C   UNL     1     -46.161 -34.912   3.438 -0.29 +0.00    +0.101 C  
DOCKED: ENDROOT
DOCKED: BRANCH   2  12
DOCKED: ATOM     12  C   UNL     1     -46.028 -28.876   1.069 -0.08 +0.00    +0.038 C  
DOCKED: BRANCH  12  13
DOCKED: ATOM     13  C   UNL     1     -45.278 -28.315   2.276 -0.03 +0.00    +0.038 C  
DOCKED: BRANCH  13  14
DOCKED: ATOM     14  C   UNL     1     -45.605 -29.104   3.542 -0.05 +0.00    +0.251 C  
DOCKED: BRANCH  14  15
DOCKED: ATOM     15  N   UNL     1     -46.388 -28.286   4.461 -0.05 +0.00    +0.141 N  
DOCKED: ATOM     16  C   UNL     1     -47.155 -29.131   5.379 -0.08 +0.00    +0.285 C  
DOCKED: ATOM     17  C   UNL     1     -45.518 -27.380   5.213 -0.01 +0.00    +0.285 C  
DOCKED: ENDBRANCH  14  15
DOCKED: ENDBRANCH  13  14
DOCKED: ENDBRANCH  12  13
DOCKED: ENDBRANCH   2  12
DOCKED: BRANCH   2  18
DOCKED: ATOM     18  C   UNL     1     -45.490 -30.195  -0.970 -0.13 +0.00    +0.006 A  
DOCKED: ATOM     19  C   UNL     1     -44.980 -31.292  -1.665 -0.10 +0.00    +0.001 A  
DOCKED: ATOM     20  C   UNL     1     -45.124 -31.366  -3.051 -0.15 +0.00    +0.029 A  
DOCKED: ATOM     21  C   UNL     1     -45.777 -30.345  -3.740 -0.17 +0.00    +0.140 A  
DOCKED: ATOM     22  C   UNL     1     -46.286 -29.249  -3.045 -0.20 +0.00    +0.029 A  
DOCKED: ATOM     23  F   UNL     1     -45.916 -30.418  -5.070 -0.05 -0.00    -0.204 F  
DOCKED: ATOM     24  C   UNL     1     -46.142 -29.173  -1.658 -0.16 +0.00    +0.001 A  
DOCKED: ENDBRANCH   2  18
DOCKED: TORSDOF 5
DOCKED: TER
DOCKED: ENDMDL
________________________________________________________________________________


    FINAL DOCKED STATE:
    ________________________


Run:   489 / 512
Time taken for this run:   0.001s

DOCKED: MODEL        489
DOCKED: USER    Run = 489
DOCKED: USER
DOCKED: USER    Estimated Free Energy of Binding    =  -3.86 kcal/mol  [=(1)+(2)+(3)-(4)]
DOCKED: USER
DOCKED: USER    (1) Final Intermolecular Energy     =  -5.35 kcal/mol
DOCKED: USER        vdW + Hbond + desolv Energy     =  -5.35 kcal/mol
DOCKED: USER        Electrostatic Energy            =  +0.00 kcal/mol
DOCKED: USER        Moving Ligand-Fixed Receptor    =  -5.35 kcal/mol
DOCKED: USER        Moving Ligand-Moving Receptor   =  +0.00 kcal/mol
DOCKED: USER    (2) Final Total Internal Energy     =  -1.43 kcal/mol
DOCKED: USER    (3) Torsional Free Energy           =  +1.49 kcal/mol
DOCKED: USER    (4) Unbound System's Energy         =  -1.43 kcal/mol
DOCKED: USER
DOCKED: USER
DOCKED: REMARK  5 active torsions:
DOCKED: REMARK  status: ('A' for Active; 'I' for Inactive)
DOCKED: REMARK    1  A    between atoms: C_2  and  C_19 
DOCKED: REMARK    2  A    between atoms: C_2  and  C_11 
DOCKED: REMARK    3  A    between atoms: C_19  and  C_20 
DOCKED: REMARK    4  A    between atoms: C_20  and  C_21 
DOCKED: REMARK    5  A    between atoms: C_21  and  N_22 
DOCKED: USER                              x       y       z     vdW  Elec       q    Type
DOCKED: USER                           _______ _______ _______ _____ _____    ______ ____
DOCKED: ROOT
DOCKED: ATOM      1  O   UNL     1     -50.445 -29.213   7.384 -0.05 -0.00    -0.346 OA 
DOCKED: ATOM      2  C   UNL     1     -49.779 -30.336   8.045 -0.12 +0.00    +0.130 C  
DOCKED: ATOM      3  C   UNL     1     -50.552 -31.536   7.580 -0.20 +0.00    +0.004 A  
DOCKED: ATOM      4  C   UNL     1     -51.505 -31.146   6.650 -0.27 +0.00    +0.006 A  
DOCKED: ATOM      5  C   UNL     1     -51.422 -29.685   6.427 -0.17 +0.00    +0.169 C  
DOCKED: ATOM      6  C   UNL     1     -50.415 -32.868   7.943 -0.27 -0.00    -0.001 A  
DOCKED: ATOM      7  C   UNL     1     -52.352 -32.067   6.057 -0.33 +0.00    +0.008 A  
DOCKED: ATOM      8  C   UNL     1     -51.264 -33.808   7.357 -0.35 +0.00    +0.010 A  
DOCKED: ATOM      9  C   UNL     1     -52.227 -33.409   6.418 -0.31 +0.00    +0.068 A  
DOCKED: ATOM     10  N   UNL     1     -53.785 -35.180   5.346 -2.56 -0.00    -0.191 NA 
DOCKED: ATOM     11  C   UNL     1     -53.087 -34.386   5.828 -0.36 +0.00    +0.101 C  
DOCKED: ENDROOT
DOCKED: BRANCH   2  12
DOCKED: ATOM     12  C   UNL     1     -48.321 -30.361   7.601 -0.08 +0.00    +0.038 C  
DOCKED: BRANCH  12  13
DOCKED: ATOM     13  C   UNL     1     -47.914 -29.041   6.949 -0.11 +0.00    +0.038 C  
DOCKED: BRANCH  13  14
DOCKED: ATOM     14  C   UNL     1     -47.789 -27.929   7.990 -0.02 +0.00    +0.251 C  
DOCKED: BRANCH  14  15
DOCKED: ATOM     15  N   UNL     1     -46.941 -28.361   9.094 -0.01 +0.00    +0.141 N  
DOCKED: ATOM     16  C   UNL     1     -45.535 -28.383   8.686 -0.00 +0.00    +0.285 C  
DOCKED: ATOM     17  C   UNL     1     -47.119 -27.487  10.254 -0.00 +0.00    +0.285 C  
DOCKED: ENDBRANCH  14  15
DOCKED: ENDBRANCH  13  14
DOCKED: ENDBRANCH  12  13
DOCKED: ENDBRANCH   2  12
DOCKED: BRANCH   2  18
DOCKED: ATOM     18  C   UNL     1     -49.891 -30.105   9.515 -0.05 +0.00    +0.006 A  
DOCKED: ATOM     19  C   UNL     1     -48.975 -30.696  10.384 -0.04 +0.00    +0.001 A  
DOCKED: ATOM     20  C   UNL     1     -49.081 -30.480  11.759 -0.01 +0.00    +0.029 A  
DOCKED: ATOM     21  C   UNL     1     -50.101 -29.674  12.261 -0.00 +0.00    +0.140 A  
DOCKED: ATOM     22  C   UNL     1     -51.017 -29.084  11.391 -0.00 +0.00    +0.029 A  
DOCKED: ATOM     23  F   UNL     1     -50.202 -29.465  13.581 +0.00 -0.00    -0.204 F  
DOCKED: ATOM     24  C   UNL     1     -50.912 -29.299  10.016 -0.02 +0.00    +0.001 A  
DOCKED: ENDBRANCH   2  18
DOCKED: TORSDOF 5
DOCKED: TER
DOCKED: ENDMDL
________________________________________________________________________________


    FINAL DOCKED STATE:
    ________________________


Run:   490 / 512
Time taken for this run:   0.001s

DOCKED: MODEL        490
DOCKED: USER    Run = 490
DOCKED: USER
DOCKED: USER    Estimated Free Energy of Binding    =  -3.53 kcal/mol  [=(1)+(2)+(3)-(4)]
DOCKED: USER
DOCKED: USER    (1) Final Intermolecular Energy     =  -5.02 kcal/mol
DOCKED: USER        vdW + Hbond + desolv Energy     =  -5.02 kcal/mol
DOCKED: USER        Electrostatic Energy            =  +0.00 kcal/mol
DOCKED: USER        Moving Ligand-Fixed Receptor    =  -5.02 kcal/mol
DOCKED: USER        Moving Ligand-Moving Receptor   =  +0.00 kcal/mol
DOCKED: USER    (2) Final Total Internal Energy     =  -1.43 kcal/mol
DOCKED: USER    (3) Torsional Free Energy           =  +1.49 kcal/mol
DOCKED: USER    (4) Unbound System's Energy         =  -1.43 kcal/mol
DOCKED: USER
DOCKED: USER
DOCKED: REMARK  5 active torsions:
DOCKED: REMARK  status: ('A' for Active; 'I' for Inactive)
DOCKED: REMARK    1  A    between atoms: C_2  and  C_19 
DOCKED: REMARK    2  A    between atoms: C_2  and  C_11 
DOCKED: REMARK    3  A    between atoms: C_19  and  C_20 
DOCKED: REMARK    4  A    between atoms: C_20  and  C_21 
DOCKED: REMARK    5  A    between atoms: C_21  and  N_22 
DOCKED: USER                              x       y       z     vdW  Elec       q    Type
DOCKED: USER                           _______ _______ _______ _____ _____    ______ ____
DOCKED: ROOT
DOCKED: ATOM      1  O   UNL     1     -51.009 -32.173  11.189 -0.01 -0.00    -0.346 OA 
DOCKED: ATOM      2  C   UNL     1     -50.267 -31.651  10.041 -0.07 +0.00    +0.130 C  
DOCKED: ATOM      3  C   UNL     1     -50.898 -32.335   8.863 -0.16 +0.00    +0.004 A  
DOCKED: ATOM      4  C   UNL     1     -51.978 -33.096   9.288 -0.15 +0.00    +0.006 A  
DOCKED: ATOM      5  C   UNL     1     -52.142 -32.960  10.753 -0.08 +0.00    +0.169 C  
DOCKED: ATOM      6  C   UNL     1     -50.551 -32.280   7.521 -0.22 -0.00    -0.001 A  
DOCKED: ATOM      7  C   UNL     1     -52.741 -33.827   8.394 -0.22 +0.00    +0.008 A  
DOCKED: ATOM      8  C   UNL     1     -51.308 -33.015   6.607 -0.30 +0.00    +0.010 A  
DOCKED: ATOM      9  C   UNL     1     -52.398 -33.784   7.042 -0.27 +0.00    +0.068 A  
DOCKED: ATOM     10  N   UNL     1     -53.786 -35.132   5.319 -2.53 -0.00    -0.191 NA 
DOCKED: ATOM     11  C   UNL     1     -53.163 -34.528   6.092 -0.07 +0.00    +0.101 C  
DOCKED: ENDROOT
DOCKED: BRANCH   2  12
DOCKED: ATOM     12  C   UNL     1     -50.434 -30.136  10.006 -0.04 +0.00    +0.038 C  
DOCKED: BRANCH  12  13
DOCKED: ATOM     13  C   UNL     1     -51.907 -29.740   9.925 -0.03 +0.00    +0.038 C  
DOCKED: BRANCH  13  14
DOCKED: ATOM     14  C   UNL     1     -52.267 -29.249   8.524 -0.04 +0.00    +0.251 C  
DOCKED: BRANCH  14  15
DOCKED: ATOM     15  N   UNL     1     -53.630 -29.641   8.184 -0.07 +0.00    +0.141 N  
DOCKED: ATOM     16  C   UNL     1     -53.653 -30.385   6.923 -0.15 +0.00    +0.285 C  
DOCKED: ATOM     17  C   UNL     1     -54.218 -30.444   9.257 -0.01 +0.00    +0.285 C  
DOCKED: ENDBRANCH  14  15
DOCKED: ENDBRANCH  13  14
DOCKED: ENDBRANCH  12  13
DOCKED: ENDBRANCH   2  12
DOCKED: BRANCH   2  18
DOCKED: ATOM     18  C   UNL     1     -48.837 -32.030  10.237 -0.10 +0.00    +0.006 A  
DOCKED: ATOM     19  C   UNL     1     -47.933 -31.909   9.182 -0.14 +0.00    +0.001 A  
DOCKED: ATOM     20  C   UNL     1     -46.596 -32.264   9.367 -0.12 +0.00    +0.029 A  
DOCKED: ATOM     21  C   UNL     1     -46.166 -32.740  10.604 -0.06 +0.00    +0.140 A  
DOCKED: ATOM     22  C   UNL     1     -47.071 -32.861  11.659 -0.08 +0.00    +0.029 A  
DOCKED: ATOM     23  F   UNL     1     -44.883 -33.080  10.782 -0.00 -0.00    -0.204 F  
DOCKED: ATOM     24  C   UNL     1     -48.408 -32.506  11.475 -0.08 +0.00    +0.001 A  
DOCKED: ENDBRANCH   2  18
DOCKED: TORSDOF 5
DOCKED: TER
DOCKED: ENDMDL
________________________________________________________________________________


    FINAL DOCKED STATE:
    ________________________


Run:   491 / 512
Time taken for this run:   0.001s

DOCKED: MODEL        491
DOCKED: USER    Run = 491
DOCKED: USER
DOCKED: USER    Estimated Free Energy of Binding    =  -3.59 kcal/mol  [=(1)+(2)+(3)-(4)]
DOCKED: USER
DOCKED: USER    (1) Final Intermolecular Energy     =  -5.08 kcal/mol
DOCKED: USER        vdW + Hbond + desolv Energy     =  -5.08 kcal/mol
DOCKED: USER        Electrostatic Energy            =  +0.00 kcal/mol
DOCKED: USER        Moving Ligand-Fixed Receptor    =  -5.08 kcal/mol
DOCKED: USER        Moving Ligand-Moving Receptor   =  +0.00 kcal/mol
DOCKED: USER    (2) Final Total Internal Energy     =  -1.47 kcal/mol
DOCKED: USER    (3) Torsional Free Energy           =  +1.49 kcal/mol
DOCKED: USER    (4) Unbound System's Energy         =  -1.47 kcal/mol
DOCKED: USER
DOCKED: USER
DOCKED: REMARK  5 active torsions:
DOCKED: REMARK  status: ('A' for Active; 'I' for Inactive)
DOCKED: REMARK    1  A    between atoms: C_2  and  C_19 
DOCKED: REMARK    2  A    between atoms: C_2  and  C_11 
DOCKED: REMARK    3  A    between atoms: C_19  and  C_20 
DOCKED: REMARK    4  A    between atoms: C_20  and  C_21 
DOCKED: REMARK    5  A    between atoms: C_21  and  N_22 
DOCKED: USER                              x       y       z     vdW  Elec       q    Type
DOCKED: USER                           _______ _______ _______ _____ _____    ______ ____
DOCKED: ROOT
DOCKED: ATOM      1  O   UNL     1     -50.516 -29.121   7.190 -0.06 -0.00    -0.346 OA 
DOCKED: ATOM      2  C   UNL     1     -50.123 -30.137   8.167 -0.11 +0.00    +0.130 C  
DOCKED: ATOM      3  C   UNL     1     -50.855 -31.369   7.719 -0.20 +0.00    +0.004 A  
DOCKED: ATOM      4  C   UNL     1     -51.519 -31.110   6.528 -0.27 +0.00    +0.006 A  
DOCKED: ATOM      5  C   UNL     1     -51.266 -29.714   6.105 -0.06 +0.00    +0.169 C  
DOCKED: ATOM      6  C   UNL     1     -50.918 -32.622   8.311 -0.22 -0.00    -0.001 A  
DOCKED: ATOM      7  C   UNL     1     -52.268 -32.086   5.894 -0.34 +0.00    +0.008 A  
DOCKED: ATOM      8  C   UNL     1     -51.673 -33.616   7.686 -0.30 +0.00    +0.010 A  
DOCKED: ATOM      9  C   UNL     1     -52.344 -33.349   6.483 -0.30 +0.00    +0.068 A  
DOCKED: ATOM     10  N   UNL     1     -53.733 -35.218   5.346 -2.55 -0.00    -0.191 NA 
DOCKED: ATOM     11  C   UNL     1     -53.111 -34.379   5.857 -0.35 +0.00    +0.101 C  
DOCKED: ENDROOT
DOCKED: BRANCH   2  12
DOCKED: ATOM     12  C   UNL     1     -48.608 -30.295   8.117 -0.13 +0.00    +0.038 C  
DOCKED: BRANCH  12  13
DOCKED: ATOM     13  C   UNL     1     -47.900 -29.027   8.589 -0.05 +0.00    +0.038 C  
DOCKED: BRANCH  13  14
DOCKED: ATOM     14  C   UNL     1     -48.023 -27.911   7.553 -0.03 +0.00    +0.251 C  
DOCKED: BRANCH  14  15
DOCKED: ATOM     15  N   UNL     1     -48.853 -26.829   8.069 -0.01 +0.00    +0.141 N  
DOCKED: ATOM     16  C   UNL     1     -48.205 -26.181   9.211 -0.00 +0.00    +0.285 C  
DOCKED: ATOM     17  C   UNL     1     -49.132 -25.847   7.020 -0.01 +0.00    +0.285 C  
DOCKED: ENDBRANCH  14  15
DOCKED: ENDBRANCH  13  14
DOCKED: ENDBRANCH  12  13
DOCKED: ENDBRANCH   2  12
DOCKED: BRANCH   2  18
DOCKED: ATOM     18  C   UNL     1     -50.569 -29.651   9.506 -0.03 +0.00    +0.006 A  
DOCKED: ATOM     19  C   UNL     1     -51.302 -28.469   9.609 -0.02 +0.00    +0.001 A  
DOCKED: ATOM     20  C   UNL     1     -51.719 -28.016  10.862 -0.00 +0.00    +0.029 A  
DOCKED: ATOM     21  C   UNL     1     -51.402 -28.744  12.008 -0.00 +0.00    +0.140 A  
DOCKED: ATOM     22  C   UNL     1     -50.669 -29.926  11.903 -0.00 +0.00    +0.029 A  
DOCKED: ATOM     23  F   UNL     1     -51.803 -28.309  13.209 +0.00 -0.00    -0.204 F  
DOCKED: ATOM     24  C   UNL     1     -50.252 -30.380  10.651 -0.03 +0.00    +0.001 A  
DOCKED: ENDBRANCH   2  18
DOCKED: TORSDOF 5
DOCKED: TER
DOCKED: ENDMDL
________________________________________________________________________________


    FINAL DOCKED STATE:
    ________________________


Run:   492 / 512
Time taken for this run:   0.001s

DOCKED: MODEL        492
DOCKED: USER    Run = 492
DOCKED: USER
DOCKED: USER    Estimated Free Energy of Binding    =  -4.19 kcal/mol  [=(1)+(2)+(3)-(4)]
DOCKED: USER
DOCKED: USER    (1) Final Intermolecular Energy     =  -5.68 kcal/mol
DOCKED: USER        vdW + Hbond + desolv Energy     =  -5.68 kcal/mol
DOCKED: USER        Electrostatic Energy            =  +0.00 kcal/mol
DOCKED: USER        Moving Ligand-Fixed Receptor    =  -5.68 kcal/mol
DOCKED: USER        Moving Ligand-Moving Receptor   =  +0.00 kcal/mol
DOCKED: USER    (2) Final Total Internal Energy     =  -1.25 kcal/mol
DOCKED: USER    (3) Torsional Free Energy           =  +1.49 kcal/mol
DOCKED: USER    (4) Unbound System's Energy         =  -1.25 kcal/mol
DOCKED: USER
DOCKED: USER
DOCKED: REMARK  5 active torsions:
DOCKED: REMARK  status: ('A' for Active; 'I' for Inactive)
DOCKED: REMARK    1  A    between atoms: C_2  and  C_19 
DOCKED: REMARK    2  A    between atoms: C_2  and  C_11 
DOCKED: REMARK    3  A    between atoms: C_19  and  C_20 
DOCKED: REMARK    4  A    between atoms: C_20  and  C_21 
DOCKED: REMARK    5  A    between atoms: C_21  and  N_22 
DOCKED: USER                              x       y       z     vdW  Elec       q    Type
DOCKED: USER                           _______ _______ _______ _____ _____    ______ ____
DOCKED: ROOT
DOCKED: ATOM      1  O   UNL     1     -49.288 -25.574   0.811 -0.07 -0.00    -0.346 OA 
DOCKED: ATOM      2  C   UNL     1     -48.023 -25.069   0.276 -0.15 +0.00    +0.130 C  
DOCKED: ATOM      3  C   UNL     1     -48.426 -24.344  -0.976 -0.23 +0.00    +0.004 A  
DOCKED: ATOM      4  C   UNL     1     -49.809 -24.340  -1.088 -0.28 +0.00    +0.006 A  
DOCKED: ATOM      5  C   UNL     1     -50.409 -25.039   0.070 -0.21 +0.00    +0.169 C  
DOCKED: ATOM      6  C   UNL     1     -47.632 -23.728  -1.932 -0.19 -0.00    -0.001 A  
DOCKED: ATOM      7  C   UNL     1     -50.443 -23.727  -2.155 -0.27 +0.00    +0.008 A  
DOCKED: ATOM      8  C   UNL     1     -48.257 -23.110  -3.017 -0.26 +0.00    +0.010 A  
DOCKED: ATOM      9  C   UNL     1     -49.655 -23.109  -3.127 -0.31 +0.00    +0.068 A  
DOCKED: ATOM     10  N   UNL     1     -50.782 -21.948  -5.151 -2.51 -0.00    -0.191 NA 
DOCKED: ATOM     11  C   UNL     1     -50.277 -22.469  -4.243 -0.37 +0.00    +0.101 C  
DOCKED: ENDROOT
DOCKED: BRANCH   2  12
DOCKED: ATOM     12  C   UNL     1     -47.391 -24.152   1.316 -0.15 +0.00    +0.038 C  
DOCKED: BRANCH  12  13
DOCKED: ATOM     13  C   UNL     1     -48.418 -23.691   2.349 -0.05 +0.00    +0.038 C  
DOCKED: BRANCH  13  14
DOCKED: ATOM     14  C   UNL     1     -48.183 -24.371   3.697 -0.10 +0.00    +0.251 C  
DOCKED: BRANCH  14  15
DOCKED: ATOM     15  N   UNL     1     -47.548 -25.670   3.506 -0.04 +0.00    +0.141 N  
DOCKED: ATOM     16  C   UNL     1     -46.093 -25.553   3.608 -0.02 +0.00    +0.285 C  
DOCKED: ATOM     17  C   UNL     1     -48.049 -26.637   4.484 -0.04 +0.00    +0.285 C  
DOCKED: ENDBRANCH  14  15
DOCKED: ENDBRANCH  13  14
DOCKED: ENDBRANCH  12  13
DOCKED: ENDBRANCH   2  12
DOCKED: BRANCH   2  18
DOCKED: ATOM     18  C   UNL     1     -47.158 -26.255   0.008 -0.08 +0.00    +0.006 A  
DOCKED: ATOM     19  C   UNL     1     -47.626 -27.537   0.292 -0.13 +0.00    +0.001 A  
DOCKED: ATOM     20  C   UNL     1     -46.816 -28.646   0.042 -0.14 +0.00    +0.029 A  
DOCKED: ATOM     21  C   UNL     1     -45.541 -28.470  -0.493 -0.04 +0.00    +0.140 A  
DOCKED: ATOM     22  C   UNL     1     -45.073 -27.188  -0.778 -0.01 +0.00    +0.029 A  
DOCKED: ATOM     23  F   UNL     1     -44.764 -29.534  -0.735 -0.01 -0.00    -0.204 F  
DOCKED: ATOM     24  C   UNL     1     -45.882 -26.078  -0.527 -0.03 +0.00    +0.001 A  
DOCKED: ENDBRANCH   2  18
DOCKED: TORSDOF 5
DOCKED: TER
DOCKED: ENDMDL
________________________________________________________________________________


    FINAL DOCKED STATE:
    ________________________


Run:   493 / 512
Time taken for this run:   0.001s

DOCKED: MODEL        493
DOCKED: USER    Run = 493
DOCKED: USER
DOCKED: USER    Estimated Free Energy of Binding    =  -3.80 kcal/mol  [=(1)+(2)+(3)-(4)]
DOCKED: USER
DOCKED: USER    (1) Final Intermolecular Energy     =  -5.29 kcal/mol
DOCKED: USER        vdW + Hbond + desolv Energy     =  -5.29 kcal/mol
DOCKED: USER        Electrostatic Energy            =  +0.00 kcal/mol
DOCKED: USER        Moving Ligand-Fixed Receptor    =  -5.29 kcal/mol
DOCKED: USER        Moving Ligand-Moving Receptor   =  +0.00 kcal/mol
DOCKED: USER    (2) Final Total Internal Energy     =  -1.28 kcal/mol
DOCKED: USER    (3) Torsional Free Energy           =  +1.49 kcal/mol
DOCKED: USER    (4) Unbound System's Energy         =  -1.28 kcal/mol
DOCKED: USER
DOCKED: USER
DOCKED: REMARK  5 active torsions:
DOCKED: REMARK  status: ('A' for Active; 'I' for Inactive)
DOCKED: REMARK    1  A    between atoms: C_2  and  C_19 
DOCKED: REMARK    2  A    between atoms: C_2  and  C_11 
DOCKED: REMARK    3  A    between atoms: C_19  and  C_20 
DOCKED: REMARK    4  A    between atoms: C_20  and  C_21 
DOCKED: REMARK    5  A    between atoms: C_21  and  N_22 
DOCKED: USER                              x       y       z     vdW  Elec       q    Type
DOCKED: USER                           _______ _______ _______ _____ _____    ______ ____
DOCKED: ROOT
DOCKED: ATOM      1  O   UNL     1     -51.189 -29.044   7.418 -0.05 -0.00    -0.346 OA 
DOCKED: ATOM      2  C   UNL     1     -52.456 -29.286   8.109 -0.09 +0.00    +0.130 C  
DOCKED: ATOM      3  C   UNL     1     -52.891 -30.630   7.602 -0.17 +0.00    +0.004 A  
DOCKED: ATOM      4  C   UNL     1     -51.907 -31.160   6.779 -0.27 +0.00    +0.006 A  
DOCKED: ATOM      5  C   UNL     1     -50.764 -30.223   6.696 -0.18 +0.00    +0.169 C  
DOCKED: ATOM      6  C   UNL     1     -54.059 -31.334   7.858 -0.14 -0.00    -0.001 A  
DOCKED: ATOM      7  C   UNL     1     -52.057 -32.401   6.184 -0.34 +0.00    +0.008 A  
DOCKED: ATOM      8  C   UNL     1     -54.227 -32.584   7.261 -0.19 +0.00    +0.010 A  
DOCKED: ATOM      9  C   UNL     1     -53.230 -33.115   6.429 -0.25 +0.00    +0.068 A  
DOCKED: ATOM     10  N   UNL     1     -53.571 -35.442   5.341 -2.56 -0.00    -0.191 NA 
DOCKED: ATOM     11  C   UNL     1     -53.419 -34.398   5.828 -0.34 +0.00    +0.101 C  
DOCKED: ENDROOT
DOCKED: BRANCH   2  12
DOCKED: ATOM     12  C   UNL     1     -52.196 -29.273   9.611 -0.03 +0.00    +0.038 C  
DOCKED: BRANCH  12  13
DOCKED: ATOM     13  C   UNL     1     -51.099 -28.277   9.978 -0.01 +0.00    +0.038 C  
DOCKED: BRANCH  13  14
DOCKED: ATOM     14  C   UNL     1     -49.727 -28.950   9.990 -0.01 +0.00    +0.251 C  
DOCKED: BRANCH  14  15
DOCKED: ATOM     15  N   UNL     1     -48.685 -27.983   9.666 -0.01 +0.00    +0.141 N  
DOCKED: ATOM     16  C   UNL     1     -47.361 -28.600   9.760 -0.01 +0.00    +0.285 C  
DOCKED: ATOM     17  C   UNL     1     -48.893 -27.429   8.327 -0.01 +0.00    +0.285 C  
DOCKED: ENDBRANCH  14  15
DOCKED: ENDBRANCH  13  14
DOCKED: ENDBRANCH  12  13
DOCKED: ENDBRANCH   2  12
DOCKED: BRANCH   2  18
DOCKED: ATOM     18  C   UNL     1     -53.385 -28.187   7.714 -0.12 +0.00    +0.006 A  
DOCKED: ATOM     19  C   UNL     1     -53.501 -27.820   6.374 -0.19 +0.00    +0.001 A  
DOCKED: ATOM     20  C   UNL     1     -54.370 -26.792   6.007 -0.15 +0.00    +0.029 A  
DOCKED: ATOM     21  C   UNL     1     -55.122 -26.134   6.978 -0.08 +0.00    +0.140 A  
DOCKED: ATOM     22  C   UNL     1     -55.006 -26.502   8.318 -0.05 +0.00    +0.029 A  
DOCKED: ATOM     23  F   UNL     1     -55.958 -25.148   6.625 +0.00 -0.00    -0.204 F  
DOCKED: ATOM     24  C   UNL     1     -54.137 -27.529   8.687 -0.05 +0.00    +0.001 A  
DOCKED: ENDBRANCH   2  18
DOCKED: TORSDOF 5
DOCKED: TER
DOCKED: ENDMDL
________________________________________________________________________________


    FINAL DOCKED STATE:
    ________________________


Run:   494 / 512
Time taken for this run:   0.001s

DOCKED: MODEL        494
DOCKED: USER    Run = 494
DOCKED: USER
DOCKED: USER    Estimated Free Energy of Binding    =  -5.87 kcal/mol  [=(1)+(2)+(3)-(4)]
DOCKED: USER
DOCKED: USER    (1) Final Intermolecular Energy     =  -7.36 kcal/mol
DOCKED: USER        vdW + Hbond + desolv Energy     =  -7.36 kcal/mol
DOCKED: USER        Electrostatic Energy            =  +0.00 kcal/mol
DOCKED: USER        Moving Ligand-Fixed Receptor    =  -7.36 kcal/mol
DOCKED: USER        Moving Ligand-Moving Receptor   =  +0.00 kcal/mol
DOCKED: USER    (2) Final Total Internal Energy     =  -1.17 kcal/mol
DOCKED: USER    (3) Torsional Free Energy           =  +1.49 kcal/mol
DOCKED: USER    (4) Unbound System's Energy         =  -1.17 kcal/mol
DOCKED: USER
DOCKED: USER
DOCKED: REMARK  5 active torsions:
DOCKED: REMARK  status: ('A' for Active; 'I' for Inactive)
DOCKED: REMARK    1  A    between atoms: C_2  and  C_19 
DOCKED: REMARK    2  A    between atoms: C_2  and  C_11 
DOCKED: REMARK    3  A    between atoms: C_19  and  C_20 
DOCKED: REMARK    4  A    between atoms: C_20  and  C_21 
DOCKED: REMARK    5  A    between atoms: C_21  and  N_22 
DOCKED: USER                              x       y       z     vdW  Elec       q    Type
DOCKED: USER                           _______ _______ _______ _____ _____    ______ ____
DOCKED: ROOT
DOCKED: ATOM      1  O   UNL     1     -51.733 -31.655   7.586 -0.07 -0.00    -0.346 OA 
DOCKED: ATOM      2  C   UNL     1     -52.288 -32.993   7.789 -0.19 +0.00    +0.130 C  
DOCKED: ATOM      3  C   UNL     1     -52.767 -33.395   6.424 -0.33 +0.00    +0.004 A  
DOCKED: ATOM      4  C   UNL     1     -52.418 -32.419   5.501 -0.35 +0.00    +0.006 A  
DOCKED: ATOM      5  C   UNL     1     -51.683 -31.327   6.178 -0.22 +0.00    +0.169 C  
DOCKED: ATOM      6  C   UNL     1     -53.448 -34.537   6.029 -0.20 -0.00    -0.001 A  
DOCKED: ATOM      7  C   UNL     1     -52.738 -32.548   4.160 -0.20 +0.00    +0.008 A  
DOCKED: ATOM      8  C   UNL     1     -53.782 -34.680   4.681 -0.44 +0.00    +0.010 A  
DOCKED: ATOM      9  C   UNL     1     -53.428 -33.690   3.752 -0.44 +0.00    +0.068 A  
DOCKED: ATOM     10  N   UNL     1     -54.059 -33.988   1.257 -3.24 -0.00    -0.191 NA 
DOCKED: ATOM     11  C   UNL     1     -53.777 -33.854   2.376 -0.28 +0.00    +0.101 C  
DOCKED: ENDROOT
DOCKED: BRANCH   2  12
DOCKED: ATOM     12  C   UNL     1     -51.182 -33.899   8.320 -0.28 +0.00    +0.038 C  
DOCKED: BRANCH  12  13
DOCKED: ATOM     13  C   UNL     1     -51.006 -33.737   9.828 -0.13 +0.00    +0.038 C  
DOCKED: BRANCH  13  14
DOCKED: ATOM     14  C   UNL     1     -51.535 -34.959  10.577 -0.14 +0.00    +0.251 C  
DOCKED: BRANCH  14  15
DOCKED: ATOM     15  N   UNL     1     -51.386 -34.776  12.016 -0.18 +0.00    +0.141 N  
DOCKED: ATOM     16  C   UNL     1     -51.079 -33.379  12.329 -0.05 +0.00    +0.285 C  
DOCKED: ATOM     17  C   UNL     1     -52.599 -35.199  12.718 -0.11 +0.00    +0.285 C  
DOCKED: ENDBRANCH  14  15
DOCKED: ENDBRANCH  13  14
DOCKED: ENDBRANCH  12  13
DOCKED: ENDBRANCH   2  12
DOCKED: BRANCH   2  18
DOCKED: ATOM     18  C   UNL     1     -53.396 -32.860   8.779 -0.12 +0.00    +0.006 A  
DOCKED: ATOM     19  C   UNL     1     -54.387 -33.839   8.852 -0.18 +0.00    +0.001 A  
DOCKED: ATOM     20  C   UNL     1     -55.423 -33.713   9.778 -0.11 +0.00    +0.029 A  
DOCKED: ATOM     21  C   UNL     1     -55.467 -32.611  10.629 -0.02 +0.00    +0.140 A  
DOCKED: ATOM     22  C   UNL     1     -54.476 -31.632  10.556 -0.03 +0.00    +0.029 A  
DOCKED: ATOM     23  F   UNL     1     -56.461 -32.491  11.519 +0.01 -0.00    -0.204 F  
DOCKED: ATOM     24  C   UNL     1     -53.439 -31.757   9.630 -0.06 +0.00    +0.001 A  
DOCKED: ENDBRANCH   2  18
DOCKED: TORSDOF 5
DOCKED: TER
DOCKED: ENDMDL
________________________________________________________________________________


    FINAL DOCKED STATE:
    ________________________


Run:   495 / 512
Time taken for this run:   0.001s

DOCKED: MODEL        495
DOCKED: USER    Run = 495
DOCKED: USER
DOCKED: USER    Estimated Free Energy of Binding    =  -4.58 kcal/mol  [=(1)+(2)+(3)-(4)]
DOCKED: USER
DOCKED: USER    (1) Final Intermolecular Energy     =  -6.08 kcal/mol
DOCKED: USER        vdW + Hbond + desolv Energy     =  -6.08 kcal/mol
DOCKED: USER        Electrostatic Energy            =  +0.00 kcal/mol
DOCKED: USER        Moving Ligand-Fixed Receptor    =  -6.08 kcal/mol
DOCKED: USER        Moving Ligand-Moving Receptor   =  +0.00 kcal/mol
DOCKED: USER    (2) Final Total Internal Energy     =  -1.47 kcal/mol
DOCKED: USER    (3) Torsional Free Energy           =  +1.49 kcal/mol
DOCKED: USER    (4) Unbound System's Energy         =  -1.47 kcal/mol
DOCKED: USER
DOCKED: USER
DOCKED: REMARK  5 active torsions:
DOCKED: REMARK  status: ('A' for Active; 'I' for Inactive)
DOCKED: REMARK    1  A    between atoms: C_2  and  C_19 
DOCKED: REMARK    2  A    between atoms: C_2  and  C_11 
DOCKED: REMARK    3  A    between atoms: C_19  and  C_20 
DOCKED: REMARK    4  A    between atoms: C_20  and  C_21 
DOCKED: REMARK    5  A    between atoms: C_21  and  N_22 
DOCKED: USER                              x       y       z     vdW  Elec       q    Type
DOCKED: USER                           _______ _______ _______ _____ _____    ______ ____
DOCKED: ROOT
DOCKED: ATOM      1  O   UNL     1     -51.331 -28.913   7.064 -0.06 -0.00    -0.346 OA 
DOCKED: ATOM      2  C   UNL     1     -52.693 -29.084   7.573 -0.14 +0.00    +0.130 C  
DOCKED: ATOM      3  C   UNL     1     -53.062 -30.476   7.150 -0.21 +0.00    +0.004 A  
DOCKED: ATOM      4  C   UNL     1     -51.971 -31.087   6.549 -0.28 +0.00    +0.006 A  
DOCKED: ATOM      5  C   UNL     1     -50.816 -30.161   6.544 -0.18 +0.00    +0.169 C  
DOCKED: ATOM      6  C   UNL     1     -54.265 -31.152   7.295 -0.20 -0.00    -0.001 A  
DOCKED: ATOM      7  C   UNL     1     -52.044 -32.384   6.071 -0.34 +0.00    +0.008 A  
DOCKED: ATOM      8  C   UNL     1     -54.356 -32.460   6.814 -0.22 +0.00    +0.010 A  
DOCKED: ATOM      9  C   UNL     1     -53.250 -33.072   6.205 -0.26 +0.00    +0.068 A  
DOCKED: ATOM     10  N   UNL     1     -53.451 -35.502   5.328 -2.60 -0.00    -0.191 NA 
DOCKED: ATOM     11  C   UNL     1     -53.361 -34.412   5.721 -0.36 +0.00    +0.101 C  
DOCKED: ENDROOT
DOCKED: BRANCH   2  12
DOCKED: ATOM     12  C   UNL     1     -52.667 -28.912   9.088 -0.04 +0.00    +0.038 C  
DOCKED: BRANCH  12  13
DOCKED: ATOM     13  C   UNL     1     -51.425 -29.557   9.700 -0.03 +0.00    +0.038 C  
DOCKED: BRANCH  13  14
DOCKED: ATOM     14  C   UNL     1     -51.800 -30.756  10.569 -0.01 +0.00    +0.251 C  
DOCKED: BRANCH  14  15
DOCKED: ATOM     15  N   UNL     1     -52.177 -31.889   9.734 -0.04 +0.00    +0.141 N  
DOCKED: ATOM     16  C   UNL     1     -51.017 -32.740   9.464 -0.08 +0.00    +0.285 C  
DOCKED: ATOM     17  C   UNL     1     -53.240 -32.668  10.371 -0.03 +0.00    +0.285 C  
DOCKED: ENDBRANCH  14  15
DOCKED: ENDBRANCH  13  14
DOCKED: ENDBRANCH  12  13
DOCKED: ENDBRANCH   2  12
DOCKED: BRANCH   2  18
DOCKED: ATOM     18  C   UNL     1     -53.535 -28.036   6.927 -0.19 +0.00    +0.006 A  
DOCKED: ATOM     19  C   UNL     1     -52.967 -27.152   6.011 -0.16 +0.00    +0.001 A  
DOCKED: ATOM     20  C   UNL     1     -53.756 -26.172   5.408 -0.12 +0.00    +0.029 A  
DOCKED: ATOM     21  C   UNL     1     -55.112 -26.079   5.720 -0.11 +0.00    +0.140 A  
DOCKED: ATOM     22  C   UNL     1     -55.680 -26.964   6.636 -0.18 +0.00    +0.029 A  
DOCKED: ATOM     23  F   UNL     1     -55.869 -25.139   5.139 -0.03 -0.00    -0.204 F  
DOCKED: ATOM     24  C   UNL     1     -54.891 -27.944   7.240 -0.19 +0.00    +0.001 A  
DOCKED: ENDBRANCH   2  18
DOCKED: TORSDOF 5
DOCKED: TER
DOCKED: ENDMDL
________________________________________________________________________________


    FINAL DOCKED STATE:
    ________________________


Run:   496 / 512
Time taken for this run:   0.001s

DOCKED: MODEL        496
DOCKED: USER    Run = 496
DOCKED: USER
DOCKED: USER    Estimated Free Energy of Binding    =  -5.97 kcal/mol  [=(1)+(2)+(3)-(4)]
DOCKED: USER
DOCKED: USER    (1) Final Intermolecular Energy     =  -7.46 kcal/mol
DOCKED: USER        vdW + Hbond + desolv Energy     =  -7.46 kcal/mol
DOCKED: USER        Electrostatic Energy            =  +0.00 kcal/mol
DOCKED: USER        Moving Ligand-Fixed Receptor    =  -7.46 kcal/mol
DOCKED: USER        Moving Ligand-Moving Receptor   =  +0.00 kcal/mol
DOCKED: USER    (2) Final Total Internal Energy     =  -1.07 kcal/mol
DOCKED: USER    (3) Torsional Free Energy           =  +1.49 kcal/mol
DOCKED: USER    (4) Unbound System's Energy         =  -1.07 kcal/mol
DOCKED: USER
DOCKED: USER
DOCKED: REMARK  5 active torsions:
DOCKED: REMARK  status: ('A' for Active; 'I' for Inactive)
DOCKED: REMARK    1  A    between atoms: C_2  and  C_19 
DOCKED: REMARK    2  A    between atoms: C_2  and  C_11 
DOCKED: REMARK    3  A    between atoms: C_19  and  C_20 
DOCKED: REMARK    4  A    between atoms: C_20  and  C_21 
DOCKED: REMARK    5  A    between atoms: C_21  and  N_22 
DOCKED: USER                              x       y       z     vdW  Elec       q    Type
DOCKED: USER                           _______ _______ _______ _____ _____    ______ ____
DOCKED: ROOT
DOCKED: ATOM      1  O   UNL     1     -51.846 -31.362   7.970 -0.04 -0.00    -0.346 OA 
DOCKED: ATOM      2  C   UNL     1     -51.430 -32.765   7.933 -0.22 +0.00    +0.130 C  
DOCKED: ATOM      3  C   UNL     1     -51.901 -33.244   6.590 -0.34 +0.00    +0.004 A  
DOCKED: ATOM      4  C   UNL     1     -52.439 -32.182   5.877 -0.34 +0.00    +0.006 A  
DOCKED: ATOM      5  C   UNL     1     -52.352 -30.943   6.681 -0.23 +0.00    +0.169 C  
DOCKED: ATOM      6  C   UNL     1     -51.847 -34.516   6.039 -0.37 -0.00    -0.001 A  
DOCKED: ATOM      7  C   UNL     1     -52.943 -32.354   4.599 -0.01 +0.00    +0.008 A  
DOCKED: ATOM      8  C   UNL     1     -52.354 -34.706   4.753 -0.45 +0.00    +0.010 A  
DOCKED: ATOM      9  C   UNL     1     -52.899 -33.630   4.036 -0.43 +0.00    +0.068 A  
DOCKED: ATOM     10  N   UNL     1     -53.828 -34.016   1.649 -2.91 -0.00    -0.191 NA 
DOCKED: ATOM     11  C   UNL     1     -53.412 -33.843   2.720 -0.44 +0.00    +0.101 C  
DOCKED: ENDROOT
DOCKED: BRANCH   2  12
DOCKED: ATOM     12  C   UNL     1     -49.915 -32.823   8.086 -0.25 +0.00    +0.038 C  
DOCKED: BRANCH  12  13
DOCKED: ATOM     13  C   UNL     1     -49.394 -31.653   8.917 -0.17 +0.00    +0.038 C  
DOCKED: BRANCH  13  14
DOCKED: ATOM     14  C   UNL     1     -49.009 -30.474   8.026 -0.09 +0.00    +0.251 C  
DOCKED: BRANCH  14  15
DOCKED: ATOM     15  N   UNL     1     -47.573 -30.231   8.099 -0.08 +0.00    +0.141 N  
DOCKED: ATOM     16  C   UNL     1     -46.856 -31.466   8.421 -0.08 +0.00    +0.285 C  
DOCKED: ATOM     17  C   UNL     1     -47.080 -29.671   6.840 -0.06 +0.00    +0.285 C  
DOCKED: ENDBRANCH  14  15
DOCKED: ENDBRANCH  13  14
DOCKED: ENDBRANCH  12  13
DOCKED: ENDBRANCH   2  12
DOCKED: BRANCH   2  18
DOCKED: ATOM     18  C   UNL     1     -52.113 -33.452   9.068 -0.19 +0.00    +0.006 A  
DOCKED: ATOM     19  C   UNL     1     -53.499 -33.606   9.057 -0.16 +0.00    +0.001 A  
DOCKED: ATOM     20  C   UNL     1     -54.136 -34.248  10.119 -0.15 +0.00    +0.029 A  
DOCKED: ATOM     21  C   UNL     1     -53.388 -34.737  11.189 -0.02 +0.00    +0.140 A  
DOCKED: ATOM     22  C   UNL     1     -52.001 -34.583  11.199 -0.21 +0.00    +0.029 A  
DOCKED: ATOM     23  F   UNL     1     -53.999 -35.355  12.208 -0.03 -0.00    -0.204 F  
DOCKED: ATOM     24  C   UNL     1     -51.363 -33.940  10.137 -0.18 +0.00    +0.001 A  
DOCKED: ENDBRANCH   2  18
DOCKED: TORSDOF 5
DOCKED: TER
DOCKED: ENDMDL
________________________________________________________________________________


    FINAL DOCKED STATE:
    ________________________


Run:   497 / 512
Time taken for this run:   0.001s

DOCKED: MODEL        497
DOCKED: USER    Run = 497
DOCKED: USER
DOCKED: USER    Estimated Free Energy of Binding    =  -4.08 kcal/mol  [=(1)+(2)+(3)-(4)]
DOCKED: USER
DOCKED: USER    (1) Final Intermolecular Energy     =  -5.57 kcal/mol
DOCKED: USER        vdW + Hbond + desolv Energy     =  -5.57 kcal/mol
DOCKED: USER        Electrostatic Energy            =  +0.00 kcal/mol
DOCKED: USER        Moving Ligand-Fixed Receptor    =  -5.57 kcal/mol
DOCKED: USER        Moving Ligand-Moving Receptor   =  +0.00 kcal/mol
DOCKED: USER    (2) Final Total Internal Energy     =  -1.32 kcal/mol
DOCKED: USER    (3) Torsional Free Energy           =  +1.49 kcal/mol
DOCKED: USER    (4) Unbound System's Energy         =  -1.32 kcal/mol
DOCKED: USER
DOCKED: USER
DOCKED: REMARK  5 active torsions:
DOCKED: REMARK  status: ('A' for Active; 'I' for Inactive)
DOCKED: REMARK    1  A    between atoms: C_2  and  C_19 
DOCKED: REMARK    2  A    between atoms: C_2  and  C_11 
DOCKED: REMARK    3  A    between atoms: C_19  and  C_20 
DOCKED: REMARK    4  A    between atoms: C_20  and  C_21 
DOCKED: REMARK    5  A    between atoms: C_21  and  N_22 
DOCKED: USER                              x       y       z     vdW  Elec       q    Type
DOCKED: USER                           _______ _______ _______ _____ _____    ______ ____
DOCKED: ROOT
DOCKED: ATOM      1  O   UNL     1     -44.524 -29.507   1.232 +0.01 -0.00    -0.346 OA 
DOCKED: ATOM      2  C   UNL     1     -45.914 -29.770   0.858 -0.10 +0.00    +0.130 C  
DOCKED: ATOM      3  C   UNL     1     -46.191 -31.128   1.435 -0.21 +0.00    +0.004 A  
DOCKED: ATOM      4  C   UNL     1     -45.094 -31.556   2.169 -0.13 +0.00    +0.006 A  
DOCKED: ATOM      5  C   UNL     1     -44.035 -30.522   2.140 -0.03 +0.00    +0.169 C  
DOCKED: ATOM      6  C   UNL     1     -47.327 -31.917   1.329 -0.27 -0.00    -0.001 A  
DOCKED: ATOM      7  C   UNL     1     -45.091 -32.781   2.815 -0.20 +0.00    +0.008 A  
DOCKED: ATOM      8  C   UNL     1     -47.339 -33.156   1.971 +0.12 +0.00    +0.010 A  
DOCKED: ATOM      9  C   UNL     1     -46.227 -33.586   2.710 -0.29 +0.00    +0.068 A  
DOCKED: ATOM     10  N   UNL     1     -46.284 -35.890   3.893 -2.57 -0.00    -0.191 NA 
DOCKED: ATOM     11  C   UNL     1     -46.258 -34.857   3.362 -0.26 +0.00    +0.101 C  
DOCKED: ENDROOT
DOCKED: BRANCH   2  12
DOCKED: ATOM     12  C   UNL     1     -46.791 -28.679   1.461 -0.11 +0.00    +0.038 C  
DOCKED: BRANCH  12  13
DOCKED: ATOM     13  C   UNL     1     -47.708 -29.238   2.547 -0.20 +0.00    +0.038 C  
DOCKED: BRANCH  13  14
DOCKED: ATOM     14  C   UNL     1     -47.429 -28.577   3.896 -0.10 +0.00    +0.251 C  
DOCKED: BRANCH  14  15
DOCKED: ATOM     15  N   UNL     1     -46.122 -28.982   4.399 -0.07 +0.00    +0.141 N  
DOCKED: ATOM     16  C   UNL     1     -45.235 -27.824   4.524 -0.01 +0.00    +0.285 C  
DOCKED: ATOM     17  C   UNL     1     -46.254 -29.661   5.689 -0.07 +0.00    +0.285 C  
DOCKED: ENDBRANCH  14  15
DOCKED: ENDBRANCH  13  14
DOCKED: ENDBRANCH  12  13
DOCKED: ENDBRANCH   2  12
DOCKED: BRANCH   2  18
DOCKED: ATOM     18  C   UNL     1     -45.977 -29.748  -0.633 -0.15 +0.00    +0.006 A  
DOCKED: ATOM     19  C   UNL     1     -46.795 -28.825  -1.282 -0.19 +0.00    +0.001 A  
DOCKED: ATOM     20  C   UNL     1     -46.853 -28.806  -2.677 -0.22 +0.00    +0.029 A  
DOCKED: ATOM     21  C   UNL     1     -46.092 -29.709  -3.418 -0.18 +0.00    +0.140 A  
DOCKED: ATOM     22  C   UNL     1     -45.274 -30.632  -2.768 -0.16 +0.00    +0.029 A  
DOCKED: ATOM     23  F   UNL     1     -46.147 -29.689  -4.756 -0.05 -0.00    -0.204 F  
DOCKED: ATOM     24  C   UNL     1     -45.216 -30.652  -1.373 -0.13 +0.00    +0.001 A  
DOCKED: ENDBRANCH   2  18
DOCKED: TORSDOF 5
DOCKED: TER
DOCKED: ENDMDL
________________________________________________________________________________


    FINAL DOCKED STATE:
    ________________________


Run:   498 / 512
Time taken for this run:   0.001s

DOCKED: MODEL        498
DOCKED: USER    Run = 498
DOCKED: USER
DOCKED: USER    Estimated Free Energy of Binding    =  -4.96 kcal/mol  [=(1)+(2)+(3)-(4)]
DOCKED: USER
DOCKED: USER    (1) Final Intermolecular Energy     =  -6.45 kcal/mol
DOCKED: USER        vdW + Hbond + desolv Energy     =  -6.45 kcal/mol
DOCKED: USER        Electrostatic Energy            =  +0.00 kcal/mol
DOCKED: USER        Moving Ligand-Fixed Receptor    =  -6.45 kcal/mol
DOCKED: USER        Moving Ligand-Moving Receptor   =  +0.00 kcal/mol
DOCKED: USER    (2) Final Total Internal Energy     =  -1.21 kcal/mol
DOCKED: USER    (3) Torsional Free Energy           =  +1.49 kcal/mol
DOCKED: USER    (4) Unbound System's Energy         =  -1.21 kcal/mol
DOCKED: USER
DOCKED: USER
DOCKED: REMARK  5 active torsions:
DOCKED: REMARK  status: ('A' for Active; 'I' for Inactive)
DOCKED: REMARK    1  A    between atoms: C_2  and  C_19 
DOCKED: REMARK    2  A    between atoms: C_2  and  C_11 
DOCKED: REMARK    3  A    between atoms: C_19  and  C_20 
DOCKED: REMARK    4  A    between atoms: C_20  and  C_21 
DOCKED: REMARK    5  A    between atoms: C_21  and  N_22 
DOCKED: USER                              x       y       z     vdW  Elec       q    Type
DOCKED: USER                           _______ _______ _______ _____ _____    ______ ____
DOCKED: ROOT
DOCKED: ATOM      1  O   UNL     1     -51.672 -30.973   7.617 -0.06 -0.00    -0.346 OA 
DOCKED: ATOM      2  C   UNL     1     -52.178 -32.301   7.964 -0.15 +0.00    +0.130 C  
DOCKED: ATOM      3  C   UNL     1     -52.636 -32.866   6.650 -0.30 +0.00    +0.004 A  
DOCKED: ATOM      4  C   UNL     1     -52.318 -31.984   5.627 -0.33 +0.00    +0.006 A  
DOCKED: ATOM      5  C   UNL     1     -51.626 -30.799   6.181 -0.20 +0.00    +0.169 C  
DOCKED: ATOM      6  C   UNL     1     -53.272 -34.069   6.381 -0.31 -0.00    -0.001 A  
DOCKED: ATOM      7  C   UNL     1     -52.626 -32.270   4.308 +0.09 +0.00    +0.008 A  
DOCKED: ATOM      8  C   UNL     1     -53.594 -34.369   5.056 -0.44 +0.00    +0.010 A  
DOCKED: ATOM      9  C   UNL     1     -53.272 -33.474   4.025 -0.41 +0.00    +0.068 A  
DOCKED: ATOM     10  N   UNL     1     -53.879 -34.065   1.576 -2.95 -0.00    -0.191 NA 
DOCKED: ATOM     11  C   UNL     1     -53.607 -33.800   2.675 -0.34 +0.00    +0.101 C  
DOCKED: ENDROOT
DOCKED: BRANCH   2  12
DOCKED: ATOM     12  C   UNL     1     -51.043 -33.102   8.591 -0.24 +0.00    +0.038 C  
DOCKED: BRANCH  12  13
DOCKED: ATOM     13  C   UNL     1     -49.702 -32.771   7.940 -0.20 +0.00    +0.038 C  
DOCKED: BRANCH  13  14
DOCKED: ATOM     14  C   UNL     1     -48.981 -31.661   8.702 -0.12 +0.00    +0.251 C  
DOCKED: BRANCH  14  15
DOCKED: ATOM     15  N   UNL     1     -48.842 -32.019  10.109 -0.08 +0.00    +0.141 N  
DOCKED: ATOM     16  C   UNL     1     -47.578 -32.719  10.341 -0.06 +0.00    +0.285 C  
DOCKED: ATOM     17  C   UNL     1     -48.925 -30.827  10.955 -0.02 +0.00    +0.285 C  
DOCKED: ENDBRANCH  14  15
DOCKED: ENDBRANCH  13  14
DOCKED: ENDBRANCH  12  13
DOCKED: ENDBRANCH   2  12
DOCKED: BRANCH   2  18
DOCKED: ATOM     18  C   UNL     1     -53.296 -32.102   8.932 -0.09 +0.00    +0.006 A  
DOCKED: ATOM     19  C   UNL     1     -54.556 -31.721   8.473 -0.10 +0.00    +0.001 A  
DOCKED: ATOM     20  C   UNL     1     -55.600 -31.535   9.380 -0.06 +0.00    +0.029 A  
DOCKED: ATOM     21  C   UNL     1     -55.384 -31.731  10.743 -0.01 +0.00    +0.140 A  
DOCKED: ATOM     22  C   UNL     1     -54.123 -32.113  11.201 -0.03 +0.00    +0.029 A  
DOCKED: ATOM     23  F   UNL     1     -56.387 -31.555  11.612 +0.01 -0.00    -0.204 F  
DOCKED: ATOM     24  C   UNL     1     -53.078 -32.299  10.295 -0.06 +0.00    +0.001 A  
DOCKED: ENDBRANCH   2  18
DOCKED: TORSDOF 5
DOCKED: TER
DOCKED: ENDMDL
________________________________________________________________________________


    FINAL DOCKED STATE:
    ________________________


Run:   499 / 512
Time taken for this run:   0.001s

DOCKED: MODEL        499
DOCKED: USER    Run = 499
DOCKED: USER
DOCKED: USER    Estimated Free Energy of Binding    =  -4.24 kcal/mol  [=(1)+(2)+(3)-(4)]
DOCKED: USER
DOCKED: USER    (1) Final Intermolecular Energy     =  -5.73 kcal/mol
DOCKED: USER        vdW + Hbond + desolv Energy     =  -5.73 kcal/mol
DOCKED: USER        Electrostatic Energy            =  +0.00 kcal/mol
DOCKED: USER        Moving Ligand-Fixed Receptor    =  -5.73 kcal/mol
DOCKED: USER        Moving Ligand-Moving Receptor   =  +0.00 kcal/mol
DOCKED: USER    (2) Final Total Internal Energy     =  -1.17 kcal/mol
DOCKED: USER    (3) Torsional Free Energy           =  +1.49 kcal/mol
DOCKED: USER    (4) Unbound System's Energy         =  -1.17 kcal/mol
DOCKED: USER
DOCKED: USER
DOCKED: REMARK  5 active torsions:
DOCKED: REMARK  status: ('A' for Active; 'I' for Inactive)
DOCKED: REMARK    1  A    between atoms: C_2  and  C_19 
DOCKED: REMARK    2  A    between atoms: C_2  and  C_11 
DOCKED: REMARK    3  A    between atoms: C_19  and  C_20 
DOCKED: REMARK    4  A    between atoms: C_20  and  C_21 
DOCKED: REMARK    5  A    between atoms: C_21  and  N_22 
DOCKED: USER                              x       y       z     vdW  Elec       q    Type
DOCKED: USER                           _______ _______ _______ _____ _____    ______ ____
DOCKED: ROOT
DOCKED: ATOM      1  O   UNL     1     -45.595 -25.786  -2.703 +0.01 -0.00    -0.346 OA 
DOCKED: ATOM      2  C   UNL     1     -46.633 -25.683  -1.677 -0.07 +0.00    +0.130 C  
DOCKED: ATOM      3  C   UNL     1     -47.664 -24.786  -2.297 -0.18 +0.00    +0.004 A  
DOCKED: ATOM      4  C   UNL     1     -47.302 -24.491  -3.604 -0.16 +0.00    +0.006 A  
DOCKED: ATOM      5  C   UNL     1     -46.031 -25.172  -3.939 -0.07 +0.00    +0.169 C  
DOCKED: ATOM      6  C   UNL     1     -48.836 -24.280  -1.753 -0.29 -0.00    -0.001 A  
DOCKED: ATOM      7  C   UNL     1     -48.089 -23.682  -4.405 -0.21 +0.00    +0.008 A  
DOCKED: ATOM      8  C   UNL     1     -49.639 -23.459  -2.547 -0.35 +0.00    +0.010 A  
DOCKED: ATOM      9  C   UNL     1     -49.267 -23.163  -3.867 -0.17 +0.00    +0.068 A  
DOCKED: ATOM     10  N   UNL     1     -50.783 -21.641  -5.315 -2.45 -0.00    -0.191 NA 
DOCKED: ATOM     11  C   UNL     1     -50.103 -22.323  -4.665 -0.37 +0.00    +0.101 C  
DOCKED: ENDROOT
DOCKED: BRANCH   2  12
DOCKED: ATOM     12  C   UNL     1     -47.162 -27.082  -1.384 -0.15 +0.00    +0.038 C  
DOCKED: BRANCH  12  13
DOCKED: ATOM     13  C   UNL     1     -46.451 -28.135  -2.231 -0.16 +0.00    +0.038 C  
DOCKED: BRANCH  13  14
DOCKED: ATOM     14  C   UNL     1     -47.410 -28.772  -3.235 -0.21 +0.00    +0.251 C  
DOCKED: BRANCH  14  15
DOCKED: ATOM     15  N   UNL     1     -46.681 -29.639  -4.153 -0.24 +0.00    +0.141 N  
DOCKED: ATOM     16  C   UNL     1     -47.162 -29.461  -5.524 -0.20 +0.00    +0.285 C  
DOCKED: ATOM     17  C   UNL     1     -45.243 -29.374  -4.081 -0.06 +0.00    +0.285 C  
DOCKED: ENDBRANCH  14  15
DOCKED: ENDBRANCH  13  14
DOCKED: ENDBRANCH  12  13
DOCKED: ENDBRANCH   2  12
DOCKED: BRANCH   2  18
DOCKED: ATOM     18  C   UNL     1     -45.993 -25.085  -0.468 -0.05 +0.00    +0.006 A  
DOCKED: ATOM     19  C   UNL     1     -45.854 -23.702  -0.366 -0.11 +0.00    +0.001 A  
DOCKED: ATOM     20  C   UNL     1     -45.255 -23.144   0.765 -0.11 +0.00    +0.029 A  
DOCKED: ATOM     21  C   UNL     1     -44.799 -23.970   1.791 -0.06 +0.00    +0.140 A  
DOCKED: ATOM     22  C   UNL     1     -44.939 -25.354   1.688 -0.02 +0.00    +0.029 A  
DOCKED: ATOM     23  F   UNL     1     -44.226 -23.435   2.877 -0.02 -0.00    -0.204 F  
DOCKED: ATOM     24  C   UNL     1     -45.537 -25.913   0.557 -0.03 +0.00    +0.001 A  
DOCKED: ENDBRANCH   2  18
DOCKED: TORSDOF 5
DOCKED: TER
DOCKED: ENDMDL
________________________________________________________________________________


    FINAL DOCKED STATE:
    ________________________


Run:   500 / 512
Time taken for this run:   0.001s

DOCKED: MODEL        500
DOCKED: USER    Run = 500
DOCKED: USER
DOCKED: USER    Estimated Free Energy of Binding    =  -4.96 kcal/mol  [=(1)+(2)+(3)-(4)]
DOCKED: USER
DOCKED: USER    (1) Final Intermolecular Energy     =  -6.45 kcal/mol
DOCKED: USER        vdW + Hbond + desolv Energy     =  -6.45 kcal/mol
DOCKED: USER        Electrostatic Energy            =  +0.00 kcal/mol
DOCKED: USER        Moving Ligand-Fixed Receptor    =  -6.45 kcal/mol
DOCKED: USER        Moving Ligand-Moving Receptor   =  +0.00 kcal/mol
DOCKED: USER    (2) Final Total Internal Energy     =  -1.32 kcal/mol
DOCKED: USER    (3) Torsional Free Energy           =  +1.49 kcal/mol
DOCKED: USER    (4) Unbound System's Energy         =  -1.32 kcal/mol
DOCKED: USER
DOCKED: USER
DOCKED: REMARK  5 active torsions:
DOCKED: REMARK  status: ('A' for Active; 'I' for Inactive)
DOCKED: REMARK    1  A    between atoms: C_2  and  C_19 
DOCKED: REMARK    2  A    between atoms: C_2  and  C_11 
DOCKED: REMARK    3  A    between atoms: C_19  and  C_20 
DOCKED: REMARK    4  A    between atoms: C_20  and  C_21 
DOCKED: REMARK    5  A    between atoms: C_21  and  N_22 
DOCKED: USER                              x       y       z     vdW  Elec       q    Type
DOCKED: USER                           _______ _______ _______ _____ _____    ______ ____
DOCKED: ROOT
DOCKED: ATOM      1  O   UNL     1     -51.671 -31.289   7.842 -0.05 -0.00    -0.346 OA 
DOCKED: ATOM      2  C   UNL     1     -52.772 -32.215   8.112 -0.12 +0.00    +0.130 C  
DOCKED: ATOM      3  C   UNL     1     -53.188 -32.686   6.749 -0.26 +0.00    +0.004 A  
DOCKED: ATOM      4  C   UNL     1     -52.330 -32.163   5.792 -0.35 +0.00    +0.006 A  
DOCKED: ATOM      5  C   UNL     1     -51.294 -31.332   6.446 -0.17 +0.00    +0.169 C  
DOCKED: ATOM      6  C   UNL     1     -54.235 -33.520   6.386 -0.28 -0.00    -0.001 A  
DOCKED: ATOM      7  C   UNL     1     -52.489 -32.450   4.447 -0.07 +0.00    +0.008 A  
DOCKED: ATOM      8  C   UNL     1     -54.412 -33.816   5.033 -0.37 +0.00    +0.010 A  
DOCKED: ATOM      9  C   UNL     1     -53.543 -33.283   4.069 -0.36 +0.00    +0.068 A  
DOCKED: ATOM     10  N   UNL     1     -53.896 -33.856   1.567 -3.07 -0.00    -0.191 NA 
DOCKED: ATOM     11  C   UNL     1     -53.738 -33.598   2.689 -0.28 +0.00    +0.101 C  
DOCKED: ENDROOT
DOCKED: BRANCH   2  12
DOCKED: ATOM     12  C   UNL     1     -52.250 -33.341   8.996 -0.20 +0.00    +0.038 C  
DOCKED: BRANCH  12  13
DOCKED: ATOM     13  C   UNL     1     -53.294 -34.443   9.168 -0.25 +0.00    +0.038 C  
DOCKED: BRANCH  13  14
DOCKED: ATOM     14  C   UNL     1     -53.919 -34.396  10.561 -0.08 +0.00    +0.251 C  
DOCKED: BRANCH  14  15
DOCKED: ATOM     15  N   UNL     1     -55.316 -34.810  10.504 -0.13 +0.00    +0.141 N  
DOCKED: ATOM     16  C   UNL     1     -56.177 -33.809  11.137 -0.02 +0.00    +0.285 C  
DOCKED: ATOM     17  C   UNL     1     -55.732 -35.033   9.118 -0.08 +0.00    +0.285 C  
DOCKED: ENDBRANCH  14  15
DOCKED: ENDBRANCH  13  14
DOCKED: ENDBRANCH  12  13
DOCKED: ENDBRANCH   2  12
DOCKED: BRANCH   2  18
DOCKED: ATOM     18  C   UNL     1     -53.838 -31.434   8.808 -0.08 +0.00    +0.006 A  
DOCKED: ATOM     19  C   UNL     1     -53.695 -31.108  10.156 -0.03 +0.00    +0.001 A  
DOCKED: ATOM     20  C   UNL     1     -54.692 -30.379  10.805 -0.02 +0.00    +0.029 A  
DOCKED: ATOM     21  C   UNL     1     -55.829 -29.977  10.106 -0.01 +0.00    +0.140 A  
DOCKED: ATOM     22  C   UNL     1     -55.971 -30.303   8.757 -0.08 +0.00    +0.029 A  
DOCKED: ATOM     23  F   UNL     1     -56.785 -29.275  10.728 +0.01 -0.00    -0.204 F  
DOCKED: ATOM     24  C   UNL     1     -54.974 -31.033   8.107 -0.13 +0.00    +0.001 A  
DOCKED: ENDBRANCH   2  18
DOCKED: TORSDOF 5
DOCKED: TER
DOCKED: ENDMDL
________________________________________________________________________________


    FINAL DOCKED STATE:
    ________________________


Run:   501 / 512
Time taken for this run:   0.001s

DOCKED: MODEL        501
DOCKED: USER    Run = 501
DOCKED: USER
DOCKED: USER    Estimated Free Energy of Binding    =  -4.15 kcal/mol  [=(1)+(2)+(3)-(4)]
DOCKED: USER
DOCKED: USER    (1) Final Intermolecular Energy     =  -5.64 kcal/mol
DOCKED: USER        vdW + Hbond + desolv Energy     =  -5.64 kcal/mol
DOCKED: USER        Electrostatic Energy            =  +0.00 kcal/mol
DOCKED: USER        Moving Ligand-Fixed Receptor    =  -5.64 kcal/mol
DOCKED: USER        Moving Ligand-Moving Receptor   =  +0.00 kcal/mol
DOCKED: USER    (2) Final Total Internal Energy     =  -1.36 kcal/mol
DOCKED: USER    (3) Torsional Free Energy           =  +1.49 kcal/mol
DOCKED: USER    (4) Unbound System's Energy         =  -1.36 kcal/mol
DOCKED: USER
DOCKED: USER
DOCKED: REMARK  5 active torsions:
DOCKED: REMARK  status: ('A' for Active; 'I' for Inactive)
DOCKED: REMARK    1  A    between atoms: C_2  and  C_19 
DOCKED: REMARK    2  A    between atoms: C_2  and  C_11 
DOCKED: REMARK    3  A    between atoms: C_19  and  C_20 
DOCKED: REMARK    4  A    between atoms: C_20  and  C_21 
DOCKED: REMARK    5  A    between atoms: C_21  and  N_22 
DOCKED: USER                              x       y       z     vdW  Elec       q    Type
DOCKED: USER                           _______ _______ _______ _____ _____    ______ ____
DOCKED: ROOT
DOCKED: ATOM      1  O   UNL     1     -49.517 -30.228   8.202 -0.06 -0.00    -0.346 OA 
DOCKED: ATOM      2  C   UNL     1     -50.774 -29.638   7.738 -0.12 +0.00    +0.130 C  
DOCKED: ATOM      3  C   UNL     1     -51.514 -30.797   7.136 -0.23 +0.00    +0.004 A  
DOCKED: ATOM      4  C   UNL     1     -50.794 -31.966   7.337 -0.23 +0.00    +0.006 A  
DOCKED: ATOM      5  C   UNL     1     -49.552 -31.669   8.086 -0.13 +0.00    +0.169 C  
DOCKED: ATOM      6  C   UNL     1     -52.733 -30.817   6.474 -0.27 -0.00    -0.001 A  
DOCKED: ATOM      7  C   UNL     1     -51.261 -33.188   6.882 -0.32 +0.00    +0.008 A  
DOCKED: ATOM      8  C   UNL     1     -53.215 -32.041   6.005 -0.28 +0.00    +0.010 A  
DOCKED: ATOM      9  C   UNL     1     -52.483 -33.220   6.209 -0.31 +0.00    +0.068 A  
DOCKED: ATOM     10  N   UNL     1     -53.410 -35.474   5.331 -2.59 -0.00    -0.191 NA 
DOCKED: ATOM     11  C   UNL     1     -52.994 -34.463   5.725 -0.34 +0.00    +0.101 C  
DOCKED: ENDROOT
DOCKED: BRANCH   2  12
DOCKED: ATOM     12  C   UNL     1     -51.495 -29.032   8.937 -0.05 +0.00    +0.038 C  
DOCKED: BRANCH  12  13
DOCKED: ATOM     13  C   UNL     1     -50.505 -28.558  10.000 -0.02 +0.00    +0.038 C  
DOCKED: BRANCH  13  14
DOCKED: ATOM     14  C   UNL     1     -49.719 -27.342   9.515 -0.00 +0.00    +0.251 C  
DOCKED: BRANCH  14  15
DOCKED: ATOM     15  N   UNL     1     -50.625 -26.242   9.206 -0.01 +0.00    +0.141 N  
DOCKED: ATOM     16  C   UNL     1     -51.483 -25.942  10.353 +0.00 +0.00    +0.285 C  
DOCKED: ATOM     17  C   UNL     1     -49.873 -25.051   8.809 +0.00 +0.00    +0.285 C  
DOCKED: ENDBRANCH  14  15
DOCKED: ENDBRANCH  13  14
DOCKED: ENDBRANCH  12  13
DOCKED: ENDBRANCH   2  12
DOCKED: BRANCH   2  18
DOCKED: ATOM     18  C   UNL     1     -50.421 -28.590   6.736 -0.15 +0.00    +0.006 A  
DOCKED: ATOM     19  C   UNL     1     -49.139 -28.555   6.187 -0.14 +0.00    +0.001 A  
DOCKED: ATOM     20  C   UNL     1     -48.810 -27.575   5.251 -0.11 +0.00    +0.029 A  
DOCKED: ATOM     21  C   UNL     1     -49.761 -26.632   4.864 -0.07 +0.00    +0.140 A  
DOCKED: ATOM     22  C   UNL     1     -51.043 -26.668   5.413 -0.07 +0.00    +0.029 A  
DOCKED: ATOM     23  F   UNL     1     -49.446 -25.692   3.964 -0.01 -0.00    -0.204 F  
DOCKED: ATOM     24  C   UNL     1     -51.373 -27.648   6.351 -0.13 +0.00    +0.001 A  
DOCKED: ENDBRANCH   2  18
DOCKED: TORSDOF 5
DOCKED: TER
DOCKED: ENDMDL
________________________________________________________________________________


    FINAL DOCKED STATE:
    ________________________


Run:   502 / 512
Time taken for this run:   0.001s

DOCKED: MODEL        502
DOCKED: USER    Run = 502
DOCKED: USER
DOCKED: USER    Estimated Free Energy of Binding    =  -4.25 kcal/mol  [=(1)+(2)+(3)-(4)]
DOCKED: USER
DOCKED: USER    (1) Final Intermolecular Energy     =  -5.74 kcal/mol
DOCKED: USER        vdW + Hbond + desolv Energy     =  -5.74 kcal/mol
DOCKED: USER        Electrostatic Energy            =  +0.00 kcal/mol
DOCKED: USER        Moving Ligand-Fixed Receptor    =  -5.74 kcal/mol
DOCKED: USER        Moving Ligand-Moving Receptor   =  +0.00 kcal/mol
DOCKED: USER    (2) Final Total Internal Energy     =  -1.38 kcal/mol
DOCKED: USER    (3) Torsional Free Energy           =  +1.49 kcal/mol
DOCKED: USER    (4) Unbound System's Energy         =  -1.38 kcal/mol
DOCKED: USER
DOCKED: USER
DOCKED: REMARK  5 active torsions:
DOCKED: REMARK  status: ('A' for Active; 'I' for Inactive)
DOCKED: REMARK    1  A    between atoms: C_2  and  C_19 
DOCKED: REMARK    2  A    between atoms: C_2  and  C_11 
DOCKED: REMARK    3  A    between atoms: C_19  and  C_20 
DOCKED: REMARK    4  A    between atoms: C_20  and  C_21 
DOCKED: REMARK    5  A    between atoms: C_21  and  N_22 
DOCKED: USER                              x       y       z     vdW  Elec       q    Type
DOCKED: USER                           _______ _______ _______ _____ _____    ______ ____
DOCKED: ROOT
DOCKED: ATOM      1  O   UNL     1     -49.025 -31.194   8.595 -0.07 -0.00    -0.346 OA 
DOCKED: ATOM      2  C   UNL     1     -50.004 -30.348   7.912 -0.13 +0.00    +0.130 C  
DOCKED: ATOM      3  C   UNL     1     -50.895 -31.327   7.204 -0.22 +0.00    +0.004 A  
DOCKED: ATOM      4  C   UNL     1     -50.526 -32.622   7.542 -0.24 +0.00    +0.006 A  
DOCKED: ATOM      5  C   UNL     1     -49.392 -32.590   8.492 -0.16 +0.00    +0.169 C  
DOCKED: ATOM      6  C   UNL     1     -51.954 -31.091   6.340 -0.29 -0.00    -0.001 A  
DOCKED: ATOM      7  C   UNL     1     -51.196 -33.719   7.028 -0.36 +0.00    +0.008 A  
DOCKED: ATOM      8  C   UNL     1     -52.636 -32.187   5.809 -0.34 +0.00    +0.010 A  
DOCKED: ATOM      9  C   UNL     1     -52.259 -33.494   6.152 -0.33 +0.00    +0.068 A  
DOCKED: ATOM     10  N   UNL     1     -53.551 -35.506   5.154 -2.48 -0.00    -0.191 NA 
DOCKED: ATOM     11  C   UNL     1     -52.971 -34.604   5.601 -0.31 +0.00    +0.101 C  
DOCKED: ENDROOT
DOCKED: BRANCH   2  12
DOCKED: ATOM     12  C   UNL     1     -50.742 -29.523   8.959 -0.06 +0.00    +0.038 C  
DOCKED: BRANCH  12  13
DOCKED: ATOM     13  C   UNL     1     -49.770 -28.853   9.927 -0.02 +0.00    +0.038 C  
DOCKED: BRANCH  13  14
DOCKED: ATOM     14  C   UNL     1     -49.834 -29.503  11.308 -0.00 +0.00    +0.251 C  
DOCKED: BRANCH  14  15
DOCKED: ATOM     15  N   UNL     1     -48.490 -29.795  11.794 -0.00 +0.00    +0.141 N  
DOCKED: ATOM     16  C   UNL     1     -48.332 -31.228  12.046 -0.01 +0.00    +0.285 C  
DOCKED: ATOM     17  C   UNL     1     -47.484 -29.334  10.836 -0.00 +0.00    +0.285 C  
DOCKED: ENDBRANCH  14  15
DOCKED: ENDBRANCH  13  14
DOCKED: ENDBRANCH  12  13
DOCKED: ENDBRANCH   2  12
DOCKED: BRANCH   2  18
DOCKED: ATOM     18  C   UNL     1     -49.243 -29.471   6.974 -0.14 +0.00    +0.006 A  
DOCKED: ATOM     19  C   UNL     1     -47.849 -29.498   6.971 -0.11 +0.00    +0.001 A  
DOCKED: ATOM     20  C   UNL     1     -47.139 -28.677   6.093 -0.09 +0.00    +0.029 A  
DOCKED: ATOM     21  C   UNL     1     -47.823 -27.832   5.221 -0.08 +0.00    +0.140 A  
DOCKED: ATOM     22  C   UNL     1     -49.218 -27.806   5.224 -0.12 +0.00    +0.029 A  
DOCKED: ATOM     23  F   UNL     1     -47.141 -27.046   4.378 -0.00 -0.00    -0.204 F  
DOCKED: ATOM     24  C   UNL     1     -49.929 -28.626   6.102 -0.16 +0.00    +0.001 A  
DOCKED: ENDBRANCH   2  18
DOCKED: TORSDOF 5
DOCKED: TER
DOCKED: ENDMDL
________________________________________________________________________________


    FINAL DOCKED STATE:
    ________________________


Run:   503 / 512
Time taken for this run:   0.001s

DOCKED: MODEL        503
DOCKED: USER    Run = 503
DOCKED: USER
DOCKED: USER    Estimated Free Energy of Binding    =  -4.94 kcal/mol  [=(1)+(2)+(3)-(4)]
DOCKED: USER
DOCKED: USER    (1) Final Intermolecular Energy     =  -6.43 kcal/mol
DOCKED: USER        vdW + Hbond + desolv Energy     =  -6.43 kcal/mol
DOCKED: USER        Electrostatic Energy            =  +0.00 kcal/mol
DOCKED: USER        Moving Ligand-Fixed Receptor    =  -6.43 kcal/mol
DOCKED: USER        Moving Ligand-Moving Receptor   =  +0.00 kcal/mol
DOCKED: USER    (2) Final Total Internal Energy     =  -1.11 kcal/mol
DOCKED: USER    (3) Torsional Free Energy           =  +1.49 kcal/mol
DOCKED: USER    (4) Unbound System's Energy         =  -1.11 kcal/mol
DOCKED: USER
DOCKED: USER
DOCKED: REMARK  5 active torsions:
DOCKED: REMARK  status: ('A' for Active; 'I' for Inactive)
DOCKED: REMARK    1  A    between atoms: C_2  and  C_19 
DOCKED: REMARK    2  A    between atoms: C_2  and  C_11 
DOCKED: REMARK    3  A    between atoms: C_19  and  C_20 
DOCKED: REMARK    4  A    between atoms: C_20  and  C_21 
DOCKED: REMARK    5  A    between atoms: C_21  and  N_22 
DOCKED: USER                              x       y       z     vdW  Elec       q    Type
DOCKED: USER                           _______ _______ _______ _____ _____    ______ ____
DOCKED: ROOT
DOCKED: ATOM      1  O   UNL     1     -52.029 -30.999   7.894 -0.04 -0.00    -0.346 OA 
DOCKED: ATOM      2  C   UNL     1     -51.358 -32.299   7.943 -0.20 +0.00    +0.130 C  
DOCKED: ATOM      3  C   UNL     1     -51.820 -32.989   6.692 -0.33 +0.00    +0.004 A  
DOCKED: ATOM      4  C   UNL     1     -52.598 -32.120   5.939 -0.34 +0.00    +0.006 A  
DOCKED: ATOM      5  C   UNL     1     -52.692 -30.811   6.622 -0.22 +0.00    +0.169 C  
DOCKED: ATOM      6  C   UNL     1     -51.564 -34.279   6.250 -0.42 -0.00    -0.001 A  
DOCKED: ATOM      7  C   UNL     1     -53.146 -32.509   4.729 -0.16 +0.00    +0.008 A  
DOCKED: ATOM      8  C   UNL     1     -52.113 -34.687   5.033 -0.39 +0.00    +0.010 A  
DOCKED: ATOM      9  C   UNL     1     -52.900 -33.806   4.277 -0.43 +0.00    +0.068 A  
DOCKED: ATOM     10  N   UNL     1     -53.900 -34.594   2.020 -2.07 -0.00    -0.191 NA 
DOCKED: ATOM     11  C   UNL     1     -53.452 -34.241   3.032 -0.48 +0.00    +0.101 C  
DOCKED: ENDROOT
DOCKED: BRANCH   2  12
DOCKED: ATOM     12  C   UNL     1     -49.853 -32.064   7.969 -0.21 +0.00    +0.038 C  
DOCKED: BRANCH  12  13
DOCKED: ATOM     13  C   UNL     1     -49.522 -30.604   8.271 -0.14 +0.00    +0.038 C  
DOCKED: BRANCH  13  14
DOCKED: ATOM     14  C   UNL     1     -49.587 -29.753   7.004 -0.10 +0.00    +0.251 C  
DOCKED: BRANCH  14  15
DOCKED: ATOM     15  N   UNL     1     -49.283 -28.361   7.312 -0.06 +0.00    +0.141 N  
DOCKED: ATOM     16  C   UNL     1     -50.323 -27.782   8.164 -0.02 +0.00    +0.285 C  
DOCKED: ATOM     17  C   UNL     1     -47.975 -28.250   7.960 -0.03 +0.00    +0.285 C  
DOCKED: ENDBRANCH  14  15
DOCKED: ENDBRANCH  13  14
DOCKED: ENDBRANCH  12  13
DOCKED: ENDBRANCH   2  12
DOCKED: BRANCH   2  18
DOCKED: ATOM     18  C   UNL     1     -51.819 -32.981   9.187 -0.15 +0.00    +0.006 A  
DOCKED: ATOM     19  C   UNL     1     -51.532 -34.331   9.389 -0.22 +0.00    +0.001 A  
DOCKED: ATOM     20  C   UNL     1     -51.964 -34.967  10.553 -0.14 +0.00    +0.029 A  
DOCKED: ATOM     21  C   UNL     1     -52.681 -34.255  11.513 -0.12 +0.00    +0.140 A  
DOCKED: ATOM     22  C   UNL     1     -52.967 -32.905  11.311 -0.06 +0.00    +0.029 A  
DOCKED: ATOM     23  F   UNL     1     -53.093 -34.866  12.631 -0.03 -0.00    -0.204 F  
DOCKED: ATOM     24  C   UNL     1     -52.536 -32.267  10.146 -0.07 +0.00    +0.001 A  
DOCKED: ENDBRANCH   2  18
DOCKED: TORSDOF 5
DOCKED: TER
DOCKED: ENDMDL
________________________________________________________________________________


    FINAL DOCKED STATE:
    ________________________


Run:   504 / 512
Time taken for this run:   0.001s

DOCKED: MODEL        504
DOCKED: USER    Run = 504
DOCKED: USER
DOCKED: USER    Estimated Free Energy of Binding    =  -3.90 kcal/mol  [=(1)+(2)+(3)-(4)]
DOCKED: USER
DOCKED: USER    (1) Final Intermolecular Energy     =  -5.39 kcal/mol
DOCKED: USER        vdW + Hbond + desolv Energy     =  -5.39 kcal/mol
DOCKED: USER        Electrostatic Energy            =  +0.00 kcal/mol
DOCKED: USER        Moving Ligand-Fixed Receptor    =  -5.39 kcal/mol
DOCKED: USER        Moving Ligand-Moving Receptor   =  +0.00 kcal/mol
DOCKED: USER    (2) Final Total Internal Energy     =  -1.36 kcal/mol
DOCKED: USER    (3) Torsional Free Energy           =  +1.49 kcal/mol
DOCKED: USER    (4) Unbound System's Energy         =  -1.36 kcal/mol
DOCKED: USER
DOCKED: USER
DOCKED: REMARK  5 active torsions:
DOCKED: REMARK  status: ('A' for Active; 'I' for Inactive)
DOCKED: REMARK    1  A    between atoms: C_2  and  C_19 
DOCKED: REMARK    2  A    between atoms: C_2  and  C_11 
DOCKED: REMARK    3  A    between atoms: C_19  and  C_20 
DOCKED: REMARK    4  A    between atoms: C_20  and  C_21 
DOCKED: REMARK    5  A    between atoms: C_21  and  N_22 
DOCKED: USER                              x       y       z     vdW  Elec       q    Type
DOCKED: USER                           _______ _______ _______ _____ _____    ______ ____
DOCKED: ROOT
DOCKED: ATOM      1  O   UNL     1     -49.910 -30.326   8.801 -0.03 -0.00    -0.346 OA 
DOCKED: ATOM      2  C   UNL     1     -50.874 -29.681   7.909 -0.11 +0.00    +0.130 C  
DOCKED: ATOM      3  C   UNL     1     -51.545 -30.830   7.213 -0.22 +0.00    +0.004 A  
DOCKED: ATOM      4  C   UNL     1     -51.085 -32.028   7.740 -0.22 +0.00    +0.006 A  
DOCKED: ATOM      5  C   UNL     1     -50.102 -31.760   8.814 -0.13 +0.00    +0.169 C  
DOCKED: ATOM      6  C   UNL     1     -52.495 -30.815   6.202 -0.23 -0.00    -0.001 A  
DOCKED: ATOM      7  C   UNL     1     -51.552 -33.246   7.276 -0.31 +0.00    +0.008 A  
DOCKED: ATOM      8  C   UNL     1     -52.972 -32.035   5.720 -0.30 +0.00    +0.010 A  
DOCKED: ATOM      9  C   UNL     1     -52.503 -33.244   6.255 -0.30 +0.00    +0.068 A  
DOCKED: ATOM     10  N   UNL     1     -53.414 -35.491   5.341 -2.61 -0.00    -0.191 NA 
DOCKED: ATOM     11  C   UNL     1     -53.005 -34.484   5.751 -0.31 +0.00    +0.101 C  
DOCKED: ENDROOT
DOCKED: BRANCH   2  12
DOCKED: ATOM     12  C   UNL     1     -51.837 -28.855   8.754 -0.06 +0.00    +0.038 C  
DOCKED: BRANCH  12  13
DOCKED: ATOM     13  C   UNL     1     -52.004 -29.451  10.150 -0.02 +0.00    +0.038 C  
DOCKED: BRANCH  13  14
DOCKED: ATOM     14  C   UNL     1     -50.875 -29.004  11.077 -0.00 +0.00    +0.251 C  
DOCKED: BRANCH  14  15
DOCKED: ATOM     15  N   UNL     1     -50.453 -27.648  10.745 -0.00 +0.00    +0.141 N  
DOCKED: ATOM     16  C   UNL     1     -50.696 -26.742  11.869 +0.00 +0.00    +0.285 C  
DOCKED: ATOM     17  C   UNL     1     -49.038 -27.626  10.372 -0.00 +0.00    +0.285 C  
DOCKED: ENDBRANCH  14  15
DOCKED: ENDBRANCH  13  14
DOCKED: ENDBRANCH  12  13
DOCKED: ENDBRANCH   2  12
DOCKED: BRANCH   2  18
DOCKED: ATOM     18  C   UNL     1     -50.094 -28.813   6.978 -0.14 +0.00    +0.006 A  
DOCKED: ATOM     19  C   UNL     1     -49.170 -29.383   6.104 -0.02 +0.00    +0.001 A  
DOCKED: ATOM     20  C   UNL     1     -48.441 -28.571   5.235 -0.13 +0.00    +0.029 A  
DOCKED: ATOM     21  C   UNL     1     -48.637 -27.191   5.241 -0.07 +0.00    +0.140 A  
DOCKED: ATOM     22  C   UNL     1     -49.562 -26.621   6.116 -0.07 +0.00    +0.029 A  
DOCKED: ATOM     23  F   UNL     1     -47.938 -26.411   4.405 -0.00 -0.00    -0.204 F  
DOCKED: ATOM     24  C   UNL     1     -50.291 -27.433   6.986 -0.08 +0.00    +0.001 A  
DOCKED: ENDBRANCH   2  18
DOCKED: TORSDOF 5
DOCKED: TER
DOCKED: ENDMDL
________________________________________________________________________________


    FINAL DOCKED STATE:
    ________________________


Run:   505 / 512
Time taken for this run:   0.001s

DOCKED: MODEL        505
DOCKED: USER    Run = 505
DOCKED: USER
DOCKED: USER    Estimated Free Energy of Binding    =  -4.40 kcal/mol  [=(1)+(2)+(3)-(4)]
DOCKED: USER
DOCKED: USER    (1) Final Intermolecular Energy     =  -5.89 kcal/mol
DOCKED: USER        vdW + Hbond + desolv Energy     =  -5.89 kcal/mol
DOCKED: USER        Electrostatic Energy            =  +0.00 kcal/mol
DOCKED: USER        Moving Ligand-Fixed Receptor    =  -5.89 kcal/mol
DOCKED: USER        Moving Ligand-Moving Receptor   =  +0.00 kcal/mol
DOCKED: USER    (2) Final Total Internal Energy     =  -1.11 kcal/mol
DOCKED: USER    (3) Torsional Free Energy           =  +1.49 kcal/mol
DOCKED: USER    (4) Unbound System's Energy         =  -1.11 kcal/mol
DOCKED: USER
DOCKED: USER
DOCKED: REMARK  5 active torsions:
DOCKED: REMARK  status: ('A' for Active; 'I' for Inactive)
DOCKED: REMARK    1  A    between atoms: C_2  and  C_19 
DOCKED: REMARK    2  A    between atoms: C_2  and  C_11 
DOCKED: REMARK    3  A    between atoms: C_19  and  C_20 
DOCKED: REMARK    4  A    between atoms: C_20  and  C_21 
DOCKED: REMARK    5  A    between atoms: C_21  and  N_22 
DOCKED: USER                              x       y       z     vdW  Elec       q    Type
DOCKED: USER                           _______ _______ _______ _____ _____    ______ ____
DOCKED: ROOT
DOCKED: ATOM      1  O   UNL     1     -51.422 -28.837   6.653 -0.09 -0.00    -0.346 OA 
DOCKED: ATOM      2  C   UNL     1     -52.713 -28.984   7.327 -0.16 +0.00    +0.130 C  
DOCKED: ATOM      3  C   UNL     1     -53.140 -30.382   6.985 -0.22 +0.00    +0.004 A  
DOCKED: ATOM      4  C   UNL     1     -52.132 -31.016   6.271 -0.28 +0.00    +0.006 A  
DOCKED: ATOM      5  C   UNL     1     -50.981 -30.101   6.105 -0.09 +0.00    +0.169 C  
DOCKED: ATOM      6  C   UNL     1     -54.320 -31.043   7.290 -0.20 -0.00    -0.001 A  
DOCKED: ATOM      7  C   UNL     1     -52.270 -32.324   5.837 -0.35 +0.00    +0.008 A  
DOCKED: ATOM      8  C   UNL     1     -54.476 -32.361   6.855 -0.22 +0.00    +0.010 A  
DOCKED: ATOM      9  C   UNL     1     -53.456 -32.997   6.133 -0.26 +0.00    +0.068 A  
DOCKED: ATOM     10  N   UNL     1     -53.776 -35.445   5.346 -2.55 -0.00    -0.191 NA 
DOCKED: ATOM     11  C   UNL     1     -53.633 -34.347   5.698 -0.36 +0.00    +0.101 C  
DOCKED: ENDROOT
DOCKED: BRANCH   2  12
DOCKED: ATOM     12  C   UNL     1     -52.503 -28.777   8.822 -0.05 +0.00    +0.038 C  
DOCKED: BRANCH  12  13
DOCKED: ATOM     13  C   UNL     1     -53.541 -27.818   9.403 -0.03 +0.00    +0.038 C  
DOCKED: BRANCH  13  14
DOCKED: ATOM     14  C   UNL     1     -54.448 -28.531  10.405 -0.00 +0.00    +0.251 C  
DOCKED: BRANCH  14  15
DOCKED: ATOM     15  N   UNL     1     -55.849 -28.311  10.067 -0.02 +0.00    +0.141 N  
DOCKED: ATOM     16  C   UNL     1     -56.447 -29.532   9.524 -0.00 +0.00    +0.285 C  
DOCKED: ATOM     17  C   UNL     1     -56.597 -27.859  11.241 +0.00 +0.00    +0.285 C  
DOCKED: ENDBRANCH  14  15
DOCKED: ENDBRANCH  13  14
DOCKED: ENDBRANCH  12  13
DOCKED: ENDBRANCH   2  12
DOCKED: BRANCH   2  18
DOCKED: ATOM     18  C   UNL     1     -53.621 -27.944   6.762 -0.20 +0.00    +0.006 A  
DOCKED: ATOM     19  C   UNL     1     -53.092 -26.755   6.260 -0.17 +0.00    +0.001 A  
DOCKED: ATOM     20  C   UNL     1     -53.943 -25.783   5.732 -0.15 +0.00    +0.029 A  
DOCKED: ATOM     21  C   UNL     1     -55.320 -26.001   5.706 -0.11 +0.00    +0.140 A  
DOCKED: ATOM     22  C   UNL     1     -55.848 -27.190   6.208 -0.15 +0.00    +0.029 A  
DOCKED: ATOM     23  F   UNL     1     -56.136 -25.068   5.197 -0.02 -0.00    -0.204 F  
DOCKED: ATOM     24  C   UNL     1     -54.998 -28.163   6.737 -0.22 +0.00    +0.001 A  
DOCKED: ENDBRANCH   2  18
DOCKED: TORSDOF 5
DOCKED: TER
DOCKED: ENDMDL
________________________________________________________________________________


    FINAL DOCKED STATE:
    ________________________


Run:   506 / 512
Time taken for this run:   0.001s

DOCKED: MODEL        506
DOCKED: USER    Run = 506
DOCKED: USER
DOCKED: USER    Estimated Free Energy of Binding    =  -6.05 kcal/mol  [=(1)+(2)+(3)-(4)]
DOCKED: USER
DOCKED: USER    (1) Final Intermolecular Energy     =  -7.54 kcal/mol
DOCKED: USER        vdW + Hbond + desolv Energy     =  -7.54 kcal/mol
DOCKED: USER        Electrostatic Energy            =  +0.00 kcal/mol
DOCKED: USER        Moving Ligand-Fixed Receptor    =  -7.54 kcal/mol
DOCKED: USER        Moving Ligand-Moving Receptor   =  +0.00 kcal/mol
DOCKED: USER    (2) Final Total Internal Energy     =  -1.34 kcal/mol
DOCKED: USER    (3) Torsional Free Energy           =  +1.49 kcal/mol
DOCKED: USER    (4) Unbound System's Energy         =  -1.34 kcal/mol
DOCKED: USER
DOCKED: USER
DOCKED: REMARK  5 active torsions:
DOCKED: REMARK  status: ('A' for Active; 'I' for Inactive)
DOCKED: REMARK    1  A    between atoms: C_2  and  C_19 
DOCKED: REMARK    2  A    between atoms: C_2  and  C_11 
DOCKED: REMARK    3  A    between atoms: C_19  and  C_20 
DOCKED: REMARK    4  A    between atoms: C_20  and  C_21 
DOCKED: REMARK    5  A    between atoms: C_21  and  N_22 
DOCKED: USER                              x       y       z     vdW  Elec       q    Type
DOCKED: USER                           _______ _______ _______ _____ _____    ______ ____
DOCKED: ROOT
DOCKED: ATOM      1  O   UNL     1     -50.487 -34.581   7.875 -0.12 -0.00    -0.346 OA 
DOCKED: ATOM      2  C   UNL     1     -51.246 -33.329   7.889 -0.26 +0.00    +0.130 C  
DOCKED: ATOM      3  C   UNL     1     -51.906 -33.295   6.540 -0.35 +0.00    +0.004 A  
DOCKED: ATOM      4  C   UNL     1     -51.639 -34.474   5.859 -0.39 +0.00    +0.006 A  
DOCKED: ATOM      5  C   UNL     1     -50.806 -35.362   6.701 -0.29 +0.00    +0.169 C  
DOCKED: ATOM      6  C   UNL     1     -52.690 -32.304   5.968 -0.34 -0.00    -0.001 A  
DOCKED: ATOM      7  C   UNL     1     -52.138 -34.700   4.588 -0.26 +0.00    +0.008 A  
DOCKED: ATOM      8  C   UNL     1     -53.198 -32.516   4.685 -0.11 +0.00    +0.010 A  
DOCKED: ATOM      9  C   UNL     1     -52.923 -33.708   3.999 -0.44 +0.00    +0.068 A  
DOCKED: ATOM     10  N   UNL     1     -53.885 -34.072   1.620 -2.91 -0.00    -0.191 NA 
DOCKED: ATOM     11  C   UNL     1     -53.453 -33.909   2.687 -0.39 +0.00    +0.101 C  
DOCKED: ENDROOT
DOCKED: BRANCH   2  12
DOCKED: ATOM     12  C   UNL     1     -52.246 -33.384   9.037 -0.20 +0.00    +0.038 C  
DOCKED: BRANCH  12  13
DOCKED: ATOM     13  C   UNL     1     -52.403 -34.806   9.573 -0.23 +0.00    +0.038 C  
DOCKED: BRANCH  13  14
DOCKED: ATOM     14  C   UNL     1     -51.756 -34.949  10.949 -0.14 +0.00    +0.251 C  
DOCKED: BRANCH  14  15
DOCKED: ATOM     15  N   UNL     1     -51.058 -33.721  11.312 -0.12 +0.00    +0.141 N  
DOCKED: ATOM     16  C   UNL     1     -51.767 -33.022  12.384 -0.03 +0.00    +0.285 C  
DOCKED: ATOM     17  C   UNL     1     -49.682 -34.012  11.719 -0.07 +0.00    +0.285 C  
DOCKED: ENDBRANCH  14  15
DOCKED: ENDBRANCH  13  14
DOCKED: ENDBRANCH  12  13
DOCKED: ENDBRANCH   2  12
DOCKED: BRANCH   2  18
DOCKED: ATOM     18  C   UNL     1     -50.262 -32.224   8.083 -0.22 +0.00    +0.006 A  
DOCKED: ATOM     19  C   UNL     1     -50.681 -30.897   8.004 -0.16 +0.00    +0.001 A  
DOCKED: ATOM     20  C   UNL     1     -49.759 -29.865   8.185 -0.10 +0.00    +0.029 A  
DOCKED: ATOM     21  C   UNL     1     -48.422 -30.161   8.446 -0.08 +0.00    +0.140 A  
DOCKED: ATOM     22  C   UNL     1     -48.005 -31.489   8.525 -0.14 +0.00    +0.029 A  
DOCKED: ATOM     23  F   UNL     1     -47.539 -29.170   8.622 -0.01 -0.00    -0.204 F  
DOCKED: ATOM     24  C   UNL     1     -48.925 -32.523   8.343 -0.19 +0.00    +0.001 A  
DOCKED: ENDBRANCH   2  18
DOCKED: TORSDOF 5
DOCKED: TER
DOCKED: ENDMDL
________________________________________________________________________________


    FINAL DOCKED STATE:
    ________________________


Run:   507 / 512
Time taken for this run:   0.001s

DOCKED: MODEL        507
DOCKED: USER    Run = 507
DOCKED: USER
DOCKED: USER    Estimated Free Energy of Binding    =  -3.83 kcal/mol  [=(1)+(2)+(3)-(4)]
DOCKED: USER
DOCKED: USER    (1) Final Intermolecular Energy     =  -5.33 kcal/mol
DOCKED: USER        vdW + Hbond + desolv Energy     =  -5.33 kcal/mol
DOCKED: USER        Electrostatic Energy            =  +0.00 kcal/mol
DOCKED: USER        Moving Ligand-Fixed Receptor    =  -5.33 kcal/mol
DOCKED: USER        Moving Ligand-Moving Receptor   =  +0.00 kcal/mol
DOCKED: USER    (2) Final Total Internal Energy     =  -1.37 kcal/mol
DOCKED: USER    (3) Torsional Free Energy           =  +1.49 kcal/mol
DOCKED: USER    (4) Unbound System's Energy         =  -1.37 kcal/mol
DOCKED: USER
DOCKED: USER
DOCKED: REMARK  5 active torsions:
DOCKED: REMARK  status: ('A' for Active; 'I' for Inactive)
DOCKED: REMARK    1  A    between atoms: C_2  and  C_19 
DOCKED: REMARK    2  A    between atoms: C_2  and  C_11 
DOCKED: REMARK    3  A    between atoms: C_19  and  C_20 
DOCKED: REMARK    4  A    between atoms: C_20  and  C_21 
DOCKED: REMARK    5  A    between atoms: C_21  and  N_22 
DOCKED: USER                              x       y       z     vdW  Elec       q    Type
DOCKED: USER                           _______ _______ _______ _____ _____    ______ ____
DOCKED: ROOT
DOCKED: ATOM      1  O   UNL     1     -44.829 -21.245  -2.338 -0.01 -0.00    -0.346 OA 
DOCKED: ATOM      2  C   UNL     1     -44.966 -20.803  -3.726 -0.08 +0.00    +0.130 C  
DOCKED: ATOM      3  C   UNL     1     -46.378 -21.169  -4.082 -0.15 +0.00    +0.004 A  
DOCKED: ATOM      4  C   UNL     1     -47.026 -21.673  -2.963 -0.20 +0.00    +0.006 A  
DOCKED: ATOM      5  C   UNL     1     -46.106 -21.665  -1.804 -0.13 +0.00    +0.169 C  
DOCKED: ATOM      6  C   UNL     1     -47.040 -21.053  -5.295 -0.19 -0.00    -0.001 A  
DOCKED: ATOM      7  C   UNL     1     -48.347 -22.082  -3.018 -0.31 +0.00    +0.008 A  
DOCKED: ATOM      8  C   UNL     1     -48.372 -21.465  -5.369 -0.31 +0.00    +0.010 A  
DOCKED: ATOM      9  C   UNL     1     -49.022 -21.976  -4.235 -0.37 +0.00    +0.068 A  
DOCKED: ATOM     10  N   UNL     1     -51.496 -22.726  -4.404 -2.28 -0.00    -0.191 NA 
DOCKED: ATOM     11  C   UNL     1     -50.386 -22.390  -4.329 -0.39 +0.00    +0.101 C  
DOCKED: ENDROOT
DOCKED: BRANCH   2  12
DOCKED: ATOM     12  C   UNL     1     -44.709 -19.302  -3.783 -0.13 +0.00    +0.038 C  
DOCKED: BRANCH  12  13
DOCKED: ATOM     13  C   UNL     1     -45.905 -18.513  -3.254 -0.10 +0.00    +0.038 C  
DOCKED: BRANCH  13  14
DOCKED: ATOM     14  C   UNL     1     -45.529 -17.714  -2.008 -0.08 +0.00    +0.251 C  
DOCKED: BRANCH  14  15
DOCKED: ATOM     15  N   UNL     1     -46.529 -17.902  -0.964 -0.15 +0.00    +0.141 N  
DOCKED: ATOM     16  C   UNL     1     -47.683 -18.639  -1.482 -0.23 +0.00    +0.285 C  
DOCKED: ATOM     17  C   UNL     1     -45.951 -18.606   0.183 -0.10 +0.00    +0.285 C  
DOCKED: ENDBRANCH  14  15
DOCKED: ENDBRANCH  13  14
DOCKED: ENDBRANCH  12  13
DOCKED: ENDBRANCH   2  12
DOCKED: BRANCH   2  18
DOCKED: ATOM     18  C   UNL     1     -43.952 -21.553  -4.525 -0.04 +0.00    +0.006 A  
DOCKED: ATOM     19  C   UNL     1     -43.258 -22.615  -3.947 -0.01 +0.00    +0.001 A  
DOCKED: ATOM     20  C   UNL     1     -42.310 -23.315  -4.695 -0.00 +0.00    +0.029 A  
DOCKED: ATOM     21  C   UNL     1     -42.059 -22.953  -6.018 +0.00 +0.00    +0.140 A  
DOCKED: ATOM     22  C   UNL     1     -42.755 -21.891  -6.595 -0.02 +0.00    +0.029 A  
DOCKED: ATOM     23  F   UNL     1     -41.151 -23.627  -6.736 +0.00 -0.00    -0.204 F  
DOCKED: ATOM     24  C   UNL     1     -43.703 -21.190  -5.847 -0.05 +0.00    +0.001 A  
DOCKED: ENDBRANCH   2  18
DOCKED: TORSDOF 5
DOCKED: TER
DOCKED: ENDMDL
________________________________________________________________________________


    FINAL DOCKED STATE:
    ________________________


Run:   508 / 512
Time taken for this run:   0.001s

DOCKED: MODEL        508
DOCKED: USER    Run = 508
DOCKED: USER
DOCKED: USER    Estimated Free Energy of Binding    =  -3.86 kcal/mol  [=(1)+(2)+(3)-(4)]
DOCKED: USER
DOCKED: USER    (1) Final Intermolecular Energy     =  -5.35 kcal/mol
DOCKED: USER        vdW + Hbond + desolv Energy     =  -5.35 kcal/mol
DOCKED: USER        Electrostatic Energy            =  +0.00 kcal/mol
DOCKED: USER        Moving Ligand-Fixed Receptor    =  -5.35 kcal/mol
DOCKED: USER        Moving Ligand-Moving Receptor   =  +0.00 kcal/mol
DOCKED: USER    (2) Final Total Internal Energy     =  -1.29 kcal/mol
DOCKED: USER    (3) Torsional Free Energy           =  +1.49 kcal/mol
DOCKED: USER    (4) Unbound System's Energy         =  -1.29 kcal/mol
DOCKED: USER
DOCKED: USER
DOCKED: REMARK  5 active torsions:
DOCKED: REMARK  status: ('A' for Active; 'I' for Inactive)
DOCKED: REMARK    1  A    between atoms: C_2  and  C_19 
DOCKED: REMARK    2  A    between atoms: C_2  and  C_11 
DOCKED: REMARK    3  A    between atoms: C_19  and  C_20 
DOCKED: REMARK    4  A    between atoms: C_20  and  C_21 
DOCKED: REMARK    5  A    between atoms: C_21  and  N_22 
DOCKED: USER                              x       y       z     vdW  Elec       q    Type
DOCKED: USER                           _______ _______ _______ _____ _____    ______ ____
DOCKED: ROOT
DOCKED: ATOM      1  O   UNL     1     -45.855 -24.562  -1.187 -0.00 -0.00    -0.346 OA 
DOCKED: ATOM      2  C   UNL     1     -45.758 -23.102  -1.168 -0.10 +0.00    +0.130 C  
DOCKED: ATOM      3  C   UNL     1     -46.883 -22.655  -2.055 -0.16 +0.00    +0.004 A  
DOCKED: ATOM      4  C   UNL     1     -47.627 -23.756  -2.456 -0.19 +0.00    +0.006 A  
DOCKED: ATOM      5  C   UNL     1     -47.062 -24.988  -1.862 -0.10 +0.00    +0.169 C  
DOCKED: ATOM      6  C   UNL     1     -47.228 -21.375  -2.464 -0.24 -0.00    -0.001 A  
DOCKED: ATOM      7  C   UNL     1     -48.731 -23.617  -3.279 -0.24 +0.00    +0.008 A  
DOCKED: ATOM      8  C   UNL     1     -48.337 -21.220  -3.298 -0.29 +0.00    +0.010 A  
DOCKED: ATOM      9  C   UNL     1     -49.085 -22.335  -3.703 -0.36 +0.00    +0.068 A  
DOCKED: ATOM     10  N   UNL     1     -51.140 -22.011  -5.247 -2.56 -0.00    -0.191 NA 
DOCKED: ATOM     11  C   UNL     1     -50.218 -22.157  -4.555 -0.36 +0.00    +0.101 C  
DOCKED: ENDROOT
DOCKED: BRANCH   2  12
DOCKED: ATOM     12  C   UNL     1     -45.912 -22.627   0.272 -0.08 +0.00    +0.038 C  
DOCKED: BRANCH  12  13
DOCKED: ATOM     13  C   UNL     1     -45.375 -23.660   1.261 -0.11 +0.00    +0.038 C  
DOCKED: BRANCH  13  14
DOCKED: ATOM     14  C   UNL     1     -46.445 -24.692   1.613 -0.08 +0.00    +0.251 C  
DOCKED: BRANCH  14  15
DOCKED: ATOM     15  N   UNL     1     -47.705 -24.029   1.924 -0.14 +0.00    +0.141 N  
DOCKED: ATOM     16  C   UNL     1     -48.806 -24.633   1.171 -0.14 +0.00    +0.285 C  
DOCKED: ATOM     17  C   UNL     1     -47.980 -24.091   3.361 -0.10 +0.00    +0.285 C  
DOCKED: ENDBRANCH  14  15
DOCKED: ENDBRANCH  13  14
DOCKED: ENDBRANCH  12  13
DOCKED: ENDBRANCH   2  12
DOCKED: BRANCH   2  18
DOCKED: ATOM     18  C   UNL     1     -44.413 -22.748  -1.710 -0.04 +0.00    +0.006 A  
DOCKED: ATOM     19  C   UNL     1     -43.826 -21.528  -1.376 -0.04 +0.00    +0.001 A  
DOCKED: ATOM     20  C   UNL     1     -42.570 -21.198  -1.885 -0.01 +0.00    +0.029 A  
DOCKED: ATOM     21  C   UNL     1     -41.902 -22.088  -2.725 +0.00 +0.00    +0.140 A  
DOCKED: ATOM     22  C   UNL     1     -42.489 -23.308  -3.059 -0.00 +0.00    +0.029 A  
DOCKED: ATOM     23  F   UNL     1     -40.695 -21.771  -3.212 +0.00 -0.00    -0.204 F  
DOCKED: ATOM     24  C   UNL     1     -43.747 -23.639  -2.551 -0.01 +0.00    +0.001 A  
DOCKED: ENDBRANCH   2  18
DOCKED: TORSDOF 5
DOCKED: TER
DOCKED: ENDMDL
________________________________________________________________________________


    FINAL DOCKED STATE:
    ________________________


Run:   509 / 512
Time taken for this run:   0.001s

DOCKED: MODEL        509
DOCKED: USER    Run = 509
DOCKED: USER
DOCKED: USER    Estimated Free Energy of Binding    =  -5.06 kcal/mol  [=(1)+(2)+(3)-(4)]
DOCKED: USER
DOCKED: USER    (1) Final Intermolecular Energy     =  -6.55 kcal/mol
DOCKED: USER        vdW + Hbond + desolv Energy     =  -6.55 kcal/mol
DOCKED: USER        Electrostatic Energy            =  +0.00 kcal/mol
DOCKED: USER        Moving Ligand-Fixed Receptor    =  -6.55 kcal/mol
DOCKED: USER        Moving Ligand-Moving Receptor   =  +0.00 kcal/mol
DOCKED: USER    (2) Final Total Internal Energy     =  -1.46 kcal/mol
DOCKED: USER    (3) Torsional Free Energy           =  +1.49 kcal/mol
DOCKED: USER    (4) Unbound System's Energy         =  -1.46 kcal/mol
DOCKED: USER
DOCKED: USER
DOCKED: REMARK  5 active torsions:
DOCKED: REMARK  status: ('A' for Active; 'I' for Inactive)
DOCKED: REMARK    1  A    between atoms: C_2  and  C_19 
DOCKED: REMARK    2  A    between atoms: C_2  and  C_11 
DOCKED: REMARK    3  A    between atoms: C_19  and  C_20 
DOCKED: REMARK    4  A    between atoms: C_20  and  C_21 
DOCKED: REMARK    5  A    between atoms: C_21  and  N_22 
DOCKED: USER                              x       y       z     vdW  Elec       q    Type
DOCKED: USER                           _______ _______ _______ _____ _____    ______ ____
DOCKED: ROOT
DOCKED: ATOM      1  O   UNL     1     -52.348 -31.178   8.092 -0.03 -0.00    -0.346 OA 
DOCKED: ATOM      2  C   UNL     1     -51.604 -32.438   8.072 -0.18 +0.00    +0.130 C  
DOCKED: ATOM      3  C   UNL     1     -51.982 -33.058   6.757 -0.33 +0.00    +0.004 A  
DOCKED: ATOM      4  C   UNL     1     -52.783 -32.180   6.041 -0.33 +0.00    +0.006 A  
DOCKED: ATOM      5  C   UNL     1     -52.978 -30.932   6.814 -0.21 +0.00    +0.169 C  
DOCKED: ATOM      6  C   UNL     1     -51.635 -34.294   6.233 -0.42 -0.00    -0.001 A  
DOCKED: ATOM      7  C   UNL     1     -53.266 -32.506   4.785 -0.10 +0.00    +0.008 A  
DOCKED: ATOM      8  C   UNL     1     -52.118 -34.640   4.970 -0.39 +0.00    +0.010 A  
DOCKED: ATOM      9  C   UNL     1     -52.929 -33.750   4.250 -0.43 +0.00    +0.068 A  
DOCKED: ATOM     10  N   UNL     1     -53.804 -34.421   1.905 -2.35 -0.00    -0.191 NA 
DOCKED: ATOM     11  C   UNL     1     -53.412 -34.121   2.957 -0.47 +0.00    +0.101 C  
DOCKED: ENDROOT
DOCKED: BRANCH   2  12
DOCKED: ATOM     12  C   UNL     1     -50.117 -32.122   8.173 -0.23 +0.00    +0.038 C  
DOCKED: BRANCH  12  13
DOCKED: ATOM     13  C   UNL     1     -49.869 -30.616   8.218 -0.15 +0.00    +0.038 C  
DOCKED: BRANCH  13  14
DOCKED: ATOM     14  C   UNL     1     -50.212 -30.043   9.592 -0.02 +0.00    +0.251 C  
DOCKED: BRANCH  14  15
DOCKED: ATOM     15  N   UNL     1     -49.930 -31.023  10.634 -0.03 +0.00    +0.141 N  
DOCKED: ATOM     16  C   UNL     1     -48.576 -30.841  11.161 -0.01 +0.00    +0.285 C  
DOCKED: ATOM     17  C   UNL     1     -50.913 -30.924  11.715 -0.01 +0.00    +0.285 C  
DOCKED: ENDBRANCH  14  15
DOCKED: ENDBRANCH  13  14
DOCKED: ENDBRANCH  12  13
DOCKED: ENDBRANCH   2  12
DOCKED: BRANCH   2  18
DOCKED: ATOM     18  C   UNL     1     -52.066 -33.237   9.245 -0.16 +0.00    +0.006 A  
DOCKED: ATOM     19  C   UNL     1     -53.382 -33.124   9.690 -0.12 +0.00    +0.001 A  
DOCKED: ATOM     20  C   UNL     1     -53.813 -33.871  10.787 -0.13 +0.00    +0.029 A  
DOCKED: ATOM     21  C   UNL     1     -52.927 -34.729  11.437 -0.08 +0.00    +0.140 A  
DOCKED: ATOM     22  C   UNL     1     -51.610 -34.842  10.991 -0.23 +0.00    +0.029 A  
DOCKED: ATOM     23  F   UNL     1     -53.341 -35.447  12.489 -0.04 -0.00    -0.204 F  
DOCKED: ATOM     24  C   UNL     1     -51.179 -34.095   9.894 -0.12 +0.00    +0.001 A  
DOCKED: ENDBRANCH   2  18
DOCKED: TORSDOF 5
DOCKED: TER
DOCKED: ENDMDL
________________________________________________________________________________


    FINAL DOCKED STATE:
    ________________________


Run:   510 / 512
Time taken for this run:   0.001s

DOCKED: MODEL        510
DOCKED: USER    Run = 510
DOCKED: USER
DOCKED: USER    Estimated Free Energy of Binding    =  -5.96 kcal/mol  [=(1)+(2)+(3)-(4)]
DOCKED: USER
DOCKED: USER    (1) Final Intermolecular Energy     =  -7.45 kcal/mol
DOCKED: USER        vdW + Hbond + desolv Energy     =  -7.45 kcal/mol
DOCKED: USER        Electrostatic Energy            =  +0.00 kcal/mol
DOCKED: USER        Moving Ligand-Fixed Receptor    =  -7.45 kcal/mol
DOCKED: USER        Moving Ligand-Moving Receptor   =  +0.00 kcal/mol
DOCKED: USER    (2) Final Total Internal Energy     =  -1.28 kcal/mol
DOCKED: USER    (3) Torsional Free Energy           =  +1.49 kcal/mol
DOCKED: USER    (4) Unbound System's Energy         =  -1.28 kcal/mol
DOCKED: USER
DOCKED: USER
DOCKED: REMARK  5 active torsions:
DOCKED: REMARK  status: ('A' for Active; 'I' for Inactive)
DOCKED: REMARK    1  A    between atoms: C_2  and  C_19 
DOCKED: REMARK    2  A    between atoms: C_2  and  C_11 
DOCKED: REMARK    3  A    between atoms: C_19  and  C_20 
DOCKED: REMARK    4  A    between atoms: C_20  and  C_21 
DOCKED: REMARK    5  A    between atoms: C_21  and  N_22 
DOCKED: USER                              x       y       z     vdW  Elec       q    Type
DOCKED: USER                           _______ _______ _______ _____ _____    ______ ____
DOCKED: ROOT
DOCKED: ATOM      1  O   UNL     1     -50.553 -34.840   7.461 -0.31 -0.00    -0.346 OA 
DOCKED: ATOM      2  C   UNL     1     -51.374 -33.636   7.599 -0.29 +0.00    +0.130 C  
DOCKED: ATOM      3  C   UNL     1     -52.074 -33.525   6.275 -0.37 +0.00    +0.004 A  
DOCKED: ATOM      4  C   UNL     1     -51.768 -34.628   5.491 -0.34 +0.00    +0.006 A  
DOCKED: ATOM      5  C   UNL     1     -50.867 -35.538   6.234 -0.14 +0.00    +0.169 C  
DOCKED: ATOM      6  C   UNL     1     -52.924 -32.534   5.808 -0.35 -0.00    -0.001 A  
DOCKED: ATOM      7  C   UNL     1     -52.293 -34.776   4.219 -0.35 +0.00    +0.008 A  
DOCKED: ATOM      8  C   UNL     1     -53.458 -32.666   4.525 +0.06 +0.00    +0.010 A  
DOCKED: ATOM      9  C   UNL     1     -53.144 -33.782   3.735 -0.46 +0.00    +0.068 A  
DOCKED: ATOM     10  N   UNL     1     -54.156 -33.998   1.359 -3.24 -0.00    -0.191 NA 
DOCKED: ATOM     11  C   UNL     1     -53.702 -33.901   2.424 -0.27 +0.00    +0.101 C  
DOCKED: ENDROOT
DOCKED: BRANCH   2  12
DOCKED: ATOM     12  C   UNL     1     -52.335 -33.837   8.764 -0.25 +0.00    +0.038 C  
DOCKED: BRANCH  12  13
DOCKED: ATOM     13  C   UNL     1     -53.015 -32.527   9.157 -0.12 +0.00    +0.038 C  
DOCKED: BRANCH  13  14
DOCKED: ATOM     14  C   UNL     1     -52.537 -32.049  10.527 -0.02 +0.00    +0.251 C  
DOCKED: BRANCH  14  15
DOCKED: ATOM     15  N   UNL     1     -51.850 -30.769  10.405 -0.02 +0.00    +0.141 N  
DOCKED: ATOM     16  C   UNL     1     -52.706 -29.785   9.741 -0.01 +0.00    +0.285 C  
DOCKED: ATOM     17  C   UNL     1     -51.439 -30.277  11.722 -0.00 +0.00    +0.285 C  
DOCKED: ENDBRANCH  14  15
DOCKED: ENDBRANCH  13  14
DOCKED: ENDBRANCH  12  13
DOCKED: ENDBRANCH   2  12
DOCKED: BRANCH   2  18
DOCKED: ATOM     18  C   UNL     1     -50.441 -32.501   7.860 -0.24 +0.00    +0.006 A  
DOCKED: ATOM     19  C   UNL     1     -50.672 -31.259   7.268 -0.20 +0.00    +0.001 A  
DOCKED: ATOM     20  C   UNL     1     -49.799 -30.199   7.513 -0.14 +0.00    +0.029 A  
DOCKED: ATOM     21  C   UNL     1     -48.698 -30.380   8.348 -0.09 +0.00    +0.140 A  
DOCKED: ATOM     22  C   UNL     1     -48.468 -31.622   8.940 -0.14 +0.00    +0.029 A  
DOCKED: ATOM     23  F   UNL     1     -47.861 -29.361   8.585 -0.01 -0.00    -0.204 F  
DOCKED: ATOM     24  C   UNL     1     -49.340 -32.684   8.696 -0.16 +0.00    +0.001 A  
DOCKED: ENDBRANCH   2  18
DOCKED: TORSDOF 5
DOCKED: TER
DOCKED: ENDMDL
________________________________________________________________________________


    FINAL DOCKED STATE:
    ________________________


Run:   511 / 512
Time taken for this run:   0.001s

DOCKED: MODEL        511
DOCKED: USER    Run = 511
DOCKED: USER
DOCKED: USER    Estimated Free Energy of Binding    =  -3.70 kcal/mol  [=(1)+(2)+(3)-(4)]
DOCKED: USER
DOCKED: USER    (1) Final Intermolecular Energy     =  -5.19 kcal/mol
DOCKED: USER        vdW + Hbond + desolv Energy     =  -5.19 kcal/mol
DOCKED: USER        Electrostatic Energy            =  +0.00 kcal/mol
DOCKED: USER        Moving Ligand-Fixed Receptor    =  -5.19 kcal/mol
DOCKED: USER        Moving Ligand-Moving Receptor   =  +0.00 kcal/mol
DOCKED: USER    (2) Final Total Internal Energy     =  -1.43 kcal/mol
DOCKED: USER    (3) Torsional Free Energy           =  +1.49 kcal/mol
DOCKED: USER    (4) Unbound System's Energy         =  -1.43 kcal/mol
DOCKED: USER
DOCKED: USER
DOCKED: REMARK  5 active torsions:
DOCKED: REMARK  status: ('A' for Active; 'I' for Inactive)
DOCKED: REMARK    1  A    between atoms: C_2  and  C_19 
DOCKED: REMARK    2  A    between atoms: C_2  and  C_11 
DOCKED: REMARK    3  A    between atoms: C_19  and  C_20 
DOCKED: REMARK    4  A    between atoms: C_20  and  C_21 
DOCKED: REMARK    5  A    between atoms: C_21  and  N_22 
DOCKED: USER                              x       y       z     vdW  Elec       q    Type
DOCKED: USER                           _______ _______ _______ _____ _____    ______ ____
DOCKED: ROOT
DOCKED: ATOM      1  O   UNL     1     -44.381 -21.328  -3.094 +0.00 -0.00    -0.346 OA 
DOCKED: ATOM      2  C   UNL     1     -44.886 -22.399  -2.234 -0.04 +0.00    +0.130 C  
DOCKED: ATOM      3  C   UNL     1     -46.325 -22.536  -2.638 -0.11 +0.00    +0.004 A  
DOCKED: ATOM      4  C   UNL     1     -46.592 -21.697  -3.710 -0.16 +0.00    +0.006 A  
DOCKED: ATOM      5  C   UNL     1     -45.363 -20.965  -4.093 -0.09 +0.00    +0.169 C  
DOCKED: ATOM      6  C   UNL     1     -47.317 -23.348  -2.107 -0.17 -0.00    -0.001 A  
DOCKED: ATOM      7  C   UNL     1     -47.851 -21.636  -4.283 -0.30 +0.00    +0.008 A  
DOCKED: ATOM      8  C   UNL     1     -48.593 -23.295  -2.670 -0.28 +0.00    +0.010 A  
DOCKED: ATOM      9  C   UNL     1     -48.858 -22.444  -3.753 -0.33 +0.00    +0.068 A  
DOCKED: ATOM     10  N   UNL     1     -51.236 -22.374  -4.779 -2.50 -0.00    -0.191 NA 
DOCKED: ATOM     11  C   UNL     1     -50.170 -22.405  -4.318 -0.41 +0.00    +0.101 C  
DOCKED: ENDROOT
DOCKED: BRANCH   2  12
DOCKED: ATOM     12  C   UNL     1     -44.071 -23.658  -2.502 -0.02 +0.00    +0.038 C  
DOCKED: BRANCH  12  13
DOCKED: ATOM     13  C   UNL     1     -44.427 -24.275  -3.854 -0.02 +0.00    +0.038 C  
DOCKED: BRANCH  13  14
DOCKED: ATOM     14  C   UNL     1     -45.062 -25.653  -3.678 -0.02 +0.00    +0.251 C  
DOCKED: BRANCH  14  15
DOCKED: ATOM     15  N   UNL     1     -46.469 -25.616  -4.061 -0.10 +0.00    +0.141 N  
DOCKED: ATOM     16  C   UNL     1     -46.611 -25.696  -5.515 -0.11 +0.00    +0.285 C  
DOCKED: ATOM     17  C   UNL     1     -47.207 -26.704  -3.418 -0.11 +0.00    +0.285 C  
DOCKED: ENDBRANCH  14  15
DOCKED: ENDBRANCH  13  14
DOCKED: ENDBRANCH  12  13
DOCKED: ENDBRANCH   2  12
DOCKED: BRANCH   2  18
DOCKED: ATOM     18  C   UNL     1     -44.720 -21.940  -0.823 -0.09 +0.00    +0.006 A  
DOCKED: ATOM     19  C   UNL     1     -44.627 -20.578  -0.540 -0.11 +0.00    +0.001 A  
DOCKED: ATOM     20  C   UNL     1     -44.471 -20.151   0.779 -0.08 +0.00    +0.029 A  
DOCKED: ATOM     21  C   UNL     1     -44.408 -21.085   1.812 +0.03 +0.00    +0.140 A  
DOCKED: ATOM     22  C   UNL     1     -44.501 -22.447   1.528 -0.08 +0.00    +0.029 A  
DOCKED: ATOM     23  F   UNL     1     -44.260 -20.674   3.078 -0.02 -0.00    -0.204 F  
DOCKED: ATOM     24  C   UNL     1     -44.657 -22.876   0.208 -0.09 +0.00    +0.001 A  
DOCKED: ENDBRANCH   2  18
DOCKED: TORSDOF 5
DOCKED: TER
DOCKED: ENDMDL
________________________________________________________________________________


    FINAL DOCKED STATE:
    ________________________


Run:   512 / 512
Time taken for this run:   0.001s

DOCKED: MODEL        512
DOCKED: USER    Run = 512
DOCKED: USER
DOCKED: USER    Estimated Free Energy of Binding    =  -5.27 kcal/mol  [=(1)+(2)+(3)-(4)]
DOCKED: USER
DOCKED: USER    (1) Final Intermolecular Energy     =  -6.76 kcal/mol
DOCKED: USER        vdW + Hbond + desolv Energy     =  -6.76 kcal/mol
DOCKED: USER        Electrostatic Energy            =  +0.00 kcal/mol
DOCKED: USER        Moving Ligand-Fixed Receptor    =  -6.76 kcal/mol
DOCKED: USER        Moving Ligand-Moving Receptor   =  +0.00 kcal/mol
DOCKED: USER    (2) Final Total Internal Energy     =  -1.09 kcal/mol
DOCKED: USER    (3) Torsional Free Energy           =  +1.49 kcal/mol
DOCKED: USER    (4) Unbound System's Energy         =  -1.09 kcal/mol
DOCKED: USER
DOCKED: USER
DOCKED: REMARK  5 active torsions:
DOCKED: REMARK  status: ('A' for Active; 'I' for Inactive)
DOCKED: REMARK    1  A    between atoms: C_2  and  C_19 
DOCKED: REMARK    2  A    between atoms: C_2  and  C_11 
DOCKED: REMARK    3  A    between atoms: C_19  and  C_20 
DOCKED: REMARK    4  A    between atoms: C_20  and  C_21 
DOCKED: REMARK    5  A    between atoms: C_21  and  N_22 
DOCKED: USER                              x       y       z     vdW  Elec       q    Type
DOCKED: USER                           _______ _______ _______ _____ _____    ______ ____
DOCKED: ROOT
DOCKED: ATOM      1  O   UNL     1     -51.764 -32.243   8.044 -0.05 -0.00    -0.346 OA 
DOCKED: ATOM      2  C   UNL     1     -52.970 -33.066   8.150 -0.15 +0.00    +0.130 C  
DOCKED: ATOM      3  C   UNL     1     -53.359 -33.320   6.722 -0.27 +0.00    +0.004 A  
DOCKED: ATOM      4  C   UNL     1     -52.400 -32.783   5.874 -0.37 +0.00    +0.006 A  
DOCKED: ATOM      5  C   UNL     1     -51.320 -32.158   6.670 -0.21 +0.00    +0.169 C  
DOCKED: ATOM      6  C   UNL     1     -54.467 -33.982   6.214 -0.28 -0.00    -0.001 A  
DOCKED: ATOM      7  C   UNL     1     -52.516 -32.885   4.499 -0.25 +0.00    +0.008 A  
DOCKED: ATOM      8  C   UNL     1     -54.601 -34.089   4.829 -0.38 +0.00    +0.010 A  
DOCKED: ATOM      9  C   UNL     1     -53.630 -33.544   3.976 -0.39 +0.00    +0.068 A  
DOCKED: ATOM     10  N   UNL     1     -53.906 -33.765   1.409 -3.13 -0.00    -0.191 NA 
DOCKED: ATOM     11  C   UNL     1     -53.783 -33.665   2.560 -0.26 +0.00    +0.101 C  
DOCKED: ENDROOT
DOCKED: BRANCH   2  12
DOCKED: ATOM     12  C   UNL     1     -52.618 -34.343   8.904 -0.28 +0.00    +0.038 C  
DOCKED: BRANCH  12  13
DOCKED: ATOM     13  C   UNL     1     -53.305 -34.392  10.267 -0.19 +0.00    +0.038 C  
DOCKED: BRANCH  13  14
DOCKED: ATOM     14  C   UNL     1     -52.287 -34.287  11.401 -0.12 +0.00    +0.251 C  
DOCKED: BRANCH  14  15
DOCKED: ATOM     15  N   UNL     1     -52.838 -33.516  12.509 -0.05 +0.00    +0.141 N  
DOCKED: ATOM     16  C   UNL     1     -54.296 -33.638  12.548 -0.03 +0.00    +0.285 C  
DOCKED: ATOM     17  C   UNL     1     -52.258 -33.954  13.780 -0.02 +0.00    +0.285 C  
DOCKED: ENDBRANCH  14  15
DOCKED: ENDBRANCH  13  14
DOCKED: ENDBRANCH  12  13
DOCKED: ENDBRANCH   2  12
DOCKED: BRANCH   2  18
DOCKED: ATOM     18  C   UNL     1     -53.983 -32.263   8.895 -0.09 +0.00    +0.006 A  
DOCKED: ATOM     19  C   UNL     1     -55.343 -32.481   8.678 -0.11 +0.00    +0.001 A  
DOCKED: ATOM     20  C   UNL     1     -56.289 -31.729   9.375 -0.07 +0.00    +0.029 A  
DOCKED: ATOM     21  C   UNL     1     -55.874 -30.760  10.287 -0.01 +0.00    +0.140 A  
DOCKED: ATOM     22  C   UNL     1     -54.514 -30.542  10.504 -0.02 +0.00    +0.029 A  
DOCKED: ATOM     23  F   UNL     1     -56.782 -30.039  10.958 +0.01 -0.00    -0.204 F  
DOCKED: ATOM     24  C   UNL     1     -53.567 -31.294   9.807 -0.04 +0.00    +0.001 A  
DOCKED: ENDBRANCH   2  18
DOCKED: TORSDOF 5
DOCKED: TER
DOCKED: ENDMDL
________________________________________________________________________________


    CLUSTERING HISTOGRAM
    ____________________


________________________________________________________________________________
     |           |     |           |     |
Clus | Lowest    | Run | Mean      | Num | Histogram
-ter | Binding   |     | Binding   | in  |
Rank | Energy    |     | Energy    | Clus|    5    10   15   20   25   30   35
_____|___________|_____|___________|_____|____:____|____:____|____:____|____:___
   1 |     -6.61 | 483 |     -5.43 |  24 |########################
   2 |     -6.32 | 315 |     -5.42 |  52 |####################################################
   3 |     -6.07 | 376 |     -5.08 |  14 |##############
   4 |     -5.87 | 494 |     -5.46 |  12 |############
   5 |     -5.43 | 224 |     -4.83 |  24 |########################
   6 |     -5.33 | 486 |     -5.00 |   3 |###
   7 |     -5.30 |  90 |     -4.60 |   7 |#######
   8 |     -5.23 | 405 |     -4.18 |  17 |#################
   9 |     -5.06 |  93 |     -5.06 |   1 |#
  10 |     -4.95 | 257 |     -4.57 |  16 |################
  11 |     -4.90 | 303 |     -4.42 |   8 |########
  12 |     -4.75 | 165 |     -4.23 |  46 |##############################################
  13 |     -4.70 | 229 |     -4.31 |  53 |#####################################################
  14 |     -4.63 |  91 |     -4.20 |  11 |###########
  15 |     -4.62 | 455 |     -4.62 |   1 |#
  16 |     -4.50 | 380 |     -4.16 |  17 |#################
  17 |     -4.37 | 468 |     -3.89 |  23 |#######################
  18 |     -4.33 | 363 |     -4.04 |  23 |#######################
  19 |     -4.30 |  82 |     -3.95 |   8 |########
  20 |     -4.29 |  87 |     -4.29 |   1 |#
  21 |     -4.28 | 101 |     -4.14 |   9 |#########
  22 |     -4.27 | 394 |     -3.92 |   3 |###
  23 |     -4.22 |  65 |     -4.00 |   5 |#####
  24 |     -4.21 | 312 |     -3.86 |  21 |#####################
  25 |     -4.16 | 370 |     -3.90 |  20 |####################
  26 |     -4.15 | 418 |     -4.02 |   3 |###
  27 |     -4.14 | 247 |     -3.71 |   6 |######
  28 |     -4.10 | 104 |     -3.91 |   6 |######
  29 |     -4.08 | 173 |     -3.76 |  15 |###############
  30 |     -4.07 | 360 |     -4.07 |   1 |#
  31 |     -4.03 |  38 |     -3.75 |   9 |#########
  32 |     -4.00 | 122 |     -3.69 |   4 |####
  33 |     -3.96 | 432 |     -3.76 |   6 |######
  34 |     -3.94 |  75 |     -3.77 |   2 |##
  35 |     -3.93 | 410 |     -3.69 |   3 |###
  36 |     -3.90 | 160 |     -3.82 |   2 |##
  37 |     -3.87 | 334 |     -3.83 |   2 |##
  38 |     -3.85 | 441 |     -3.85 |   1 |#
  39 |     -3.83 | 507 |     -3.54 |   8 |########
  40 |     -3.83 | 440 |     -3.81 |   2 |##
  41 |     -3.83 | 277 |     -3.48 |   3 |###
  42 |     -3.63 | 187 |     -3.53 |   2 |##
  43 |     -3.62 | 349 |     -3.62 |   1 |#
  44 |     -3.61 | 205 |     -3.36 |   2 |##
  45 |     -3.60 | 333 |     -3.60 |   1 |#
  46 |     -3.59 | 365 |     -3.57 |   2 |##
  47 |     -3.56 |  16 |     -3.53 |   2 |##
  48 |     -3.49 | 367 |     -3.49 |   1 |#
  49 |     -3.48 | 148 |     -3.48 |   1 |#
  50 |     -3.42 | 156 |     -3.42 |   1 |#
  51 |     -3.37 |  68 |     -3.37 |   1 |#
  52 |     -3.36 | 330 |     -3.36 |   1 |#
  53 |     -3.34 |  84 |     -3.34 |   1 |#
  54 |     -3.30 | 475 |     -3.30 |   1 |#
  55 |     -3.15 | 420 |     -3.15 |   1 |#
  56 |     -3.05 |  49 |     -3.05 |   1 |#
  57 |     -2.87 | 184 |     -2.87 |   1 |#
_____|___________|_____|___________|_____|______________________________________


    RMSD TABLE
    __________


_______________________________________________________________________
     |      |      |           |         |                 |
Rank | Sub- | Run  | Binding   | Cluster | Reference       | Grep
     | Rank |      | Energy    | RMSD    | RMSD            | Pattern
_____|______|______|___________|_________|_________________|___________
   1      1    483       -6.61      0.00     60.69           RANKING
   1      2     48       -6.56      0.59     60.31           RANKING
   1      3    348       -6.40      0.94     61.08           RANKING
   1      4     35       -6.34      0.61     60.73           RANKING
   1      5    311       -6.28      1.23     60.31           RANKING
   1      6    386       -6.22      1.59     59.90           RANKING
   1      7    473       -6.10      1.85     59.75           RANKING
   1      8    435       -6.04      1.80     60.39           RANKING
   1      9    230       -6.00      1.88     61.67           RANKING
   1     10    510       -5.96      1.56     59.55           RANKING
   1     11    147       -5.78      1.21     61.05           RANKING
   1     12    157       -5.78      1.02     59.98           RANKING
   1     13    415       -5.43      1.54     59.70           RANKING
   1     14    430       -5.39      1.92     60.48           RANKING
   1     15    261       -5.06      1.84     60.64           RANKING
   1     16     18       -5.02      1.57     61.09           RANKING
   1     17    300       -4.84      1.79     60.78           RANKING
   1     18    342       -4.75      1.75     60.73           RANKING
   1     19    445       -4.63      1.78     61.23           RANKING
   1     20    155       -4.61      1.94     60.02           RANKING
   1     21    467       -4.36      1.49     60.30           RANKING
   1     22    396       -4.35      1.80     60.03           RANKING
   1     23    130       -4.23      1.59     60.04           RANKING
   1     24     12       -3.64      1.96     60.01           RANKING
   2      1    315       -6.32      0.00     59.97           RANKING
   2      2    170       -6.07      1.01     59.88           RANKING
   2      3    404       -6.05      1.01     59.80           RANKING
   2      4    496       -5.97      1.04     59.99           RANKING
   2      5     73       -5.96      0.77     59.95           RANKING
   2      6    120       -5.95      1.13     60.13           RANKING
   2      7    172       -5.92      1.29     60.13           RANKING
   2      8    128       -5.89      0.98     60.15           RANKING
   2      9    268       -5.88      0.87     60.07           RANKING
   2     10     22       -5.81      1.31     60.20           RANKING
   2     11    272       -5.76      1.36     60.51           RANKING
   2     12    343       -5.74      1.48     60.26           RANKING
   2     13     74       -5.73      0.65     60.13           RANKING
   2     14    182       -5.69      1.83     60.63           RANKING
   2     15    371       -5.67      1.41     59.92           RANKING
   2     16    129       -5.67      1.18     60.03           RANKING
   2     17    481       -5.66      1.15     60.07           RANKING
   2     18     83       -5.62      1.84     60.83           RANKING
   2     19    285       -5.58      1.41     60.13           RANKING
   2     20      1       -5.58      1.20     59.98           RANKING
   2     21    267       -5.58      1.55     60.00           RANKING
   2     22    189       -5.57      0.89     60.14           RANKING
   2     23    427       -5.56      1.26     60.22           RANKING
   2     24    113       -5.55      1.04     60.36           RANKING
   2     25    306       -5.54      1.50     60.31           RANKING
   2     26    112       -5.51      1.73     60.55           RANKING
   2     27    289       -5.50      1.32     59.63           RANKING
   2     28    328       -5.45      1.74     60.08           RANKING
   2     29    203       -5.42      1.84     60.73           RANKING
   2     30    298       -5.41      0.94     60.04           RANKING
   2     31     44       -5.36      1.29     59.97           RANKING
   2     32    286       -5.36      1.59     60.00           RANKING
   2     33    314       -5.32      1.61     60.13           RANKING
   2     34    273       -5.30      1.84     60.16           RANKING
   2     35     66       -5.26      1.60     60.17           RANKING
   2     36    477       -5.21      1.26     60.01           RANKING
   2     37    119       -5.16      1.78     60.19           RANKING
   2     38     64       -5.15      1.90     60.21           RANKING
   2     39    154       -5.09      1.37     59.87           RANKING
   2     40    269       -5.08      1.85     59.99           RANKING
   2     41    103       -5.08      1.92     61.01           RANKING
   2     42    509       -5.06      1.59     60.33           RANKING
   2     43    498       -4.96      1.79     60.40           RANKING
   2     44    503       -4.94      1.94     59.81           RANKING
   2     45     29       -4.92      0.91     59.95           RANKING
   2     46    204       -4.92      1.96     59.94           RANKING
   2     47    217       -4.91      1.97     60.01           RANKING
   2     48    102       -4.82      1.39     60.48           RANKING
   2     49    132       -4.78      1.39     59.93           RANKING
   2     50    140       -4.61      1.99     60.32           RANKING
   2     51    259       -4.49      1.57     60.28           RANKING
   2     52    450       -4.40      1.98     60.19           RANKING
   3      1    376       -6.07      0.00     59.29           RANKING
   3      2    506       -6.05      0.74     59.55           RANKING
   3      3     24       -5.61      1.37     59.45           RANKING
   3      4    321       -5.42      1.54     59.80           RANKING
   3      5    214       -5.24      0.99     59.31           RANKING
   3      6     41       -5.20      0.88     58.97           RANKING
   3      7    246       -5.16      1.22     59.47           RANKING
   3      8    329       -5.01      1.87     60.16           RANKING
   3      9    250       -4.96      1.44     59.58           RANKING
   3     10    188       -4.82      1.06     59.27           RANKING
   3     11    292       -4.65      1.59     59.83           RANKING
   3     12     56       -4.39      1.60     59.76           RANKING
   3     13    100       -4.29      1.30     59.23           RANKING
   3     14    194       -4.23      1.77     59.38           RANKING
   4      1    494       -5.87      0.00     61.45           RANKING
   4      2    167       -5.64      1.19     61.47           RANKING
   4      3    281       -5.63      1.48     61.43           RANKING
   4      4    426       -5.54      1.33     60.90           RANKING
   4      5    271       -5.50      1.51     61.52           RANKING
   4      6    233       -5.49      1.17     61.48           RANKING
   4      7     53       -5.44      1.30     61.33           RANKING
   4      8    166       -5.41      1.64     61.24           RANKING
   4      9    227       -5.38      1.76     61.13           RANKING
   4     10    512       -5.27      1.34     61.71           RANKING
   4     11    431       -5.23      1.44     61.60           RANKING
   4     12    149       -5.07      1.78     60.54           RANKING
   5      1    224       -5.43      0.00     61.32           RANKING
   5      2    459       -5.42      0.87     61.31           RANKING
   5      3    265       -5.32      0.86     61.51           RANKING
   5      4    393       -5.30      1.02     61.35           RANKING
   5      5     88       -5.29      0.94     61.64           RANKING
   5      6     50       -5.12      1.53     60.94           RANKING
   5      7    451       -5.10      1.56     60.72           RANKING
   5      8     78       -5.10      0.79     61.04           RANKING
   5      9    212       -5.09      1.95     60.05           RANKING
   5     10    409       -5.06      1.89     60.71           RANKING
   5     11    176       -5.01      1.62     60.34           RANKING
   5     12    138       -4.85      1.63     61.05           RANKING
   5     13    228       -4.80      1.87     61.34           RANKING
   5     14    219       -4.78      1.40     61.69           RANKING
   5     15     51       -4.76      1.37     60.89           RANKING
   5     16    448       -4.66      0.99     61.06           RANKING
   5     17    424       -4.64      1.14     60.96           RANKING
   5     18    183       -4.59      1.39     61.58           RANKING
   5     19    378       -4.44      1.44     60.46           RANKING
   5     20      2       -4.41      1.57     60.82           RANKING
   5     21    341       -4.24      1.25     60.76           RANKING
   5     22    464       -4.23      1.35     61.23           RANKING
   5     23    125       -4.17      1.82     61.14           RANKING
   5     24     28       -4.00      1.76     60.78           RANKING
   6      1    486       -5.33      0.00     61.91           RANKING
   6      2    500       -4.96      0.79     61.66           RANKING
   6      3    434       -4.71      1.66     61.27           RANKING
   7      1     90       -5.30      0.00     59.90           RANKING
   7      2    256       -5.14      0.96     59.89           RANKING
   7      3    236       -4.89      1.23     59.61           RANKING
   7      4    299       -4.82      1.03     60.17           RANKING
   7      5    324       -4.72      1.74     60.25           RANKING
   7      6    213       -3.83      1.93     58.96           RANKING
   7      7    490       -3.53      1.96     58.97           RANKING
   8      1    405       -5.23      0.00     52.82           RANKING
   8      2    421       -4.92      1.72     52.79           RANKING
   8      3    163       -4.62      1.01     52.41           RANKING
   8      4    275       -4.60      1.65     52.82           RANKING
   8      5     30       -4.56      1.54     52.61           RANKING
   8      6    413       -4.51      1.86     52.47           RANKING
   8      7    283       -4.38      0.97     52.98           RANKING
   8      8      3       -4.15      1.66     53.26           RANKING
   8      9    218       -4.09      1.54     51.60           RANKING
   8     10    211       -4.00      1.81     52.39           RANKING
   8     11    401       -3.90      1.81     53.01           RANKING
   8     12    152       -3.89      1.41     52.54           RANKING
   8     13    316       -3.82      1.97     53.12           RANKING
   8     14    322       -3.76      1.84     52.85           RANKING
   8     15    144       -3.76      1.96     53.04           RANKING
   8     16    192       -3.60      2.00     53.28           RANKING
   8     17    302       -3.35      1.56     52.31           RANKING
   9      1     93       -5.06      0.00     60.21           RANKING
  10      1    257       -4.95      0.00     53.26           RANKING
  10      2    200       -4.91      0.60     53.07           RANKING
  10      3    253       -4.88      0.76     53.32           RANKING
  10      4    255       -4.87      0.95     52.78           RANKING
  10      5     92       -4.76      0.98     52.87           RANKING
  10      6    107       -4.71      0.96     53.31           RANKING
  10      7    235       -4.70      1.14     52.94           RANKING
  10      8    417       -4.68      1.28     52.72           RANKING
  10      9    251       -4.67      0.72     53.17           RANKING
  10     10     14       -4.53      1.06     53.17           RANKING
  10     11    195       -4.41      1.61     52.34           RANKING
  10     12    290       -4.36      1.04     53.30           RANKING
  10     13    186       -4.28      1.81     52.10           RANKING
  10     14    296       -4.23      0.96     53.24           RANKING
  10     15    492       -4.19      1.55     52.34           RANKING
  10     16    198       -4.02      1.28     52.87           RANKING
  11      1    303       -4.90      0.00     59.79           RANKING
  11      2    356       -4.65      1.39     60.26           RANKING
  11      3      9       -4.55      1.00     60.14           RANKING
  11      4    443       -4.40      1.04     59.48           RANKING
  11      5    202       -4.38      1.61     60.72           RANKING
  11      6    207       -4.28      0.93     59.82           RANKING
  11      7    344       -4.12      1.99     61.87           RANKING
  11      8    319       -4.10      0.93     59.63           RANKING
  12      1    165       -4.75      0.00     57.95           RANKING
  12      2    295       -4.67      0.29     57.84           RANKING
  12      3    301       -4.58      0.98     58.23           RANKING
  12      4    287       -4.54      0.92     57.55           RANKING
  12      5    326       -4.48      1.07     57.83           RANKING
  12      6    387       -4.48      1.01     57.87           RANKING
  12      7    297       -4.48      0.95     57.79           RANKING
  12      8    390       -4.42      0.73     57.93           RANKING
  12      9    412       -4.37      1.35     57.56           RANKING
  12     10    145       -4.36      1.71     58.29           RANKING
  12     11     86       -4.35      1.55     57.19           RANKING
  12     12    406       -4.34      1.18     58.01           RANKING
  12     13    438       -4.34      1.07     57.86           RANKING
  12     14    284       -4.33      1.74     57.87           RANKING
  12     15    452       -4.33      1.81     58.04           RANKING
  12     16    199       -4.32      1.60     57.90           RANKING
  12     17    190       -4.31      1.81     58.46           RANKING
  12     18    116       -4.30      1.64     57.24           RANKING
  12     19    109       -4.30      1.20     58.30           RANKING
  12     20     80       -4.29      1.24     58.22           RANKING
  12     21    225       -4.29      1.96     57.48           RANKING
  12     22    305       -4.29      1.76     58.38           RANKING
  12     23    436       -4.28      1.26     58.29           RANKING
  12     24    210       -4.26      1.66     58.30           RANKING
  12     25     37       -4.25      1.60     57.81           RANKING
  12     26    136       -4.25      1.89     57.29           RANKING
  12     27    395       -4.22      1.76     58.17           RANKING
  12     28     33       -4.22      1.94     57.07           RANKING
  12     29    313       -4.21      1.46     57.54           RANKING
  12     30     45       -4.19      1.98     56.95           RANKING
  12     31    423       -4.19      1.44     58.33           RANKING
  12     32    220       -4.18      1.99     58.09           RANKING
  12     33    196       -4.17      1.41     58.09           RANKING
  12     34     97       -4.16      1.18     57.88           RANKING
  12     35    252       -4.15      1.26     58.26           RANKING
  12     36    263       -4.10      1.69     58.08           RANKING
  12     37    384       -4.10      1.60     58.20           RANKING
  12     38    231       -4.04      1.80     58.55           RANKING
  12     39     25       -4.04      1.13     57.86           RANKING
  12     40    504       -3.90      1.86     57.63           RANKING
  12     41    414       -3.86      1.75     58.75           RANKING
  12     42    327       -3.81      1.58     58.53           RANKING
  12     43    323       -3.78      1.87     57.67           RANKING
  12     44    237       -3.75      1.32     58.20           RANKING
  12     45    164       -3.69      1.67     58.25           RANKING
  12     46    241       -3.67      1.84     58.03           RANKING
  13      1    229       -4.70      0.00     59.70           RANKING
  13      2    355       -4.69      0.52     59.58           RANKING
  13      3      4       -4.65      0.40     59.61           RANKING
  13      4    254       -4.64      0.28     59.70           RANKING
  13      5    150       -4.61      1.97     60.67           RANKING
  13      6    495       -4.58      0.46     59.65           RANKING
  13      7     77       -4.54      1.34     59.16           RANKING
  13      8    449       -4.53      0.78     59.34           RANKING
  13      9    248       -4.49      0.65     59.34           RANKING
  13     10     43       -4.47      0.83     59.38           RANKING
  13     11    209       -4.46      0.98     59.26           RANKING
  13     12    407       -4.45      1.36     58.88           RANKING
  13     13    425       -4.44      0.83     59.06           RANKING
  13     14    143       -4.44      1.00     59.66           RANKING
  13     15    161       -4.43      0.60     59.75           RANKING
  13     16     89       -4.43      0.92     59.21           RANKING
  13     17     81       -4.43      1.24     58.96           RANKING
  13     18    288       -4.41      1.05     59.03           RANKING
  13     19    335       -4.41      1.96     58.80           RANKING
  13     20    377       -4.41      0.75     59.29           RANKING
  13     21     61       -4.41      1.12     59.57           RANKING
  13     22    505       -4.40      1.80     59.99           RANKING
  13     23    137       -4.40      1.46     59.11           RANKING
  13     24     76       -4.38      1.10     59.70           RANKING
  13     25    276       -4.37      1.86     59.01           RANKING
  13     26     20       -4.37      0.94     59.78           RANKING
  13     27    216       -4.36      0.74     59.50           RANKING
  13     28    325       -4.34      1.98     58.74           RANKING
  13     29    307       -4.32      1.70     59.06           RANKING
  13     30     69       -4.32      1.44     59.34           RANKING
  13     31    282       -4.32      1.86     58.69           RANKING
  13     32    422       -4.32      1.87     58.97           RANKING
  13     33    411       -4.29      1.39     60.18           RANKING
  13     34    398       -4.28      1.67     59.17           RANKING
  13     35    111       -4.27      0.92     59.52           RANKING
  13     36    392       -4.27      1.98     59.77           RANKING
  13     37    260       -4.27      1.01     59.93           RANKING
  13     38    361       -4.21      1.52     59.16           RANKING
  13     39     19       -4.19      1.81     59.00           RANKING
  13     40    174       -4.18      1.88     59.78           RANKING
  13     41    135       -4.17      1.74     58.50           RANKING
  13     42    223       -4.17      1.14     59.47           RANKING
  13     43    310       -4.13      1.63     61.05           RANKING
  13     44     57       -4.10      1.42     59.27           RANKING
  13     45    118       -4.09      1.94     59.07           RANKING
  13     46     70       -4.09      1.13     59.94           RANKING
  13     47    332       -4.08      1.18     59.13           RANKING
  13     48    419       -3.99      1.14     59.00           RANKING
  13     49    453       -3.97      1.88     60.99           RANKING
  13     50    340       -3.88      1.22     59.51           RANKING
  13     51    493       -3.80      1.91     58.92           RANKING
  13     52    373       -3.71      1.48     59.30           RANKING
  13     53    366       -3.69      1.52     59.68           RANKING
  14      1     91       -4.63      0.00     51.88           RANKING
  14      2    126       -4.59      1.83     51.70           RANKING
  14      3    294       -4.50      0.96     51.91           RANKING
  14      4    337       -4.44      1.33     52.03           RANKING
  14      5    369       -4.44      1.46     51.29           RANKING
  14      6    353       -4.34      1.85     51.51           RANKING
  14      7    171       -4.33      1.17     52.22           RANKING
  14      8    463       -3.79      1.63     50.95           RANKING
  14      9    408       -3.74      1.79     51.01           RANKING
  14     10    458       -3.68      1.98     50.97           RANKING
  14     11    146       -3.67      1.92     51.33           RANKING
  15      1    455       -4.62      0.00     60.38           RANKING
  16      1    380       -4.50      0.00     59.74           RANKING
  16      2    372       -4.41      0.71     60.14           RANKING
  16      3    215       -4.37      0.93     59.31           RANKING
  16      4      5       -4.33      1.19     58.89           RANKING
  16      5     46       -4.33      1.17     59.78           RANKING
  16      6    389       -4.24      0.97     59.40           RANKING
  16      7     85       -4.23      1.11     59.51           RANKING
  16      8    347       -4.16      1.24     59.03           RANKING
  16      9    320       -4.15      1.46     59.24           RANKING
  16     10    476       -4.13      1.26     59.83           RANKING
  16     11      7       -4.06      1.21     59.57           RANKING
  16     12    123       -4.02      0.87     59.58           RANKING
  16     13     39       -4.01      1.71     58.62           RANKING
  16     14    106       -4.00      1.99     58.73           RANKING
  16     15    244       -3.95      1.74     58.68           RANKING
  16     16    114       -3.91      1.81     58.68           RANKING
  16     17      6       -3.90      1.99     58.69           RANKING
  17      1    468       -4.37      0.00     53.57           RANKING
  17      2    336       -4.26      1.18     53.52           RANKING
  17      3    442       -4.22      1.19     53.38           RANKING
  17      4    238       -4.16      1.06     53.67           RANKING
  17      5    175       -4.12      1.32     53.43           RANKING
  17      6    331       -4.10      1.34     53.34           RANKING
  17      7    497       -4.08      1.24     53.57           RANKING
  17      8    403       -4.08      1.63     53.55           RANKING
  17      9     96       -4.03      1.52     53.76           RANKING
  17     10    234       -3.98      1.39     53.59           RANKING
  17     11    488       -3.95      1.23     53.36           RANKING
  17     12    181       -3.95      1.49     53.39           RANKING
  17     13    465       -3.87      1.76     52.89           RANKING
  17     14    318       -3.84      1.39     53.50           RANKING
  17     15    388       -3.81      1.83     53.59           RANKING
  17     16    375       -3.80      1.95     53.27           RANKING
  17     17    379       -3.79      1.40     53.43           RANKING
  17     18     62       -3.60      1.74     53.24           RANKING
  17     19    397       -3.58      1.87     52.92           RANKING
  17     20    472       -3.50      1.31     53.27           RANKING
  17     21    240       -3.50      1.51     52.93           RANKING
  17     22     79       -3.45      1.56     53.25           RANKING
  17     23    352       -3.41      1.69     52.85           RANKING
  18      1    363       -4.33      0.00     58.52           RANKING
  18      2    350       -4.25      1.54     57.60           RANKING
  18      3    502       -4.25      1.75     57.31           RANKING
  18      4    293       -4.25      1.94     57.20           RANKING
  18      5    456       -4.24      2.00     57.22           RANKING
  18      6    141       -4.22      0.56     58.64           RANKING
  18      7    134       -4.20      1.98     57.44           RANKING
  18      8    433       -4.16      0.83     58.28           RANKING
  18      9    270       -4.11      1.35     58.78           RANKING
  18     10    351       -4.10      0.56     58.61           RANKING
  18     11    274       -4.06      1.05     58.75           RANKING
  18     12    444       -4.06      0.81     58.31           RANKING
  18     13    304       -4.05      0.79     58.53           RANKING
  18     14     31       -3.97      1.01     58.22           RANKING
  18     15    108       -3.97      1.45     57.79           RANKING
  18     16    222       -3.97      1.57     57.83           RANKING
  18     17    232       -3.96      0.81     58.37           RANKING
  18     18    469       -3.96      1.34     57.86           RANKING
  18     19     94       -3.84      1.82     59.37           RANKING
  18     20    446       -3.82      1.72     57.77           RANKING
  18     21    309       -3.72      1.28     58.73           RANKING
  18     22     63       -3.72      1.85     57.70           RANKING
  18     23    245       -3.66      1.40     58.74           RANKING
  19      1     82       -4.30      0.00     50.59           RANKING
  19      2    499       -4.24      1.23     51.40           RANKING
  19      3    262       -4.11      1.13     51.00           RANKING
  19      4     67       -3.93      1.05     50.78           RANKING
  19      5     55       -3.81      1.99     49.99           RANKING
  19      6    474       -3.80      0.96     50.86           RANKING
  19      7    142       -3.73      1.51     51.67           RANKING
  19      8    511       -3.70      1.71     49.48           RANKING
  20      1     87       -4.29      0.00     61.95           RANKING
  21      1    101       -4.28      0.00     58.25           RANKING
  21      2      8       -4.22      0.90     58.15           RANKING
  21      3    201       -4.21      1.46     58.69           RANKING
  21      4     15       -4.17      1.78     57.50           RANKING
  21      5    208       -4.16      1.00     58.50           RANKING
  21      6    501       -4.15      1.74     57.48           RANKING
  21      7    439       -4.10      1.05     58.26           RANKING
  21      8    460       -4.09      1.39     57.89           RANKING
  21      9    177       -3.91      1.79     59.45           RANKING
  22      1    394       -4.27      0.00     51.27           RANKING
  22      2    191       -3.77      0.87     51.09           RANKING
  22      3    127       -3.72      1.15     51.10           RANKING
  23      1     65       -4.22      0.00     57.02           RANKING
  23      2     54       -4.18      0.46     57.17           RANKING
  23      3    385       -4.15      0.84     57.18           RANKING
  23      4    402       -3.73      1.74     57.64           RANKING
  23      5     11       -3.70      1.25     57.60           RANKING
  24      1    312       -4.21      0.00     53.09           RANKING
  24      2    159       -4.13      1.59     53.12           RANKING
  24      3     40       -4.11      1.37     53.52           RANKING
  24      4    338       -4.08      1.89     52.84           RANKING
  24      5    168       -4.05      1.09     53.18           RANKING
  24      6    462       -3.98      1.01     53.11           RANKING
  24      7    226       -3.94      1.60     53.18           RANKING
  24      8    429       -3.92      1.37     52.84           RANKING
  24      9    280       -3.91      1.81     52.57           RANKING
  24     10    139       -3.91      1.50     52.71           RANKING
  24     11    278       -3.91      1.21     53.25           RANKING
  24     12     72       -3.90      1.93     53.01           RANKING
  24     13    346       -3.89      1.71     52.97           RANKING
  24     14     23       -3.87      1.54     52.66           RANKING
  24     15     58       -3.81      1.68     52.67           RANKING
  24     16    169       -3.80      1.38     53.08           RANKING
  24     17    484       -3.76      1.93     52.57           RANKING
  24     18     10       -3.70      1.93     52.73           RANKING
  24     19    185       -3.59      1.74     52.85           RANKING
  24     20    470       -3.50      1.24     52.85           RANKING
  24     21    383       -3.19      1.64     53.23           RANKING
  25      1    370       -4.16      0.00     57.69           RANKING
  25      2    478       -4.03      1.30     58.17           RANKING
  25      3     42       -4.03      1.22     57.94           RANKING
  25      4    243       -4.03      1.75     58.27           RANKING
  25      5    193       -4.02      1.81     58.30           RANKING
  25      6    362       -4.02      1.25     58.20           RANKING
  25      7     17       -3.99      1.72     58.43           RANKING
  25      8     13       -3.97      1.25     58.09           RANKING
  25      9    461       -3.94      0.83     57.92           RANKING
  25     10    479       -3.94      0.94     57.72           RANKING
  25     11    381       -3.89      1.72     58.12           RANKING
  25     12    317       -3.89      1.92     58.24           RANKING
  25     13    489       -3.86      1.23     57.59           RANKING
  25     14    178       -3.81      1.06     58.18           RANKING
  25     15    437       -3.80      1.34     57.80           RANKING
  25     16    485       -3.78      1.72     58.17           RANKING
  25     17     52       -3.75      1.17     57.72           RANKING
  25     18     99       -3.75      1.68     58.24           RANKING
  25     19    180       -3.68      1.14     57.50           RANKING
  25     20    491       -3.59      1.28     57.87           RANKING
  26      1    418       -4.15      0.00     58.95           RANKING
  26      2     98       -4.00      1.56     58.54           RANKING
  26      3    471       -3.92      1.85     58.60           RANKING
  27      1    247       -4.14      0.00     48.68           RANKING
  27      2    110       -3.77      1.68     48.44           RANKING
  27      3    364       -3.70      1.48     48.31           RANKING
  27      4    416       -3.67      1.50     48.77           RANKING
  27      5     95       -3.54      1.51     48.94           RANKING
  27      6    487       -3.46      1.95     48.44           RANKING
  28      1    104       -4.10      0.00     49.79           RANKING
  28      2    206       -4.04      0.57     49.71           RANKING
  28      3    124       -3.98      0.67     49.54           RANKING
  28      4    399       -3.88      1.57     50.10           RANKING
  28      5    158       -3.78      1.57     49.57           RANKING
  28      6    357       -3.68      0.76     49.93           RANKING
  29      1    173       -4.08      0.00     52.68           RANKING
  29      2    162       -3.93      1.52     52.78           RANKING
  29      3    368       -3.90      1.76     52.60           RANKING
  29      4    105       -3.86      1.37     52.54           RANKING
  29      5    131       -3.86      1.23     52.57           RANKING
  29      6    242       -3.86      0.75     52.87           RANKING
  29      7    354       -3.80      0.97     52.41           RANKING
  29      8     27       -3.78      1.69     52.66           RANKING
  29      9     60       -3.76      1.61     52.41           RANKING
  29     10    345       -3.73      0.99     52.41           RANKING
  29     11     34       -3.72      1.52     52.70           RANKING
  29     12    239       -3.69      1.44     52.82           RANKING
  29     13     26       -3.52      1.32     52.27           RANKING
  29     14    374       -3.44      1.42     52.80           RANKING
  29     15    151       -3.42      1.93     52.49           RANKING
  30      1    360       -4.07      0.00     51.65           RANKING
  31      1     38       -4.03      0.00     49.98           RANKING
  31      2    121       -3.92      1.85     49.29           RANKING
  31      3    454       -3.89      1.13     50.50           RANKING
  31      4     71       -3.86      0.72     50.17           RANKING
  31      5    508       -3.86      1.07     49.68           RANKING
  31      6    197       -3.70      0.92     49.56           RANKING
  31      7    115       -3.56      1.32     49.53           RANKING
  31      8    466       -3.50      1.82     49.58           RANKING
  31      9    400       -3.38      1.87     48.82           RANKING
  32      1    122       -4.00      0.00     58.68           RANKING
  32      2    221       -3.82      0.70     58.53           RANKING
  32      3    480       -3.69      1.15     58.64           RANKING
  32      4    339       -3.24      1.77     58.51           RANKING
  33      1    432       -3.96      0.00     49.40           RANKING
  33      2    249       -3.82      1.57     48.44           RANKING
  33      3    117       -3.78      1.53     48.49           RANKING
  33      4    133       -3.73      1.93     48.53           RANKING
  33      5    291       -3.67      1.95     48.38           RANKING
  33      6    308       -3.60      0.97     49.36           RANKING
  34      1     75       -3.94      0.00     48.64           RANKING
  34      2    258       -3.60      1.91     48.32           RANKING
  35      1    410       -3.93      0.00     52.83           RANKING
  35      2     32       -3.63      1.59     53.08           RANKING
  35      3     59       -3.51      1.86     53.08           RANKING
  36      1    160       -3.90      0.00     61.07           RANKING
  36      2    264       -3.74      1.28     61.65           RANKING
  37      1    334       -3.87      0.00     49.29           RANKING
  37      2     36       -3.80      1.13     49.17           RANKING
  38      1    441       -3.85      0.00     60.78           RANKING
  39      1    507       -3.83      0.00     48.63           RANKING
  39      2    279       -3.80      0.50     48.55           RANKING
  39      3     21       -3.58      1.24     48.21           RANKING
  39      4    266       -3.52      1.03     47.98           RANKING
  39      5     47       -3.50      1.91     48.36           RANKING
  39      6    382       -3.39      1.64     48.62           RANKING
  39      7    391       -3.39      1.73     47.67           RANKING
  39      8    447       -3.28      1.52     48.67           RANKING
  40      1    440       -3.83      0.00     59.04           RANKING
  40      2    428       -3.79      0.71     59.27           RANKING
  41      1    277       -3.83      0.00     52.93           RANKING
  41      2    457       -3.56      0.63     52.77           RANKING
  41      3    153       -3.06      1.62     52.83           RANKING
  42      1    187       -3.63      0.00     53.92           RANKING
  42      2    358       -3.42      1.08     53.61           RANKING
  43      1    349       -3.62      0.00     47.55           RANKING
  44      1    205       -3.61      0.00     58.04           RANKING
  44      2    179       -3.10      1.33     58.40           RANKING
  45      1    333       -3.60      0.00     52.68           RANKING
  46      1    365       -3.59      0.00     53.35           RANKING
  46      2    482       -3.55      1.56     52.77           RANKING
  47      1     16       -3.56      0.00     58.19           RANKING
  47      2    359       -3.49      0.94     58.17           RANKING
  48      1    367       -3.49      0.00     58.64           RANKING
  49      1    148       -3.48      0.00     53.95           RANKING
  50      1    156       -3.42      0.00     48.57           RANKING
  51      1     68       -3.37      0.00     50.26           RANKING
  52      1    330       -3.36      0.00     49.13           RANKING
  53      1     84       -3.34      0.00     49.42           RANKING
  54      1    475       -3.30      0.00     52.57           RANKING
  55      1    420       -3.15      0.00     52.82           RANKING
  56      1     49       -3.05      0.00     47.74           RANKING
  57      1    184       -2.87      0.00     50.96           RANKING

Run time 0.826 sec
Idle time 0.601 sec
