REMARK  5 active torsions:
REMARK  status: ('A' for Active; 'I' for Inactive)
REMARK    1  A    between atoms: C_2  and  C_19 
REMARK    2  A    between atoms: C_2  and  C_11 
REMARK    3  A    between atoms: C_19  and  C_20 
REMARK    4  A    between atoms: C_20  and  C_21 
REMARK    5  A    between atoms: C_21  and  N_22 
ROOT
ATOM      1  O   UNL     1     -50.934 -35.006   7.536  0.00  0.00    -0.346 OA
ATOM      2  C   UNL     1     -52.076 -34.117   7.752  0.00  0.00    +0.130 C 
ATOM      3  C   UNL     1     -52.665 -33.947   6.382  0.00  0.00    +0.004 A 
ATOM      4  C   UNL     1     -51.988 -34.755   5.479  0.00  0.00    +0.006 A 
ATOM      5  C   UNL     1     -50.928 -35.514   6.181  0.00  0.00    +0.169 C 
ATOM      6  C   UNL     1     -53.722 -33.149   5.969  0.00  0.00    -0.001 A 
ATOM      7  C   UNL     1     -52.338 -34.791   4.141  0.00  0.00    +0.008 A 
ATOM      8  C   UNL     1     -54.085 -33.171   4.621  0.00  0.00    +0.010 A 
ATOM      9  C   UNL     1     -53.397 -33.988   3.712  0.00  0.00    +0.068 A 
ATOM     10  N   UNL     1     -54.100 -34.009   1.218  0.00  0.00    -0.191 NA
ATOM     11  C   UNL     1     -53.784 -33.999   2.337  0.00  0.00    +0.101 C 
ENDROOT
BRANCH   2  12
ATOM     12  C   UNL     1     -53.033 -34.789   8.730  0.00  0.00    +0.038 C 
BRANCH  12  13
ATOM     13  C   UNL     1     -54.435 -34.192   8.637  0.00  0.00    +0.038 C 
BRANCH  13  14
ATOM     14  C   UNL     1     -54.718 -33.265   9.818  0.00  0.00    +0.251 C 
BRANCH  14  15
ATOM     15  N   UNL     1     -54.292 -31.905   9.509  0.00  0.00    +0.141 N 
ATOM     16  C   UNL     1     -55.239 -31.263   8.596  0.00  0.00    +0.285 C 
ATOM     17  C   UNL     1     -54.156 -31.117  10.735  0.00  0.00    +0.285 C 
ENDBRANCH  14  15
ENDBRANCH  13  14
ENDBRANCH  12  13
ENDBRANCH   2  12
BRANCH   2  18
ATOM     18  C   UNL     1     -51.537 -32.844   8.316  0.00  0.00    +0.006 A 
ATOM     19  C   UNL     1     -51.469 -31.703   7.518  0.00  0.00    +0.001 A 
ATOM     20  C   UNL     1     -50.964 -30.514   8.046  0.00  0.00    +0.029 A 
ATOM     21  C   UNL     1     -50.529 -30.468   9.370  0.00  0.00    +0.140 A 
ATOM     22  C   UNL     1     -50.598 -31.610  10.167  0.00  0.00    +0.029 A 
ATOM     23  F   UNL     1     -50.046 -29.326   9.877  0.00  0.00    -0.204 F 
ATOM     24  C   UNL     1     -51.102 -32.800   9.640  0.00  0.00    +0.001 A 
ENDBRANCH   2  18
TORSDOF 5
