AutoDock-GPU version: pre-gridboxing-2025-09-02-2-g7a158b4220ccb7fae2f1ef28c415f546fce74080-dirty

**********************************************************
**    AutoDock-GPU AUTODOCKTOOLS-COMPATIBLE DLG FILE    **
**********************************************************


    DOCKING PARAMETERS
    ________________________


Ligand file:                               /home/taka/development/ultidock-gmx/docking/LIGANDS_DIR/escitalopram-e.pdbqt
Grid fld file:                             5i6x-edited.maps.fld

Random seed:                               1757959489, 58871
Number of runs:                            512
Number of energy evaluations:              139774
Number of generations:                     42000
Size of population:                        150
Rate of crossover:                         80.000000%
Tournament selection probability limit:    60.000000%
Rate of mutation:                          2.000000%
Maximal allowed delta movement:            +/- 6.000000A
Maximal allowed delta angle:               +/- 90.000000

Rate of local search:                      50.000000%
Maximal number of local search iterations: 300
Rho lower bound:                           0.010000
Spread of local search delta movement:     2.000000A
Spread of local search delta angle:        74.999999
Limit of consecutive successes/failures:   4

Handle symmetry during clustering:         YES
RMSD tolerance:                            2.000000A

Program call in command line was:          /home/taka/development/ultidock-gmx/docking/AUTODOCK_GPU_DIR/bin/autodock_gpu_cuda_64wi --lfile /home/taka/development/ultidock-gmx/docking/LIGANDS_DIR/escitalopram-e.pdbqt --ffile 5i6x-edited.maps.fld --nrun 512 --nev 5000000 --gbest 5 --xmloutput 1 --resnam /home/taka/development/ultidock-gmx/docking/DOCKING_DIR/S2__escitalopram-e_dfaf4ccf --devnum 1 --lsrat 50.0 --lsmet sw --initswgens 200 --stopstd 0.02 


    GRID PARAMETERS
    ________________________


Receptor name:                             /home/taka/development/ultidock-gmx/docking/MACRO_MOL_DIR/5i6x-edited
Number of grid points (x, y, z):           97, 97, 97
Grid center (x, y, z):                     -35.410000, -8.509000, 11.719000A
Grid size (x, y, z):                       36.000000, 36.000000, 36.000000A
Grid spacing:                              0.375000A


    LIGAND PARAMETERS
    ________________________


Ligand name:                               /home/taka/development/ultidock-gmx/docking/LIGANDS_DIR/escitalopram-e
Number of atoms:                           24
Number of rotatable bonds:                 5
Number of atom types:                      6


    DUMMY DATA (only for ADT-compatibility)
    ________________________


DPF> outlev 1
DPF> ga_run 512
DPF> fld 5i6x-edited.maps.fld
DPF> move /home/taka/development/ultidock-gmx/docking/LIGANDS_DIR/escitalopram-e.pdbqt


    COUNTER STATES
    ________________________


Number of energy evaluations performed:    153433
Number of generations used:                8


    INPUT LIGAND PDBQT FILE:
    ________________________


INPUT-LIGAND-PDBQT: REMARK  5 active torsions:
INPUT-LIGAND-PDBQT: REMARK  status: ('A' for Active; 'I' for Inactive)
INPUT-LIGAND-PDBQT: REMARK    1  A    between atoms: C_2  and  C_19 
INPUT-LIGAND-PDBQT: REMARK    2  A    between atoms: C_2  and  C_11 
INPUT-LIGAND-PDBQT: REMARK    3  A    between atoms: C_19  and  C_20 
INPUT-LIGAND-PDBQT: REMARK    4  A    between atoms: C_20  and  C_21 
INPUT-LIGAND-PDBQT: REMARK    5  A    between atoms: C_21  and  N_22 
INPUT-LIGAND-PDBQT: ROOT
INPUT-LIGAND-PDBQT: ATOM      1  O   UNL     1      -0.114  -0.606   1.632  0.00  0.00    -0.346 OA
INPUT-LIGAND-PDBQT: ATOM      2  C   UNL     1      -0.069  -0.235   0.217  0.00  0.00     0.130 C 
INPUT-LIGAND-PDBQT: ATOM      3  C   UNL     1       1.387  -0.336  -0.135  0.00  0.00     0.004 A 
INPUT-LIGAND-PDBQT: ATOM      4  C   UNL     1       2.097  -0.828   0.951  0.00  0.00     0.006 A 
INPUT-LIGAND-PDBQT: ATOM      5  C   UNL     1       1.173  -1.095   2.076  0.00  0.00     0.169 C 
INPUT-LIGAND-PDBQT: ATOM      6  C   UNL     1       2.030  -0.028  -1.325  0.00  0.00    -0.001 A 
INPUT-LIGAND-PDBQT: ATOM      7  C   UNL     1       3.466  -1.024   0.888  0.00  0.00     0.008 A 
INPUT-LIGAND-PDBQT: ATOM      8  C   UNL     1       3.411  -0.216  -1.403  0.00  0.00     0.010 A 
INPUT-LIGAND-PDBQT: ATOM      9  C   UNL     1       4.125  -0.712  -0.302  0.00  0.00     0.068 A 
INPUT-LIGAND-PDBQT: ATOM     10  N   UNL     1       6.687  -1.054  -0.482  0.00  0.00    -0.191 NA
INPUT-LIGAND-PDBQT: ATOM     11  C   UNL     1       5.538  -0.900  -0.401  0.00  0.00     0.101 C 
INPUT-LIGAND-PDBQT: ENDROOT
INPUT-LIGAND-PDBQT: BRANCH   2  12
INPUT-LIGAND-PDBQT: ATOM     12  C   UNL     1      -0.938  -1.212  -0.566  0.00  0.00     0.038 C 
INPUT-LIGAND-PDBQT: BRANCH  12  13
INPUT-LIGAND-PDBQT: ATOM     13  C   UNL     1      -2.364  -1.250  -0.020  0.00  0.00     0.038 C 
INPUT-LIGAND-PDBQT: BRANCH  13  14
INPUT-LIGAND-PDBQT: ATOM     14  C   UNL     1      -3.238  -2.204  -0.832  0.00  0.00     0.251 C 
INPUT-LIGAND-PDBQT: BRANCH  14  15
INPUT-LIGAND-PDBQT: ATOM     15  N   UNL     1      -4.589  -2.244  -0.285  0.00  0.00     0.141 N 
INPUT-LIGAND-PDBQT: ATOM     16  C   UNL     1      -5.439  -3.137  -1.074  0.00  0.00     0.285 C 
INPUT-LIGAND-PDBQT: ATOM     17  C   UNL     1      -4.566  -2.671   1.115  0.00  0.00     0.285 C 
INPUT-LIGAND-PDBQT: ENDBRANCH  14  15
INPUT-LIGAND-PDBQT: ENDBRANCH  13  14
INPUT-LIGAND-PDBQT: ENDBRANCH  12  13
INPUT-LIGAND-PDBQT: ENDBRANCH   2  12
INPUT-LIGAND-PDBQT: BRANCH   2  18
INPUT-LIGAND-PDBQT: ATOM     18  C   UNL     1      -0.597   1.157   0.114  0.00  0.00     0.006 A 
INPUT-LIGAND-PDBQT: ATOM     19  C   UNL     1      -1.137   1.610  -1.089  0.00  0.00     0.001 A 
INPUT-LIGAND-PDBQT: ATOM     20  C   UNL     1      -1.630   2.912  -1.184  0.00  0.00     0.029 A 
INPUT-LIGAND-PDBQT: ATOM     21  C   UNL     1      -1.583   3.758  -0.077  0.00  0.00     0.140 A 
INPUT-LIGAND-PDBQT: ATOM     22  C   UNL     1      -1.043   3.304   1.126  0.00  0.00     0.029 A 
INPUT-LIGAND-PDBQT: ATOM     23  F   UNL     1      -2.058   5.007  -0.168  0.00  0.00    -0.204 F 
INPUT-LIGAND-PDBQT: ATOM     24  C   UNL     1      -0.549   2.002   1.222  0.00  0.00     0.001 A 
INPUT-LIGAND-PDBQT: ENDBRANCH   2  18
INPUT-LIGAND-PDBQT: TORSDOF 5


    FINAL DOCKED STATE:
    ________________________


Run:   1 / 512
Time taken for this run:   0.002s

DOCKED: MODEL        1
DOCKED: USER    Run = 1
DOCKED: USER
DOCKED: USER    Estimated Free Energy of Binding    =  -4.40 kcal/mol  [=(1)+(2)+(3)-(4)]
DOCKED: USER
DOCKED: USER    (1) Final Intermolecular Energy     =  -5.89 kcal/mol
DOCKED: USER        vdW + Hbond + desolv Energy     =  -5.89 kcal/mol
DOCKED: USER        Electrostatic Energy            =  +0.00 kcal/mol
DOCKED: USER        Moving Ligand-Fixed Receptor    =  -5.89 kcal/mol
DOCKED: USER        Moving Ligand-Moving Receptor   =  +0.00 kcal/mol
DOCKED: USER    (2) Final Total Internal Energy     =  -1.38 kcal/mol
DOCKED: USER    (3) Torsional Free Energy           =  +1.49 kcal/mol
DOCKED: USER    (4) Unbound System's Energy         =  -1.38 kcal/mol
DOCKED: USER
DOCKED: USER
DOCKED: REMARK  5 active torsions:
DOCKED: REMARK  status: ('A' for Active; 'I' for Inactive)
DOCKED: REMARK    1  A    between atoms: C_2  and  C_19 
DOCKED: REMARK    2  A    between atoms: C_2  and  C_11 
DOCKED: REMARK    3  A    between atoms: C_19  and  C_20 
DOCKED: REMARK    4  A    between atoms: C_20  and  C_21 
DOCKED: REMARK    5  A    between atoms: C_21  and  N_22 
DOCKED: USER                              x       y       z     vdW  Elec       q    Type
DOCKED: USER                           _______ _______ _______ _____ _____    ______ ____
DOCKED: ROOT
DOCKED: ATOM      1  O   UNL     1     -48.807 -18.704  13.994 -0.06 -0.00    -0.346 OA 
DOCKED: ATOM      2  C   UNL     1     -50.215 -18.927  14.324 -0.15 +0.00    +0.130 C  
DOCKED: ATOM      3  C   UNL     1     -50.470 -20.337  13.876 -0.22 +0.00    +0.004 A  
DOCKED: ATOM      4  C   UNL     1     -49.286 -20.907  13.431 -0.25 +0.00    +0.006 A  
DOCKED: ATOM      5  C   UNL     1     -48.179 -19.934  13.564 -0.19 +0.00    +0.169 C  
DOCKED: ATOM      6  C   UNL     1     -51.654 -21.061  13.874 -0.21 -0.00    -0.001 A  
DOCKED: ATOM      7  C   UNL     1     -49.244 -22.211  12.967 -0.31 +0.00    +0.008 A  
DOCKED: ATOM      8  C   UNL     1     -51.628 -22.375  13.404 -0.23 +0.00    +0.010 A  
DOCKED: ATOM      9  C   UNL     1     -50.429 -22.947  12.953 -0.23 +0.00    +0.068 A  
DOCKED: ATOM     10  N   UNL     1     -50.416 -25.391  12.093 -2.56 -0.00    -0.191 NA 
DOCKED: ATOM     11  C   UNL     1     -50.422 -24.295  12.478 -0.35 +0.00    +0.101 C  
DOCKED: ENDROOT
DOCKED: BRANCH   2  12
DOCKED: ATOM     12  C   UNL     1     -50.394 -18.740  15.826 -0.05 +0.00    +0.038 C  
DOCKED: BRANCH  12  13
DOCKED: ATOM     13  C   UNL     1     -49.048 -18.586  16.532 -0.02 +0.00    +0.038 C  
DOCKED: BRANCH  13  14
DOCKED: ATOM     14  C   UNL     1     -48.990 -17.282  17.326 -0.00 +0.00    +0.251 C  
DOCKED: BRANCH  14  15
DOCKED: ATOM     15  N   UNL     1     -48.222 -16.279  16.598 -0.00 +0.00    +0.141 N  
DOCKED: ATOM     16  C   UNL     1     -47.227 -16.917  15.735 -0.00 +0.00    +0.285 C  
DOCKED: ATOM     17  C   UNL     1     -49.108 -15.425  15.805 -0.00 +0.00    +0.285 C  
DOCKED: ENDBRANCH  14  15
DOCKED: ENDBRANCH  13  14
DOCKED: ENDBRANCH  12  13
DOCKED: ENDBRANCH   2  12
DOCKED: BRANCH   2  18
DOCKED: ATOM     18  C   UNL     1     -51.008 -17.921  13.559 -0.21 +0.00    +0.006 A  
DOCKED: ATOM     19  C   UNL     1     -52.401 -17.961  13.591 -0.21 +0.00    +0.001 A  
DOCKED: ATOM     20  C   UNL     1     -53.141 -17.020  12.874 -0.19 +0.00    +0.029 A  
DOCKED: ATOM     21  C   UNL     1     -52.487 -16.041  12.127 -0.08 +0.00    +0.140 A  
DOCKED: ATOM     22  C   UNL     1     -51.093 -16.001  12.096 -0.16 +0.00    +0.029 A  
DOCKED: ATOM     23  F   UNL     1     -53.198 -15.136  11.441 -0.03 -0.00    -0.204 F  
DOCKED: ATOM     24  C   UNL     1     -50.352 -16.943  12.812 -0.18 +0.00    +0.001 A  
DOCKED: ENDBRANCH   2  18
DOCKED: TORSDOF 5
DOCKED: TER
DOCKED: ENDMDL
________________________________________________________________________________


    FINAL DOCKED STATE:
    ________________________


Run:   2 / 512
Time taken for this run:   0.002s

DOCKED: MODEL        2
DOCKED: USER    Run = 2
DOCKED: USER
DOCKED: USER    Estimated Free Energy of Binding    =  -4.24 kcal/mol  [=(1)+(2)+(3)-(4)]
DOCKED: USER
DOCKED: USER    (1) Final Intermolecular Energy     =  -5.73 kcal/mol
DOCKED: USER        vdW + Hbond + desolv Energy     =  -5.73 kcal/mol
DOCKED: USER        Electrostatic Energy            =  +0.00 kcal/mol
DOCKED: USER        Moving Ligand-Fixed Receptor    =  -5.73 kcal/mol
DOCKED: USER        Moving Ligand-Moving Receptor   =  +0.00 kcal/mol
DOCKED: USER    (2) Final Total Internal Energy     =  -1.31 kcal/mol
DOCKED: USER    (3) Torsional Free Energy           =  +1.49 kcal/mol
DOCKED: USER    (4) Unbound System's Energy         =  -1.31 kcal/mol
DOCKED: USER
DOCKED: USER
DOCKED: REMARK  5 active torsions:
DOCKED: REMARK  status: ('A' for Active; 'I' for Inactive)
DOCKED: REMARK    1  A    between atoms: C_2  and  C_19 
DOCKED: REMARK    2  A    between atoms: C_2  and  C_11 
DOCKED: REMARK    3  A    between atoms: C_19  and  C_20 
DOCKED: REMARK    4  A    between atoms: C_20  and  C_21 
DOCKED: REMARK    5  A    between atoms: C_21  and  N_22 
DOCKED: USER                              x       y       z     vdW  Elec       q    Type
DOCKED: USER                           _______ _______ _______ _____ _____    ______ ____
DOCKED: ROOT
DOCKED: ATOM      1  O   UNL     1     -46.019 -20.687  14.799 -0.07 -0.00    -0.346 OA 
DOCKED: ATOM      2  C   UNL     1     -47.219 -20.028  14.282 -0.14 +0.00    +0.130 C  
DOCKED: ATOM      3  C   UNL     1     -48.034 -21.156  13.719 -0.24 +0.00    +0.004 A  
DOCKED: ATOM      4  C   UNL     1     -47.408 -22.365  13.989 -0.24 +0.00    +0.006 A  
DOCKED: ATOM      5  C   UNL     1     -46.161 -22.126  14.749 -0.12 +0.00    +0.169 C  
DOCKED: ATOM      6  C   UNL     1     -49.239 -21.116  13.032 -0.25 -0.00    -0.001 A  
DOCKED: ATOM      7  C   UNL     1     -47.959 -23.568  13.581 -0.33 +0.00    +0.008 A  
DOCKED: ATOM      8  C   UNL     1     -49.805 -22.321  12.611 -0.28 +0.00    +0.010 A  
DOCKED: ATOM      9  C   UNL     1     -49.168 -23.540  12.885 -0.31 +0.00    +0.068 A  
DOCKED: ATOM     10  N   UNL     1     -50.247 -25.759  12.093 -2.58 -0.00    -0.191 NA 
DOCKED: ATOM     11  C   UNL     1     -49.763 -24.764  12.448 -0.32 +0.00    +0.101 C  
DOCKED: ENDROOT
DOCKED: BRANCH   2  12
DOCKED: ATOM     12  C   UNL     1     -47.912 -19.313  15.435 -0.06 +0.00    +0.038 C  
DOCKED: BRANCH  12  13
DOCKED: ATOM     13  C   UNL     1     -48.986 -20.193  16.072 -0.05 +0.00    +0.038 C  
DOCKED: BRANCH  13  14
DOCKED: ATOM     14  C   UNL     1     -48.381 -21.129  17.116 -0.01 +0.00    +0.251 C  
DOCKED: BRANCH  14  15
DOCKED: ATOM     15  N   UNL     1     -47.332 -20.446  17.863 -0.01 +0.00    +0.141 N  
DOCKED: ATOM     16  C   UNL     1     -47.863 -19.887  19.107 -0.00 +0.00    +0.285 C  
DOCKED: ATOM     17  C   UNL     1     -46.224 -21.359  18.148 -0.01 +0.00    +0.285 C  
DOCKED: ENDBRANCH  14  15
DOCKED: ENDBRANCH  13  14
DOCKED: ENDBRANCH  12  13
DOCKED: ENDBRANCH   2  12
DOCKED: BRANCH   2  18
DOCKED: ATOM     18  C   UNL     1     -46.770 -19.059  13.240 -0.17 +0.00    +0.006 A  
DOCKED: ATOM     19  C   UNL     1     -45.650 -19.344  12.460 -0.09 +0.00    +0.001 A  
DOCKED: ATOM     20  C   UNL     1     -45.230 -18.436  11.486 -0.14 +0.00    +0.029 A  
DOCKED: ATOM     21  C   UNL     1     -45.931 -17.247  11.294 -0.07 +0.00    +0.140 A  
DOCKED: ATOM     22  C   UNL     1     -47.051 -16.962  12.074 -0.09 +0.00    +0.029 A  
DOCKED: ATOM     23  F   UNL     1     -45.529 -16.377  10.358 -0.01 -0.00    -0.204 F  
DOCKED: ATOM     24  C   UNL     1     -47.471 -17.869  13.049 -0.12 +0.00    +0.001 A  
DOCKED: ENDBRANCH   2  18
DOCKED: TORSDOF 5
DOCKED: TER
DOCKED: ENDMDL
________________________________________________________________________________


    FINAL DOCKED STATE:
    ________________________


Run:   3 / 512
Time taken for this run:   0.002s

DOCKED: MODEL        3
DOCKED: USER    Run = 3
DOCKED: USER
DOCKED: USER    Estimated Free Energy of Binding    =  -5.57 kcal/mol  [=(1)+(2)+(3)-(4)]
DOCKED: USER
DOCKED: USER    (1) Final Intermolecular Energy     =  -7.06 kcal/mol
DOCKED: USER        vdW + Hbond + desolv Energy     =  -7.06 kcal/mol
DOCKED: USER        Electrostatic Energy            =  +0.00 kcal/mol
DOCKED: USER        Moving Ligand-Fixed Receptor    =  -7.06 kcal/mol
DOCKED: USER        Moving Ligand-Moving Receptor   =  +0.00 kcal/mol
DOCKED: USER    (2) Final Total Internal Energy     =  -1.30 kcal/mol
DOCKED: USER    (3) Torsional Free Energy           =  +1.49 kcal/mol
DOCKED: USER    (4) Unbound System's Energy         =  -1.30 kcal/mol
DOCKED: USER
DOCKED: USER
DOCKED: REMARK  5 active torsions:
DOCKED: REMARK  status: ('A' for Active; 'I' for Inactive)
DOCKED: REMARK    1  A    between atoms: C_2  and  C_19 
DOCKED: REMARK    2  A    between atoms: C_2  and  C_11 
DOCKED: REMARK    3  A    between atoms: C_19  and  C_20 
DOCKED: REMARK    4  A    between atoms: C_20  and  C_21 
DOCKED: REMARK    5  A    between atoms: C_21  and  N_22 
DOCKED: USER                              x       y       z     vdW  Elec       q    Type
DOCKED: USER                           _______ _______ _______ _____ _____    ______ ____
DOCKED: ROOT
DOCKED: ATOM      1  O   UNL     1     -47.556 -24.289  14.730 -0.16 -0.00    -0.346 OA 
DOCKED: ATOM      2  C   UNL     1     -48.629 -23.294  14.680 -0.20 +0.00    +0.130 C  
DOCKED: ATOM      3  C   UNL     1     -49.228 -23.480  13.315 -0.32 +0.00    +0.004 A  
DOCKED: ATOM      4  C   UNL     1     -48.625 -24.559  12.684 -0.42 +0.00    +0.006 A  
DOCKED: ATOM      5  C   UNL     1     -47.610 -25.161  13.577 -0.31 +0.00    +0.169 C  
DOCKED: ATOM      6  C   UNL     1     -50.233 -22.759  12.688 -0.30 -0.00    -0.001 A  
DOCKED: ATOM      7  C   UNL     1     -49.000 -24.950  11.410 -0.45 +0.00    +0.008 A  
DOCKED: ATOM      8  C   UNL     1     -50.620 -23.138  11.401 -0.09 +0.00    +0.010 A  
DOCKED: ATOM      9  C   UNL     1     -50.007 -24.228  10.766 -0.45 +0.00    +0.068 A  
DOCKED: ATOM     10  N   UNL     1     -50.752 -24.909   8.380 -2.49 -0.00    -0.191 NA 
DOCKED: ATOM     11  C   UNL     1     -50.417 -24.603   9.450 -0.34 +0.00    +0.101 C  
DOCKED: ENDROOT
DOCKED: BRANCH   2  12
DOCKED: ATOM     12  C   UNL     1     -49.614 -23.589  15.805 -0.17 +0.00    +0.038 C  
DOCKED: BRANCH  12  13
DOCKED: ATOM     13  C   UNL     1     -49.422 -25.000  16.358 -0.20 +0.00    +0.038 C  
DOCKED: BRANCH  13  14
DOCKED: ATOM     14  C   UNL     1     -49.121 -24.967  17.855 -0.10 +0.00    +0.251 C  
DOCKED: BRANCH  14  15
DOCKED: ATOM     15  N   UNL     1     -47.694 -25.146  18.090 -0.22 +0.00    +0.141 N  
DOCKED: ATOM     16  C   UNL     1     -46.993 -23.863  18.015 -0.08 +0.00    +0.285 C  
DOCKED: ATOM     17  C   UNL     1     -47.460 -25.776  19.391 -0.15 +0.00    +0.285 C  
DOCKED: ENDBRANCH  14  15
DOCKED: ENDBRANCH  13  14
DOCKED: ENDBRANCH  12  13
DOCKED: ENDBRANCH   2  12
DOCKED: BRANCH   2  18
DOCKED: ATOM     18  C   UNL     1     -47.992 -21.957  14.858 -0.17 +0.00    +0.006 A  
DOCKED: ATOM     19  C   UNL     1     -47.214 -21.413  13.836 -0.13 +0.00    +0.001 A  
DOCKED: ATOM     20  C   UNL     1     -46.619 -20.163  14.004 -0.16 +0.00    +0.029 A  
DOCKED: ATOM     21  C   UNL     1     -46.802 -19.457  15.193 -0.05 +0.00    +0.140 A  
DOCKED: ATOM     22  C   UNL     1     -47.580 -20.001  16.214 -0.03 +0.00    +0.029 A  
DOCKED: ATOM     23  F   UNL     1     -46.232 -18.256  15.353 -0.00 -0.00    -0.204 F  
DOCKED: ATOM     24  C   UNL     1     -48.176 -21.253  16.047 -0.07 +0.00    +0.001 A  
DOCKED: ENDBRANCH   2  18
DOCKED: TORSDOF 5
DOCKED: TER
DOCKED: ENDMDL
________________________________________________________________________________


    FINAL DOCKED STATE:
    ________________________


Run:   4 / 512
Time taken for this run:   0.002s

DOCKED: MODEL        4
DOCKED: USER    Run = 4
DOCKED: USER
DOCKED: USER    Estimated Free Energy of Binding    =  -4.01 kcal/mol  [=(1)+(2)+(3)-(4)]
DOCKED: USER
DOCKED: USER    (1) Final Intermolecular Energy     =  -5.50 kcal/mol
DOCKED: USER        vdW + Hbond + desolv Energy     =  -5.50 kcal/mol
DOCKED: USER        Electrostatic Energy            =  +0.00 kcal/mol
DOCKED: USER        Moving Ligand-Fixed Receptor    =  -5.50 kcal/mol
DOCKED: USER        Moving Ligand-Moving Receptor   =  +0.00 kcal/mol
DOCKED: USER    (2) Final Total Internal Energy     =  -1.49 kcal/mol
DOCKED: USER    (3) Torsional Free Energy           =  +1.49 kcal/mol
DOCKED: USER    (4) Unbound System's Energy         =  -1.49 kcal/mol
DOCKED: USER
DOCKED: USER
DOCKED: REMARK  5 active torsions:
DOCKED: REMARK  status: ('A' for Active; 'I' for Inactive)
DOCKED: REMARK    1  A    between atoms: C_2  and  C_19 
DOCKED: REMARK    2  A    between atoms: C_2  and  C_11 
DOCKED: REMARK    3  A    between atoms: C_19  and  C_20 
DOCKED: REMARK    4  A    between atoms: C_20  and  C_21 
DOCKED: REMARK    5  A    between atoms: C_21  and  N_22 
DOCKED: USER                              x       y       z     vdW  Elec       q    Type
DOCKED: USER                           _______ _______ _______ _____ _____    ______ ____
DOCKED: ROOT
DOCKED: ATOM      1  O   UNL     1     -43.958 -14.844   6.107 -0.04 -0.00    -0.346 OA 
DOCKED: ATOM      2  C   UNL     1     -43.082 -14.740   4.939 -0.08 +0.00    +0.130 C  
DOCKED: ATOM      3  C   UNL     1     -43.961 -14.132   3.884 -0.16 +0.00    +0.004 A  
DOCKED: ATOM      4  C   UNL     1     -45.195 -13.814   4.431 -0.27 +0.00    +0.006 A  
DOCKED: ATOM      5  C   UNL     1     -45.216 -14.171   5.867 -0.07 +0.00    +0.169 C  
DOCKED: ATOM      6  C   UNL     1     -43.685 -13.872   2.549 -0.15 -0.00    -0.001 A  
DOCKED: ATOM      7  C   UNL     1     -46.193 -13.232   3.668 -0.38 +0.00    +0.008 A  
DOCKED: ATOM      8  C   UNL     1     -44.682 -13.289   1.766 -0.26 +0.00    +0.010 A  
DOCKED: ATOM      9  C   UNL     1     -45.930 -12.970   2.323 -0.32 +0.00    +0.068 A  
DOCKED: ATOM     10  N   UNL     1     -47.757 -11.884   0.841 -2.60 -0.00    -0.191 NA 
DOCKED: ATOM     11  C   UNL     1     -46.938 -12.372   1.506 -0.02 +0.00    +0.101 C  
DOCKED: ENDROOT
DOCKED: BRANCH   2  12
DOCKED: ATOM     12  C   UNL     1     -41.894 -13.858   5.302 -0.06 +0.00    +0.038 C  
DOCKED: BRANCH  12  13
DOCKED: ATOM     13  C   UNL     1     -42.264 -12.843   6.382 -0.14 +0.00    +0.038 C  
DOCKED: BRANCH  13  14
DOCKED: ATOM     14  C   UNL     1     -42.124 -11.413   5.864 -0.11 +0.00    +0.251 C  
DOCKED: BRANCH  14  15
DOCKED: ATOM     15  N   UNL     1     -43.066 -11.173   4.777 -0.16 +0.00    +0.141 N  
DOCKED: ATOM     16  C   UNL     1     -43.955 -10.056   5.102 -0.17 +0.00    +0.285 C  
DOCKED: ATOM     17  C   UNL     1     -42.354 -10.907   3.526 -0.06 +0.00    +0.285 C  
DOCKED: ENDBRANCH  14  15
DOCKED: ENDBRANCH  13  14
DOCKED: ENDBRANCH  12  13
DOCKED: ENDBRANCH   2  12
DOCKED: BRANCH   2  18
DOCKED: ATOM     18  C   UNL     1     -42.640 -16.125   4.600 -0.05 +0.00    +0.006 A  
DOCKED: ATOM     19  C   UNL     1     -43.587 -17.112   4.330 -0.15 +0.00    +0.001 A  
DOCKED: ATOM     20  C   UNL     1     -43.173 -18.406   4.014 -0.17 +0.00    +0.029 A  
DOCKED: ATOM     21  C   UNL     1     -41.814 -18.712   3.969 -0.04 +0.00    +0.140 A  
DOCKED: ATOM     22  C   UNL     1     -40.867 -17.724   4.239 -0.01 +0.00    +0.029 A  
DOCKED: ATOM     23  F   UNL     1     -41.416 -19.954   3.664 -0.01 -0.00    -0.204 F  
DOCKED: ATOM     24  C   UNL     1     -41.280 -16.429   4.555 -0.01 +0.00    +0.001 A  
DOCKED: ENDBRANCH   2  18
DOCKED: TORSDOF 5
DOCKED: TER
DOCKED: ENDMDL
________________________________________________________________________________


    FINAL DOCKED STATE:
    ________________________


Run:   5 / 512
Time taken for this run:   0.002s

DOCKED: MODEL        5
DOCKED: USER    Run = 5
DOCKED: USER
DOCKED: USER    Estimated Free Energy of Binding    =  -4.14 kcal/mol  [=(1)+(2)+(3)-(4)]
DOCKED: USER
DOCKED: USER    (1) Final Intermolecular Energy     =  -5.63 kcal/mol
DOCKED: USER        vdW + Hbond + desolv Energy     =  -5.63 kcal/mol
DOCKED: USER        Electrostatic Energy            =  +0.00 kcal/mol
DOCKED: USER        Moving Ligand-Fixed Receptor    =  -5.63 kcal/mol
DOCKED: USER        Moving Ligand-Moving Receptor   =  +0.00 kcal/mol
DOCKED: USER    (2) Final Total Internal Energy     =  -1.24 kcal/mol
DOCKED: USER    (3) Torsional Free Energy           =  +1.49 kcal/mol
DOCKED: USER    (4) Unbound System's Energy         =  -1.24 kcal/mol
DOCKED: USER
DOCKED: USER
DOCKED: REMARK  5 active torsions:
DOCKED: REMARK  status: ('A' for Active; 'I' for Inactive)
DOCKED: REMARK    1  A    between atoms: C_2  and  C_19 
DOCKED: REMARK    2  A    between atoms: C_2  and  C_11 
DOCKED: REMARK    3  A    between atoms: C_19  and  C_20 
DOCKED: REMARK    4  A    between atoms: C_20  and  C_21 
DOCKED: REMARK    5  A    between atoms: C_21  and  N_22 
DOCKED: USER                              x       y       z     vdW  Elec       q    Type
DOCKED: USER                           _______ _______ _______ _____ _____    ______ ____
DOCKED: ROOT
DOCKED: ATOM      1  O   UNL     1     -45.558 -21.428  15.465 -0.07 -0.00    -0.346 OA 
DOCKED: ATOM      2  C   UNL     1     -46.628 -20.541  15.007 -0.11 +0.00    +0.130 C  
DOCKED: ATOM      3  C   UNL     1     -47.579 -21.462  14.298 -0.20 +0.00    +0.004 A  
DOCKED: ATOM      4  C   UNL     1     -47.147 -22.773  14.434 -0.25 +0.00    +0.006 A  
DOCKED: ATOM      5  C   UNL     1     -45.907 -22.813  15.241 -0.16 +0.00    +0.169 C  
DOCKED: ATOM      6  C   UNL     1     -48.739 -21.163  13.599 -0.26 -0.00    -0.001 A  
DOCKED: ATOM      7  C   UNL     1     -47.853 -23.826  13.876 -0.34 +0.00    +0.008 A  
DOCKED: ATOM      8  C   UNL     1     -49.459 -22.213  13.026 -0.30 +0.00    +0.010 A  
DOCKED: ATOM      9  C   UNL     1     -49.019 -23.537  13.165 -0.30 +0.00    +0.068 A  
DOCKED: ATOM     10  N   UNL     1     -50.382 -25.462  12.093 -2.55 -0.00    -0.191 NA 
DOCKED: ATOM     11  C   UNL     1     -49.770 -24.599  12.573 -0.36 +0.00    +0.101 C  
DOCKED: ENDROOT
DOCKED: BRANCH   2  12
DOCKED: ATOM     12  C   UNL     1     -47.251 -19.867  16.224 -0.04 +0.00    +0.038 C  
DOCKED: BRANCH  12  13
DOCKED: ATOM     13  C   UNL     1     -48.549 -20.557  16.639 -0.04 +0.00    +0.038 C  
DOCKED: BRANCH  13  14
DOCKED: ATOM     14  C   UNL     1     -49.696 -19.554  16.742 -0.01 +0.00    +0.251 C  
DOCKED: BRANCH  14  15
DOCKED: ATOM     15  N   UNL     1     -50.755 -19.896  15.799 -0.03 +0.00    +0.141 N  
DOCKED: ATOM     16  C   UNL     1     -51.912 -20.451  16.502 -0.00 +0.00    +0.285 C  
DOCKED: ATOM     17  C   UNL     1     -51.150 -18.721  15.020 -0.05 +0.00    +0.285 C  
DOCKED: ENDBRANCH  14  15
DOCKED: ENDBRANCH  13  14
DOCKED: ENDBRANCH  12  13
DOCKED: ENDBRANCH   2  12
DOCKED: BRANCH   2  18
DOCKED: ATOM     18  C   UNL     1     -46.003 -19.537  14.097 -0.13 +0.00    +0.006 A  
DOCKED: ATOM     19  C   UNL     1     -46.669 -18.345  13.813 -0.10 +0.00    +0.001 A  
DOCKED: ATOM     20  C   UNL     1     -46.083 -17.407  12.962 -0.08 +0.00    +0.029 A  
DOCKED: ATOM     21  C   UNL     1     -44.835 -17.662  12.396 -0.06 +0.00    +0.140 A  
DOCKED: ATOM     22  C   UNL     1     -44.170 -18.854  12.680 -0.10 +0.00    +0.029 A  
DOCKED: ATOM     23  F   UNL     1     -44.273 -16.760  11.580 -0.00 -0.00    -0.204 F  
DOCKED: ATOM     24  C   UNL     1     -44.755 -19.793  13.532 -0.08 +0.00    +0.001 A  
DOCKED: ENDBRANCH   2  18
DOCKED: TORSDOF 5
DOCKED: TER
DOCKED: ENDMDL
________________________________________________________________________________


    FINAL DOCKED STATE:
    ________________________


Run:   6 / 512
Time taken for this run:   0.002s

DOCKED: MODEL        6
DOCKED: USER    Run = 6
DOCKED: USER
DOCKED: USER    Estimated Free Energy of Binding    =  -4.26 kcal/mol  [=(1)+(2)+(3)-(4)]
DOCKED: USER
DOCKED: USER    (1) Final Intermolecular Energy     =  -5.75 kcal/mol
DOCKED: USER        vdW + Hbond + desolv Energy     =  -5.75 kcal/mol
DOCKED: USER        Electrostatic Energy            =  +0.00 kcal/mol
DOCKED: USER        Moving Ligand-Fixed Receptor    =  -5.75 kcal/mol
DOCKED: USER        Moving Ligand-Moving Receptor   =  +0.00 kcal/mol
DOCKED: USER    (2) Final Total Internal Energy     =  -1.20 kcal/mol
DOCKED: USER    (3) Torsional Free Energy           =  +1.49 kcal/mol
DOCKED: USER    (4) Unbound System's Energy         =  -1.20 kcal/mol
DOCKED: USER
DOCKED: USER
DOCKED: REMARK  5 active torsions:
DOCKED: REMARK  status: ('A' for Active; 'I' for Inactive)
DOCKED: REMARK    1  A    between atoms: C_2  and  C_19 
DOCKED: REMARK    2  A    between atoms: C_2  and  C_11 
DOCKED: REMARK    3  A    between atoms: C_19  and  C_20 
DOCKED: REMARK    4  A    between atoms: C_20  and  C_21 
DOCKED: REMARK    5  A    between atoms: C_21  and  N_22 
DOCKED: USER                              x       y       z     vdW  Elec       q    Type
DOCKED: USER                           _______ _______ _______ _____ _____    ______ ____
DOCKED: ROOT
DOCKED: ATOM      1  O   UNL     1     -45.400 -21.432  15.294 -0.08 -0.00    -0.346 OA 
DOCKED: ATOM      2  C   UNL     1     -46.288 -20.518  14.573 -0.13 +0.00    +0.130 C  
DOCKED: ATOM      3  C   UNL     1     -47.288 -21.429  13.921 -0.18 +0.00    +0.004 A  
DOCKED: ATOM      4  C   UNL     1     -47.060 -22.737  14.323 -0.23 +0.00    +0.006 A  
DOCKED: ATOM      5  C   UNL     1     -45.919 -22.782  15.265 -0.17 +0.00    +0.169 C  
DOCKED: ATOM      6  C   UNL     1     -48.324 -21.122  13.051 -0.26 -0.00    -0.001 A  
DOCKED: ATOM      7  C   UNL     1     -47.851 -23.779  13.870 -0.34 +0.00    +0.008 A  
DOCKED: ATOM      8  C   UNL     1     -49.128 -22.162  12.581 -0.32 +0.00    +0.010 A  
DOCKED: ATOM      9  C   UNL     1     -48.893 -23.483  12.989 -0.31 +0.00    +0.068 A  
DOCKED: ATOM     10  N   UNL     1     -50.408 -25.389  12.102 -2.56 -0.00    -0.191 NA 
DOCKED: ATOM     11  C   UNL     1     -49.728 -24.534  12.499 -0.38 +0.00    +0.101 C  
DOCKED: ENDROOT
DOCKED: BRANCH   2  12
DOCKED: ATOM     12  C   UNL     1     -46.920 -19.565  15.579 -0.06 +0.00    +0.038 C  
DOCKED: BRANCH  12  13
DOCKED: ATOM     13  C   UNL     1     -48.291 -20.064  16.034 -0.05 +0.00    +0.038 C  
DOCKED: BRANCH  13  14
DOCKED: ATOM     14  C   UNL     1     -48.156 -21.105  17.144 -0.01 +0.00    +0.251 C  
DOCKED: BRANCH  14  15
DOCKED: ATOM     15  N   UNL     1     -47.462 -20.534  18.293 -0.01 +0.00    +0.141 N  
DOCKED: ATOM     16  C   UNL     1     -48.417 -20.148  19.333 -0.00 +0.00    +0.285 C  
DOCKED: ATOM     17  C   UNL     1     -46.484 -21.482  18.828 -0.01 +0.00    +0.285 C  
DOCKED: ENDBRANCH  14  15
DOCKED: ENDBRANCH  13  14
DOCKED: ENDBRANCH  12  13
DOCKED: ENDBRANCH   2  12
DOCKED: BRANCH   2  18
DOCKED: ATOM     18  C   UNL     1     -45.445 -19.779  13.587 -0.11 +0.00    +0.006 A  
DOCKED: ATOM     19  C   UNL     1     -46.040 -18.903  12.681 -0.16 +0.00    +0.001 A  
DOCKED: ATOM     20  C   UNL     1     -45.251 -18.213  11.760 -0.13 +0.00    +0.029 A  
DOCKED: ATOM     21  C   UNL     1     -43.870 -18.399  11.747 -0.07 +0.00    +0.140 A  
DOCKED: ATOM     22  C   UNL     1     -43.275 -19.276  12.654 -0.09 +0.00    +0.029 A  
DOCKED: ATOM     23  F   UNL     1     -43.113 -17.735  10.863 -0.00 -0.00    -0.204 F  
DOCKED: ATOM     24  C   UNL     1     -44.064 -19.967  13.575 -0.07 +0.00    +0.001 A  
DOCKED: ENDBRANCH   2  18
DOCKED: TORSDOF 5
DOCKED: TER
DOCKED: ENDMDL
________________________________________________________________________________


    FINAL DOCKED STATE:
    ________________________


Run:   7 / 512
Time taken for this run:   0.002s

DOCKED: MODEL        7
DOCKED: USER    Run = 7
DOCKED: USER
DOCKED: USER    Estimated Free Energy of Binding    =  -4.40 kcal/mol  [=(1)+(2)+(3)-(4)]
DOCKED: USER
DOCKED: USER    (1) Final Intermolecular Energy     =  -5.89 kcal/mol
DOCKED: USER        vdW + Hbond + desolv Energy     =  -5.89 kcal/mol
DOCKED: USER        Electrostatic Energy            =  +0.00 kcal/mol
DOCKED: USER        Moving Ligand-Fixed Receptor    =  -5.89 kcal/mol
DOCKED: USER        Moving Ligand-Moving Receptor   =  +0.00 kcal/mol
DOCKED: USER    (2) Final Total Internal Energy     =  -1.07 kcal/mol
DOCKED: USER    (3) Torsional Free Energy           =  +1.49 kcal/mol
DOCKED: USER    (4) Unbound System's Energy         =  -1.07 kcal/mol
DOCKED: USER
DOCKED: USER
DOCKED: REMARK  5 active torsions:
DOCKED: REMARK  status: ('A' for Active; 'I' for Inactive)
DOCKED: REMARK    1  A    between atoms: C_2  and  C_19 
DOCKED: REMARK    2  A    between atoms: C_2  and  C_11 
DOCKED: REMARK    3  A    between atoms: C_19  and  C_20 
DOCKED: REMARK    4  A    between atoms: C_20  and  C_21 
DOCKED: REMARK    5  A    between atoms: C_21  and  N_22 
DOCKED: USER                              x       y       z     vdW  Elec       q    Type
DOCKED: USER                           _______ _______ _______ _____ _____    ______ ____
DOCKED: ROOT
DOCKED: ATOM      1  O   UNL     1     -42.378 -14.307   6.134 -0.02 -0.00    -0.346 OA 
DOCKED: ATOM      2  C   UNL     1     -43.615 -15.011   6.473 -0.11 +0.00    +0.130 C  
DOCKED: ATOM      3  C   UNL     1     -44.613 -14.479   5.486 -0.20 +0.00    +0.004 A  
DOCKED: ATOM      4  C   UNL     1     -43.978 -13.631   4.590 -0.17 +0.00    +0.006 A  
DOCKED: ATOM      5  C   UNL     1     -42.535 -13.552   4.910 -0.07 +0.00    +0.169 C  
DOCKED: ATOM      6  C   UNL     1     -45.973 -14.735   5.381 -0.29 -0.00    -0.001 A  
DOCKED: ATOM      7  C   UNL     1     -44.675 -13.009   3.569 -0.25 +0.00    +0.008 A  
DOCKED: ATOM      8  C   UNL     1     -46.690 -14.112   4.359 -0.15 +0.00    +0.010 A  
DOCKED: ATOM      9  C   UNL     1     -46.044 -13.254   3.457 -0.32 +0.00    +0.068 A  
DOCKED: ATOM     10  N   UNL     1     -47.405 -12.117   1.567 -2.47 -0.00    -0.191 NA 
DOCKED: ATOM     11  C   UNL     1     -46.795 -12.626   2.415 -0.42 +0.00    +0.101 C  
DOCKED: ENDROOT
DOCKED: BRANCH   2  12
DOCKED: ATOM     12  C   UNL     1     -43.375 -16.509   6.326 -0.07 +0.00    +0.038 C  
DOCKED: BRANCH  12  13
DOCKED: ATOM     13  C   UNL     1     -42.644 -17.077   7.541 -0.03 +0.00    +0.038 C  
DOCKED: BRANCH  13  14
DOCKED: ATOM     14  C   UNL     1     -43.603 -17.842   8.451 -0.04 +0.00    +0.251 C  
DOCKED: BRANCH  14  15
DOCKED: ATOM     15  N   UNL     1     -44.268 -18.906   7.708 -0.14 +0.00    +0.141 N  
DOCKED: ATOM     16  C   UNL     1     -43.736 -20.214   8.092 -0.17 +0.00    +0.285 C  
DOCKED: ATOM     17  C   UNL     1     -45.715 -18.862   7.928 -0.17 +0.00    +0.285 C  
DOCKED: ENDBRANCH  14  15
DOCKED: ENDBRANCH  13  14
DOCKED: ENDBRANCH  12  13
DOCKED: ENDBRANCH   2  12
DOCKED: BRANCH   2  18
DOCKED: ATOM     18  C   UNL     1     -43.947 -14.655   7.884 -0.15 +0.00    +0.006 A  
DOCKED: ATOM     19  C   UNL     1     -45.242 -14.843   8.364 -0.19 +0.00    +0.001 A  
DOCKED: ATOM     20  C   UNL     1     -45.551 -14.509   9.683 -0.17 +0.00    +0.029 A  
DOCKED: ATOM     21  C   UNL     1     -44.565 -13.989  10.520 -0.10 +0.00    +0.140 A  
DOCKED: ATOM     22  C   UNL     1     -43.269 -13.802  10.039 -0.04 +0.00    +0.029 A  
DOCKED: ATOM     23  F   UNL     1     -44.861 -13.671  11.787 -0.03 -0.00    -0.204 F  
DOCKED: ATOM     24  C   UNL     1     -42.959 -14.135   8.720 -0.11 +0.00    +0.001 A  
DOCKED: ENDBRANCH   2  18
DOCKED: TORSDOF 5
DOCKED: TER
DOCKED: ENDMDL
________________________________________________________________________________


    FINAL DOCKED STATE:
    ________________________


Run:   8 / 512
Time taken for this run:   0.002s

DOCKED: MODEL        8
DOCKED: USER    Run = 8
DOCKED: USER
DOCKED: USER    Estimated Free Energy of Binding    =  -4.32 kcal/mol  [=(1)+(2)+(3)-(4)]
DOCKED: USER
DOCKED: USER    (1) Final Intermolecular Energy     =  -5.82 kcal/mol
DOCKED: USER        vdW + Hbond + desolv Energy     =  -5.82 kcal/mol
DOCKED: USER        Electrostatic Energy            =  +0.00 kcal/mol
DOCKED: USER        Moving Ligand-Fixed Receptor    =  -5.82 kcal/mol
DOCKED: USER        Moving Ligand-Moving Receptor   =  +0.00 kcal/mol
DOCKED: USER    (2) Final Total Internal Energy     =  -1.32 kcal/mol
DOCKED: USER    (3) Torsional Free Energy           =  +1.49 kcal/mol
DOCKED: USER    (4) Unbound System's Energy         =  -1.32 kcal/mol
DOCKED: USER
DOCKED: USER
DOCKED: REMARK  5 active torsions:
DOCKED: REMARK  status: ('A' for Active; 'I' for Inactive)
DOCKED: REMARK    1  A    between atoms: C_2  and  C_19 
DOCKED: REMARK    2  A    between atoms: C_2  and  C_11 
DOCKED: REMARK    3  A    between atoms: C_19  and  C_20 
DOCKED: REMARK    4  A    between atoms: C_20  and  C_21 
DOCKED: REMARK    5  A    between atoms: C_21  and  N_22 
DOCKED: USER                              x       y       z     vdW  Elec       q    Type
DOCKED: USER                           _______ _______ _______ _____ _____    ______ ____
DOCKED: ROOT
DOCKED: ATOM      1  O   UNL     1     -46.799 -20.590  15.788 -0.02 -0.00    -0.346 OA 
DOCKED: ATOM      2  C   UNL     1     -47.237 -20.012  14.517 -0.13 +0.00    +0.130 C  
DOCKED: ATOM      3  C   UNL     1     -47.884 -21.163  13.802 -0.24 +0.00    +0.004 A  
DOCKED: ATOM      4  C   UNL     1     -47.913 -22.273  14.635 -0.21 +0.00    +0.006 A  
DOCKED: ATOM      5  C   UNL     1     -47.308 -21.935  15.943 -0.10 +0.00    +0.169 C  
DOCKED: ATOM      6  C   UNL     1     -48.415 -21.220  12.522 -0.07 -0.00    -0.001 A  
DOCKED: ATOM      7  C   UNL     1     -48.465 -23.472  14.219 -0.28 +0.00    +0.008 A  
DOCKED: ATOM      8  C   UNL     1     -48.972 -22.423  12.086 -0.32 +0.00    +0.010 A  
DOCKED: ATOM      9  C   UNL     1     -48.998 -23.543  12.931 -0.31 +0.00    +0.068 A  
DOCKED: ATOM     10  N   UNL     1     -50.044 -25.760  12.092 -2.61 -0.00    -0.191 NA 
DOCKED: ATOM     11  C   UNL     1     -49.574 -24.766  12.468 -0.31 +0.00    +0.101 C  
DOCKED: ENDROOT
DOCKED: BRANCH   2  12
DOCKED: ATOM     12  C   UNL     1     -48.209 -18.875  14.813 -0.09 +0.00    +0.038 C  
DOCKED: BRANCH  12  13
DOCKED: ATOM     13  C   UNL     1     -49.511 -19.399  15.415 -0.07 +0.00    +0.038 C  
DOCKED: BRANCH  13  14
DOCKED: ATOM     14  C   UNL     1     -50.639 -19.379  14.386 -0.12 +0.00    +0.251 C  
DOCKED: BRANCH  14  15
DOCKED: ATOM     15  N   UNL     1     -51.651 -20.374  14.723 -0.09 +0.00    +0.141 N  
DOCKED: ATOM     16  C   UNL     1     -52.913 -19.725  15.081 -0.05 +0.00    +0.285 C  
DOCKED: ATOM     17  C   UNL     1     -51.855 -21.300  13.609 -0.12 +0.00    +0.285 C  
DOCKED: ENDBRANCH  14  15
DOCKED: ENDBRANCH  13  14
DOCKED: ENDBRANCH  12  13
DOCKED: ENDBRANCH   2  12
DOCKED: BRANCH   2  18
DOCKED: ATOM     18  C   UNL     1     -46.016 -19.509  13.822 -0.14 +0.00    +0.006 A  
DOCKED: ATOM     19  C   UNL     1     -46.139 -18.639  12.740 -0.15 +0.00    +0.001 A  
DOCKED: ATOM     20  C   UNL     1     -44.996 -18.169  12.091 -0.11 +0.00    +0.029 A  
DOCKED: ATOM     21  C   UNL     1     -43.733 -18.569  12.525 -0.07 +0.00    +0.140 A  
DOCKED: ATOM     22  C   UNL     1     -43.611 -19.439  13.609 -0.09 +0.00    +0.029 A  
DOCKED: ATOM     23  F   UNL     1     -42.636 -18.117  11.904 -0.00 -0.00    -0.204 F  
DOCKED: ATOM     24  C   UNL     1     -44.754 -19.910  14.258 -0.11 +0.00    +0.001 A  
DOCKED: ENDBRANCH   2  18
DOCKED: TORSDOF 5
DOCKED: TER
DOCKED: ENDMDL
________________________________________________________________________________


    FINAL DOCKED STATE:
    ________________________


Run:   9 / 512
Time taken for this run:   0.002s

DOCKED: MODEL        9
DOCKED: USER    Run = 9
DOCKED: USER
DOCKED: USER    Estimated Free Energy of Binding    =  -4.09 kcal/mol  [=(1)+(2)+(3)-(4)]
DOCKED: USER
DOCKED: USER    (1) Final Intermolecular Energy     =  -5.58 kcal/mol
DOCKED: USER        vdW + Hbond + desolv Energy     =  -5.58 kcal/mol
DOCKED: USER        Electrostatic Energy            =  +0.00 kcal/mol
DOCKED: USER        Moving Ligand-Fixed Receptor    =  -5.58 kcal/mol
DOCKED: USER        Moving Ligand-Moving Receptor   =  +0.00 kcal/mol
DOCKED: USER    (2) Final Total Internal Energy     =  -1.19 kcal/mol
DOCKED: USER    (3) Torsional Free Energy           =  +1.49 kcal/mol
DOCKED: USER    (4) Unbound System's Energy         =  -1.19 kcal/mol
DOCKED: USER
DOCKED: USER
DOCKED: REMARK  5 active torsions:
DOCKED: REMARK  status: ('A' for Active; 'I' for Inactive)
DOCKED: REMARK    1  A    between atoms: C_2  and  C_19 
DOCKED: REMARK    2  A    between atoms: C_2  and  C_11 
DOCKED: REMARK    3  A    between atoms: C_19  and  C_20 
DOCKED: REMARK    4  A    between atoms: C_20  and  C_21 
DOCKED: REMARK    5  A    between atoms: C_21  and  N_22 
DOCKED: USER                              x       y       z     vdW  Elec       q    Type
DOCKED: USER                           _______ _______ _______ _____ _____    ______ ____
DOCKED: ROOT
DOCKED: ATOM      1  O   UNL     1     -45.490 -15.850   7.672 -0.05 -0.00    -0.346 OA 
DOCKED: ATOM      2  C   UNL     1     -44.320 -15.549   6.845 -0.12 +0.00    +0.130 C  
DOCKED: ATOM      3  C   UNL     1     -44.892 -14.822   5.663 -0.22 +0.00    +0.004 A  
DOCKED: ATOM      4  C   UNL     1     -46.253 -14.625   5.849 -0.29 +0.00    +0.006 A  
DOCKED: ATOM      5  C   UNL     1     -46.668 -15.189   7.154 -0.26 +0.00    +0.169 C  
DOCKED: ATOM      6  C   UNL     1     -44.257 -14.361   4.520 -0.19 -0.00    -0.001 A  
DOCKED: ATOM      7  C   UNL     1     -47.023 -13.969   4.904 -0.28 +0.00    +0.008 A  
DOCKED: ATOM      8  C   UNL     1     -45.020 -13.701   3.555 -0.27 +0.00    +0.010 A  
DOCKED: ATOM      9  C   UNL     1     -46.396 -13.506   3.746 -0.24 +0.00    +0.068 A  
DOCKED: ATOM     10  N   UNL     1     -47.782 -12.273   1.938 -2.35 -0.00    -0.191 NA 
DOCKED: ATOM     11  C   UNL     1     -47.160 -12.827   2.749 -0.32 +0.00    +0.101 C  
DOCKED: ENDROOT
DOCKED: BRANCH   2  12
DOCKED: ATOM     12  C   UNL     1     -43.360 -14.693   7.662 -0.13 +0.00    +0.038 C  
DOCKED: BRANCH  12  13
DOCKED: ATOM     13  C   UNL     1     -43.930 -14.381   9.044 -0.14 +0.00    +0.038 C  
DOCKED: BRANCH  13  14
DOCKED: ATOM     14  C   UNL     1     -43.004 -14.891  10.147 -0.06 +0.00    +0.251 C  
DOCKED: BRANCH  14  15
DOCKED: ATOM     15  N   UNL     1     -43.260 -16.302  10.411 -0.02 +0.00    +0.141 N  
DOCKED: ATOM     16  C   UNL     1     -42.634 -16.713  11.669 -0.01 +0.00    +0.285 C  
DOCKED: ATOM     17  C   UNL     1     -44.699 -16.567  10.450 -0.04 +0.00    +0.285 C  
DOCKED: ENDBRANCH  14  15
DOCKED: ENDBRANCH  13  14
DOCKED: ENDBRANCH  12  13
DOCKED: ENDBRANCH   2  12
DOCKED: BRANCH   2  18
DOCKED: ATOM     18  C   UNL     1     -43.698 -16.856   6.479 -0.08 +0.00    +0.006 A  
DOCKED: ATOM     19  C   UNL     1     -43.368 -17.122   5.151 -0.10 +0.00    +0.001 A  
DOCKED: ATOM     20  C   UNL     1     -42.786 -18.343   4.810 -0.11 +0.00    +0.029 A  
DOCKED: ATOM     21  C   UNL     1     -42.536 -19.296   5.796 -0.10 +0.00    +0.140 A  
DOCKED: ATOM     22  C   UNL     1     -42.867 -19.029   7.124 -0.09 +0.00    +0.029 A  
DOCKED: ATOM     23  F   UNL     1     -41.976 -20.468   5.469 -0.04 -0.00    -0.204 F  
DOCKED: ATOM     24  C   UNL     1     -43.449 -17.808   7.467 -0.07 +0.00    +0.001 A  
DOCKED: ENDBRANCH   2  18
DOCKED: TORSDOF 5
DOCKED: TER
DOCKED: ENDMDL
________________________________________________________________________________


    FINAL DOCKED STATE:
    ________________________


Run:   10 / 512
Time taken for this run:   0.002s

DOCKED: MODEL        10
DOCKED: USER    Run = 10
DOCKED: USER
DOCKED: USER    Estimated Free Energy of Binding    =  -4.09 kcal/mol  [=(1)+(2)+(3)-(4)]
DOCKED: USER
DOCKED: USER    (1) Final Intermolecular Energy     =  -5.58 kcal/mol
DOCKED: USER        vdW + Hbond + desolv Energy     =  -5.58 kcal/mol
DOCKED: USER        Electrostatic Energy            =  +0.00 kcal/mol
DOCKED: USER        Moving Ligand-Fixed Receptor    =  -5.58 kcal/mol
DOCKED: USER        Moving Ligand-Moving Receptor   =  +0.00 kcal/mol
DOCKED: USER    (2) Final Total Internal Energy     =  -1.19 kcal/mol
DOCKED: USER    (3) Torsional Free Energy           =  +1.49 kcal/mol
DOCKED: USER    (4) Unbound System's Energy         =  -1.19 kcal/mol
DOCKED: USER
DOCKED: USER
DOCKED: REMARK  5 active torsions:
DOCKED: REMARK  status: ('A' for Active; 'I' for Inactive)
DOCKED: REMARK    1  A    between atoms: C_2  and  C_19 
DOCKED: REMARK    2  A    between atoms: C_2  and  C_11 
DOCKED: REMARK    3  A    between atoms: C_19  and  C_20 
DOCKED: REMARK    4  A    between atoms: C_20  and  C_21 
DOCKED: REMARK    5  A    between atoms: C_21  and  N_22 
DOCKED: USER                              x       y       z     vdW  Elec       q    Type
DOCKED: USER                           _______ _______ _______ _____ _____    ______ ____
DOCKED: ROOT
DOCKED: ATOM      1  O   UNL     1     -45.486 -15.662   7.544 -0.06 -0.00    -0.346 OA 
DOCKED: ATOM      2  C   UNL     1     -44.273 -15.100   6.949 -0.14 +0.00    +0.130 C  
DOCKED: ATOM      3  C   UNL     1     -44.766 -14.420   5.704 -0.20 +0.00    +0.004 A  
DOCKED: ATOM      4  C   UNL     1     -46.151 -14.492   5.649 -0.30 +0.00    +0.006 A  
DOCKED: ATOM      5  C   UNL     1     -46.664 -15.202   6.842 -0.27 +0.00    +0.169 C  
DOCKED: ATOM      6  C   UNL     1     -44.047 -13.780   4.705 -0.18 -0.00    -0.001 A  
DOCKED: ATOM      7  C   UNL     1     -46.860 -13.934   4.600 -0.31 +0.00    +0.008 A  
DOCKED: ATOM      8  C   UNL     1     -44.747 -13.216   3.638 -0.25 +0.00    +0.010 A  
DOCKED: ATOM      9  C   UNL     1     -46.147 -13.292   3.586 -0.32 +0.00    +0.068 A  
DOCKED: ATOM     10  N   UNL     1     -47.418 -12.231   1.593 -2.53 -0.00    -0.191 NA 
DOCKED: ATOM     11  C   UNL     1     -46.848 -12.707   2.486 -0.38 +0.00    +0.101 C  
DOCKED: ENDROOT
DOCKED: BRANCH   2  12
DOCKED: ATOM     12  C   UNL     1     -43.650 -14.131   7.947 -0.14 +0.00    +0.038 C  
DOCKED: BRANCH  12  13
DOCKED: ATOM     13  C   UNL     1     -42.489 -13.359   7.323 -0.12 +0.00    +0.038 C  
DOCKED: BRANCH  13  14
DOCKED: ATOM     14  C   UNL     1     -41.298 -13.294   8.278 -0.07 +0.00    +0.251 C  
DOCKED: BRANCH  14  15
DOCKED: ATOM     15  N   UNL     1     -40.107 -13.845   7.641 -0.02 +0.00    +0.141 N  
DOCKED: ATOM     16  C   UNL     1     -40.409 -14.291   6.280 -0.01 +0.00    +0.285 C  
DOCKED: ATOM     17  C   UNL     1     -39.027 -12.856   7.624 -0.01 +0.00    +0.285 C  
DOCKED: ENDBRANCH  14  15
DOCKED: ENDBRANCH  13  14
DOCKED: ENDBRANCH  12  13
DOCKED: ENDBRANCH   2  12
DOCKED: BRANCH   2  18
DOCKED: ATOM     18  C   UNL     1     -43.357 -16.242   6.664 -0.06 +0.00    +0.006 A  
DOCKED: ATOM     19  C   UNL     1     -43.442 -16.917   5.447 -0.10 +0.00    +0.001 A  
DOCKED: ATOM     20  C   UNL     1     -42.584 -17.985   5.182 -0.07 +0.00    +0.029 A  
DOCKED: ATOM     21  C   UNL     1     -41.644 -18.377   6.133 -0.02 +0.00    +0.140 A  
DOCKED: ATOM     22  C   UNL     1     -41.559 -17.702   7.350 -0.01 +0.00    +0.029 A  
DOCKED: ATOM     23  F   UNL     1     -40.820 -19.402   5.878 +0.00 -0.00    -0.204 F  
DOCKED: ATOM     24  C   UNL     1     -42.417 -16.633   7.617 -0.03 +0.00    +0.001 A  
DOCKED: ENDBRANCH   2  18
DOCKED: TORSDOF 5
DOCKED: TER
DOCKED: ENDMDL
________________________________________________________________________________


    FINAL DOCKED STATE:
    ________________________


Run:   11 / 512
Time taken for this run:   0.002s

DOCKED: MODEL        11
DOCKED: USER    Run = 11
DOCKED: USER
DOCKED: USER    Estimated Free Energy of Binding    =  -3.52 kcal/mol  [=(1)+(2)+(3)-(4)]
DOCKED: USER
DOCKED: USER    (1) Final Intermolecular Energy     =  -5.01 kcal/mol
DOCKED: USER        vdW + Hbond + desolv Energy     =  -5.01 kcal/mol
DOCKED: USER        Electrostatic Energy            =  +0.00 kcal/mol
DOCKED: USER        Moving Ligand-Fixed Receptor    =  -5.01 kcal/mol
DOCKED: USER        Moving Ligand-Moving Receptor   =  +0.00 kcal/mol
DOCKED: USER    (2) Final Total Internal Energy     =  -1.32 kcal/mol
DOCKED: USER    (3) Torsional Free Energy           =  +1.49 kcal/mol
DOCKED: USER    (4) Unbound System's Energy         =  -1.32 kcal/mol
DOCKED: USER
DOCKED: USER
DOCKED: REMARK  5 active torsions:
DOCKED: REMARK  status: ('A' for Active; 'I' for Inactive)
DOCKED: REMARK    1  A    between atoms: C_2  and  C_19 
DOCKED: REMARK    2  A    between atoms: C_2  and  C_11 
DOCKED: REMARK    3  A    between atoms: C_19  and  C_20 
DOCKED: REMARK    4  A    between atoms: C_20  and  C_21 
DOCKED: REMARK    5  A    between atoms: C_21  and  N_22 
DOCKED: USER                              x       y       z     vdW  Elec       q    Type
DOCKED: USER                           _______ _______ _______ _____ _____    ______ ____
DOCKED: ROOT
DOCKED: ATOM      1  O   UNL     1     -47.431 -19.302  13.943 -0.06 -0.00    -0.346 OA 
DOCKED: ATOM      2  C   UNL     1     -48.082 -19.848  15.134 -0.07 +0.00    +0.130 C  
DOCKED: ATOM      3  C   UNL     1     -48.694 -21.132  14.653 -0.15 +0.00    +0.004 A  
DOCKED: ATOM      4  C   UNL     1     -48.332 -21.356  13.333 -0.28 +0.00    +0.006 A  
DOCKED: ATOM      5  C   UNL     1     -47.458 -20.260  12.859 -0.08 +0.00    +0.169 C  
DOCKED: ATOM      6  C   UNL     1     -49.498 -22.035  15.334 -0.10 -0.00    -0.001 A  
DOCKED: ATOM      7  C   UNL     1     -48.760 -22.481  12.649 -0.33 +0.00    +0.008 A  
DOCKED: ATOM      8  C   UNL     1     -49.942 -23.172  14.657 -0.16 +0.00    +0.010 A  
DOCKED: ATOM      9  C   UNL     1     -49.574 -23.394  13.321 -0.25 +0.00    +0.068 A  
DOCKED: ATOM     10  N   UNL     1     -50.412 -25.517  12.095 -2.56 -0.00    -0.191 NA 
DOCKED: ATOM     11  C   UNL     1     -50.037 -24.564  12.645 -0.34 +0.00    +0.101 C  
DOCKED: ENDROOT
DOCKED: BRANCH   2  12
DOCKED: ATOM     12  C   UNL     1     -47.022 -20.061  16.208 -0.04 +0.00    +0.038 C  
DOCKED: BRANCH  12  13
DOCKED: ATOM     13  C   UNL     1     -46.378 -21.441  16.088 -0.11 +0.00    +0.038 C  
DOCKED: BRANCH  13  14
DOCKED: ATOM     14  C   UNL     1     -45.208 -21.417  15.106 -0.10 +0.00    +0.251 C  
DOCKED: BRANCH  14  15
DOCKED: ATOM     15  N   UNL     1     -44.449 -20.181  15.252 -0.06 +0.00    +0.141 N  
DOCKED: ATOM     16  C   UNL     1     -43.246 -20.406  16.056 -0.02 +0.00    +0.285 C  
DOCKED: ATOM     17  C   UNL     1     -44.088 -19.640  13.940 -0.07 +0.00    +0.285 C  
DOCKED: ENDBRANCH  14  15
DOCKED: ENDBRANCH  13  14
DOCKED: ENDBRANCH  12  13
DOCKED: ENDBRANCH   2  12
DOCKED: BRANCH   2  18
DOCKED: ATOM     18  C   UNL     1     -49.099 -18.847  15.573 -0.04 +0.00    +0.006 A  
DOCKED: ATOM     19  C   UNL     1     -49.888 -18.195  14.626 -0.10 +0.00    +0.001 A  
DOCKED: ATOM     20  C   UNL     1     -50.838 -17.260  15.037 -0.05 +0.00    +0.029 A  
DOCKED: ATOM     21  C   UNL     1     -50.999 -16.979  16.393 -0.01 +0.00    +0.140 A  
DOCKED: ATOM     22  C   UNL     1     -50.209 -17.632  17.340 -0.01 +0.00    +0.029 A  
DOCKED: ATOM     23  F   UNL     1     -51.912 -16.082  16.788 +0.00 -0.00    -0.204 F  
DOCKED: ATOM     24  C   UNL     1     -49.258 -18.567  16.929 -0.01 +0.00    +0.001 A  
DOCKED: ENDBRANCH   2  18
DOCKED: TORSDOF 5
DOCKED: TER
DOCKED: ENDMDL
________________________________________________________________________________


    FINAL DOCKED STATE:
    ________________________


Run:   12 / 512
Time taken for this run:   0.002s

DOCKED: MODEL        12
DOCKED: USER    Run = 12
DOCKED: USER
DOCKED: USER    Estimated Free Energy of Binding    =  -4.10 kcal/mol  [=(1)+(2)+(3)-(4)]
DOCKED: USER
DOCKED: USER    (1) Final Intermolecular Energy     =  -5.59 kcal/mol
DOCKED: USER        vdW + Hbond + desolv Energy     =  -5.59 kcal/mol
DOCKED: USER        Electrostatic Energy            =  +0.00 kcal/mol
DOCKED: USER        Moving Ligand-Fixed Receptor    =  -5.59 kcal/mol
DOCKED: USER        Moving Ligand-Moving Receptor   =  +0.00 kcal/mol
DOCKED: USER    (2) Final Total Internal Energy     =  -0.90 kcal/mol
DOCKED: USER    (3) Torsional Free Energy           =  +1.49 kcal/mol
DOCKED: USER    (4) Unbound System's Energy         =  -0.90 kcal/mol
DOCKED: USER
DOCKED: USER
DOCKED: REMARK  5 active torsions:
DOCKED: REMARK  status: ('A' for Active; 'I' for Inactive)
DOCKED: REMARK    1  A    between atoms: C_2  and  C_19 
DOCKED: REMARK    2  A    between atoms: C_2  and  C_11 
DOCKED: REMARK    3  A    between atoms: C_19  and  C_20 
DOCKED: REMARK    4  A    between atoms: C_20  and  C_21 
DOCKED: REMARK    5  A    between atoms: C_21  and  N_22 
DOCKED: USER                              x       y       z     vdW  Elec       q    Type
DOCKED: USER                           _______ _______ _______ _____ _____    ______ ____
DOCKED: ROOT
DOCKED: ATOM      1  O   UNL     1     -49.209 -21.092  15.171 -0.01 -0.00    -0.346 OA 
DOCKED: ATOM      2  C   UNL     1     -49.148 -22.535  15.402 -0.10 +0.00    +0.130 C  
DOCKED: ATOM      3  C   UNL     1     -49.378 -23.128  14.042 -0.23 +0.00    +0.004 A  
DOCKED: ATOM      4  C   UNL     1     -49.454 -22.114  13.098 -0.30 +0.00    +0.006 A  
DOCKED: ATOM      5  C   UNL     1     -49.269 -20.800  13.755 -0.19 +0.00    +0.169 C  
DOCKED: ATOM      6  C   UNL     1     -49.500 -24.458  13.668 -0.22 -0.00    -0.001 A  
DOCKED: ATOM      7  C   UNL     1     -49.656 -22.391  11.756 -0.06 +0.00    +0.008 A  
DOCKED: ATOM      8  C   UNL     1     -49.708 -24.754  12.320 -0.37 +0.00    +0.010 A  
DOCKED: ATOM      9  C   UNL     1     -49.786 -23.726  11.369 -0.39 +0.00    +0.068 A  
DOCKED: ATOM     10  N   UNL     1     -50.169 -24.311   8.874 -2.13 -0.00    -0.191 NA 
DOCKED: ATOM     11  C   UNL     1     -49.998 -24.048   9.994 -0.51 +0.00    +0.101 C  
DOCKED: ENDROOT
DOCKED: BRANCH   2  12
DOCKED: ATOM     12  C   UNL     1     -47.776 -22.875  15.973 -0.16 +0.00    +0.038 C  
DOCKED: BRANCH  12  13
DOCKED: ATOM     13  C   UNL     1     -46.662 -22.175  15.197 -0.21 +0.00    +0.038 C  
DOCKED: BRANCH  13  14
DOCKED: ATOM     14  C   UNL     1     -45.491 -23.123  14.943 +0.04 +0.00    +0.251 C  
DOCKED: BRANCH  14  15
DOCKED: ATOM     15  N   UNL     1     -44.230 -22.393  14.983 -0.14 +0.00    +0.141 N  
DOCKED: ATOM     16  C   UNL     1     -44.470 -20.955  15.116 -0.08 +0.00    +0.285 C  
DOCKED: ATOM     17  C   UNL     1     -43.391 -22.871  16.083 -0.09 +0.00    +0.285 C  
DOCKED: ENDBRANCH  14  15
DOCKED: ENDBRANCH  13  14
DOCKED: ENDBRANCH  12  13
DOCKED: ENDBRANCH   2  12
DOCKED: BRANCH   2  18
DOCKED: ATOM     18  C   UNL     1     -50.232 -22.868  16.372 -0.08 +0.00    +0.006 A  
DOCKED: ATOM     19  C   UNL     1     -50.636 -21.925  17.316 -0.03 +0.00    +0.001 A  
DOCKED: ATOM     20  C   UNL     1     -51.649 -22.237  18.223 -0.03 +0.00    +0.029 A  
DOCKED: ATOM     21  C   UNL     1     -52.258 -23.491  18.184 -0.03 +0.00    +0.140 A  
DOCKED: ATOM     22  C   UNL     1     -51.854 -24.434  17.239 -0.13 +0.00    +0.029 A  
DOCKED: ATOM     23  F   UNL     1     -53.232 -23.790  19.053 +0.02 -0.00    -0.204 F  
DOCKED: ATOM     24  C   UNL     1     -50.840 -24.122  16.332 -0.16 +0.00    +0.001 A  
DOCKED: ENDBRANCH   2  18
DOCKED: TORSDOF 5
DOCKED: TER
DOCKED: ENDMDL
________________________________________________________________________________


    FINAL DOCKED STATE:
    ________________________


Run:   13 / 512
Time taken for this run:   0.002s

DOCKED: MODEL        13
DOCKED: USER    Run = 13
DOCKED: USER
DOCKED: USER    Estimated Free Energy of Binding    =  -3.92 kcal/mol  [=(1)+(2)+(3)-(4)]
DOCKED: USER
DOCKED: USER    (1) Final Intermolecular Energy     =  -5.42 kcal/mol
DOCKED: USER        vdW + Hbond + desolv Energy     =  -5.42 kcal/mol
DOCKED: USER        Electrostatic Energy            =  +0.00 kcal/mol
DOCKED: USER        Moving Ligand-Fixed Receptor    =  -5.42 kcal/mol
DOCKED: USER        Moving Ligand-Moving Receptor   =  +0.00 kcal/mol
DOCKED: USER    (2) Final Total Internal Energy     =  -1.32 kcal/mol
DOCKED: USER    (3) Torsional Free Energy           =  +1.49 kcal/mol
DOCKED: USER    (4) Unbound System's Energy         =  -1.32 kcal/mol
DOCKED: USER
DOCKED: USER
DOCKED: REMARK  5 active torsions:
DOCKED: REMARK  status: ('A' for Active; 'I' for Inactive)
DOCKED: REMARK    1  A    between atoms: C_2  and  C_19 
DOCKED: REMARK    2  A    between atoms: C_2  and  C_11 
DOCKED: REMARK    3  A    between atoms: C_19  and  C_20 
DOCKED: REMARK    4  A    between atoms: C_20  and  C_21 
DOCKED: REMARK    5  A    between atoms: C_21  and  N_22 
DOCKED: USER                              x       y       z     vdW  Elec       q    Type
DOCKED: USER                           _______ _______ _______ _____ _____    ______ ____
DOCKED: ROOT
DOCKED: ATOM      1  O   UNL     1     -41.973 -18.991   8.100 +0.01 -0.00    -0.346 OA 
DOCKED: ATOM      2  C   UNL     1     -43.230 -19.580   7.635 -0.13 +0.00    +0.130 C  
DOCKED: ATOM      3  C   UNL     1     -43.217 -20.962   8.222 -0.23 +0.00    +0.004 A  
DOCKED: ATOM      4  C   UNL     1     -42.107 -21.112   9.040 -0.13 +0.00    +0.006 A  
DOCKED: ATOM      5  C   UNL     1     -41.326 -19.855   9.062 -0.03 +0.00    +0.169 C  
DOCKED: ATOM      6  C   UNL     1     -44.122 -22.000   8.053 -0.28 -0.00    -0.001 A  
DOCKED: ATOM      7  C   UNL     1     -41.861 -22.297   9.711 -0.18 +0.00    +0.008 A  
DOCKED: ATOM      8  C   UNL     1     -43.886 -23.203   8.720 -0.12 +0.00    +0.010 A  
DOCKED: ATOM      9  C   UNL     1     -42.761 -23.351   9.545 -0.25 +0.00    +0.068 A  
DOCKED: ATOM     10  N   UNL     1     -42.355 -25.596  10.772 -1.86 -0.00    -0.191 NA 
DOCKED: ATOM     11  C   UNL     1     -42.536 -24.589  10.222 -0.34 +0.00    +0.101 C  
DOCKED: ENDROOT
DOCKED: BRANCH   2  12
DOCKED: ATOM     12  C   UNL     1     -44.383 -18.727   8.150 -0.18 +0.00    +0.038 C  
DOCKED: BRANCH  12  13
DOCKED: ATOM     13  C   UNL     1     -45.122 -19.421   9.293 -0.22 +0.00    +0.038 C  
DOCKED: BRANCH  13  14
DOCKED: ATOM     14  C   UNL     1     -45.120 -18.558  10.553 -0.11 +0.00    +0.251 C  
DOCKED: BRANCH  14  15
DOCKED: ATOM     15  N   UNL     1     -43.771 -18.454  11.095 -0.07 +0.00    +0.141 N  
DOCKED: ATOM     16  C   UNL     1     -43.386 -17.051  11.256 -0.02 +0.00    +0.285 C  
DOCKED: ATOM     17  C   UNL     1     -43.673 -19.157  12.375 -0.07 +0.00    +0.285 C  
DOCKED: ENDBRANCH  14  15
DOCKED: ENDBRANCH  13  14
DOCKED: ENDBRANCH  12  13
DOCKED: ENDBRANCH   2  12
DOCKED: BRANCH   2  18
DOCKED: ATOM     18  C   UNL     1     -43.185 -19.581   6.143 -0.17 +0.00    +0.006 A  
DOCKED: ATOM     19  C   UNL     1     -43.965 -18.677   5.423 -0.19 +0.00    +0.001 A  
DOCKED: ATOM     20  C   UNL     1     -43.922 -18.679   4.028 -0.23 +0.00    +0.029 A  
DOCKED: ATOM     21  C   UNL     1     -43.102 -19.584   3.356 -0.20 +0.00    +0.140 A  
DOCKED: ATOM     22  C   UNL     1     -42.322 -20.488   4.078 -0.18 +0.00    +0.029 A  
DOCKED: ATOM     23  F   UNL     1     -43.060 -19.585   2.018 -0.06 -0.00    -0.204 F  
DOCKED: ATOM     24  C   UNL     1     -42.364 -20.487   5.473 -0.15 +0.00    +0.001 A  
DOCKED: ENDBRANCH   2  18
DOCKED: TORSDOF 5
DOCKED: TER
DOCKED: ENDMDL
________________________________________________________________________________


    FINAL DOCKED STATE:
    ________________________


Run:   14 / 512
Time taken for this run:   0.002s

DOCKED: MODEL        14
DOCKED: USER    Run = 14
DOCKED: USER
DOCKED: USER    Estimated Free Energy of Binding    =  -3.70 kcal/mol  [=(1)+(2)+(3)-(4)]
DOCKED: USER
DOCKED: USER    (1) Final Intermolecular Energy     =  -5.19 kcal/mol
DOCKED: USER        vdW + Hbond + desolv Energy     =  -5.19 kcal/mol
DOCKED: USER        Electrostatic Energy            =  +0.00 kcal/mol
DOCKED: USER        Moving Ligand-Fixed Receptor    =  -5.19 kcal/mol
DOCKED: USER        Moving Ligand-Moving Receptor   =  +0.00 kcal/mol
DOCKED: USER    (2) Final Total Internal Energy     =  -1.40 kcal/mol
DOCKED: USER    (3) Torsional Free Energy           =  +1.49 kcal/mol
DOCKED: USER    (4) Unbound System's Energy         =  -1.40 kcal/mol
DOCKED: USER
DOCKED: USER
DOCKED: REMARK  5 active torsions:
DOCKED: REMARK  status: ('A' for Active; 'I' for Inactive)
DOCKED: REMARK    1  A    between atoms: C_2  and  C_19 
DOCKED: REMARK    2  A    between atoms: C_2  and  C_11 
DOCKED: REMARK    3  A    between atoms: C_19  and  C_20 
DOCKED: REMARK    4  A    between atoms: C_20  and  C_21 
DOCKED: REMARK    5  A    between atoms: C_21  and  N_22 
DOCKED: USER                              x       y       z     vdW  Elec       q    Type
DOCKED: USER                           _______ _______ _______ _____ _____    ______ ____
DOCKED: ROOT
DOCKED: ATOM      1  O   UNL     1     -46.640 -20.311  14.578 -0.06 -0.00    -0.346 OA 
DOCKED: ATOM      2  C   UNL     1     -46.365 -21.504  15.379 -0.13 +0.00    +0.130 C  
DOCKED: ATOM      3  C   UNL     1     -47.206 -22.569  14.737 -0.23 +0.00    +0.004 A  
DOCKED: ATOM      4  C   UNL     1     -47.822 -22.058  13.604 -0.26 +0.00    +0.006 A  
DOCKED: ATOM      5  C   UNL     1     -47.427 -20.645  13.411 -0.17 +0.00    +0.169 C  
DOCKED: ATOM      6  C   UNL     1     -47.402 -23.888  15.120 -0.20 -0.00    -0.001 A  
DOCKED: ATOM      7  C   UNL     1     -48.653 -22.841  12.820 -0.34 +0.00    +0.008 A  
DOCKED: ATOM      8  C   UNL     1     -48.241 -24.689  14.343 -0.34 +0.00    +0.010 A  
DOCKED: ATOM      9  C   UNL     1     -48.863 -24.168  13.199 -0.33 +0.00    +0.068 A  
DOCKED: ATOM     10  N   UNL     1     -50.410 -25.683  11.776 -2.35 -0.00    -0.191 NA 
DOCKED: ATOM     11  C   UNL     1     -49.717 -25.003  12.414 -0.22 +0.00    +0.101 C  
DOCKED: ENDROOT
DOCKED: BRANCH   2  12
DOCKED: ATOM     12  C   UNL     1     -44.872 -21.802  15.304 -0.16 +0.00    +0.038 C  
DOCKED: BRANCH  12  13
DOCKED: ATOM     13  C   UNL     1     -44.040 -20.573  15.664 -0.08 +0.00    +0.038 C  
DOCKED: BRANCH  13  14
DOCKED: ATOM     14  C   UNL     1     -43.844 -19.667  14.450 -0.06 +0.00    +0.251 C  
DOCKED: BRANCH  14  15
DOCKED: ATOM     15  N   UNL     1     -44.649 -18.459  14.583 -0.03 +0.00    +0.141 N  
DOCKED: ATOM     16  C   UNL     1     -43.953 -17.461  15.397 -0.00 +0.00    +0.285 C  
DOCKED: ATOM     17  C   UNL     1     -44.971 -17.906  13.266 -0.05 +0.00    +0.285 C  
DOCKED: ENDBRANCH  14  15
DOCKED: ENDBRANCH  13  14
DOCKED: ENDBRANCH  12  13
DOCKED: ENDBRANCH   2  12
DOCKED: BRANCH   2  18
DOCKED: ATOM     18  C   UNL     1     -46.783 -21.197  16.778 -0.05 +0.00    +0.006 A  
DOCKED: ATOM     19  C   UNL     1     -46.490 -22.093  17.805 -0.06 +0.00    +0.001 A  
DOCKED: ATOM     20  C   UNL     1     -46.882 -21.804  19.113 -0.02 +0.00    +0.029 A  
DOCKED: ATOM     21  C   UNL     1     -47.564 -20.621  19.392 -0.00 +0.00    +0.140 A  
DOCKED: ATOM     22  C   UNL     1     -47.856 -19.725  18.363 -0.00 +0.00    +0.029 A  
DOCKED: ATOM     23  F   UNL     1     -47.939 -20.344  20.647 +0.00 -0.00    -0.204 F  
DOCKED: ATOM     24  C   UNL     1     -47.465 -20.013  17.055 -0.02 +0.00    +0.001 A  
DOCKED: ENDBRANCH   2  18
DOCKED: TORSDOF 5
DOCKED: TER
DOCKED: ENDMDL
________________________________________________________________________________


    FINAL DOCKED STATE:
    ________________________


Run:   15 / 512
Time taken for this run:   0.002s

DOCKED: MODEL        15
DOCKED: USER    Run = 15
DOCKED: USER
DOCKED: USER    Estimated Free Energy of Binding    =  -3.59 kcal/mol  [=(1)+(2)+(3)-(4)]
DOCKED: USER
DOCKED: USER    (1) Final Intermolecular Energy     =  -5.08 kcal/mol
DOCKED: USER        vdW + Hbond + desolv Energy     =  -5.08 kcal/mol
DOCKED: USER        Electrostatic Energy            =  +0.00 kcal/mol
DOCKED: USER        Moving Ligand-Fixed Receptor    =  -5.08 kcal/mol
DOCKED: USER        Moving Ligand-Moving Receptor   =  +0.00 kcal/mol
DOCKED: USER    (2) Final Total Internal Energy     =  -1.28 kcal/mol
DOCKED: USER    (3) Torsional Free Energy           =  +1.49 kcal/mol
DOCKED: USER    (4) Unbound System's Energy         =  -1.28 kcal/mol
DOCKED: USER
DOCKED: USER
DOCKED: REMARK  5 active torsions:
DOCKED: REMARK  status: ('A' for Active; 'I' for Inactive)
DOCKED: REMARK    1  A    between atoms: C_2  and  C_19 
DOCKED: REMARK    2  A    between atoms: C_2  and  C_11 
DOCKED: REMARK    3  A    between atoms: C_19  and  C_20 
DOCKED: REMARK    4  A    between atoms: C_20  and  C_21 
DOCKED: REMARK    5  A    between atoms: C_21  and  N_22 
DOCKED: USER                              x       y       z     vdW  Elec       q    Type
DOCKED: USER                           _______ _______ _______ _____ _____    ______ ____
DOCKED: ROOT
DOCKED: ATOM      1  O   UNL     1     -46.659 -20.377  14.642 -0.06 -0.00    -0.346 OA 
DOCKED: ATOM      2  C   UNL     1     -46.554 -21.532  15.534 -0.13 +0.00    +0.130 C  
DOCKED: ATOM      3  C   UNL     1     -47.385 -22.585  14.858 -0.22 +0.00    +0.004 A  
DOCKED: ATOM      4  C   UNL     1     -47.834 -22.110  13.634 -0.26 +0.00    +0.006 A  
DOCKED: ATOM      5  C   UNL     1     -47.329 -20.737  13.412 -0.12 +0.00    +0.169 C  
DOCKED: ATOM      6  C   UNL     1     -47.707 -23.864  15.287 -0.23 -0.00    -0.001 A  
DOCKED: ATOM      7  C   UNL     1     -48.620 -22.890  12.803 -0.34 +0.00    +0.008 A  
DOCKED: ATOM      8  C   UNL     1     -48.502 -24.661  14.463 -0.31 +0.00    +0.010 A  
DOCKED: ATOM      9  C   UNL     1     -48.956 -24.177  13.227 -0.32 +0.00    +0.068 A  
DOCKED: ATOM     10  N   UNL     1     -50.426 -25.685  11.718 -2.30 -0.00    -0.191 NA 
DOCKED: ATOM     11  C   UNL     1     -49.767 -25.008  12.395 -0.23 +0.00    +0.101 C  
DOCKED: ENDROOT
DOCKED: BRANCH   2  12
DOCKED: ATOM     12  C   UNL     1     -45.085 -21.920  15.650 -0.16 +0.00    +0.038 C  
DOCKED: BRANCH  12  13
DOCKED: ATOM     13  C   UNL     1     -44.321 -20.946  16.545 -0.06 +0.00    +0.038 C  
DOCKED: BRANCH  13  14
DOCKED: ATOM     14  C   UNL     1     -43.817 -19.745  15.746 -0.03 +0.00    +0.251 C  
DOCKED: BRANCH  14  15
DOCKED: ATOM     15  N   UNL     1     -43.406 -20.162  14.410 -0.07 +0.00    +0.141 N  
DOCKED: ATOM     16  C   UNL     1     -43.245 -19.000  13.534 -0.05 +0.00    +0.285 C  
DOCKED: ATOM     17  C   UNL     1     -42.161 -20.929  14.470 -0.05 +0.00    +0.285 C  
DOCKED: ENDBRANCH  14  15
DOCKED: ENDBRANCH  13  14
DOCKED: ENDBRANCH  12  13
DOCKED: ENDBRANCH   2  12
DOCKED: BRANCH   2  18
DOCKED: ATOM     18  C   UNL     1     -47.107 -21.115  16.856 -0.05 +0.00    +0.006 A  
DOCKED: ATOM     19  C   UNL     1     -47.558 -19.809  17.041 -0.02 +0.00    +0.001 A  
DOCKED: ATOM     20  C   UNL     1     -48.075 -19.420  18.278 -0.00 +0.00    +0.029 A  
DOCKED: ATOM     21  C   UNL     1     -48.140 -20.337  19.326 -0.00 +0.00    +0.140 A  
DOCKED: ATOM     22  C   UNL     1     -47.689 -21.643  19.139 -0.02 +0.00    +0.029 A  
DOCKED: ATOM     23  F   UNL     1     -48.638 -19.964  20.512 +0.00 -0.00    -0.204 F  
DOCKED: ATOM     24  C   UNL     1     -47.171 -22.033  17.903 -0.05 +0.00    +0.001 A  
DOCKED: ENDBRANCH   2  18
DOCKED: TORSDOF 5
DOCKED: TER
DOCKED: ENDMDL
________________________________________________________________________________


    FINAL DOCKED STATE:
    ________________________


Run:   16 / 512
Time taken for this run:   0.002s

DOCKED: MODEL        16
DOCKED: USER    Run = 16
DOCKED: USER
DOCKED: USER    Estimated Free Energy of Binding    =  -4.93 kcal/mol  [=(1)+(2)+(3)-(4)]
DOCKED: USER
DOCKED: USER    (1) Final Intermolecular Energy     =  -6.42 kcal/mol
DOCKED: USER        vdW + Hbond + desolv Energy     =  -6.42 kcal/mol
DOCKED: USER        Electrostatic Energy            =  +0.00 kcal/mol
DOCKED: USER        Moving Ligand-Fixed Receptor    =  -6.42 kcal/mol
DOCKED: USER        Moving Ligand-Moving Receptor   =  +0.00 kcal/mol
DOCKED: USER    (2) Final Total Internal Energy     =  -1.27 kcal/mol
DOCKED: USER    (3) Torsional Free Energy           =  +1.49 kcal/mol
DOCKED: USER    (4) Unbound System's Energy         =  -1.27 kcal/mol
DOCKED: USER
DOCKED: USER
DOCKED: REMARK  5 active torsions:
DOCKED: REMARK  status: ('A' for Active; 'I' for Inactive)
DOCKED: REMARK    1  A    between atoms: C_2  and  C_19 
DOCKED: REMARK    2  A    between atoms: C_2  and  C_11 
DOCKED: REMARK    3  A    between atoms: C_19  and  C_20 
DOCKED: REMARK    4  A    between atoms: C_20  and  C_21 
DOCKED: REMARK    5  A    between atoms: C_21  and  N_22 
DOCKED: USER                              x       y       z     vdW  Elec       q    Type
DOCKED: USER                           _______ _______ _______ _____ _____    ______ ____
DOCKED: ROOT
DOCKED: ATOM      1  O   UNL     1     -48.139 -23.948  15.550 -0.08 -0.00    -0.346 OA 
DOCKED: ATOM      2  C   UNL     1     -48.069 -22.616  14.946 -0.18 +0.00    +0.130 C  
DOCKED: ATOM      3  C   UNL     1     -48.548 -22.833  13.540 -0.31 +0.00    +0.004 A  
DOCKED: ATOM      4  C   UNL     1     -48.960 -24.149  13.385 -0.35 +0.00    +0.006 A  
DOCKED: ATOM      5  C   UNL     1     -48.798 -24.881  14.661 -0.16 +0.00    +0.169 C  
DOCKED: ATOM      6  C   UNL     1     -48.624 -21.935  12.486 -0.28 -0.00    -0.001 A  
DOCKED: ATOM      7  C   UNL     1     -49.455 -24.612  12.177 -0.44 +0.00    +0.008 A  
DOCKED: ATOM      8  C   UNL     1     -49.116 -22.387  11.260 +0.10 +0.00    +0.010 A  
DOCKED: ATOM      9  C   UNL     1     -49.530 -23.719  11.108 -0.40 +0.00    +0.068 A  
DOCKED: ATOM     10  N   UNL     1     -50.444 -24.524   8.821 -2.31 -0.00    -0.191 NA 
DOCKED: ATOM     11  C   UNL     1     -50.034 -24.163   9.846 -0.51 +0.00    +0.101 C  
DOCKED: ENDROOT
DOCKED: BRANCH   2  12
DOCKED: ATOM     12  C   UNL     1     -48.970 -21.679  15.742 -0.09 +0.00    +0.038 C  
DOCKED: BRANCH  12  13
DOCKED: ATOM     13  C   UNL     1     -50.446 -21.964  15.475 -0.10 +0.00    +0.038 C  
DOCKED: BRANCH  13  14
DOCKED: ATOM     14  C   UNL     1     -51.234 -20.667  15.300 -0.04 +0.00    +0.251 C  
DOCKED: BRANCH  14  15
DOCKED: ATOM     15  N   UNL     1     -51.652 -20.511  13.912 -0.17 +0.00    +0.141 N  
DOCKED: ATOM     16  C   UNL     1     -53.110 -20.414  13.820 -0.14 +0.00    +0.285 C  
DOCKED: ATOM     17  C   UNL     1     -51.027 -19.330  13.315 -0.13 +0.00    +0.285 C  
DOCKED: ENDBRANCH  14  15
DOCKED: ENDBRANCH  13  14
DOCKED: ENDBRANCH  12  13
DOCKED: ENDBRANCH   2  12
DOCKED: BRANCH   2  18
DOCKED: ATOM     18  C   UNL     1     -46.644 -22.181  15.015 -0.20 +0.00    +0.006 A  
DOCKED: ATOM     19  C   UNL     1     -46.326 -20.825  14.946 -0.14 +0.00    +0.001 A  
DOCKED: ATOM     20  C   UNL     1     -44.992 -20.419  15.010 -0.10 +0.00    +0.029 A  
DOCKED: ATOM     21  C   UNL     1     -43.980 -21.368  15.142 -0.10 +0.00    +0.140 A  
DOCKED: ATOM     22  C   UNL     1     -44.299 -22.724  15.211 -0.17 +0.00    +0.029 A  
DOCKED: ATOM     23  F   UNL     1     -42.700 -20.978  15.205 -0.01 -0.00    -0.204 F  
DOCKED: ATOM     24  C   UNL     1     -45.632 -23.131  15.147 -0.12 +0.00    +0.001 A  
DOCKED: ENDBRANCH   2  18
DOCKED: TORSDOF 5
DOCKED: TER
DOCKED: ENDMDL
________________________________________________________________________________


    FINAL DOCKED STATE:
    ________________________


Run:   17 / 512
Time taken for this run:   0.002s

DOCKED: MODEL        17
DOCKED: USER    Run = 17
DOCKED: USER
DOCKED: USER    Estimated Free Energy of Binding    =  -3.78 kcal/mol  [=(1)+(2)+(3)-(4)]
DOCKED: USER
DOCKED: USER    (1) Final Intermolecular Energy     =  -5.27 kcal/mol
DOCKED: USER        vdW + Hbond + desolv Energy     =  -5.27 kcal/mol
DOCKED: USER        Electrostatic Energy            =  +0.00 kcal/mol
DOCKED: USER        Moving Ligand-Fixed Receptor    =  -5.27 kcal/mol
DOCKED: USER        Moving Ligand-Moving Receptor   =  +0.00 kcal/mol
DOCKED: USER    (2) Final Total Internal Energy     =  -1.43 kcal/mol
DOCKED: USER    (3) Torsional Free Energy           =  +1.49 kcal/mol
DOCKED: USER    (4) Unbound System's Energy         =  -1.43 kcal/mol
DOCKED: USER
DOCKED: USER
DOCKED: REMARK  5 active torsions:
DOCKED: REMARK  status: ('A' for Active; 'I' for Inactive)
DOCKED: REMARK    1  A    between atoms: C_2  and  C_19 
DOCKED: REMARK    2  A    between atoms: C_2  and  C_11 
DOCKED: REMARK    3  A    between atoms: C_19  and  C_20 
DOCKED: REMARK    4  A    between atoms: C_20  and  C_21 
DOCKED: REMARK    5  A    between atoms: C_21  and  N_22 
DOCKED: USER                              x       y       z     vdW  Elec       q    Type
DOCKED: USER                           _______ _______ _______ _____ _____    ______ ____
DOCKED: ROOT
DOCKED: ATOM      1  O   UNL     1     -44.235 -15.357   7.239 -0.04 -0.00    -0.346 OA 
DOCKED: ATOM      2  C   UNL     1     -45.642 -15.442   6.846 -0.22 +0.00    +0.130 C  
DOCKED: ATOM      3  C   UNL     1     -45.746 -14.506   5.676 -0.28 +0.00    +0.004 A  
DOCKED: ATOM      4  C   UNL     1     -44.487 -14.015   5.358 -0.18 +0.00    +0.006 A  
DOCKED: ATOM      5  C   UNL     1     -43.477 -14.592   6.273 -0.11 +0.00    +0.169 C  
DOCKED: ATOM      6  C   UNL     1     -46.863 -14.129   4.945 -0.31 -0.00    -0.001 A  
DOCKED: ATOM      7  C   UNL     1     -44.303 -13.133   4.308 -0.21 +0.00    +0.008 A  
DOCKED: ATOM      8  C   UNL     1     -46.694 -13.236   3.886 -0.41 +0.00    +0.010 A  
DOCKED: ATOM      9  C   UNL     1     -45.420 -12.741   3.568 -0.30 +0.00    +0.068 A  
DOCKED: ATOM     10  N   UNL     1     -45.141 -11.089   1.592 -0.77 -0.00    -0.191 NA 
DOCKED: ATOM     11  C   UNL     1     -45.266 -11.829   2.479 -0.37 +0.00    +0.101 C  
DOCKED: ENDROOT
DOCKED: BRANCH   2  12
DOCKED: ATOM     12  C   UNL     1     -45.955 -16.887   6.480 -0.20 +0.00    +0.038 C  
DOCKED: BRANCH  12  13
DOCKED: ATOM     13  C   UNL     1     -46.020 -17.775   7.721 -0.25 +0.00    +0.038 C  
DOCKED: BRANCH  13  14
DOCKED: ATOM     14  C   UNL     1     -44.622 -18.061   8.266 -0.10 +0.00    +0.251 C  
DOCKED: BRANCH  14  15
DOCKED: ATOM     15  N   UNL     1     -44.520 -17.628   9.654 -0.07 +0.00    +0.141 N  
DOCKED: ATOM     16  C   UNL     1     -45.163 -18.596  10.545 -0.11 +0.00    +0.285 C  
DOCKED: ATOM     17  C   UNL     1     -43.119 -17.441  10.035 -0.02 +0.00    +0.285 C  
DOCKED: ENDBRANCH  14  15
DOCKED: ENDBRANCH  13  14
DOCKED: ENDBRANCH  12  13
DOCKED: ENDBRANCH   2  12
DOCKED: BRANCH   2  18
DOCKED: ATOM     18  C   UNL     1     -46.450 -14.997   8.020 -0.26 +0.00    +0.006 A  
DOCKED: ATOM     19  C   UNL     1     -47.839 -14.934   7.925 -0.28 +0.00    +0.001 A  
DOCKED: ATOM     20  C   UNL     1     -48.593 -14.518   9.023 -0.27 +0.00    +0.029 A  
DOCKED: ATOM     21  C   UNL     1     -47.958 -14.166  10.213 -0.14 +0.00    +0.140 A  
DOCKED: ATOM     22  C   UNL     1     -46.568 -14.229  10.306 -0.17 +0.00    +0.029 A  
DOCKED: ATOM     23  F   UNL     1     -48.682 -13.768  11.267 -0.00 -0.00    -0.204 F  
DOCKED: ATOM     24  C   UNL     1     -45.812 -14.645   9.209 -0.20 +0.00    +0.001 A  
DOCKED: ENDBRANCH   2  18
DOCKED: TORSDOF 5
DOCKED: TER
DOCKED: ENDMDL
________________________________________________________________________________


    FINAL DOCKED STATE:
    ________________________


Run:   18 / 512
Time taken for this run:   0.002s

DOCKED: MODEL        18
DOCKED: USER    Run = 18
DOCKED: USER
DOCKED: USER    Estimated Free Energy of Binding    =  -3.61 kcal/mol  [=(1)+(2)+(3)-(4)]
DOCKED: USER
DOCKED: USER    (1) Final Intermolecular Energy     =  -5.11 kcal/mol
DOCKED: USER        vdW + Hbond + desolv Energy     =  -5.11 kcal/mol
DOCKED: USER        Electrostatic Energy            =  +0.00 kcal/mol
DOCKED: USER        Moving Ligand-Fixed Receptor    =  -5.11 kcal/mol
DOCKED: USER        Moving Ligand-Moving Receptor   =  +0.00 kcal/mol
DOCKED: USER    (2) Final Total Internal Energy     =  -1.46 kcal/mol
DOCKED: USER    (3) Torsional Free Energy           =  +1.49 kcal/mol
DOCKED: USER    (4) Unbound System's Energy         =  -1.46 kcal/mol
DOCKED: USER
DOCKED: USER
DOCKED: REMARK  5 active torsions:
DOCKED: REMARK  status: ('A' for Active; 'I' for Inactive)
DOCKED: REMARK    1  A    between atoms: C_2  and  C_19 
DOCKED: REMARK    2  A    between atoms: C_2  and  C_11 
DOCKED: REMARK    3  A    between atoms: C_19  and  C_20 
DOCKED: REMARK    4  A    between atoms: C_20  and  C_21 
DOCKED: REMARK    5  A    between atoms: C_21  and  N_22 
DOCKED: USER                              x       y       z     vdW  Elec       q    Type
DOCKED: USER                           _______ _______ _______ _____ _____    ______ ____
DOCKED: ROOT
DOCKED: ATOM      1  O   UNL     1     -44.261 -15.173   7.582 -0.05 -0.00    -0.346 OA 
DOCKED: ATOM      2  C   UNL     1     -45.574 -15.412   6.981 -0.21 +0.00    +0.130 C  
DOCKED: ATOM      3  C   UNL     1     -45.598 -14.495   5.792 -0.26 +0.00    +0.004 A  
DOCKED: ATOM      4  C   UNL     1     -44.366 -13.869   5.660 -0.11 +0.00    +0.006 A  
DOCKED: ATOM      5  C   UNL     1     -43.451 -14.330   6.728 -0.12 +0.00    +0.169 C  
DOCKED: ATOM      6  C   UNL     1     -46.624 -14.244   4.893 -0.27 -0.00    -0.001 A  
DOCKED: ATOM      7  C   UNL     1     -44.120 -12.973   4.635 -0.18 +0.00    +0.008 A  
DOCKED: ATOM      8  C   UNL     1     -46.392 -13.340   3.855 -0.39 +0.00    +0.010 A  
DOCKED: ATOM      9  C   UNL     1     -45.146 -12.708   3.727 -0.28 +0.00    +0.068 A  
DOCKED: ATOM     10  N   UNL     1     -44.748 -11.038   1.786 -0.81 -0.00    -0.191 NA 
DOCKED: ATOM     11  C   UNL     1     -44.927 -11.786   2.657 -0.33 +0.00    +0.101 C  
DOCKED: ENDROOT
DOCKED: BRANCH   2  12
DOCKED: ATOM     12  C   UNL     1     -45.668 -16.884   6.597 -0.23 +0.00    +0.038 C  
DOCKED: BRANCH  12  13
DOCKED: ATOM     13  C   UNL     1     -45.137 -17.127   5.186 -0.20 +0.00    +0.038 C  
DOCKED: BRANCH  13  14
DOCKED: ATOM     14  C   UNL     1     -43.634 -17.399   5.204 -0.11 +0.00    +0.251 C  
DOCKED: BRANCH  14  15
DOCKED: ATOM     15  N   UNL     1     -43.045 -17.077   3.910 -0.08 +0.00    +0.141 N  
DOCKED: ATOM     16  C   UNL     1     -44.006 -16.362   3.068 -0.07 +0.00    +0.285 C  
DOCKED: ATOM     17  C   UNL     1     -41.829 -16.280   4.081 -0.01 +0.00    +0.285 C  
DOCKED: ENDBRANCH  14  15
DOCKED: ENDBRANCH  13  14
DOCKED: ENDBRANCH  12  13
DOCKED: ENDBRANCH   2  12
DOCKED: BRANCH   2  18
DOCKED: ATOM     18  C   UNL     1     -46.595 -15.057   8.010 -0.27 +0.00    +0.006 A  
DOCKED: ATOM     19  C   UNL     1     -46.291 -14.126   9.001 -0.22 +0.00    +0.001 A  
DOCKED: ATOM     20  C   UNL     1     -47.247 -13.795   9.963 -0.22 +0.00    +0.029 A  
DOCKED: ATOM     21  C   UNL     1     -48.505 -14.396   9.931 -0.15 +0.00    +0.140 A  
DOCKED: ATOM     22  C   UNL     1     -48.808 -15.327   8.938 -0.27 +0.00    +0.029 A  
DOCKED: ATOM     23  F   UNL     1     -49.423 -14.077  10.852 -0.00 -0.00    -0.204 F  
DOCKED: ATOM     24  C   UNL     1     -47.853 -15.659   7.977 -0.27 +0.00    +0.001 A  
DOCKED: ENDBRANCH   2  18
DOCKED: TORSDOF 5
DOCKED: TER
DOCKED: ENDMDL
________________________________________________________________________________


    FINAL DOCKED STATE:
    ________________________


Run:   19 / 512
Time taken for this run:   0.002s

DOCKED: MODEL        19
DOCKED: USER    Run = 19
DOCKED: USER
DOCKED: USER    Estimated Free Energy of Binding    =  -3.93 kcal/mol  [=(1)+(2)+(3)-(4)]
DOCKED: USER
DOCKED: USER    (1) Final Intermolecular Energy     =  -5.43 kcal/mol
DOCKED: USER        vdW + Hbond + desolv Energy     =  -5.43 kcal/mol
DOCKED: USER        Electrostatic Energy            =  +0.00 kcal/mol
DOCKED: USER        Moving Ligand-Fixed Receptor    =  -5.43 kcal/mol
DOCKED: USER        Moving Ligand-Moving Receptor   =  +0.00 kcal/mol
DOCKED: USER    (2) Final Total Internal Energy     =  -1.34 kcal/mol
DOCKED: USER    (3) Torsional Free Energy           =  +1.49 kcal/mol
DOCKED: USER    (4) Unbound System's Energy         =  -1.34 kcal/mol
DOCKED: USER
DOCKED: USER
DOCKED: REMARK  5 active torsions:
DOCKED: REMARK  status: ('A' for Active; 'I' for Inactive)
DOCKED: REMARK    1  A    between atoms: C_2  and  C_19 
DOCKED: REMARK    2  A    between atoms: C_2  and  C_11 
DOCKED: REMARK    3  A    between atoms: C_19  and  C_20 
DOCKED: REMARK    4  A    between atoms: C_20  and  C_21 
DOCKED: REMARK    5  A    between atoms: C_21  and  N_22 
DOCKED: USER                              x       y       z     vdW  Elec       q    Type
DOCKED: USER                           _______ _______ _______ _____ _____    ______ ____
DOCKED: ROOT
DOCKED: ATOM      1  O   UNL     1     -40.121 -23.903   4.534 -0.01 -0.00    -0.346 OA 
DOCKED: ATOM      2  C   UNL     1     -40.374 -22.719   5.356 -0.08 +0.00    +0.130 C  
DOCKED: ATOM      3  C   UNL     1     -40.974 -23.276   6.614 -0.12 +0.00    +0.004 A  
DOCKED: ATOM      4  C   UNL     1     -40.962 -24.663   6.562 -0.15 +0.00    +0.006 A  
DOCKED: ATOM      5  C   UNL     1     -40.351 -25.113   5.292 -0.08 +0.00    +0.169 C  
DOCKED: ATOM      6  C   UNL     1     -41.479 -22.610   7.721 -0.13 -0.00    -0.001 A  
DOCKED: ATOM      7  C   UNL     1     -41.456 -25.427   7.606 -0.26 +0.00    +0.008 A  
DOCKED: ATOM      8  C   UNL     1     -41.984 -23.366   8.780 -0.23 +0.00    +0.010 A  
DOCKED: ATOM      9  C   UNL     1     -41.972 -24.768   8.722 -0.28 +0.00    +0.068 A  
DOCKED: ATOM     10  N   UNL     1     -42.913 -26.142  10.707 -2.59 -0.00    -0.191 NA 
DOCKED: ATOM     11  C   UNL     1     -42.491 -25.526   9.817 -0.42 +0.00    +0.101 C  
DOCKED: ENDROOT
DOCKED: BRANCH   2  12
DOCKED: ATOM     12  C   UNL     1     -39.049 -22.005   5.596 -0.02 +0.00    +0.038 C  
DOCKED: BRANCH  12  13
DOCKED: ATOM     13  C   UNL     1     -37.892 -22.736   4.918 -0.01 +0.00    +0.038 C  
DOCKED: BRANCH  13  14
DOCKED: ATOM     14  C   UNL     1     -37.360 -21.939   3.728 -0.00 +0.00    +0.251 C  
DOCKED: BRANCH  14  15
DOCKED: ATOM     15  N   UNL     1     -38.248 -20.822   3.428 -0.00 +0.00    +0.141 N  
DOCKED: ATOM     16  C   UNL     1     -37.509 -19.559   3.439 +0.00 +0.00    +0.285 C  
DOCKED: ATOM     17  C   UNL     1     -38.902 -21.017   2.133 +0.00 +0.00    +0.285 C  
DOCKED: ENDBRANCH  14  15
DOCKED: ENDBRANCH  13  14
DOCKED: ENDBRANCH  12  13
DOCKED: ENDBRANCH   2  12
DOCKED: BRANCH   2  18
DOCKED: ATOM     18  C   UNL     1     -41.322 -21.853   4.594 -0.12 +0.00    +0.006 A  
DOCKED: ATOM     19  C   UNL     1     -41.663 -22.181   3.282 -0.10 +0.00    +0.001 A  
DOCKED: ATOM     20  C   UNL     1     -42.549 -21.371   2.570 -0.18 +0.00    +0.029 A  
DOCKED: ATOM     21  C   UNL     1     -43.092 -20.236   3.171 -0.20 +0.00    +0.140 A  
DOCKED: ATOM     22  C   UNL     1     -42.751 -19.909   4.483 -0.18 +0.00    +0.029 A  
DOCKED: ATOM     23  F   UNL     1     -43.944 -19.460   2.488 -0.13 -0.00    -0.204 F  
DOCKED: ATOM     24  C   UNL     1     -41.864 -20.719   5.196 -0.13 +0.00    +0.001 A  
DOCKED: ENDBRANCH   2  18
DOCKED: TORSDOF 5
DOCKED: TER
DOCKED: ENDMDL
________________________________________________________________________________


    FINAL DOCKED STATE:
    ________________________


Run:   20 / 512
Time taken for this run:   0.002s

DOCKED: MODEL        20
DOCKED: USER    Run = 20
DOCKED: USER
DOCKED: USER    Estimated Free Energy of Binding    =  -4.35 kcal/mol  [=(1)+(2)+(3)-(4)]
DOCKED: USER
DOCKED: USER    (1) Final Intermolecular Energy     =  -5.84 kcal/mol
DOCKED: USER        vdW + Hbond + desolv Energy     =  -5.84 kcal/mol
DOCKED: USER        Electrostatic Energy            =  +0.00 kcal/mol
DOCKED: USER        Moving Ligand-Fixed Receptor    =  -5.84 kcal/mol
DOCKED: USER        Moving Ligand-Moving Receptor   =  +0.00 kcal/mol
DOCKED: USER    (2) Final Total Internal Energy     =  -1.16 kcal/mol
DOCKED: USER    (3) Torsional Free Energy           =  +1.49 kcal/mol
DOCKED: USER    (4) Unbound System's Energy         =  -1.16 kcal/mol
DOCKED: USER
DOCKED: USER
DOCKED: REMARK  5 active torsions:
DOCKED: REMARK  status: ('A' for Active; 'I' for Inactive)
DOCKED: REMARK    1  A    between atoms: C_2  and  C_19 
DOCKED: REMARK    2  A    between atoms: C_2  and  C_11 
DOCKED: REMARK    3  A    between atoms: C_19  and  C_20 
DOCKED: REMARK    4  A    between atoms: C_20  and  C_21 
DOCKED: REMARK    5  A    between atoms: C_21  and  N_22 
DOCKED: USER                              x       y       z     vdW  Elec       q    Type
DOCKED: USER                           _______ _______ _______ _____ _____    ______ ____
DOCKED: ROOT
DOCKED: ATOM      1  O   UNL     1     -47.989 -24.168  16.111 -0.08 -0.00    -0.346 OA 
DOCKED: ATOM      2  C   UNL     1     -48.015 -22.787  15.628 -0.14 +0.00    +0.130 C  
DOCKED: ATOM      3  C   UNL     1     -48.427 -22.916  14.190 -0.26 +0.00    +0.004 A  
DOCKED: ATOM      4  C   UNL     1     -48.719 -24.242  13.905 -0.34 +0.00    +0.006 A  
DOCKED: ATOM      5  C   UNL     1     -48.536 -25.069  15.119 -0.26 +0.00    +0.169 C  
DOCKED: ATOM      6  C   UNL     1     -48.545 -21.936  13.216 -0.31 -0.00    -0.001 A  
DOCKED: ATOM      7  C   UNL     1     -49.133 -24.634  12.644 -0.38 +0.00    +0.008 A  
DOCKED: ATOM      8  C   UNL     1     -48.957 -22.315  11.937 -0.24 +0.00    +0.010 A  
DOCKED: ATOM      9  C   UNL     1     -49.250 -23.657  11.653 -0.37 +0.00    +0.068 A  
DOCKED: ATOM     10  N   UNL     1     -50.016 -24.327   9.270 -1.92 -0.00    -0.191 NA 
DOCKED: ATOM     11  C   UNL     1     -49.672 -24.027  10.339 -0.52 +0.00    +0.101 C  
DOCKED: ENDROOT
DOCKED: BRANCH   2  12
DOCKED: ATOM     12  C   UNL     1     -49.018 -22.002  16.465 -0.07 +0.00    +0.038 C  
DOCKED: BRANCH  12  13
DOCKED: ATOM     13  C   UNL     1     -50.408 -22.631  16.403 -0.09 +0.00    +0.038 C  
DOCKED: BRANCH  13  14
DOCKED: ATOM     14  C   UNL     1     -51.293 -21.907  15.390 -0.04 +0.00    +0.251 C  
DOCKED: BRANCH  14  15
DOCKED: ATOM     15  N   UNL     1     -52.677 -22.347  15.520 -0.06 +0.00    +0.141 N  
DOCKED: ATOM     16  C   UNL     1     -53.384 -21.540  16.515 -0.01 +0.00    +0.285 C  
DOCKED: ATOM     17  C   UNL     1     -53.364 -22.278  14.229 -0.10 +0.00    +0.285 C  
DOCKED: ENDBRANCH  14  15
DOCKED: ENDBRANCH  13  14
DOCKED: ENDBRANCH  12  13
DOCKED: ENDBRANCH   2  12
DOCKED: BRANCH   2  18
DOCKED: ATOM     18  C   UNL     1     -46.635 -22.242  15.791 -0.15 +0.00    +0.006 A  
DOCKED: ATOM     19  C   UNL     1     -46.398 -21.200  16.686 -0.06 +0.00    +0.001 A  
DOCKED: ATOM     20  C   UNL     1     -45.107 -20.691  16.837 -0.04 +0.00    +0.029 A  
DOCKED: ATOM     21  C   UNL     1     -44.056 -21.226  16.094 -0.06 +0.00    +0.140 A  
DOCKED: ATOM     22  C   UNL     1     -44.293 -22.269  15.199 -0.16 +0.00    +0.029 A  
DOCKED: ATOM     23  F   UNL     1     -42.817 -20.739  16.240 -0.00 -0.00    -0.204 F  
DOCKED: ATOM     24  C   UNL     1     -45.584 -22.778  15.047 -0.17 +0.00    +0.001 A  
DOCKED: ENDBRANCH   2  18
DOCKED: TORSDOF 5
DOCKED: TER
DOCKED: ENDMDL
________________________________________________________________________________


    FINAL DOCKED STATE:
    ________________________


Run:   21 / 512
Time taken for this run:   0.002s

DOCKED: MODEL        21
DOCKED: USER    Run = 21
DOCKED: USER
DOCKED: USER    Estimated Free Energy of Binding    =  -5.66 kcal/mol  [=(1)+(2)+(3)-(4)]
DOCKED: USER
DOCKED: USER    (1) Final Intermolecular Energy     =  -7.16 kcal/mol
DOCKED: USER        vdW + Hbond + desolv Energy     =  -7.16 kcal/mol
DOCKED: USER        Electrostatic Energy            =  +0.00 kcal/mol
DOCKED: USER        Moving Ligand-Fixed Receptor    =  -7.16 kcal/mol
DOCKED: USER        Moving Ligand-Moving Receptor   =  +0.00 kcal/mol
DOCKED: USER    (2) Final Total Internal Energy     =  -1.54 kcal/mol
DOCKED: USER    (3) Torsional Free Energy           =  +1.49 kcal/mol
DOCKED: USER    (4) Unbound System's Energy         =  -1.54 kcal/mol
DOCKED: USER
DOCKED: USER
DOCKED: REMARK  5 active torsions:
DOCKED: REMARK  status: ('A' for Active; 'I' for Inactive)
DOCKED: REMARK    1  A    between atoms: C_2  and  C_19 
DOCKED: REMARK    2  A    between atoms: C_2  and  C_11 
DOCKED: REMARK    3  A    between atoms: C_19  and  C_20 
DOCKED: REMARK    4  A    between atoms: C_20  and  C_21 
DOCKED: REMARK    5  A    between atoms: C_21  and  N_22 
DOCKED: USER                              x       y       z     vdW  Elec       q    Type
DOCKED: USER                           _______ _______ _______ _____ _____    ______ ____
DOCKED: ROOT
DOCKED: ATOM      1  O   UNL     1     -48.131 -21.527  14.752 -0.05 -0.00    -0.346 OA 
DOCKED: ATOM      2  C   UNL     1     -47.838 -22.960  14.698 -0.22 +0.00    +0.130 C  
DOCKED: ATOM      3  C   UNL     1     -48.380 -23.387  13.365 -0.34 +0.00    +0.004 A  
DOCKED: ATOM      4  C   UNL     1     -48.841 -22.278  12.670 -0.33 +0.00    +0.006 A  
DOCKED: ATOM      5  C   UNL     1     -48.629 -21.056  13.478 -0.23 +0.00    +0.169 C  
DOCKED: ATOM      6  C   UNL     1     -48.448 -24.655  12.806 -0.42 -0.00    -0.001 A  
DOCKED: ATOM      7  C   UNL     1     -49.388 -22.396  11.404 +0.04 +0.00    +0.008 A  
DOCKED: ATOM      8  C   UNL     1     -49.000 -24.792  11.531 -0.46 +0.00    +0.010 A  
DOCKED: ATOM      9  C   UNL     1     -49.467 -23.668  10.834 -0.39 +0.00    +0.068 A  
DOCKED: ATOM     10  N   UNL     1     -50.482 -23.956   8.467 -2.94 -0.00    -0.191 NA 
DOCKED: ATOM     11  C   UNL     1     -50.027 -23.827   9.529 -0.46 +0.00    +0.101 C  
DOCKED: ENDROOT
DOCKED: BRANCH   2  12
DOCKED: ATOM     12  C   UNL     1     -46.330 -23.149  14.814 -0.22 +0.00    +0.038 C  
DOCKED: BRANCH  12  13
DOCKED: ATOM     13  C   UNL     1     -45.645 -21.873  15.299 -0.18 +0.00    +0.038 C  
DOCKED: BRANCH  13  14
DOCKED: ATOM     14  C   UNL     1     -45.834 -21.684  16.803 -0.05 +0.00    +0.251 C  
DOCKED: BRANCH  14  15
DOCKED: ATOM     15  N   UNL     1     -47.003 -20.853  17.066 -0.02 +0.00    +0.141 N  
DOCKED: ATOM     16  C   UNL     1     -47.240 -20.737  18.506 -0.00 +0.00    +0.285 C  
DOCKED: ATOM     17  C   UNL     1     -46.838 -19.527  16.470 -0.01 +0.00    +0.285 C  
DOCKED: ENDBRANCH  14  15
DOCKED: ENDBRANCH  13  14
DOCKED: ENDBRANCH  12  13
DOCKED: ENDBRANCH   2  12
DOCKED: BRANCH   2  18
DOCKED: ATOM     18  C   UNL     1     -48.550 -23.594  15.846 -0.18 +0.00    +0.006 A  
DOCKED: ATOM     19  C   UNL     1     -47.868 -24.467  16.692 -0.12 +0.00    +0.001 A  
DOCKED: ATOM     20  C   UNL     1     -48.536 -25.060  17.765 -0.22 +0.00    +0.029 A  
DOCKED: ATOM     21  C   UNL     1     -49.883 -24.779  17.989 -0.08 +0.00    +0.140 A  
DOCKED: ATOM     22  C   UNL     1     -50.564 -23.906  17.142 -0.12 +0.00    +0.029 A  
DOCKED: ATOM     23  F   UNL     1     -50.522 -25.347  19.020 -0.03 -0.00    -0.204 F  
DOCKED: ATOM     24  C   UNL     1     -49.898 -23.313  16.068 -0.12 +0.00    +0.001 A  
DOCKED: ENDBRANCH   2  18
DOCKED: TORSDOF 5
DOCKED: TER
DOCKED: ENDMDL
________________________________________________________________________________


    FINAL DOCKED STATE:
    ________________________


Run:   22 / 512
Time taken for this run:   0.002s

DOCKED: MODEL        22
DOCKED: USER    Run = 22
DOCKED: USER
DOCKED: USER    Estimated Free Energy of Binding    =  -3.57 kcal/mol  [=(1)+(2)+(3)-(4)]
DOCKED: USER
DOCKED: USER    (1) Final Intermolecular Energy     =  -5.06 kcal/mol
DOCKED: USER        vdW + Hbond + desolv Energy     =  -5.06 kcal/mol
DOCKED: USER        Electrostatic Energy            =  +0.00 kcal/mol
DOCKED: USER        Moving Ligand-Fixed Receptor    =  -5.06 kcal/mol
DOCKED: USER        Moving Ligand-Moving Receptor   =  +0.00 kcal/mol
DOCKED: USER    (2) Final Total Internal Energy     =  -1.40 kcal/mol
DOCKED: USER    (3) Torsional Free Energy           =  +1.49 kcal/mol
DOCKED: USER    (4) Unbound System's Energy         =  -1.40 kcal/mol
DOCKED: USER
DOCKED: USER
DOCKED: REMARK  5 active torsions:
DOCKED: REMARK  status: ('A' for Active; 'I' for Inactive)
DOCKED: REMARK    1  A    between atoms: C_2  and  C_19 
DOCKED: REMARK    2  A    between atoms: C_2  and  C_11 
DOCKED: REMARK    3  A    between atoms: C_19  and  C_20 
DOCKED: REMARK    4  A    between atoms: C_20  and  C_21 
DOCKED: REMARK    5  A    between atoms: C_21  and  N_22 
DOCKED: USER                              x       y       z     vdW  Elec       q    Type
DOCKED: USER                           _______ _______ _______ _____ _____    ______ ____
DOCKED: ROOT
DOCKED: ATOM      1  O   UNL     1     -39.075 -22.190   6.646 +0.01 -0.00    -0.346 OA 
DOCKED: ATOM      2  C   UNL     1     -40.198 -22.751   5.892 -0.07 +0.00    +0.130 C  
DOCKED: ATOM      3  C   UNL     1     -40.937 -23.574   6.907 -0.12 +0.00    +0.004 A  
DOCKED: ATOM      4  C   UNL     1     -40.353 -23.411   8.155 -0.08 +0.00    +0.006 A  
DOCKED: ATOM      5  C   UNL     1     -39.213 -22.472   8.058 -0.02 +0.00    +0.169 C  
DOCKED: ATOM      6  C   UNL     1     -42.044 -24.393   6.741 -0.07 -0.00    -0.001 A  
DOCKED: ATOM      7  C   UNL     1     -40.849 -24.059   9.273 -0.17 +0.00    +0.008 A  
DOCKED: ATOM      8  C   UNL     1     -42.554 -25.058   7.858 -0.29 +0.00    +0.010 A  
DOCKED: ATOM      9  C   UNL     1     -41.959 -24.891   9.118 -0.31 +0.00    +0.068 A  
DOCKED: ATOM     10  N   UNL     1     -42.934 -26.134  11.171 -2.66 -0.00    -0.191 NA 
DOCKED: ATOM     11  C   UNL     1     -42.496 -25.577  10.250 -0.34 +0.00    +0.101 C  
DOCKED: ENDROOT
DOCKED: BRANCH   2  12
DOCKED: ATOM     12  C   UNL     1     -41.031 -21.600   5.341 -0.11 +0.00    +0.038 C  
DOCKED: BRANCH  12  13
DOCKED: ATOM     13  C   UNL     1     -41.586 -20.726   6.464 -0.10 +0.00    +0.038 C  
DOCKED: BRANCH  13  14
DOCKED: ATOM     14  C   UNL     1     -43.114 -20.717   6.449 -0.05 +0.00    +0.251 C  
DOCKED: BRANCH  14  15
DOCKED: ATOM     15  N   UNL     1     -43.632 -20.378   7.769 -0.19 +0.00    +0.141 N  
DOCKED: ATOM     16  C   UNL     1     -44.377 -21.503   8.336 -0.20 +0.00    +0.285 C  
DOCKED: ATOM     17  C   UNL     1     -42.543 -19.988   8.666 -0.06 +0.00    +0.285 C  
DOCKED: ENDBRANCH  14  15
DOCKED: ENDBRANCH  13  14
DOCKED: ENDBRANCH  12  13
DOCKED: ENDBRANCH   2  12
DOCKED: BRANCH   2  18
DOCKED: ATOM     18  C   UNL     1     -39.616 -23.571   4.789 -0.06 +0.00    +0.006 A  
DOCKED: ATOM     19  C   UNL     1     -39.742 -23.149   3.466 -0.07 +0.00    +0.001 A  
DOCKED: ATOM     20  C   UNL     1     -39.198 -23.918   2.436 -0.04 +0.00    +0.029 A  
DOCKED: ATOM     21  C   UNL     1     -38.530 -25.105   2.730 -0.01 +0.00    +0.140 A  
DOCKED: ATOM     22  C   UNL     1     -38.405 -25.527   4.054 -0.02 +0.00    +0.029 A  
DOCKED: ATOM     23  F   UNL     1     -38.007 -25.842   1.741 +0.00 -0.00    -0.204 F  
DOCKED: ATOM     24  C   UNL     1     -38.949 -24.759   5.085 -0.04 +0.00    +0.001 A  
DOCKED: ENDBRANCH   2  18
DOCKED: TORSDOF 5
DOCKED: TER
DOCKED: ENDMDL
________________________________________________________________________________


    FINAL DOCKED STATE:
    ________________________


Run:   23 / 512
Time taken for this run:   0.002s

DOCKED: MODEL        23
DOCKED: USER    Run = 23
DOCKED: USER
DOCKED: USER    Estimated Free Energy of Binding    =  -5.59 kcal/mol  [=(1)+(2)+(3)-(4)]
DOCKED: USER
DOCKED: USER    (1) Final Intermolecular Energy     =  -7.08 kcal/mol
DOCKED: USER        vdW + Hbond + desolv Energy     =  -7.08 kcal/mol
DOCKED: USER        Electrostatic Energy            =  +0.00 kcal/mol
DOCKED: USER        Moving Ligand-Fixed Receptor    =  -7.08 kcal/mol
DOCKED: USER        Moving Ligand-Moving Receptor   =  +0.00 kcal/mol
DOCKED: USER    (2) Final Total Internal Energy     =  -1.36 kcal/mol
DOCKED: USER    (3) Torsional Free Energy           =  +1.49 kcal/mol
DOCKED: USER    (4) Unbound System's Energy         =  -1.36 kcal/mol
DOCKED: USER
DOCKED: USER
DOCKED: REMARK  5 active torsions:
DOCKED: REMARK  status: ('A' for Active; 'I' for Inactive)
DOCKED: REMARK    1  A    between atoms: C_2  and  C_19 
DOCKED: REMARK    2  A    between atoms: C_2  and  C_11 
DOCKED: REMARK    3  A    between atoms: C_19  and  C_20 
DOCKED: REMARK    4  A    between atoms: C_20  and  C_21 
DOCKED: REMARK    5  A    between atoms: C_21  and  N_22 
DOCKED: USER                              x       y       z     vdW  Elec       q    Type
DOCKED: USER                           _______ _______ _______ _____ _____    ______ ____
DOCKED: ROOT
DOCKED: ATOM      1  O   UNL     1     -48.281 -21.689  14.065 -0.09 -0.00    -0.346 OA 
DOCKED: ATOM      2  C   UNL     1     -48.331 -23.143  14.222 -0.25 +0.00    +0.130 C  
DOCKED: ATOM      3  C   UNL     1     -48.883 -23.628  12.912 -0.37 +0.00    +0.004 A  
DOCKED: ATOM      4  C   UNL     1     -49.031 -22.556  12.043 -0.33 +0.00    +0.006 A  
DOCKED: ATOM      5  C   UNL     1     -48.583 -21.309  12.702 -0.17 +0.00    +0.169 C  
DOCKED: ATOM      6  C   UNL     1     -49.216 -24.915  12.518 -0.20 -0.00    -0.001 A  
DOCKED: ATOM      7  C   UNL     1     -49.519 -22.732  10.759 -0.00 +0.00    +0.008 A  
DOCKED: ATOM      8  C   UNL     1     -49.713 -25.108  11.228 -0.48 +0.00    +0.010 A  
DOCKED: ATOM      9  C   UNL     1     -49.863 -24.022  10.353 -0.46 +0.00    +0.068 A  
DOCKED: ATOM     10  N   UNL     1     -50.784 -24.416   7.964 -3.19 -0.00    -0.191 NA 
DOCKED: ATOM     11  C   UNL     1     -50.372 -24.239   9.036 -0.26 +0.00    +0.101 C  
DOCKED: ENDROOT
DOCKED: BRANCH   2  12
DOCKED: ATOM     12  C   UNL     1     -46.919 -23.647  14.494 -0.26 +0.00    +0.038 C  
DOCKED: BRANCH  12  13
DOCKED: ATOM     13  C   UNL     1     -45.999 -22.514  14.944 -0.19 +0.00    +0.038 C  
DOCKED: BRANCH  13  14
DOCKED: ATOM     14  C   UNL     1     -45.628 -22.660  16.418 -0.09 +0.00    +0.251 C  
DOCKED: BRANCH  14  15
DOCKED: ATOM     15  N   UNL     1     -46.557 -21.906  17.252 -0.05 +0.00    +0.141 N  
DOCKED: ATOM     16  C   UNL     1     -46.975 -22.700  18.408 -0.04 +0.00    +0.285 C  
DOCKED: ATOM     17  C   UNL     1     -45.950 -20.649  17.693 -0.01 +0.00    +0.285 C  
DOCKED: ENDBRANCH  14  15
DOCKED: ENDBRANCH  13  14
DOCKED: ENDBRANCH  12  13
DOCKED: ENDBRANCH   2  12
DOCKED: BRANCH   2  18
DOCKED: ATOM     18  C   UNL     1     -49.235 -23.427  15.375 -0.16 +0.00    +0.006 A  
DOCKED: ATOM     19  C   UNL     1     -49.661 -22.386  16.198 -0.08 +0.00    +0.001 A  
DOCKED: ATOM     20  C   UNL     1     -50.506 -22.652  17.276 -0.05 +0.00    +0.029 A  
DOCKED: ATOM     21  C   UNL     1     -50.924 -23.958  17.528 -0.07 +0.00    +0.140 A  
DOCKED: ATOM     22  C   UNL     1     -50.498 -24.999  16.704 -0.04 +0.00    +0.029 A  
DOCKED: ATOM     23  F   UNL     1     -51.737 -24.214  18.562 -0.00 -0.00    -0.204 F  
DOCKED: ATOM     24  C   UNL     1     -49.652 -24.733  15.626 -0.25 +0.00    +0.001 A  
DOCKED: ENDBRANCH   2  18
DOCKED: TORSDOF 5
DOCKED: TER
DOCKED: ENDMDL
________________________________________________________________________________


    FINAL DOCKED STATE:
    ________________________


Run:   24 / 512
Time taken for this run:   0.002s

DOCKED: MODEL        24
DOCKED: USER    Run = 24
DOCKED: USER
DOCKED: USER    Estimated Free Energy of Binding    =  -5.00 kcal/mol  [=(1)+(2)+(3)-(4)]
DOCKED: USER
DOCKED: USER    (1) Final Intermolecular Energy     =  -6.49 kcal/mol
DOCKED: USER        vdW + Hbond + desolv Energy     =  -6.49 kcal/mol
DOCKED: USER        Electrostatic Energy            =  +0.00 kcal/mol
DOCKED: USER        Moving Ligand-Fixed Receptor    =  -6.49 kcal/mol
DOCKED: USER        Moving Ligand-Moving Receptor   =  +0.00 kcal/mol
DOCKED: USER    (2) Final Total Internal Energy     =  -1.28 kcal/mol
DOCKED: USER    (3) Torsional Free Energy           =  +1.49 kcal/mol
DOCKED: USER    (4) Unbound System's Energy         =  -1.28 kcal/mol
DOCKED: USER
DOCKED: USER
DOCKED: REMARK  5 active torsions:
DOCKED: REMARK  status: ('A' for Active; 'I' for Inactive)
DOCKED: REMARK    1  A    between atoms: C_2  and  C_19 
DOCKED: REMARK    2  A    between atoms: C_2  and  C_11 
DOCKED: REMARK    3  A    between atoms: C_19  and  C_20 
DOCKED: REMARK    4  A    between atoms: C_20  and  C_21 
DOCKED: REMARK    5  A    between atoms: C_21  and  N_22 
DOCKED: USER                              x       y       z     vdW  Elec       q    Type
DOCKED: USER                           _______ _______ _______ _____ _____    ______ ____
DOCKED: ROOT
DOCKED: ATOM      1  O   UNL     1     -48.344 -21.302  13.926 -0.09 -0.00    -0.346 OA 
DOCKED: ATOM      2  C   UNL     1     -49.063 -22.503  14.353 -0.17 +0.00    +0.130 C  
DOCKED: ATOM      3  C   UNL     1     -49.528 -23.121  13.066 -0.31 +0.00    +0.004 A  
DOCKED: ATOM      4  C   UNL     1     -49.025 -22.398  11.993 -0.30 +0.00    +0.006 A  
DOCKED: ATOM      5  C   UNL     1     -48.195 -21.277  12.487 +0.02 +0.00    +0.169 C  
DOCKED: ATOM      6  C   UNL     1     -50.322 -24.239  12.861 -0.33 -0.00    -0.001 A  
DOCKED: ATOM      7  C   UNL     1     -49.301 -22.763  10.686 -0.15 +0.00    +0.008 A  
DOCKED: ATOM      8  C   UNL     1     -50.613 -24.617  11.549 -0.43 +0.00    +0.010 A  
DOCKED: ATOM      9  C   UNL     1     -50.104 -23.883  10.467 -0.43 +0.00    +0.068 A  
DOCKED: ATOM     10  N   UNL     1     -50.658 -24.615   8.044 -2.88 -0.00    -0.191 NA 
DOCKED: ATOM     11  C   UNL     1     -50.410 -24.286   9.131 -0.29 +0.00    +0.101 C  
DOCKED: ENDROOT
DOCKED: BRANCH   2  12
DOCKED: ATOM     12  C   UNL     1     -48.097 -23.395  15.124 -0.24 +0.00    +0.038 C  
DOCKED: BRANCH  12  13
DOCKED: ATOM     13  C   UNL     1     -46.644 -23.045  14.810 -0.27 +0.00    +0.038 C  
DOCKED: BRANCH  13  14
DOCKED: ATOM     14  C   UNL     1     -45.885 -22.660  16.078 -0.10 +0.00    +0.251 C  
DOCKED: BRANCH  14  15
DOCKED: ATOM     15  N   UNL     1     -45.605 -21.229  16.087 -0.07 +0.00    +0.141 N  
DOCKED: ATOM     16  C   UNL     1     -46.827 -20.466  16.343 -0.02 +0.00    +0.285 C  
DOCKED: ATOM     17  C   UNL     1     -44.588 -20.909  17.090 -0.02 +0.00    +0.285 C  
DOCKED: ENDBRANCH  14  15
DOCKED: ENDBRANCH  13  14
DOCKED: ENDBRANCH  12  13
DOCKED: ENDBRANCH   2  12
DOCKED: BRANCH   2  18
DOCKED: ATOM     18  C   UNL     1     -50.190 -22.052  15.221 -0.10 +0.00    +0.006 A  
DOCKED: ATOM     19  C   UNL     1     -50.069 -22.118  16.609 -0.06 +0.00    +0.001 A  
DOCKED: ATOM     20  C   UNL     1     -51.124 -21.696  17.420 -0.02 +0.00    +0.029 A  
DOCKED: ATOM     21  C   UNL     1     -52.295 -21.208  16.843 -0.01 +0.00    +0.140 A  
DOCKED: ATOM     22  C   UNL     1     -52.415 -21.142  15.455 -0.08 +0.00    +0.029 A  
DOCKED: ATOM     23  F   UNL     1     -53.306 -20.801  17.621 +0.01 -0.00    -0.204 F  
DOCKED: ATOM     24  C   UNL     1     -51.361 -21.564  14.643 -0.14 +0.00    +0.001 A  
DOCKED: ENDBRANCH   2  18
DOCKED: TORSDOF 5
DOCKED: TER
DOCKED: ENDMDL
________________________________________________________________________________


    FINAL DOCKED STATE:
    ________________________


Run:   25 / 512
Time taken for this run:   0.002s

DOCKED: MODEL        25
DOCKED: USER    Run = 25
DOCKED: USER
DOCKED: USER    Estimated Free Energy of Binding    =  -3.72 kcal/mol  [=(1)+(2)+(3)-(4)]
DOCKED: USER
DOCKED: USER    (1) Final Intermolecular Energy     =  -5.21 kcal/mol
DOCKED: USER        vdW + Hbond + desolv Energy     =  -5.21 kcal/mol
DOCKED: USER        Electrostatic Energy            =  +0.00 kcal/mol
DOCKED: USER        Moving Ligand-Fixed Receptor    =  -5.21 kcal/mol
DOCKED: USER        Moving Ligand-Moving Receptor   =  +0.00 kcal/mol
DOCKED: USER    (2) Final Total Internal Energy     =  -1.53 kcal/mol
DOCKED: USER    (3) Torsional Free Energy           =  +1.49 kcal/mol
DOCKED: USER    (4) Unbound System's Energy         =  -1.53 kcal/mol
DOCKED: USER
DOCKED: USER
DOCKED: REMARK  5 active torsions:
DOCKED: REMARK  status: ('A' for Active; 'I' for Inactive)
DOCKED: REMARK    1  A    between atoms: C_2  and  C_19 
DOCKED: REMARK    2  A    between atoms: C_2  and  C_11 
DOCKED: REMARK    3  A    between atoms: C_19  and  C_20 
DOCKED: REMARK    4  A    between atoms: C_20  and  C_21 
DOCKED: REMARK    5  A    between atoms: C_21  and  N_22 
DOCKED: USER                              x       y       z     vdW  Elec       q    Type
DOCKED: USER                           _______ _______ _______ _____ _____    ______ ____
DOCKED: ROOT
DOCKED: ATOM      1  O   UNL     1     -48.131 -19.106  14.227 -0.04 -0.00    -0.346 OA 
DOCKED: ATOM      2  C   UNL     1     -47.303 -20.106  14.903 -0.10 +0.00    +0.130 C  
DOCKED: ATOM      3  C   UNL     1     -47.853 -21.416  14.417 -0.19 +0.00    +0.004 A  
DOCKED: ATOM      4  C   UNL     1     -48.834 -21.185  13.463 -0.26 +0.00    +0.006 A  
DOCKED: ATOM      5  C   UNL     1     -48.991 -19.729  13.245 -0.16 +0.00    +0.169 C  
DOCKED: ATOM      6  C   UNL     1     -47.504 -22.708  14.781 -0.23 -0.00    -0.001 A  
DOCKED: ATOM      7  C   UNL     1     -49.500 -22.231  12.846 -0.31 +0.00    +0.008 A  
DOCKED: ATOM      8  C   UNL     1     -48.170 -23.773  14.171 -0.32 +0.00    +0.010 A  
DOCKED: ATOM      9  C   UNL     1     -49.162 -23.535  13.209 -0.29 +0.00    +0.068 A  
DOCKED: ATOM     10  N   UNL     1     -50.375 -25.535  12.094 -2.55 -0.00    -0.191 NA 
DOCKED: ATOM     11  C   UNL     1     -49.832 -24.638  12.594 -0.35 +0.00    +0.101 C  
DOCKED: ENDROOT
DOCKED: BRANCH   2  12
DOCKED: ATOM     12  C   UNL     1     -45.851 -19.885  14.497 -0.13 +0.00    +0.038 C  
DOCKED: BRANCH  12  13
DOCKED: ATOM     13  C   UNL     1     -45.693 -18.616  13.661 -0.11 +0.00    +0.038 C  
DOCKED: BRANCH  13  14
DOCKED: ATOM     14  C   UNL     1     -45.536 -17.386  14.553 -0.02 +0.00    +0.251 C  
DOCKED: BRANCH  14  15
DOCKED: ATOM     15  N   UNL     1     -46.518 -16.370  14.193 -0.02 +0.00    +0.141 N  
DOCKED: ATOM     16  C   UNL     1     -47.119 -16.671  12.893 -0.05 +0.00    +0.285 C  
DOCKED: ATOM     17  C   UNL     1     -47.556 -16.269  15.221 -0.01 +0.00    +0.285 C  
DOCKED: ENDBRANCH  14  15
DOCKED: ENDBRANCH  13  14
DOCKED: ENDBRANCH  12  13
DOCKED: ENDBRANCH   2  12
DOCKED: BRANCH   2  18
DOCKED: ATOM     18  C   UNL     1     -47.489 -19.907  16.370 -0.03 +0.00    +0.006 A  
DOCKED: ATOM     19  C   UNL     1     -46.381 -19.896  17.217 -0.02 +0.00    +0.001 A  
DOCKED: ATOM     20  C   UNL     1     -46.556 -19.709  18.589 -0.00 +0.00    +0.029 A  
DOCKED: ATOM     21  C   UNL     1     -47.837 -19.534  19.111 -0.00 +0.00    +0.140 A  
DOCKED: ATOM     22  C   UNL     1     -48.944 -19.545  18.263 -0.00 +0.00    +0.029 A  
DOCKED: ATOM     23  F   UNL     1     -48.004 -19.353  20.428 +0.00 -0.00    -0.204 F  
DOCKED: ATOM     24  C   UNL     1     -48.770 -19.732  16.891 -0.02 +0.00    +0.001 A  
DOCKED: ENDBRANCH   2  18
DOCKED: TORSDOF 5
DOCKED: TER
DOCKED: ENDMDL
________________________________________________________________________________


    FINAL DOCKED STATE:
    ________________________


Run:   26 / 512
Time taken for this run:   0.002s

DOCKED: MODEL        26
DOCKED: USER    Run = 26
DOCKED: USER
DOCKED: USER    Estimated Free Energy of Binding    =  -4.02 kcal/mol  [=(1)+(2)+(3)-(4)]
DOCKED: USER
DOCKED: USER    (1) Final Intermolecular Energy     =  -5.51 kcal/mol
DOCKED: USER        vdW + Hbond + desolv Energy     =  -5.51 kcal/mol
DOCKED: USER        Electrostatic Energy            =  +0.00 kcal/mol
DOCKED: USER        Moving Ligand-Fixed Receptor    =  -5.51 kcal/mol
DOCKED: USER        Moving Ligand-Moving Receptor   =  +0.00 kcal/mol
DOCKED: USER    (2) Final Total Internal Energy     =  -1.48 kcal/mol
DOCKED: USER    (3) Torsional Free Energy           =  +1.49 kcal/mol
DOCKED: USER    (4) Unbound System's Energy         =  -1.48 kcal/mol
DOCKED: USER
DOCKED: USER
DOCKED: REMARK  5 active torsions:
DOCKED: REMARK  status: ('A' for Active; 'I' for Inactive)
DOCKED: REMARK    1  A    between atoms: C_2  and  C_19 
DOCKED: REMARK    2  A    between atoms: C_2  and  C_11 
DOCKED: REMARK    3  A    between atoms: C_19  and  C_20 
DOCKED: REMARK    4  A    between atoms: C_20  and  C_21 
DOCKED: REMARK    5  A    between atoms: C_21  and  N_22 
DOCKED: USER                              x       y       z     vdW  Elec       q    Type
DOCKED: USER                           _______ _______ _______ _____ _____    ______ ____
DOCKED: ROOT
DOCKED: ATOM      1  O   UNL     1     -46.170 -22.034  16.710 -0.04 -0.00    -0.346 OA 
DOCKED: ATOM      2  C   UNL     1     -46.431 -21.109  15.606 -0.10 +0.00    +0.130 C  
DOCKED: ATOM      3  C   UNL     1     -47.305 -21.899  14.675 -0.20 +0.00    +0.004 A  
DOCKED: ATOM      4  C   UNL     1     -47.608 -23.126  15.247 -0.22 +0.00    +0.006 A  
DOCKED: ATOM      5  C   UNL     1     -46.977 -23.228  16.582 -0.09 +0.00    +0.169 C  
DOCKED: ATOM      6  C   UNL     1     -47.801 -21.553  13.426 -0.23 -0.00    -0.001 A  
DOCKED: ATOM      7  C   UNL     1     -48.410 -24.047  14.594 -0.29 +0.00    +0.008 A  
DOCKED: ATOM      8  C   UNL     1     -48.607 -22.473  12.753 -0.33 +0.00    +0.010 A  
DOCKED: ATOM      9  C   UNL     1     -48.910 -23.713  13.335 -0.30 +0.00    +0.068 A  
DOCKED: ATOM     10  N   UNL     1     -50.413 -25.396  12.061 -2.53 -0.00    -0.191 NA 
DOCKED: ATOM     11  C   UNL     1     -49.738 -24.642  12.632 -0.34 +0.00    +0.101 C  
DOCKED: ENDROOT
DOCKED: BRANCH   2  12
DOCKED: ATOM     12  C   UNL     1     -47.124 -19.873  16.166 -0.04 +0.00    +0.038 C  
DOCKED: BRANCH  12  13
DOCKED: ATOM     13  C   UNL     1     -48.455 -20.231  16.825 -0.03 +0.00    +0.038 C  
DOCKED: BRANCH  13  14
DOCKED: ATOM     14  C   UNL     1     -49.631 -19.875  15.918 -0.02 +0.00    +0.251 C  
DOCKED: BRANCH  14  15
DOCKED: ATOM     15  N   UNL     1     -50.249 -21.086  15.390 -0.05 +0.00    +0.141 N  
DOCKED: ATOM     16  C   UNL     1     -50.766 -21.917  16.478 -0.01 +0.00    +0.285 C  
DOCKED: ATOM     17  C   UNL     1     -51.322 -20.750  14.453 -0.09 +0.00    +0.285 C  
DOCKED: ENDBRANCH  14  15
DOCKED: ENDBRANCH  13  14
DOCKED: ENDBRANCH  12  13
DOCKED: ENDBRANCH   2  12
DOCKED: BRANCH   2  18
DOCKED: ATOM     18  C   UNL     1     -45.109 -20.761  15.007 -0.12 +0.00    +0.006 A  
DOCKED: ATOM     19  C   UNL     1     -43.951 -21.392  15.459 -0.12 +0.00    +0.001 A  
DOCKED: ATOM     20  C   UNL     1     -42.716 -21.065  14.899 -0.09 +0.00    +0.029 A  
DOCKED: ATOM     21  C   UNL     1     -42.640 -20.108  13.888 -0.06 +0.00    +0.140 A  
DOCKED: ATOM     22  C   UNL     1     -43.799 -19.477  13.436 -0.10 +0.00    +0.029 A  
DOCKED: ATOM     23  F   UNL     1     -41.454 -19.796  13.349 -0.00 -0.00    -0.204 F  
DOCKED: ATOM     24  C   UNL     1     -45.035 -19.803  13.996 -0.12 +0.00    +0.001 A  
DOCKED: ENDBRANCH   2  18
DOCKED: TORSDOF 5
DOCKED: TER
DOCKED: ENDMDL
________________________________________________________________________________


    FINAL DOCKED STATE:
    ________________________


Run:   27 / 512
Time taken for this run:   0.002s

DOCKED: MODEL        27
DOCKED: USER    Run = 27
DOCKED: USER
DOCKED: USER    Estimated Free Energy of Binding    =  -4.61 kcal/mol  [=(1)+(2)+(3)-(4)]
DOCKED: USER
DOCKED: USER    (1) Final Intermolecular Energy     =  -6.10 kcal/mol
DOCKED: USER        vdW + Hbond + desolv Energy     =  -6.10 kcal/mol
DOCKED: USER        Electrostatic Energy            =  +0.00 kcal/mol
DOCKED: USER        Moving Ligand-Fixed Receptor    =  -6.10 kcal/mol
DOCKED: USER        Moving Ligand-Moving Receptor   =  +0.00 kcal/mol
DOCKED: USER    (2) Final Total Internal Energy     =  -1.05 kcal/mol
DOCKED: USER    (3) Torsional Free Energy           =  +1.49 kcal/mol
DOCKED: USER    (4) Unbound System's Energy         =  -1.05 kcal/mol
DOCKED: USER
DOCKED: USER
DOCKED: REMARK  5 active torsions:
DOCKED: REMARK  status: ('A' for Active; 'I' for Inactive)
DOCKED: REMARK    1  A    between atoms: C_2  and  C_19 
DOCKED: REMARK    2  A    between atoms: C_2  and  C_11 
DOCKED: REMARK    3  A    between atoms: C_19  and  C_20 
DOCKED: REMARK    4  A    between atoms: C_20  and  C_21 
DOCKED: REMARK    5  A    between atoms: C_21  and  N_22 
DOCKED: USER                              x       y       z     vdW  Elec       q    Type
DOCKED: USER                           _______ _______ _______ _____ _____    ______ ____
DOCKED: ROOT
DOCKED: ATOM      1  O   UNL     1     -45.725 -21.340  15.409 -0.07 -0.00    -0.346 OA 
DOCKED: ATOM      2  C   UNL     1     -46.633 -20.481  14.649 -0.13 +0.00    +0.130 C  
DOCKED: ATOM      3  C   UNL     1     -47.559 -21.448  13.970 -0.23 +0.00    +0.004 A  
DOCKED: ATOM      4  C   UNL     1     -47.276 -22.739  14.392 -0.25 +0.00    +0.006 A  
DOCKED: ATOM      5  C   UNL     1     -46.169 -22.716  15.374 -0.17 +0.00    +0.169 C  
DOCKED: ATOM      6  C   UNL     1     -48.578 -21.204  13.061 -0.28 -0.00    -0.001 A  
DOCKED: ATOM      7  C   UNL     1     -47.994 -23.825  13.920 -0.34 +0.00    +0.008 A  
DOCKED: ATOM      8  C   UNL     1     -49.308 -22.288  12.573 -0.33 +0.00    +0.010 A  
DOCKED: ATOM      9  C   UNL     1     -49.018 -23.592  13.000 -0.31 +0.00    +0.068 A  
DOCKED: ATOM     10  N   UNL     1     -50.395 -25.583  12.077 -2.54 -0.00    -0.191 NA 
DOCKED: ATOM     11  C   UNL     1     -49.777 -24.690  12.491 -0.34 +0.00    +0.101 C  
DOCKED: ENDROOT
DOCKED: BRANCH   2  12
DOCKED: ATOM     12  C   UNL     1     -47.352 -19.556  15.624 -0.06 +0.00    +0.038 C  
DOCKED: BRANCH  12  13
DOCKED: ATOM     13  C   UNL     1     -48.171 -18.498  14.887 -0.07 +0.00    +0.038 C  
DOCKED: BRANCH  13  14
DOCKED: ATOM     14  C   UNL     1     -49.665 -18.810  14.962 -0.06 +0.00    +0.251 C  
DOCKED: BRANCH  14  15
DOCKED: ATOM     15  N   UNL     1     -50.405 -17.977  14.021 -0.12 +0.00    +0.141 N  
DOCKED: ATOM     16  C   UNL     1     -50.855 -16.743  14.668 -0.03 +0.00    +0.285 C  
DOCKED: ATOM     17  C   UNL     1     -49.582 -17.665  12.851 -0.12 +0.00    +0.285 C  
DOCKED: ENDBRANCH  14  15
DOCKED: ENDBRANCH  13  14
DOCKED: ENDBRANCH  12  13
DOCKED: ENDBRANCH   2  12
DOCKED: BRANCH   2  18
DOCKED: ATOM     18  C   UNL     1     -45.797 -19.704  13.687 -0.14 +0.00    +0.006 A  
DOCKED: ATOM     19  C   UNL     1     -46.345 -19.268  12.482 -0.13 +0.00    +0.001 A  
DOCKED: ATOM     20  C   UNL     1     -45.561 -18.543  11.583 -0.14 +0.00    +0.029 A  
DOCKED: ATOM     21  C   UNL     1     -44.233 -18.254  11.892 -0.08 +0.00    +0.140 A  
DOCKED: ATOM     22  C   UNL     1     -43.686 -18.690  13.098 -0.08 +0.00    +0.029 A  
DOCKED: ATOM     23  F   UNL     1     -43.482 -17.556  11.030 -0.00 -0.00    -0.204 F  
DOCKED: ATOM     24  C   UNL     1     -44.468 -19.417  13.997 -0.10 +0.00    +0.001 A  
DOCKED: ENDBRANCH   2  18
DOCKED: TORSDOF 5
DOCKED: TER
DOCKED: ENDMDL
________________________________________________________________________________


    FINAL DOCKED STATE:
    ________________________


Run:   28 / 512
Time taken for this run:   0.002s

DOCKED: MODEL        28
DOCKED: USER    Run = 28
DOCKED: USER
DOCKED: USER    Estimated Free Energy of Binding    =  -5.56 kcal/mol  [=(1)+(2)+(3)-(4)]
DOCKED: USER
DOCKED: USER    (1) Final Intermolecular Energy     =  -7.05 kcal/mol
DOCKED: USER        vdW + Hbond + desolv Energy     =  -7.05 kcal/mol
DOCKED: USER        Electrostatic Energy            =  +0.00 kcal/mol
DOCKED: USER        Moving Ligand-Fixed Receptor    =  -7.05 kcal/mol
DOCKED: USER        Moving Ligand-Moving Receptor   =  +0.00 kcal/mol
DOCKED: USER    (2) Final Total Internal Energy     =  -1.41 kcal/mol
DOCKED: USER    (3) Torsional Free Energy           =  +1.49 kcal/mol
DOCKED: USER    (4) Unbound System's Energy         =  -1.41 kcal/mol
DOCKED: USER
DOCKED: USER
DOCKED: REMARK  5 active torsions:
DOCKED: REMARK  status: ('A' for Active; 'I' for Inactive)
DOCKED: REMARK    1  A    between atoms: C_2  and  C_19 
DOCKED: REMARK    2  A    between atoms: C_2  and  C_11 
DOCKED: REMARK    3  A    between atoms: C_19  and  C_20 
DOCKED: REMARK    4  A    between atoms: C_20  and  C_21 
DOCKED: REMARK    5  A    between atoms: C_21  and  N_22 
DOCKED: USER                              x       y       z     vdW  Elec       q    Type
DOCKED: USER                           _______ _______ _______ _____ _____    ______ ____
DOCKED: ROOT
DOCKED: ATOM      1  O   UNL     1     -48.582 -21.699  14.283 -0.06 -0.00    -0.346 OA 
DOCKED: ATOM      2  C   UNL     1     -49.033 -23.072  14.511 -0.18 +0.00    +0.130 C  
DOCKED: ATOM      3  C   UNL     1     -49.469 -23.538  13.153 -0.32 +0.00    +0.004 A  
DOCKED: ATOM      4  C   UNL     1     -49.190 -22.558  12.211 -0.35 +0.00    +0.006 A  
DOCKED: ATOM      5  C   UNL     1     -48.547 -21.398  12.868 -0.24 +0.00    +0.169 C  
DOCKED: ATOM      6  C   UNL     1     -50.056 -24.738  12.778 -0.24 -0.00    -0.001 A  
DOCKED: ATOM      7  C   UNL     1     -49.489 -22.739  10.871 -0.08 +0.00    +0.008 A  
DOCKED: ATOM      8  C   UNL     1     -50.368 -24.934  11.432 -0.45 +0.00    +0.010 A  
DOCKED: ATOM      9  C   UNL     1     -50.085 -23.940  10.483 -0.43 +0.00    +0.068 A  
DOCKED: ATOM     10  N   UNL     1     -50.671 -24.339   7.991 -3.16 -0.00    -0.191 NA 
DOCKED: ATOM     11  C   UNL     1     -50.409 -24.160   9.109 -0.28 +0.00    +0.101 C  
DOCKED: ENDROOT
DOCKED: BRANCH   2  12
DOCKED: ATOM     12  C   UNL     1     -47.865 -23.877  15.068 -0.29 +0.00    +0.038 C  
DOCKED: BRANCH  12  13
DOCKED: ATOM     13  C   UNL     1     -47.596 -23.530  16.531 -0.17 +0.00    +0.038 C  
DOCKED: BRANCH  13  14
DOCKED: ATOM     14  C   UNL     1     -46.294 -22.746  16.680 -0.08 +0.00    +0.251 C  
DOCKED: BRANCH  14  15
DOCKED: ATOM     15  N   UNL     1     -46.266 -21.627  15.746 -0.10 +0.00    +0.141 N  
DOCKED: ATOM     16  C   UNL     1     -46.526 -20.366  16.442 -0.02 +0.00    +0.285 C  
DOCKED: ATOM     17  C   UNL     1     -44.979 -21.567  15.052 -0.08 +0.00    +0.285 C  
DOCKED: ENDBRANCH  14  15
DOCKED: ENDBRANCH  13  14
DOCKED: ENDBRANCH  12  13
DOCKED: ENDBRANCH   2  12
DOCKED: BRANCH   2  18
DOCKED: ATOM     18  C   UNL     1     -50.156 -23.005  15.492 -0.12 +0.00    +0.006 A  
DOCKED: ATOM     19  C   UNL     1     -50.862 -24.161  15.823 -0.17 +0.00    +0.001 A  
DOCKED: ATOM     20  C   UNL     1     -51.913 -24.097  16.739 -0.12 +0.00    +0.029 A  
DOCKED: ATOM     21  C   UNL     1     -52.255 -22.879  17.323 -0.02 +0.00    +0.140 A  
DOCKED: ATOM     22  C   UNL     1     -51.549 -21.723  16.991 -0.03 +0.00    +0.029 A  
DOCKED: ATOM     23  F   UNL     1     -53.262 -22.818  18.204 +0.02 -0.00    -0.204 F  
DOCKED: ATOM     24  C   UNL     1     -50.498 -21.786  16.075 -0.06 +0.00    +0.001 A  
DOCKED: ENDBRANCH   2  18
DOCKED: TORSDOF 5
DOCKED: TER
DOCKED: ENDMDL
________________________________________________________________________________


    FINAL DOCKED STATE:
    ________________________


Run:   29 / 512
Time taken for this run:   0.002s

DOCKED: MODEL        29
DOCKED: USER    Run = 29
DOCKED: USER
DOCKED: USER    Estimated Free Energy of Binding    =  -5.93 kcal/mol  [=(1)+(2)+(3)-(4)]
DOCKED: USER
DOCKED: USER    (1) Final Intermolecular Energy     =  -7.42 kcal/mol
DOCKED: USER        vdW + Hbond + desolv Energy     =  -7.42 kcal/mol
DOCKED: USER        Electrostatic Energy            =  +0.00 kcal/mol
DOCKED: USER        Moving Ligand-Fixed Receptor    =  -7.42 kcal/mol
DOCKED: USER        Moving Ligand-Moving Receptor   =  +0.00 kcal/mol
DOCKED: USER    (2) Final Total Internal Energy     =  -1.10 kcal/mol
DOCKED: USER    (3) Torsional Free Energy           =  +1.49 kcal/mol
DOCKED: USER    (4) Unbound System's Energy         =  -1.10 kcal/mol
DOCKED: USER
DOCKED: USER
DOCKED: REMARK  5 active torsions:
DOCKED: REMARK  status: ('A' for Active; 'I' for Inactive)
DOCKED: REMARK    1  A    between atoms: C_2  and  C_19 
DOCKED: REMARK    2  A    between atoms: C_2  and  C_11 
DOCKED: REMARK    3  A    between atoms: C_19  and  C_20 
DOCKED: REMARK    4  A    between atoms: C_20  and  C_21 
DOCKED: REMARK    5  A    between atoms: C_21  and  N_22 
DOCKED: USER                              x       y       z     vdW  Elec       q    Type
DOCKED: USER                           _______ _______ _______ _____ _____    ______ ____
DOCKED: ROOT
DOCKED: ATOM      1  O   UNL     1     -47.822 -24.350  14.529 -0.21 -0.00    -0.346 OA 
DOCKED: ATOM      2  C   UNL     1     -49.128 -23.694  14.605 -0.20 +0.00    +0.130 C  
DOCKED: ATOM      3  C   UNL     1     -49.633 -23.735  13.192 -0.31 +0.00    +0.004 A  
DOCKED: ATOM      4  C   UNL     1     -48.746 -24.449  12.399 -0.43 +0.00    +0.006 A  
DOCKED: ATOM      5  C   UNL     1     -47.615 -24.934  13.222 -0.29 +0.00    +0.169 C  
DOCKED: ATOM      6  C   UNL     1     -50.791 -23.194  12.653 -0.30 -0.00    -0.001 A  
DOCKED: ATOM      7  C   UNL     1     -48.981 -24.642  11.048 -0.40 +0.00    +0.008 A  
DOCKED: ATOM      8  C   UNL     1     -51.040 -23.376  11.291 -0.12 +0.00    +0.010 A  
DOCKED: ATOM      9  C   UNL     1     -50.139 -24.097  10.494 -0.43 +0.00    +0.068 A  
DOCKED: ATOM     10  N   UNL     1     -50.634 -24.422   7.971 -3.06 -0.00    -0.191 NA 
DOCKED: ATOM     11  C   UNL     1     -50.412 -24.275   9.102 -0.28 +0.00    +0.101 C  
DOCKED: ENDROOT
DOCKED: BRANCH   2  12
DOCKED: ATOM     12  C   UNL     1     -50.007 -24.478  15.572 -0.25 +0.00    +0.038 C  
DOCKED: BRANCH  12  13
DOCKED: ATOM     13  C   UNL     1     -49.197 -25.013  16.752 -0.18 +0.00    +0.038 C  
DOCKED: BRANCH  13  14
DOCKED: ATOM     14  C   UNL     1     -48.952 -23.920  17.790 -0.09 +0.00    +0.251 C  
DOCKED: BRANCH  14  15
DOCKED: ATOM     15  N   UNL     1     -48.420 -24.498  19.018 -0.12 +0.00    +0.141 N  
DOCKED: ATOM     16  C   UNL     1     -49.146 -25.719  19.371 -0.11 +0.00    +0.285 C  
DOCKED: ATOM     17  C   UNL     1     -46.990 -24.780  18.879 -0.13 +0.00    +0.285 C  
DOCKED: ENDBRANCH  14  15
DOCKED: ENDBRANCH  13  14
DOCKED: ENDBRANCH  12  13
DOCKED: ENDBRANCH   2  12
DOCKED: BRANCH   2  18
DOCKED: ATOM     18  C   UNL     1     -48.891 -22.305  15.097 -0.13 +0.00    +0.006 A  
DOCKED: ATOM     19  C   UNL     1     -47.682 -21.666  14.825 -0.17 +0.00    +0.001 A  
DOCKED: ATOM     20  C   UNL     1     -47.462 -20.368  15.286 -0.09 +0.00    +0.029 A  
DOCKED: ATOM     21  C   UNL     1     -48.450 -19.711  16.018 -0.02 +0.00    +0.140 A  
DOCKED: ATOM     22  C   UNL     1     -49.659 -20.351  16.290 -0.03 +0.00    +0.029 A  
DOCKED: ATOM     23  F   UNL     1     -48.239 -18.464  16.460 +0.00 -0.00    -0.204 F  
DOCKED: ATOM     24  C   UNL     1     -49.880 -21.649  15.830 -0.07 +0.00    +0.001 A  
DOCKED: ENDBRANCH   2  18
DOCKED: TORSDOF 5
DOCKED: TER
DOCKED: ENDMDL
________________________________________________________________________________


    FINAL DOCKED STATE:
    ________________________


Run:   30 / 512
Time taken for this run:   0.002s

DOCKED: MODEL        30
DOCKED: USER    Run = 30
DOCKED: USER
DOCKED: USER    Estimated Free Energy of Binding    =  -3.86 kcal/mol  [=(1)+(2)+(3)-(4)]
DOCKED: USER
DOCKED: USER    (1) Final Intermolecular Energy     =  -5.35 kcal/mol
DOCKED: USER        vdW + Hbond + desolv Energy     =  -5.35 kcal/mol
DOCKED: USER        Electrostatic Energy            =  +0.00 kcal/mol
DOCKED: USER        Moving Ligand-Fixed Receptor    =  -5.35 kcal/mol
DOCKED: USER        Moving Ligand-Moving Receptor   =  +0.00 kcal/mol
DOCKED: USER    (2) Final Total Internal Energy     =  -1.43 kcal/mol
DOCKED: USER    (3) Torsional Free Energy           =  +1.49 kcal/mol
DOCKED: USER    (4) Unbound System's Energy         =  -1.43 kcal/mol
DOCKED: USER
DOCKED: USER
DOCKED: REMARK  5 active torsions:
DOCKED: REMARK  status: ('A' for Active; 'I' for Inactive)
DOCKED: REMARK    1  A    between atoms: C_2  and  C_19 
DOCKED: REMARK    2  A    between atoms: C_2  and  C_11 
DOCKED: REMARK    3  A    between atoms: C_19  and  C_20 
DOCKED: REMARK    4  A    between atoms: C_20  and  C_21 
DOCKED: REMARK    5  A    between atoms: C_21  and  N_22 
DOCKED: USER                              x       y       z     vdW  Elec       q    Type
DOCKED: USER                           _______ _______ _______ _____ _____    ______ ____
DOCKED: ROOT
DOCKED: ATOM      1  O   UNL     1     -39.566 -21.511   6.570 +0.01 -0.00    -0.346 OA 
DOCKED: ATOM      2  C   UNL     1     -40.826 -20.891   6.983 -0.05 +0.00    +0.130 C  
DOCKED: ATOM      3  C   UNL     1     -41.467 -21.929   7.858 -0.11 +0.00    +0.004 A  
DOCKED: ATOM      4  C   UNL     1     -40.602 -23.001   8.022 -0.08 +0.00    +0.006 A  
DOCKED: ATOM      5  C   UNL     1     -39.342 -22.746   7.289 -0.02 +0.00    +0.169 C  
DOCKED: ATOM      6  C   UNL     1     -42.713 -21.920   8.469 -0.24 -0.00    -0.001 A  
DOCKED: ATOM      7  C   UNL     1     -40.949 -24.097   8.794 -0.16 +0.00    +0.008 A  
DOCKED: ATOM      8  C   UNL     1     -43.079 -23.019   9.248 -0.29 +0.00    +0.010 A  
DOCKED: ATOM      9  C   UNL     1     -42.202 -24.102   9.409 -0.29 +0.00    +0.068 A  
DOCKED: ATOM     10  N   UNL     1     -42.912 -26.124  10.865 -2.64 -0.00    -0.191 NA 
DOCKED: ATOM     11  C   UNL     1     -42.594 -25.217  10.212 -0.38 +0.00    +0.101 C  
DOCKED: ENDROOT
DOCKED: BRANCH   2  12
DOCKED: ATOM     12  C   UNL     1     -40.509 -19.601   7.728 -0.02 +0.00    +0.038 C  
DOCKED: BRANCH  12  13
DOCKED: ATOM     13  C   UNL     1     -39.409 -18.808   7.025 -0.00 +0.00    +0.038 C  
DOCKED: BRANCH  13  14
DOCKED: ATOM     14  C   UNL     1     -38.066 -18.984   7.732 +0.00 +0.00    +0.251 C  
DOCKED: BRANCH  14  15
DOCKED: ATOM     15  N   UNL     1     -37.022 -19.302   6.766 +0.00 +0.00    +0.141 N  
DOCKED: ATOM     16  C   UNL     1     -36.378 -20.574   7.101 +0.00 +0.00    +0.285 C  
DOCKED: ATOM     17  C   UNL     1     -37.572 -19.354   5.410 +0.00 +0.00    +0.285 C  
DOCKED: ENDBRANCH  14  15
DOCKED: ENDBRANCH  13  14
DOCKED: ENDBRANCH  12  13
DOCKED: ENDBRANCH   2  12
DOCKED: BRANCH   2  18
DOCKED: ATOM     18  C   UNL     1     -41.605 -20.618   5.739 -0.11 +0.00    +0.006 A  
DOCKED: ATOM     19  C   UNL     1     -41.327 -21.328   4.572 -0.13 +0.00    +0.001 A  
DOCKED: ATOM     20  C   UNL     1     -42.055 -21.071   3.411 -0.17 +0.00    +0.029 A  
DOCKED: ATOM     21  C   UNL     1     -43.061 -20.105   3.417 -0.20 +0.00    +0.140 A  
DOCKED: ATOM     22  C   UNL     1     -43.339 -19.395   4.585 -0.21 +0.00    +0.029 A  
DOCKED: ATOM     23  F   UNL     1     -43.761 -19.860   2.302 -0.13 -0.00    -0.204 F  
DOCKED: ATOM     24  C   UNL     1     -42.610 -19.651   5.748 -0.15 +0.00    +0.001 A  
DOCKED: ENDBRANCH   2  18
DOCKED: TORSDOF 5
DOCKED: TER
DOCKED: ENDMDL
________________________________________________________________________________


    FINAL DOCKED STATE:
    ________________________


Run:   31 / 512
Time taken for this run:   0.002s

DOCKED: MODEL        31
DOCKED: USER    Run = 31
DOCKED: USER
DOCKED: USER    Estimated Free Energy of Binding    =  -4.83 kcal/mol  [=(1)+(2)+(3)-(4)]
DOCKED: USER
DOCKED: USER    (1) Final Intermolecular Energy     =  -6.32 kcal/mol
DOCKED: USER        vdW + Hbond + desolv Energy     =  -6.32 kcal/mol
DOCKED: USER        Electrostatic Energy            =  +0.00 kcal/mol
DOCKED: USER        Moving Ligand-Fixed Receptor    =  -6.32 kcal/mol
DOCKED: USER        Moving Ligand-Moving Receptor   =  +0.00 kcal/mol
DOCKED: USER    (2) Final Total Internal Energy     =  -0.88 kcal/mol
DOCKED: USER    (3) Torsional Free Energy           =  +1.49 kcal/mol
DOCKED: USER    (4) Unbound System's Energy         =  -0.88 kcal/mol
DOCKED: USER
DOCKED: USER
DOCKED: REMARK  5 active torsions:
DOCKED: REMARK  status: ('A' for Active; 'I' for Inactive)
DOCKED: REMARK    1  A    between atoms: C_2  and  C_19 
DOCKED: REMARK    2  A    between atoms: C_2  and  C_11 
DOCKED: REMARK    3  A    between atoms: C_19  and  C_20 
DOCKED: REMARK    4  A    between atoms: C_20  and  C_21 
DOCKED: REMARK    5  A    between atoms: C_21  and  N_22 
DOCKED: USER                              x       y       z     vdW  Elec       q    Type
DOCKED: USER                           _______ _______ _______ _____ _____    ______ ____
DOCKED: ROOT
DOCKED: ATOM      1  O   UNL     1     -46.806 -15.298   7.949 -0.11 -0.00    -0.346 OA 
DOCKED: ATOM      2  C   UNL     1     -45.479 -15.302   7.332 -0.20 +0.00    +0.130 C  
DOCKED: ATOM      3  C   UNL     1     -45.702 -14.655   5.996 -0.26 +0.00    +0.004 A  
DOCKED: ATOM      4  C   UNL     1     -47.016 -14.219   5.901 -0.15 +0.00    +0.006 A  
DOCKED: ATOM      5  C   UNL     1     -47.740 -14.531   7.154 -0.06 +0.00    +0.169 C  
DOCKED: ATOM      6  C   UNL     1     -44.810 -14.457   4.952 -0.23 -0.00    -0.001 A  
DOCKED: ATOM      7  C   UNL     1     -47.483 -13.579   4.766 -0.23 +0.00    +0.008 A  
DOCKED: ATOM      8  C   UNL     1     -45.267 -13.817   3.799 -0.28 +0.00    +0.010 A  
DOCKED: ATOM      9  C   UNL     1     -46.597 -13.380   3.706 -0.31 +0.00    +0.068 A  
DOCKED: ATOM     10  N   UNL     1     -47.411 -12.192   1.553 -2.52 -0.00    -0.191 NA 
DOCKED: ATOM     11  C   UNL     1     -47.046 -12.725   2.519 -0.34 +0.00    +0.101 C  
DOCKED: ENDROOT
DOCKED: BRANCH   2  12
DOCKED: ATOM     12  C   UNL     1     -44.530 -14.510   8.224 -0.17 +0.00    +0.038 C  
DOCKED: BRANCH  12  13
DOCKED: ATOM     13  C   UNL     1     -43.075 -14.899   7.973 -0.11 +0.00    +0.038 C  
DOCKED: BRANCH  13  14
DOCKED: ATOM     14  C   UNL     1     -42.261 -14.846   9.265 -0.05 +0.00    +0.251 C  
DOCKED: BRANCH  14  15
DOCKED: ATOM     15  N   UNL     1     -42.018 -13.463   9.655 -0.08 +0.00    +0.141 N  
DOCKED: ATOM     16  C   UNL     1     -41.259 -13.405  10.905 -0.04 +0.00    +0.285 C  
DOCKED: ATOM     17  C   UNL     1     -41.305 -12.746   8.595 -0.05 +0.00    +0.285 C  
DOCKED: ENDBRANCH  14  15
DOCKED: ENDBRANCH  13  14
DOCKED: ENDBRANCH  12  13
DOCKED: ENDBRANCH   2  12
DOCKED: BRANCH   2  18
DOCKED: ATOM     18  C   UNL     1     -45.052 -16.727   7.224 -0.15 +0.00    +0.006 A  
DOCKED: ATOM     19  C   UNL     1     -45.247 -17.596   8.297 -0.15 +0.00    +0.001 A  
DOCKED: ATOM     20  C   UNL     1     -44.847 -18.929   8.195 -0.21 +0.00    +0.029 A  
DOCKED: ATOM     21  C   UNL     1     -44.254 -19.391   7.021 -0.18 +0.00    +0.140 A  
DOCKED: ATOM     22  C   UNL     1     -44.060 -18.522   5.948 -0.18 +0.00    +0.029 A  
DOCKED: ATOM     23  F   UNL     1     -43.872 -20.671   6.923 -0.09 -0.00    -0.204 F  
DOCKED: ATOM     24  C   UNL     1     -44.460 -17.188   6.049 -0.16 +0.00    +0.001 A  
DOCKED: ENDBRANCH   2  18
DOCKED: TORSDOF 5
DOCKED: TER
DOCKED: ENDMDL
________________________________________________________________________________


    FINAL DOCKED STATE:
    ________________________


Run:   32 / 512
Time taken for this run:   0.002s

DOCKED: MODEL        32
DOCKED: USER    Run = 32
DOCKED: USER
DOCKED: USER    Estimated Free Energy of Binding    =  -5.37 kcal/mol  [=(1)+(2)+(3)-(4)]
DOCKED: USER
DOCKED: USER    (1) Final Intermolecular Energy     =  -6.86 kcal/mol
DOCKED: USER        vdW + Hbond + desolv Energy     =  -6.86 kcal/mol
DOCKED: USER        Electrostatic Energy            =  +0.00 kcal/mol
DOCKED: USER        Moving Ligand-Fixed Receptor    =  -6.86 kcal/mol
DOCKED: USER        Moving Ligand-Moving Receptor   =  +0.00 kcal/mol
DOCKED: USER    (2) Final Total Internal Energy     =  -1.08 kcal/mol
DOCKED: USER    (3) Torsional Free Energy           =  +1.49 kcal/mol
DOCKED: USER    (4) Unbound System's Energy         =  -1.08 kcal/mol
DOCKED: USER
DOCKED: USER
DOCKED: REMARK  5 active torsions:
DOCKED: REMARK  status: ('A' for Active; 'I' for Inactive)
DOCKED: REMARK    1  A    between atoms: C_2  and  C_19 
DOCKED: REMARK    2  A    between atoms: C_2  and  C_11 
DOCKED: REMARK    3  A    between atoms: C_19  and  C_20 
DOCKED: REMARK    4  A    between atoms: C_20  and  C_21 
DOCKED: REMARK    5  A    between atoms: C_21  and  N_22 
DOCKED: USER                              x       y       z     vdW  Elec       q    Type
DOCKED: USER                           _______ _______ _______ _____ _____    ______ ____
DOCKED: ROOT
DOCKED: ATOM      1  O   UNL     1     -48.577 -21.572  15.154 -0.02 -0.00    -0.346 OA 
DOCKED: ATOM      2  C   UNL     1     -48.210 -22.987  15.075 -0.18 +0.00    +0.130 C  
DOCKED: ATOM      3  C   UNL     1     -48.647 -23.396  13.699 -0.31 +0.00    +0.004 A  
DOCKED: ATOM      4  C   UNL     1     -49.120 -22.288  13.010 -0.32 +0.00    +0.006 A  
DOCKED: ATOM      5  C   UNL     1     -49.019 -21.084  13.866 -0.19 +0.00    +0.169 C  
DOCKED: ATOM      6  C   UNL     1     -48.617 -24.646  13.099 -0.36 -0.00    -0.001 A  
DOCKED: ATOM      7  C   UNL     1     -49.581 -22.390  11.709 -0.06 +0.00    +0.008 A  
DOCKED: ATOM      8  C   UNL     1     -49.083 -24.767  11.789 -0.48 +0.00    +0.010 A  
DOCKED: ATOM      9  C   UNL     1     -49.562 -23.645  11.097 -0.40 +0.00    +0.068 A  
DOCKED: ATOM     10  N   UNL     1     -50.414 -23.903   8.664 -2.64 -0.00    -0.191 NA 
DOCKED: ATOM     11  C   UNL     1     -50.032 -23.787   9.756 -0.49 +0.00    +0.101 C  
DOCKED: ENDROOT
DOCKED: BRANCH   2  12
DOCKED: ATOM     12  C   UNL     1     -46.705 -23.107  15.281 -0.23 +0.00    +0.038 C  
DOCKED: BRANCH  12  13
DOCKED: ATOM     13  C   UNL     1     -45.961 -21.930  14.653 -0.05 +0.00    +0.038 C  
DOCKED: BRANCH  13  14
DOCKED: ATOM     14  C   UNL     1     -45.655 -20.855  15.695 -0.07 +0.00    +0.251 C  
DOCKED: BRANCH  14  15
DOCKED: ATOM     15  N   UNL     1     -44.421 -20.156  15.356 -0.05 +0.00    +0.141 N  
DOCKED: ATOM     16  C   UNL     1     -44.681 -19.094  14.382 -0.05 +0.00    +0.285 C  
DOCKED: ATOM     17  C   UNL     1     -43.796 -19.602  16.557 -0.01 +0.00    +0.285 C  
DOCKED: ENDBRANCH  14  15
DOCKED: ENDBRANCH  13  14
DOCKED: ENDBRANCH  12  13
DOCKED: ENDBRANCH   2  12
DOCKED: BRANCH   2  18
DOCKED: ATOM     18  C   UNL     1     -48.959 -23.692  16.157 -0.17 +0.00    +0.006 A  
DOCKED: ATOM     19  C   UNL     1     -50.353 -23.712  16.139 -0.14 +0.00    +0.001 A  
DOCKED: ATOM     20  C   UNL     1     -51.052 -24.372  17.151 -0.13 +0.00    +0.029 A  
DOCKED: ATOM     21  C   UNL     1     -50.357 -25.010  18.177 -0.05 +0.00    +0.140 A  
DOCKED: ATOM     22  C   UNL     1     -48.962 -24.990  18.194 -0.19 +0.00    +0.029 A  
DOCKED: ATOM     23  F   UNL     1     -51.028 -25.645  19.147 -0.04 -0.00    -0.204 F  
DOCKED: ATOM     24  C   UNL     1     -48.262 -24.330  17.182 -0.21 +0.00    +0.001 A  
DOCKED: ENDBRANCH   2  18
DOCKED: TORSDOF 5
DOCKED: TER
DOCKED: ENDMDL
________________________________________________________________________________


    FINAL DOCKED STATE:
    ________________________


Run:   33 / 512
Time taken for this run:   0.002s

DOCKED: MODEL        33
DOCKED: USER    Run = 33
DOCKED: USER
DOCKED: USER    Estimated Free Energy of Binding    =  -3.77 kcal/mol  [=(1)+(2)+(3)-(4)]
DOCKED: USER
DOCKED: USER    (1) Final Intermolecular Energy     =  -5.26 kcal/mol
DOCKED: USER        vdW + Hbond + desolv Energy     =  -5.26 kcal/mol
DOCKED: USER        Electrostatic Energy            =  +0.00 kcal/mol
DOCKED: USER        Moving Ligand-Fixed Receptor    =  -5.26 kcal/mol
DOCKED: USER        Moving Ligand-Moving Receptor   =  +0.00 kcal/mol
DOCKED: USER    (2) Final Total Internal Energy     =  -1.41 kcal/mol
DOCKED: USER    (3) Torsional Free Energy           =  +1.49 kcal/mol
DOCKED: USER    (4) Unbound System's Energy         =  -1.41 kcal/mol
DOCKED: USER
DOCKED: USER
DOCKED: REMARK  5 active torsions:
DOCKED: REMARK  status: ('A' for Active; 'I' for Inactive)
DOCKED: REMARK    1  A    between atoms: C_2  and  C_19 
DOCKED: REMARK    2  A    between atoms: C_2  and  C_11 
DOCKED: REMARK    3  A    between atoms: C_19  and  C_20 
DOCKED: REMARK    4  A    between atoms: C_20  and  C_21 
DOCKED: REMARK    5  A    between atoms: C_21  and  N_22 
DOCKED: USER                              x       y       z     vdW  Elec       q    Type
DOCKED: USER                           _______ _______ _______ _____ _____    ______ ____
DOCKED: ROOT
DOCKED: ATOM      1  O   UNL     1     -41.134 -10.682   0.913 -0.03 -0.00    -0.346 OA 
DOCKED: ATOM      2  C   UNL     1     -41.343 -10.770   2.359 -0.08 +0.00    +0.130 C  
DOCKED: ATOM      3  C   UNL     1     -42.787 -11.162   2.490 -0.15 +0.00    +0.004 A  
DOCKED: ATOM      4  C   UNL     1     -43.326 -11.386   1.231 -0.20 +0.00    +0.006 A  
DOCKED: ATOM      5  C   UNL     1     -42.290 -11.174   0.195 -0.10 +0.00    +0.169 C  
DOCKED: ATOM      6  C   UNL     1     -43.557 -11.319   3.632 -0.16 -0.00    -0.001 A  
DOCKED: ATOM      7  C   UNL     1     -44.647 -11.768   1.070 -0.28 +0.00    +0.008 A  
DOCKED: ATOM      8  C   UNL     1     -44.893 -11.699   3.487 -0.32 +0.00    +0.010 A  
DOCKED: ATOM      9  C   UNL     1     -45.434 -11.923   2.212 -0.36 +0.00    +0.068 A  
DOCKED: ATOM     10  N   UNL     1     -47.915 -12.633   1.978 -2.49 -0.00    -0.191 NA 
DOCKED: ATOM     11  C   UNL     1     -46.803 -12.314   2.083 -0.37 +0.00    +0.101 C  
DOCKED: ENDROOT
DOCKED: BRANCH   2  12
DOCKED: ATOM     12  C   UNL     1     -40.390 -11.819   2.921 -0.03 +0.00    +0.038 C  
DOCKED: BRANCH  12  13
DOCKED: ATOM     13  C   UNL     1     -41.090 -13.163   3.110 -0.03 +0.00    +0.038 C  
DOCKED: BRANCH  13  14
DOCKED: ATOM     14  C   UNL     1     -41.126 -13.952   1.802 -0.00 +0.00    +0.251 C  
DOCKED: BRANCH  14  15
DOCKED: ATOM     15  N   UNL     1     -42.152 -14.987   1.862 -0.04 +0.00    +0.141 N  
DOCKED: ATOM     16  C   UNL     1     -43.021 -14.785   3.022 -0.05 +0.00    +0.285 C  
DOCKED: ATOM     17  C   UNL     1     -42.943 -15.000   0.631 -0.10 +0.00    +0.285 C  
DOCKED: ENDBRANCH  14  15
DOCKED: ENDBRANCH  13  14
DOCKED: ENDBRANCH  12  13
DOCKED: ENDBRANCH   2  12
DOCKED: BRANCH   2  18
DOCKED: ATOM     18  C   UNL     1     -41.053  -9.420   2.925 -0.10 +0.00    +0.006 A  
DOCKED: ATOM     19  C   UNL     1     -39.746  -9.073   3.263 -0.04 +0.00    +0.001 A  
DOCKED: ATOM     20  C   UNL     1     -39.476  -7.811   3.793 -0.02 +0.00    +0.029 A  
DOCKED: ATOM     21  C   UNL     1     -40.513  -6.898   3.983 -0.03 +0.00    +0.140 A  
DOCKED: ATOM     22  C   UNL     1     -41.820  -7.246   3.643 -0.14 +0.00    +0.029 A  
DOCKED: ATOM     23  F   UNL     1     -40.253  -5.685   4.489 +0.01 -0.00    -0.204 F  
DOCKED: ATOM     24  C   UNL     1     -42.091  -8.509   3.114 -0.14 +0.00    +0.001 A  
DOCKED: ENDBRANCH   2  18
DOCKED: TORSDOF 5
DOCKED: TER
DOCKED: ENDMDL
________________________________________________________________________________


    FINAL DOCKED STATE:
    ________________________


Run:   34 / 512
Time taken for this run:   0.002s

DOCKED: MODEL        34
DOCKED: USER    Run = 34
DOCKED: USER
DOCKED: USER    Estimated Free Energy of Binding    =  -4.84 kcal/mol  [=(1)+(2)+(3)-(4)]
DOCKED: USER
DOCKED: USER    (1) Final Intermolecular Energy     =  -6.33 kcal/mol
DOCKED: USER        vdW + Hbond + desolv Energy     =  -6.33 kcal/mol
DOCKED: USER        Electrostatic Energy            =  +0.00 kcal/mol
DOCKED: USER        Moving Ligand-Fixed Receptor    =  -6.33 kcal/mol
DOCKED: USER        Moving Ligand-Moving Receptor   =  +0.00 kcal/mol
DOCKED: USER    (2) Final Total Internal Energy     =  -1.21 kcal/mol
DOCKED: USER    (3) Torsional Free Energy           =  +1.49 kcal/mol
DOCKED: USER    (4) Unbound System's Energy         =  -1.21 kcal/mol
DOCKED: USER
DOCKED: USER
DOCKED: REMARK  5 active torsions:
DOCKED: REMARK  status: ('A' for Active; 'I' for Inactive)
DOCKED: REMARK    1  A    between atoms: C_2  and  C_19 
DOCKED: REMARK    2  A    between atoms: C_2  and  C_11 
DOCKED: REMARK    3  A    between atoms: C_19  and  C_20 
DOCKED: REMARK    4  A    between atoms: C_20  and  C_21 
DOCKED: REMARK    5  A    between atoms: C_21  and  N_22 
DOCKED: USER                              x       y       z     vdW  Elec       q    Type
DOCKED: USER                           _______ _______ _______ _____ _____    ______ ____
DOCKED: ROOT
DOCKED: ATOM      1  O   UNL     1     -50.369 -23.230  15.331 -0.01 -0.00    -0.346 OA 
DOCKED: ATOM      2  C   UNL     1     -49.489 -22.282  14.645 -0.13 +0.00    +0.130 C  
DOCKED: ATOM      3  C   UNL     1     -49.589 -22.679  13.201 -0.29 +0.00    +0.004 A  
DOCKED: ATOM      4  C   UNL     1     -50.527 -23.692  13.059 -0.28 +0.00    +0.006 A  
DOCKED: ATOM      5  C   UNL     1     -51.114 -24.022  14.377 -0.16 +0.00    +0.169 C  
DOCKED: ATOM      6  C   UNL     1     -48.912 -22.177  12.099 -0.28 -0.00    -0.001 A  
DOCKED: ATOM      7  C   UNL     1     -50.817 -24.238  11.820 -0.39 +0.00    +0.008 A  
DOCKED: ATOM      8  C   UNL     1     -49.189 -22.720  10.843 +0.03 +0.00    +0.010 A  
DOCKED: ATOM      9  C   UNL     1     -50.137 -23.744  10.705 -0.40 +0.00    +0.068 A  
DOCKED: ATOM     10  N   UNL     1     -50.632 -24.726   8.358 -2.63 -0.00    -0.191 NA 
DOCKED: ATOM     11  C   UNL     1     -50.410 -24.286   9.411 -0.29 +0.00    +0.101 C  
DOCKED: ENDROOT
DOCKED: BRANCH   2  12
DOCKED: ATOM     12  C   UNL     1     -50.001 -20.871  14.909 -0.13 +0.00    +0.038 C  
DOCKED: BRANCH  12  13
DOCKED: ATOM     13  C   UNL     1     -49.411 -19.870  13.917 -0.21 +0.00    +0.038 C  
DOCKED: BRANCH  13  14
DOCKED: ATOM     14  C   UNL     1     -48.219 -19.133  14.524 -0.08 +0.00    +0.251 C  
DOCKED: BRANCH  14  15
DOCKED: ATOM     15  N   UNL     1     -47.018 -19.373  13.733 -0.13 +0.00    +0.141 N  
DOCKED: ATOM     16  C   UNL     1     -46.724 -18.221  12.879 -0.10 +0.00    +0.285 C  
DOCKED: ATOM     17  C   UNL     1     -45.877 -19.664  14.603 -0.07 +0.00    +0.285 C  
DOCKED: ENDBRANCH  14  15
DOCKED: ENDBRANCH  13  14
DOCKED: ENDBRANCH  12  13
DOCKED: ENDBRANCH   2  12
DOCKED: BRANCH   2  18
DOCKED: ATOM     18  C   UNL     1     -48.120 -22.473  15.208 -0.16 +0.00    +0.006 A  
DOCKED: ATOM     19  C   UNL     1     -47.863 -22.147  16.539 -0.09 +0.00    +0.001 A  
DOCKED: ATOM     20  C   UNL     1     -46.582 -22.325  17.063 -0.09 +0.00    +0.029 A  
DOCKED: ATOM     21  C   UNL     1     -45.562 -22.829  16.257 -0.07 +0.00    +0.140 A  
DOCKED: ATOM     22  C   UNL     1     -45.821 -23.154  14.926 -0.07 +0.00    +0.029 A  
DOCKED: ATOM     23  F   UNL     1     -44.333 -23.001  16.761 -0.03 -0.00    -0.204 F  
DOCKED: ATOM     24  C   UNL     1     -47.101 -22.976  14.400 -0.26 +0.00    +0.001 A  
DOCKED: ENDBRANCH   2  18
DOCKED: TORSDOF 5
DOCKED: TER
DOCKED: ENDMDL
________________________________________________________________________________


    FINAL DOCKED STATE:
    ________________________


Run:   35 / 512
Time taken for this run:   0.002s

DOCKED: MODEL        35
DOCKED: USER    Run = 35
DOCKED: USER
DOCKED: USER    Estimated Free Energy of Binding    =  -3.47 kcal/mol  [=(1)+(2)+(3)-(4)]
DOCKED: USER
DOCKED: USER    (1) Final Intermolecular Energy     =  -4.96 kcal/mol
DOCKED: USER        vdW + Hbond + desolv Energy     =  -4.96 kcal/mol
DOCKED: USER        Electrostatic Energy            =  +0.00 kcal/mol
DOCKED: USER        Moving Ligand-Fixed Receptor    =  -4.96 kcal/mol
DOCKED: USER        Moving Ligand-Moving Receptor   =  +0.00 kcal/mol
DOCKED: USER    (2) Final Total Internal Energy     =  -1.27 kcal/mol
DOCKED: USER    (3) Torsional Free Energy           =  +1.49 kcal/mol
DOCKED: USER    (4) Unbound System's Energy         =  -1.27 kcal/mol
DOCKED: USER
DOCKED: USER
DOCKED: REMARK  5 active torsions:
DOCKED: REMARK  status: ('A' for Active; 'I' for Inactive)
DOCKED: REMARK    1  A    between atoms: C_2  and  C_19 
DOCKED: REMARK    2  A    between atoms: C_2  and  C_11 
DOCKED: REMARK    3  A    between atoms: C_19  and  C_20 
DOCKED: REMARK    4  A    between atoms: C_20  and  C_21 
DOCKED: REMARK    5  A    between atoms: C_21  and  N_22 
DOCKED: USER                              x       y       z     vdW  Elec       q    Type
DOCKED: USER                           _______ _______ _______ _____ _____    ______ ____
DOCKED: ROOT
DOCKED: ATOM      1  O   UNL     1     -46.175 -20.980  15.690 -0.04 -0.00    -0.346 OA 
DOCKED: ATOM      2  C   UNL     1     -47.559 -20.626  16.007 -0.05 +0.00    +0.130 C  
DOCKED: ATOM      3  C   UNL     1     -48.373 -21.597  15.201 -0.12 +0.00    +0.004 A  
DOCKED: ATOM      4  C   UNL     1     -47.530 -22.498  14.566 -0.23 +0.00    +0.006 A  
DOCKED: ATOM      5  C   UNL     1     -46.122 -22.199  14.912 -0.14 +0.00    +0.169 C  
DOCKED: ATOM      6  C   UNL     1     -49.749 -21.682  15.050 -0.11 -0.00    -0.001 A  
DOCKED: ATOM      7  C   UNL     1     -48.029 -23.507  13.760 -0.33 +0.00    +0.008 A  
DOCKED: ATOM      8  C   UNL     1     -50.268 -22.692  14.238 -0.17 +0.00    +0.010 A  
DOCKED: ATOM      9  C   UNL     1     -49.412 -23.599  13.596 -0.24 +0.00    +0.068 A  
DOCKED: ATOM     10  N   UNL     1     -50.409 -25.464  12.099 -2.56 -0.00    -0.191 NA 
DOCKED: ATOM     11  C   UNL     1     -49.962 -24.627  12.770 -0.32 +0.00    +0.101 C  
DOCKED: ENDROOT
DOCKED: BRANCH   2  12
DOCKED: ATOM     12  C   UNL     1     -47.766 -20.782  17.509 -0.03 +0.00    +0.038 C  
DOCKED: BRANCH  12  13
DOCKED: ATOM     13  C   UNL     1     -48.873 -21.788  17.817 -0.04 +0.00    +0.038 C  
DOCKED: BRANCH  13  14
DOCKED: ATOM     14  C   UNL     1     -48.293 -23.105  18.330 -0.05 +0.00    +0.251 C  
DOCKED: BRANCH  14  15
DOCKED: ATOM     15  N   UNL     1     -48.661 -24.201  17.443 -0.14 +0.00    +0.141 N  
DOCKED: ATOM     16  C   UNL     1     -47.969 -25.432  17.828 -0.11 +0.00    +0.285 C  
DOCKED: ATOM     17  C   UNL     1     -50.110 -24.409  17.454 -0.08 +0.00    +0.285 C  
DOCKED: ENDBRANCH  14  15
DOCKED: ENDBRANCH  13  14
DOCKED: ENDBRANCH  12  13
DOCKED: ENDBRANCH   2  12
DOCKED: BRANCH   2  18
DOCKED: ATOM     18  C   UNL     1     -47.755 -19.209  15.581 -0.05 +0.00    +0.006 A  
DOCKED: ATOM     19  C   UNL     1     -46.784 -18.573  14.809 -0.06 +0.00    +0.001 A  
DOCKED: ATOM     20  C   UNL     1     -46.968 -17.248  14.412 -0.04 +0.00    +0.029 A  
DOCKED: ATOM     21  C   UNL     1     -48.122 -16.562  14.787 -0.02 +0.00    +0.140 A  
DOCKED: ATOM     22  C   UNL     1     -49.093 -17.198  15.559 -0.02 +0.00    +0.029 A  
DOCKED: ATOM     23  F   UNL     1     -48.299 -15.290  14.404 +0.00 -0.00    -0.204 F  
DOCKED: ATOM     24  C   UNL     1     -48.910 -18.524  15.957 -0.03 +0.00    +0.001 A  
DOCKED: ENDBRANCH   2  18
DOCKED: TORSDOF 5
DOCKED: TER
DOCKED: ENDMDL
________________________________________________________________________________


    FINAL DOCKED STATE:
    ________________________


Run:   36 / 512
Time taken for this run:   0.002s

DOCKED: MODEL        36
DOCKED: USER    Run = 36
DOCKED: USER
DOCKED: USER    Estimated Free Energy of Binding    =  -4.02 kcal/mol  [=(1)+(2)+(3)-(4)]
DOCKED: USER
DOCKED: USER    (1) Final Intermolecular Energy     =  -5.51 kcal/mol
DOCKED: USER        vdW + Hbond + desolv Energy     =  -5.51 kcal/mol
DOCKED: USER        Electrostatic Energy            =  +0.00 kcal/mol
DOCKED: USER        Moving Ligand-Fixed Receptor    =  -5.51 kcal/mol
DOCKED: USER        Moving Ligand-Moving Receptor   =  +0.00 kcal/mol
DOCKED: USER    (2) Final Total Internal Energy     =  -1.30 kcal/mol
DOCKED: USER    (3) Torsional Free Energy           =  +1.49 kcal/mol
DOCKED: USER    (4) Unbound System's Energy         =  -1.30 kcal/mol
DOCKED: USER
DOCKED: USER
DOCKED: REMARK  5 active torsions:
DOCKED: REMARK  status: ('A' for Active; 'I' for Inactive)
DOCKED: REMARK    1  A    between atoms: C_2  and  C_19 
DOCKED: REMARK    2  A    between atoms: C_2  and  C_11 
DOCKED: REMARK    3  A    between atoms: C_19  and  C_20 
DOCKED: REMARK    4  A    between atoms: C_20  and  C_21 
DOCKED: REMARK    5  A    between atoms: C_21  and  N_22 
DOCKED: USER                              x       y       z     vdW  Elec       q    Type
DOCKED: USER                           _______ _______ _______ _____ _____    ______ ____
DOCKED: ROOT
DOCKED: ATOM      1  O   UNL     1     -41.473 -11.357   5.040 -0.01 -0.00    -0.346 OA 
DOCKED: ATOM      2  C   UNL     1     -41.336 -11.057   3.614 -0.06 +0.00    +0.130 C  
DOCKED: ATOM      3  C   UNL     1     -42.691 -11.370   3.049 -0.14 +0.00    +0.004 A  
DOCKED: ATOM      4  C   UNL     1     -43.558 -11.712   4.077 -0.21 +0.00    +0.006 A  
DOCKED: ATOM      5  C   UNL     1     -42.851 -11.638   5.376 -0.15 +0.00    +0.169 C  
DOCKED: ATOM      6  C   UNL     1     -43.125 -11.343   1.732 -0.19 -0.00    -0.001 A  
DOCKED: ATOM      7  C   UNL     1     -44.879 -12.041   3.826 -0.31 +0.00    +0.008 A  
DOCKED: ATOM      8  C   UNL     1     -44.453 -11.677   1.462 -0.28 +0.00    +0.010 A  
DOCKED: ATOM      9  C   UNL     1     -45.326 -12.024   2.504 -0.35 +0.00    +0.068 A  
DOCKED: ATOM     10  N   UNL     1     -47.787 -12.633   1.969 -2.53 -0.00    -0.191 NA 
DOCKED: ATOM     11  C   UNL     1     -46.683 -12.360   2.209 -0.42 +0.00    +0.101 C  
DOCKED: ENDROOT
DOCKED: BRANCH   2  12
DOCKED: ATOM     12  C   UNL     1     -40.955  -9.589   3.464 -0.10 +0.00    +0.038 C  
DOCKED: BRANCH  12  13
DOCKED: ATOM     13  C   UNL     1     -42.173  -8.729   3.134 -0.15 +0.00    +0.038 C  
DOCKED: BRANCH  13  14
DOCKED: ATOM     14  C   UNL     1     -42.425  -7.691   4.226 -0.11 +0.00    +0.251 C  
DOCKED: BRANCH  14  15
DOCKED: ATOM     15  N   UNL     1     -42.901  -8.340   5.442 -0.14 +0.00    +0.141 N  
DOCKED: ATOM     16  C   UNL     1     -42.659  -7.490   6.609 -0.07 +0.00    +0.285 C  
DOCKED: ATOM     17  C   UNL     1     -44.325  -8.659   5.332 -0.24 +0.00    +0.285 C  
DOCKED: ENDBRANCH  14  15
DOCKED: ENDBRANCH  13  14
DOCKED: ENDBRANCH  12  13
DOCKED: ENDBRANCH   2  12
DOCKED: BRANCH   2  18
DOCKED: ATOM     18  C   UNL     1     -40.264 -11.948   3.082 -0.02 +0.00    +0.006 A  
DOCKED: ATOM     19  C   UNL     1     -38.924 -11.598   3.241 -0.01 +0.00    +0.001 A  
DOCKED: ATOM     20  C   UNL     1     -37.922 -12.433   2.743 -0.00 +0.00    +0.029 A  
DOCKED: ATOM     21  C   UNL     1     -38.262 -13.615   2.087 +0.00 +0.00    +0.140 A  
DOCKED: ATOM     22  C   UNL     1     -39.603 -13.965   1.929 -0.00 +0.00    +0.029 A  
DOCKED: ATOM     23  F   UNL     1     -37.300 -14.416   1.611 +0.00 -0.00    -0.204 F  
DOCKED: ATOM     24  C   UNL     1     -40.605 -13.131   2.426 -0.02 +0.00    +0.001 A  
DOCKED: ENDBRANCH   2  18
DOCKED: TORSDOF 5
DOCKED: TER
DOCKED: ENDMDL
________________________________________________________________________________


    FINAL DOCKED STATE:
    ________________________


Run:   37 / 512
Time taken for this run:   0.002s

DOCKED: MODEL        37
DOCKED: USER    Run = 37
DOCKED: USER
DOCKED: USER    Estimated Free Energy of Binding    =  -4.28 kcal/mol  [=(1)+(2)+(3)-(4)]
DOCKED: USER
DOCKED: USER    (1) Final Intermolecular Energy     =  -5.77 kcal/mol
DOCKED: USER        vdW + Hbond + desolv Energy     =  -5.77 kcal/mol
DOCKED: USER        Electrostatic Energy            =  +0.00 kcal/mol
DOCKED: USER        Moving Ligand-Fixed Receptor    =  -5.77 kcal/mol
DOCKED: USER        Moving Ligand-Moving Receptor   =  +0.00 kcal/mol
DOCKED: USER    (2) Final Total Internal Energy     =  -1.30 kcal/mol
DOCKED: USER    (3) Torsional Free Energy           =  +1.49 kcal/mol
DOCKED: USER    (4) Unbound System's Energy         =  -1.30 kcal/mol
DOCKED: USER
DOCKED: USER
DOCKED: REMARK  5 active torsions:
DOCKED: REMARK  status: ('A' for Active; 'I' for Inactive)
DOCKED: REMARK    1  A    between atoms: C_2  and  C_19 
DOCKED: REMARK    2  A    between atoms: C_2  and  C_11 
DOCKED: REMARK    3  A    between atoms: C_19  and  C_20 
DOCKED: REMARK    4  A    between atoms: C_20  and  C_21 
DOCKED: REMARK    5  A    between atoms: C_21  and  N_22 
DOCKED: USER                              x       y       z     vdW  Elec       q    Type
DOCKED: USER                           _______ _______ _______ _____ _____    ______ ____
DOCKED: ROOT
DOCKED: ATOM      1  O   UNL     1     -45.827 -21.394  15.061 -0.08 -0.00    -0.346 OA 
DOCKED: ATOM      2  C   UNL     1     -46.959 -20.582  14.611 -0.14 +0.00    +0.130 C  
DOCKED: ATOM      3  C   UNL     1     -47.854 -21.568  13.916 -0.24 +0.00    +0.004 A  
DOCKED: ATOM      4  C   UNL     1     -47.335 -22.848  14.054 -0.24 +0.00    +0.006 A  
DOCKED: ATOM      5  C   UNL     1     -46.087 -22.801  14.847 -0.13 +0.00    +0.169 C  
DOCKED: ATOM      6  C   UNL     1     -49.039 -21.351  13.228 -0.28 -0.00    -0.001 A  
DOCKED: ATOM      7  C   UNL     1     -47.975 -23.947  13.508 -0.36 +0.00    +0.008 A  
DOCKED: ATOM      8  C   UNL     1     -49.694 -22.449  12.668 -0.31 +0.00    +0.010 A  
DOCKED: ATOM      9  C   UNL     1     -49.165 -23.740  12.808 -0.32 +0.00    +0.068 A  
DOCKED: ATOM     10  N   UNL     1     -50.409 -25.758  11.761 -2.38 -0.00    -0.191 NA 
DOCKED: ATOM     11  C   UNL     1     -49.850 -24.853  12.230 -0.36 +0.00    +0.101 C  
DOCKED: ENDROOT
DOCKED: BRANCH   2  12
DOCKED: ATOM     12  C   UNL     1     -47.612 -19.945  15.832 -0.06 +0.00    +0.038 C  
DOCKED: BRANCH  12  13
DOCKED: ATOM     13  C   UNL     1     -48.748 -20.812  16.371 -0.05 +0.00    +0.038 C  
DOCKED: BRANCH  13  14
DOCKED: ATOM     14  C   UNL     1     -48.266 -21.698  17.518 -0.02 +0.00    +0.251 C  
DOCKED: BRANCH  14  15
DOCKED: ATOM     15  N   UNL     1     -49.359 -22.527  18.013 -0.03 +0.00    +0.141 N  
DOCKED: ATOM     16  C   UNL     1     -50.650 -21.985  17.589 -0.01 +0.00    +0.285 C  
DOCKED: ATOM     17  C   UNL     1     -49.211 -23.907  17.550 -0.08 +0.00    +0.285 C  
DOCKED: ENDBRANCH  14  15
DOCKED: ENDBRANCH  13  14
DOCKED: ENDBRANCH  12  13
DOCKED: ENDBRANCH   2  12
DOCKED: BRANCH   2  18
DOCKED: ATOM     18  C   UNL     1     -46.412 -19.544  13.689 -0.16 +0.00    +0.006 A  
DOCKED: ATOM     19  C   UNL     1     -45.098 -19.639  13.234 -0.08 +0.00    +0.001 A  
DOCKED: ATOM     20  C   UNL     1     -44.587 -18.667  12.373 -0.11 +0.00    +0.029 A  
DOCKED: ATOM     21  C   UNL     1     -45.392 -17.603  11.968 -0.08 +0.00    +0.140 A  
DOCKED: ATOM     22  C   UNL     1     -46.706 -17.509  12.423 -0.10 +0.00    +0.029 A  
DOCKED: ATOM     23  F   UNL     1     -44.902 -16.671  11.139 -0.01 -0.00    -0.204 F  
DOCKED: ATOM     24  C   UNL     1     -47.218 -18.480  13.285 -0.14 +0.00    +0.001 A  
DOCKED: ENDBRANCH   2  18
DOCKED: TORSDOF 5
DOCKED: TER
DOCKED: ENDMDL
________________________________________________________________________________


    FINAL DOCKED STATE:
    ________________________


Run:   38 / 512
Time taken for this run:   0.002s

DOCKED: MODEL        38
DOCKED: USER    Run = 38
DOCKED: USER
DOCKED: USER    Estimated Free Energy of Binding    =  -3.72 kcal/mol  [=(1)+(2)+(3)-(4)]
DOCKED: USER
DOCKED: USER    (1) Final Intermolecular Energy     =  -5.21 kcal/mol
DOCKED: USER        vdW + Hbond + desolv Energy     =  -5.21 kcal/mol
DOCKED: USER        Electrostatic Energy            =  +0.00 kcal/mol
DOCKED: USER        Moving Ligand-Fixed Receptor    =  -5.21 kcal/mol
DOCKED: USER        Moving Ligand-Moving Receptor   =  +0.00 kcal/mol
DOCKED: USER    (2) Final Total Internal Energy     =  -1.32 kcal/mol
DOCKED: USER    (3) Torsional Free Energy           =  +1.49 kcal/mol
DOCKED: USER    (4) Unbound System's Energy         =  -1.32 kcal/mol
DOCKED: USER
DOCKED: USER
DOCKED: REMARK  5 active torsions:
DOCKED: REMARK  status: ('A' for Active; 'I' for Inactive)
DOCKED: REMARK    1  A    between atoms: C_2  and  C_19 
DOCKED: REMARK    2  A    between atoms: C_2  and  C_11 
DOCKED: REMARK    3  A    between atoms: C_19  and  C_20 
DOCKED: REMARK    4  A    between atoms: C_20  and  C_21 
DOCKED: REMARK    5  A    between atoms: C_21  and  N_22 
DOCKED: USER                              x       y       z     vdW  Elec       q    Type
DOCKED: USER                           _______ _______ _______ _____ _____    ______ ____
DOCKED: ROOT
DOCKED: ATOM      1  O   UNL     1     -41.882 -10.783   4.879 -0.03 -0.00    -0.346 OA 
DOCKED: ATOM      2  C   UNL     1     -41.850 -10.625   3.424 -0.10 +0.00    +0.130 C  
DOCKED: ATOM      3  C   UNL     1     -43.191 -11.131   2.978 -0.07 +0.00    +0.004 A  
DOCKED: ATOM      4  C   UNL     1     -43.964 -11.446   4.086 -0.25 +0.00    +0.006 A  
DOCKED: ATOM      5  C   UNL     1     -43.205 -11.163   5.325 -0.16 +0.00    +0.169 C  
DOCKED: ATOM      6  C   UNL     1     -43.691 -11.289   1.694 -0.16 -0.00    -0.001 A  
DOCKED: ATOM      7  C   UNL     1     -45.254 -11.931   3.951 -0.28 +0.00    +0.008 A  
DOCKED: ATOM      8  C   UNL     1     -44.988 -11.780   1.540 -0.33 +0.00    +0.010 A  
DOCKED: ATOM      9  C   UNL     1     -45.766 -12.099   2.664 -0.38 +0.00    +0.068 A  
DOCKED: ATOM     10  N   UNL     1     -48.172 -13.005   2.345 -2.35 -0.00    -0.191 NA 
DOCKED: ATOM     11  C   UNL     1     -47.093 -12.599   2.488 -0.34 +0.00    +0.101 C  
DOCKED: ENDROOT
DOCKED: BRANCH   2  12
DOCKED: ATOM     12  C   UNL     1     -41.634  -9.151   3.103 -0.16 +0.00    +0.038 C  
DOCKED: BRANCH  12  13
DOCKED: ATOM     13  C   UNL     1     -42.725  -8.281   3.725 -0.13 +0.00    +0.038 C  
DOCKED: BRANCH  13  14
DOCKED: ATOM     14  C   UNL     1     -42.119  -7.121   4.513 -0.08 +0.00    +0.251 C  
DOCKED: BRANCH  14  15
DOCKED: ATOM     15  N   UNL     1     -42.441  -7.248   5.930 -0.07 +0.00    +0.141 N  
DOCKED: ATOM     16  C   UNL     1     -43.861  -7.549   6.112 -0.16 +0.00    +0.285 C  
DOCKED: ATOM     17  C   UNL     1     -41.618  -8.285   6.555 -0.05 +0.00    +0.285 C  
DOCKED: ENDBRANCH  14  15
DOCKED: ENDBRANCH  13  14
DOCKED: ENDBRANCH  12  13
DOCKED: ENDBRANCH   2  12
DOCKED: BRANCH   2  18
DOCKED: ATOM     18  C   UNL     1     -40.717 -11.457   2.921 -0.04 +0.00    +0.006 A  
DOCKED: ATOM     19  C   UNL     1     -40.305 -12.579   3.638 -0.02 +0.00    +0.001 A  
DOCKED: ATOM     20  C   UNL     1     -39.246 -13.356   3.166 -0.00 +0.00    +0.029 A  
DOCKED: ATOM     21  C   UNL     1     -38.602 -13.010   1.979 +0.00 +0.00    +0.140 A  
DOCKED: ATOM     22  C   UNL     1     -39.016 -11.887   1.262 -0.01 +0.00    +0.029 A  
DOCKED: ATOM     23  F   UNL     1     -37.587 -13.756   1.525 +0.00 -0.00    -0.204 F  
DOCKED: ATOM     24  C   UNL     1     -40.074 -11.109   1.733 -0.04 +0.00    +0.001 A  
DOCKED: ENDBRANCH   2  18
DOCKED: TORSDOF 5
DOCKED: TER
DOCKED: ENDMDL
________________________________________________________________________________


    FINAL DOCKED STATE:
    ________________________


Run:   39 / 512
Time taken for this run:   0.002s

DOCKED: MODEL        39
DOCKED: USER    Run = 39
DOCKED: USER
DOCKED: USER    Estimated Free Energy of Binding    =  -5.40 kcal/mol  [=(1)+(2)+(3)-(4)]
DOCKED: USER
DOCKED: USER    (1) Final Intermolecular Energy     =  -6.89 kcal/mol
DOCKED: USER        vdW + Hbond + desolv Energy     =  -6.89 kcal/mol
DOCKED: USER        Electrostatic Energy            =  +0.00 kcal/mol
DOCKED: USER        Moving Ligand-Fixed Receptor    =  -6.89 kcal/mol
DOCKED: USER        Moving Ligand-Moving Receptor   =  +0.00 kcal/mol
DOCKED: USER    (2) Final Total Internal Energy     =  -1.36 kcal/mol
DOCKED: USER    (3) Torsional Free Energy           =  +1.49 kcal/mol
DOCKED: USER    (4) Unbound System's Energy         =  -1.36 kcal/mol
DOCKED: USER
DOCKED: USER
DOCKED: REMARK  5 active torsions:
DOCKED: REMARK  status: ('A' for Active; 'I' for Inactive)
DOCKED: REMARK    1  A    between atoms: C_2  and  C_19 
DOCKED: REMARK    2  A    between atoms: C_2  and  C_11 
DOCKED: REMARK    3  A    between atoms: C_19  and  C_20 
DOCKED: REMARK    4  A    between atoms: C_20  and  C_21 
DOCKED: REMARK    5  A    between atoms: C_21  and  N_22 
DOCKED: USER                              x       y       z     vdW  Elec       q    Type
DOCKED: USER                           _______ _______ _______ _____ _____    ______ ____
DOCKED: ROOT
DOCKED: ATOM      1  O   UNL     1     -47.915 -21.270  14.513 -0.06 -0.00    -0.346 OA 
DOCKED: ATOM      2  C   UNL     1     -47.695 -22.714  14.604 -0.22 +0.00    +0.130 C  
DOCKED: ATOM      3  C   UNL     1     -48.284 -23.249  13.331 -0.33 +0.00    +0.004 A  
DOCKED: ATOM      4  C   UNL     1     -48.705 -22.195  12.532 -0.31 +0.00    +0.006 A  
DOCKED: ATOM      5  C   UNL     1     -48.415 -20.909  13.205 -0.23 +0.00    +0.169 C  
DOCKED: ATOM      6  C   UNL     1     -48.427 -24.563  12.909 -0.42 -0.00    -0.001 A  
DOCKED: ATOM      7  C   UNL     1     -49.282 -22.415  11.294 -0.01 +0.00    +0.008 A  
DOCKED: ATOM      8  C   UNL     1     -49.012 -24.802  11.664 -0.47 +0.00    +0.010 A  
DOCKED: ATOM      9  C   UNL     1     -49.437 -23.733  10.860 -0.40 +0.00    +0.068 A  
DOCKED: ATOM     10  N   UNL     1     -50.514 -24.211   8.553 -2.76 -0.00    -0.191 NA 
DOCKED: ATOM     11  C   UNL     1     -50.031 -23.997   9.588 -0.47 +0.00    +0.101 C  
DOCKED: ENDROOT
DOCKED: BRANCH   2  12
DOCKED: ATOM     12  C   UNL     1     -46.196 -22.968  14.716 -0.19 +0.00    +0.038 C  
DOCKED: BRANCH  12  13
DOCKED: ATOM     13  C   UNL     1     -45.587 -22.199  15.887 -0.17 +0.00    +0.038 C  
DOCKED: BRANCH  13  14
DOCKED: ATOM     14  C   UNL     1     -45.336 -20.739  15.514 -0.07 +0.00    +0.251 C  
DOCKED: BRANCH  14  15
DOCKED: ATOM     15  N   UNL     1     -46.193 -19.860  16.301 -0.02 +0.00    +0.141 N  
DOCKED: ATOM     16  C   UNL     1     -46.365 -20.384  17.656 -0.01 +0.00    +0.285 C  
DOCKED: ATOM     17  C   UNL     1     -45.639 -18.506  16.346 -0.01 +0.00    +0.285 C  
DOCKED: ENDBRANCH  14  15
DOCKED: ENDBRANCH  13  14
DOCKED: ENDBRANCH  12  13
DOCKED: ENDBRANCH   2  12
DOCKED: BRANCH   2  18
DOCKED: ATOM     18  C   UNL     1     -48.414 -23.189  15.822 -0.15 +0.00    +0.006 A  
DOCKED: ATOM     19  C   UNL     1     -48.988 -22.267  16.696 -0.07 +0.00    +0.001 A  
DOCKED: ATOM     20  C   UNL     1     -49.659 -22.713  17.836 -0.05 +0.00    +0.029 A  
DOCKED: ATOM     21  C   UNL     1     -49.756 -24.078  18.098 -0.09 +0.00    +0.140 A  
DOCKED: ATOM     22  C   UNL     1     -49.182 -25.000  17.223 -0.12 +0.00    +0.029 A  
DOCKED: ATOM     23  F   UNL     1     -50.403 -24.506  19.191 -0.01 -0.00    -0.204 F  
DOCKED: ATOM     24  C   UNL     1     -48.510 -24.555  16.084 -0.25 +0.00    +0.001 A  
DOCKED: ENDBRANCH   2  18
DOCKED: TORSDOF 5
DOCKED: TER
DOCKED: ENDMDL
________________________________________________________________________________


    FINAL DOCKED STATE:
    ________________________


Run:   40 / 512
Time taken for this run:   0.002s

DOCKED: MODEL        40
DOCKED: USER    Run = 40
DOCKED: USER
DOCKED: USER    Estimated Free Energy of Binding    =  -4.40 kcal/mol  [=(1)+(2)+(3)-(4)]
DOCKED: USER
DOCKED: USER    (1) Final Intermolecular Energy     =  -5.90 kcal/mol
DOCKED: USER        vdW + Hbond + desolv Energy     =  -5.90 kcal/mol
DOCKED: USER        Electrostatic Energy            =  +0.00 kcal/mol
DOCKED: USER        Moving Ligand-Fixed Receptor    =  -5.90 kcal/mol
DOCKED: USER        Moving Ligand-Moving Receptor   =  +0.00 kcal/mol
DOCKED: USER    (2) Final Total Internal Energy     =  -1.29 kcal/mol
DOCKED: USER    (3) Torsional Free Energy           =  +1.49 kcal/mol
DOCKED: USER    (4) Unbound System's Energy         =  -1.29 kcal/mol
DOCKED: USER
DOCKED: USER
DOCKED: REMARK  5 active torsions:
DOCKED: REMARK  status: ('A' for Active; 'I' for Inactive)
DOCKED: REMARK    1  A    between atoms: C_2  and  C_19 
DOCKED: REMARK    2  A    between atoms: C_2  and  C_11 
DOCKED: REMARK    3  A    between atoms: C_19  and  C_20 
DOCKED: REMARK    4  A    between atoms: C_20  and  C_21 
DOCKED: REMARK    5  A    between atoms: C_21  and  N_22 
DOCKED: USER                              x       y       z     vdW  Elec       q    Type
DOCKED: USER                           _______ _______ _______ _____ _____    ______ ____
DOCKED: ROOT
DOCKED: ATOM      1  O   UNL     1     -47.899 -18.910  13.722 -0.06 -0.00    -0.346 OA 
DOCKED: ATOM      2  C   UNL     1     -49.313 -18.939  14.096 -0.15 +0.00    +0.130 C  
DOCKED: ATOM      3  C   UNL     1     -49.761 -20.317  13.704 -0.22 +0.00    +0.004 A  
DOCKED: ATOM      4  C   UNL     1     -48.674 -21.050  13.249 -0.27 +0.00    +0.006 A  
DOCKED: ATOM      5  C   UNL     1     -47.447 -20.224  13.318 -0.19 +0.00    +0.169 C  
DOCKED: ATOM      6  C   UNL     1     -51.027 -20.882  13.758 -0.22 -0.00    -0.001 A  
DOCKED: ATOM      7  C   UNL     1     -48.814 -22.361  12.829 -0.34 +0.00    +0.008 A  
DOCKED: ATOM      8  C   UNL     1     -51.185 -22.202  13.334 -0.22 +0.00    +0.010 A  
DOCKED: ATOM      9  C   UNL     1     -50.084 -22.938  12.872 -0.26 +0.00    +0.068 A  
DOCKED: ATOM     10  N   UNL     1     -50.411 -25.389  12.097 -2.56 -0.00    -0.191 NA 
DOCKED: ATOM     11  C   UNL     1     -50.264 -24.290  12.444 -0.36 +0.00    +0.101 C  
DOCKED: ENDROOT
DOCKED: BRANCH   2  12
DOCKED: ATOM     12  C   UNL     1     -49.421 -18.684  15.595 -0.05 +0.00    +0.038 C  
DOCKED: BRANCH  12  13
DOCKED: ATOM     13  C   UNL     1     -49.238 -17.203  15.923 -0.02 +0.00    +0.038 C  
DOCKED: BRANCH  13  14
DOCKED: ATOM     14  C   UNL     1     -47.810 -16.748  15.629 -0.01 +0.00    +0.251 C  
DOCKED: BRANCH  14  15
DOCKED: ATOM     15  N   UNL     1     -46.874 -17.392  16.544 -0.00 +0.00    +0.141 N  
DOCKED: ATOM     16  C   UNL     1     -45.669 -17.820  15.832 -0.01 +0.00    +0.285 C  
DOCKED: ATOM     17  C   UNL     1     -46.522 -16.489  17.641 -0.00 +0.00    +0.285 C  
DOCKED: ENDBRANCH  14  15
DOCKED: ENDBRANCH  13  14
DOCKED: ENDBRANCH  12  13
DOCKED: ENDBRANCH   2  12
DOCKED: BRANCH   2  18
DOCKED: ATOM     18  C   UNL     1     -49.993 -17.863  13.317 -0.19 +0.00    +0.006 A  
DOCKED: ATOM     19  C   UNL     1     -51.372 -17.689  13.426 -0.21 +0.00    +0.001 A  
DOCKED: ATOM     20  C   UNL     1     -52.007 -16.683  12.697 -0.14 +0.00    +0.029 A  
DOCKED: ATOM     21  C   UNL     1     -51.262 -15.853  11.860 -0.09 +0.00    +0.140 A  
DOCKED: ATOM     22  C   UNL     1     -49.882 -16.027  11.752 -0.16 +0.00    +0.029 A  
DOCKED: ATOM     23  F   UNL     1     -51.871 -14.886  11.162 -0.03 -0.00    -0.204 F  
DOCKED: ATOM     24  C   UNL     1     -49.247 -17.034  12.481 -0.15 +0.00    +0.001 A  
DOCKED: ENDBRANCH   2  18
DOCKED: TORSDOF 5
DOCKED: TER
DOCKED: ENDMDL
________________________________________________________________________________


    FINAL DOCKED STATE:
    ________________________


Run:   41 / 512
Time taken for this run:   0.002s

DOCKED: MODEL        41
DOCKED: USER    Run = 41
DOCKED: USER
DOCKED: USER    Estimated Free Energy of Binding    =  -3.80 kcal/mol  [=(1)+(2)+(3)-(4)]
DOCKED: USER
DOCKED: USER    (1) Final Intermolecular Energy     =  -5.29 kcal/mol
DOCKED: USER        vdW + Hbond + desolv Energy     =  -5.29 kcal/mol
DOCKED: USER        Electrostatic Energy            =  +0.00 kcal/mol
DOCKED: USER        Moving Ligand-Fixed Receptor    =  -5.29 kcal/mol
DOCKED: USER        Moving Ligand-Moving Receptor   =  +0.00 kcal/mol
DOCKED: USER    (2) Final Total Internal Energy     =  -1.53 kcal/mol
DOCKED: USER    (3) Torsional Free Energy           =  +1.49 kcal/mol
DOCKED: USER    (4) Unbound System's Energy         =  -1.53 kcal/mol
DOCKED: USER
DOCKED: USER
DOCKED: REMARK  5 active torsions:
DOCKED: REMARK  status: ('A' for Active; 'I' for Inactive)
DOCKED: REMARK    1  A    between atoms: C_2  and  C_19 
DOCKED: REMARK    2  A    between atoms: C_2  and  C_11 
DOCKED: REMARK    3  A    between atoms: C_19  and  C_20 
DOCKED: REMARK    4  A    between atoms: C_20  and  C_21 
DOCKED: REMARK    5  A    between atoms: C_21  and  N_22 
DOCKED: USER                              x       y       z     vdW  Elec       q    Type
DOCKED: USER                           _______ _______ _______ _____ _____    ______ ____
DOCKED: ROOT
DOCKED: ATOM      1  O   UNL     1     -50.053 -24.517  14.166 -0.68 -0.00    -0.346 OA 
DOCKED: ATOM      2  C   UNL     1     -49.056 -23.446  14.193 -0.22 +0.00    +0.130 C  
DOCKED: ATOM      3  C   UNL     1     -48.417 -23.583  15.544 -0.20 +0.00    +0.004 A  
DOCKED: ATOM      4  C   UNL     1     -48.925 -24.701  16.190 -0.25 +0.00    +0.006 A  
DOCKED: ATOM      5  C   UNL     1     -49.911 -25.380  15.319 -0.09 +0.00    +0.169 C  
DOCKED: ATOM      6  C   UNL     1     -47.455 -22.788  16.149 -0.14 -0.00    -0.001 A  
DOCKED: ATOM      7  C   UNL     1     -48.495 -25.060  17.456 -0.23 +0.00    +0.008 A  
DOCKED: ATOM      8  C   UNL     1     -47.014 -23.133  17.428 -0.12 +0.00    +0.010 A  
DOCKED: ATOM      9  C   UNL     1     -47.531 -24.264  18.078 -0.16 +0.00    +0.068 A  
DOCKED: ATOM     10  N   UNL     1     -46.687 -24.880  20.449 -0.06 -0.00    -0.191 NA 
DOCKED: ATOM     11  C   UNL     1     -47.066 -24.604  19.385 -0.16 +0.00    +0.101 C  
DOCKED: ENDROOT
DOCKED: BRANCH   2  12
DOCKED: ATOM     12  C   UNL     1     -48.076 -23.670  13.047 -0.37 +0.00    +0.038 C  
DOCKED: BRANCH  12  13
DOCKED: ATOM     13  C   UNL     1     -48.224 -25.069  12.454 -0.40 +0.00    +0.038 C  
DOCKED: BRANCH  13  14
DOCKED: ATOM     14  C   UNL     1     -49.109 -25.048  11.209 -0.24 +0.00    +0.251 C  
DOCKED: BRANCH  14  15
DOCKED: ATOM     15  N   UNL     1     -49.872 -23.807  11.151 -0.35 +0.00    +0.141 N  
DOCKED: ATOM     16  C   UNL     1     -49.665 -23.133   9.868 -0.21 +0.00    +0.285 C  
DOCKED: ATOM     17  C   UNL     1     -51.297 -24.067  11.363 -0.14 +0.00    +0.285 C  
DOCKED: ENDBRANCH  14  15
DOCKED: ENDBRANCH  13  14
DOCKED: ENDBRANCH  12  13
DOCKED: ENDBRANCH   2  12
DOCKED: BRANCH   2  18
DOCKED: ATOM     18  C   UNL     1     -49.794 -22.160  14.026 -0.20 +0.00    +0.006 A  
DOCKED: ATOM     19  C   UNL     1     -51.132 -22.069  14.410 -0.16 +0.00    +0.001 A  
DOCKED: ATOM     20  C   UNL     1     -51.821 -20.866  14.253 -0.18 +0.00    +0.029 A  
DOCKED: ATOM     21  C   UNL     1     -51.172 -19.756  13.715 -0.18 +0.00    +0.140 A  
DOCKED: ATOM     22  C   UNL     1     -49.834 -19.847  13.331 -0.20 +0.00    +0.029 A  
DOCKED: ATOM     23  F   UNL     1     -51.833 -18.600  13.566 -0.08 -0.00    -0.204 F  
DOCKED: ATOM     24  C   UNL     1     -49.144 -21.050  13.487 -0.25 +0.00    +0.001 A  
DOCKED: ENDBRANCH   2  18
DOCKED: TORSDOF 5
DOCKED: TER
DOCKED: ENDMDL
________________________________________________________________________________


    FINAL DOCKED STATE:
    ________________________


Run:   42 / 512
Time taken for this run:   0.002s

DOCKED: MODEL        42
DOCKED: USER    Run = 42
DOCKED: USER
DOCKED: USER    Estimated Free Energy of Binding    =  -4.05 kcal/mol  [=(1)+(2)+(3)-(4)]
DOCKED: USER
DOCKED: USER    (1) Final Intermolecular Energy     =  -5.54 kcal/mol
DOCKED: USER        vdW + Hbond + desolv Energy     =  -5.54 kcal/mol
DOCKED: USER        Electrostatic Energy            =  +0.00 kcal/mol
DOCKED: USER        Moving Ligand-Fixed Receptor    =  -5.54 kcal/mol
DOCKED: USER        Moving Ligand-Moving Receptor   =  +0.00 kcal/mol
DOCKED: USER    (2) Final Total Internal Energy     =  -1.15 kcal/mol
DOCKED: USER    (3) Torsional Free Energy           =  +1.49 kcal/mol
DOCKED: USER    (4) Unbound System's Energy         =  -1.15 kcal/mol
DOCKED: USER
DOCKED: USER
DOCKED: REMARK  5 active torsions:
DOCKED: REMARK  status: ('A' for Active; 'I' for Inactive)
DOCKED: REMARK    1  A    between atoms: C_2  and  C_19 
DOCKED: REMARK    2  A    between atoms: C_2  and  C_11 
DOCKED: REMARK    3  A    between atoms: C_19  and  C_20 
DOCKED: REMARK    4  A    between atoms: C_20  and  C_21 
DOCKED: REMARK    5  A    between atoms: C_21  and  N_22 
DOCKED: USER                              x       y       z     vdW  Elec       q    Type
DOCKED: USER                           _______ _______ _______ _____ _____    ______ ____
DOCKED: ROOT
DOCKED: ATOM      1  O   UNL     1     -47.201 -23.355  17.584 -0.05 -0.00    -0.346 OA 
DOCKED: ATOM      2  C   UNL     1     -46.730 -22.521  16.477 -0.11 +0.00    +0.130 C  
DOCKED: ATOM      3  C   UNL     1     -47.499 -23.029  15.292 -0.21 +0.00    +0.004 A  
DOCKED: ATOM      4  C   UNL     1     -48.410 -23.991  15.703 -0.22 +0.00    +0.006 A  
DOCKED: ATOM      5  C   UNL     1     -48.318 -24.175  17.169 -0.16 +0.00    +0.169 C  
DOCKED: ATOM      6  C   UNL     1     -47.407 -22.660  13.957 -0.25 -0.00    -0.001 A  
DOCKED: ATOM      7  C   UNL     1     -49.253 -24.617  14.801 -0.27 +0.00    +0.008 A  
DOCKED: ATOM      8  C   UNL     1     -48.248 -23.286  13.035 -0.33 +0.00    +0.010 A  
DOCKED: ATOM      9  C   UNL     1     -49.166 -24.259  13.455 -0.28 +0.00    +0.068 A  
DOCKED: ATOM     10  N   UNL     1     -50.715 -25.397  11.718 -2.07 -0.00    -0.191 NA 
DOCKED: ATOM     11  C   UNL     1     -50.020 -24.887  12.497 -0.26 +0.00    +0.101 C  
DOCKED: ENDROOT
DOCKED: BRANCH   2  12
DOCKED: ATOM     12  C   UNL     1     -47.037 -21.065  16.804 -0.05 +0.00    +0.038 C  
DOCKED: BRANCH  12  13
DOCKED: ATOM     13  C   UNL     1     -46.109 -20.116  16.048 -0.06 +0.00    +0.038 C  
DOCKED: BRANCH  13  14
DOCKED: ATOM     14  C   UNL     1     -46.907 -19.091  15.245 -0.04 +0.00    +0.251 C  
DOCKED: BRANCH  14  15
DOCKED: ATOM     15  N   UNL     1     -47.350 -19.669  13.982 -0.13 +0.00    +0.141 N  
DOCKED: ATOM     16  C   UNL     1     -48.689 -19.190  13.637 -0.13 +0.00    +0.285 C  
DOCKED: ATOM     17  C   UNL     1     -46.405 -19.350  12.910 -0.12 +0.00    +0.285 C  
DOCKED: ENDBRANCH  14  15
DOCKED: ENDBRANCH  13  14
DOCKED: ENDBRANCH  12  13
DOCKED: ENDBRANCH   2  12
DOCKED: BRANCH   2  18
DOCKED: ATOM     18  C   UNL     1     -45.260 -22.747  16.356 -0.14 +0.00    +0.006 A  
DOCKED: ATOM     19  C   UNL     1     -44.492 -22.963  17.500 -0.10 +0.00    +0.001 A  
DOCKED: ATOM     20  C   UNL     1     -43.117 -23.174  17.386 -0.10 +0.00    +0.029 A  
DOCKED: ATOM     21  C   UNL     1     -42.513 -23.170  16.130 -0.09 +0.00    +0.140 A  
DOCKED: ATOM     22  C   UNL     1     -43.282 -22.955  14.986 -0.18 +0.00    +0.029 A  
DOCKED: ATOM     23  F   UNL     1     -41.194 -23.374  16.020 -0.00 -0.00    -0.204 F  
DOCKED: ATOM     24  C   UNL     1     -44.657 -22.743  15.099 -0.18 +0.00    +0.001 A  
DOCKED: ENDBRANCH   2  18
DOCKED: TORSDOF 5
DOCKED: TER
DOCKED: ENDMDL
________________________________________________________________________________


    FINAL DOCKED STATE:
    ________________________


Run:   43 / 512
Time taken for this run:   0.002s

DOCKED: MODEL        43
DOCKED: USER    Run = 43
DOCKED: USER
DOCKED: USER    Estimated Free Energy of Binding    =  -3.65 kcal/mol  [=(1)+(2)+(3)-(4)]
DOCKED: USER
DOCKED: USER    (1) Final Intermolecular Energy     =  -5.14 kcal/mol
DOCKED: USER        vdW + Hbond + desolv Energy     =  -5.14 kcal/mol
DOCKED: USER        Electrostatic Energy            =  +0.00 kcal/mol
DOCKED: USER        Moving Ligand-Fixed Receptor    =  -5.14 kcal/mol
DOCKED: USER        Moving Ligand-Moving Receptor   =  +0.00 kcal/mol
DOCKED: USER    (2) Final Total Internal Energy     =  -1.36 kcal/mol
DOCKED: USER    (3) Torsional Free Energy           =  +1.49 kcal/mol
DOCKED: USER    (4) Unbound System's Energy         =  -1.36 kcal/mol
DOCKED: USER
DOCKED: USER
DOCKED: REMARK  5 active torsions:
DOCKED: REMARK  status: ('A' for Active; 'I' for Inactive)
DOCKED: REMARK    1  A    between atoms: C_2  and  C_19 
DOCKED: REMARK    2  A    between atoms: C_2  and  C_11 
DOCKED: REMARK    3  A    between atoms: C_19  and  C_20 
DOCKED: REMARK    4  A    between atoms: C_20  and  C_21 
DOCKED: REMARK    5  A    between atoms: C_21  and  N_22 
DOCKED: USER                              x       y       z     vdW  Elec       q    Type
DOCKED: USER                           _______ _______ _______ _____ _____    ______ ____
DOCKED: ROOT
DOCKED: ATOM      1  O   UNL     1     -42.356 -18.776   8.514 +0.00 -0.00    -0.346 OA 
DOCKED: ATOM      2  C   UNL     1     -43.570 -19.409   7.995 -0.14 +0.00    +0.130 C  
DOCKED: ATOM      3  C   UNL     1     -43.451 -20.837   8.443 -0.24 +0.00    +0.004 A  
DOCKED: ATOM      4  C   UNL     1     -42.325 -20.984   9.241 -0.15 +0.00    +0.006 A  
DOCKED: ATOM      5  C   UNL     1     -41.638 -19.681   9.385 -0.04 +0.00    +0.169 C  
DOCKED: ATOM      6  C   UNL     1     -44.280 -21.917   8.175 -0.27 -0.00    -0.001 A  
DOCKED: ATOM      7  C   UNL     1     -41.987 -22.208   9.791 -0.19 +0.00    +0.008 A  
DOCKED: ATOM      8  C   UNL     1     -43.950 -23.159   8.720 -0.11 +0.00    +0.010 A  
DOCKED: ATOM      9  C   UNL     1     -42.810 -23.303   9.524 -0.25 +0.00    +0.068 A  
DOCKED: ATOM     10  N   UNL     1     -42.229 -25.622  10.524 -1.66 -0.00    -0.191 NA 
DOCKED: ATOM     11  C   UNL     1     -42.489 -24.582  10.075 -0.36 +0.00    +0.101 C  
DOCKED: ENDROOT
DOCKED: BRANCH   2  12
DOCKED: ATOM     12  C   UNL     1     -44.778 -18.698   8.594 -0.20 +0.00    +0.038 C  
DOCKED: BRANCH  12  13
DOCKED: ATOM     13  C   UNL     1     -44.917 -18.996  10.085 -0.18 +0.00    +0.038 C  
DOCKED: BRANCH  13  14
DOCKED: ATOM     14  C   UNL     1     -44.190 -17.948  10.926 -0.07 +0.00    +0.251 C  
DOCKED: BRANCH  14  15
DOCKED: ATOM     15  N   UNL     1     -43.933 -16.752  10.133 -0.03 +0.00    +0.141 N  
DOCKED: ATOM     16  C   UNL     1     -45.027 -15.791  10.279 -0.05 +0.00    +0.285 C  
DOCKED: ATOM     17  C   UNL     1     -42.662 -16.139  10.523 -0.01 +0.00    +0.285 C  
DOCKED: ENDBRANCH  14  15
DOCKED: ENDBRANCH  13  14
DOCKED: ENDBRANCH  12  13
DOCKED: ENDBRANCH   2  12
DOCKED: BRANCH   2  18
DOCKED: ATOM     18  C   UNL     1     -43.540 -19.260   6.511 -0.18 +0.00    +0.006 A  
DOCKED: ATOM     19  C   UNL     1     -42.905 -20.223   5.727 -0.17 +0.00    +0.001 A  
DOCKED: ATOM     20  C   UNL     1     -42.877 -20.083   4.339 -0.20 +0.00    +0.029 A  
DOCKED: ATOM     21  C   UNL     1     -43.483 -18.981   3.737 -0.20 +0.00    +0.140 A  
DOCKED: ATOM     22  C   UNL     1     -44.117 -18.018   4.521 -0.21 +0.00    +0.029 A  
DOCKED: ATOM     23  F   UNL     1     -43.457 -18.848   2.404 -0.07 -0.00    -0.204 F  
DOCKED: ATOM     24  C   UNL     1     -44.145 -18.157   5.910 -0.18 +0.00    +0.001 A  
DOCKED: ENDBRANCH   2  18
DOCKED: TORSDOF 5
DOCKED: TER
DOCKED: ENDMDL
________________________________________________________________________________


    FINAL DOCKED STATE:
    ________________________


Run:   44 / 512
Time taken for this run:   0.002s

DOCKED: MODEL        44
DOCKED: USER    Run = 44
DOCKED: USER
DOCKED: USER    Estimated Free Energy of Binding    =  -4.45 kcal/mol  [=(1)+(2)+(3)-(4)]
DOCKED: USER
DOCKED: USER    (1) Final Intermolecular Energy     =  -5.94 kcal/mol
DOCKED: USER        vdW + Hbond + desolv Energy     =  -5.94 kcal/mol
DOCKED: USER        Electrostatic Energy            =  +0.00 kcal/mol
DOCKED: USER        Moving Ligand-Fixed Receptor    =  -5.94 kcal/mol
DOCKED: USER        Moving Ligand-Moving Receptor   =  +0.00 kcal/mol
DOCKED: USER    (2) Final Total Internal Energy     =  -1.02 kcal/mol
DOCKED: USER    (3) Torsional Free Energy           =  +1.49 kcal/mol
DOCKED: USER    (4) Unbound System's Energy         =  -1.02 kcal/mol
DOCKED: USER
DOCKED: USER
DOCKED: REMARK  5 active torsions:
DOCKED: REMARK  status: ('A' for Active; 'I' for Inactive)
DOCKED: REMARK    1  A    between atoms: C_2  and  C_19 
DOCKED: REMARK    2  A    between atoms: C_2  and  C_11 
DOCKED: REMARK    3  A    between atoms: C_19  and  C_20 
DOCKED: REMARK    4  A    between atoms: C_20  and  C_21 
DOCKED: REMARK    5  A    between atoms: C_21  and  N_22 
DOCKED: USER                              x       y       z     vdW  Elec       q    Type
DOCKED: USER                           _______ _______ _______ _____ _____    ______ ____
DOCKED: ROOT
DOCKED: ATOM      1  O   UNL     1     -48.010 -19.069  13.450 -0.08 -0.00    -0.346 OA 
DOCKED: ATOM      2  C   UNL     1     -49.248 -19.303  14.194 -0.15 +0.00    +0.130 C  
DOCKED: ATOM      3  C   UNL     1     -49.621 -20.713  13.836 -0.22 +0.00    +0.004 A  
DOCKED: ATOM      4  C   UNL     1     -48.627 -21.273  13.046 -0.28 +0.00    +0.006 A  
DOCKED: ATOM      5  C   UNL     1     -47.537 -20.292  12.840 -0.08 +0.00    +0.169 C  
DOCKED: ATOM      6  C   UNL     1     -50.744 -21.445  14.191 -0.18 -0.00    -0.001 A  
DOCKED: ATOM      7  C   UNL     1     -48.722 -22.574  12.583 -0.33 +0.00    +0.008 A  
DOCKED: ATOM      8  C   UNL     1     -50.857 -22.757  13.728 -0.21 +0.00    +0.010 A  
DOCKED: ATOM      9  C   UNL     1     -49.850 -23.319  12.928 -0.27 +0.00    +0.068 A  
DOCKED: ATOM     10  N   UNL     1     -50.089 -25.758  12.090 -2.61 -0.00    -0.191 NA 
DOCKED: ATOM     11  C   UNL     1     -49.982 -24.664  12.465 -0.36 +0.00    +0.101 C  
DOCKED: ENDROOT
DOCKED: BRANCH   2  12
DOCKED: ATOM     12  C   UNL     1     -48.959 -19.125  15.680 -0.05 +0.00    +0.038 C  
DOCKED: BRANCH  12  13
DOCKED: ATOM     13  C   UNL     1     -47.488 -19.384  15.996 -0.04 +0.00    +0.038 C  
DOCKED: BRANCH  13  14
DOCKED: ATOM     14  C   UNL     1     -47.235 -20.868  16.257 -0.03 +0.00    +0.251 C  
DOCKED: BRANCH  14  15
DOCKED: ATOM     15  N   UNL     1     -47.348 -21.159  17.682 -0.02 +0.00    +0.141 N  
DOCKED: ATOM     16  C   UNL     1     -46.845 -20.038  18.479 -0.00 +0.00    +0.285 C  
DOCKED: ATOM     17  C   UNL     1     -48.737 -21.452  18.040 -0.01 +0.00    +0.285 C  
DOCKED: ENDBRANCH  14  15
DOCKED: ENDBRANCH  13  14
DOCKED: ENDBRANCH  12  13
DOCKED: ENDBRANCH   2  12
DOCKED: BRANCH   2  18
DOCKED: ATOM     18  C   UNL     1     -50.242 -18.299  13.714 -0.19 +0.00    +0.006 A  
DOCKED: ATOM     19  C   UNL     1     -49.825 -17.014  13.371 -0.15 +0.00    +0.001 A  
DOCKED: ATOM     20  C   UNL     1     -50.756 -16.076  12.923 -0.14 +0.00    +0.029 A  
DOCKED: ATOM     21  C   UNL     1     -52.102 -16.425  12.818 -0.12 +0.00    +0.140 A  
DOCKED: ATOM     22  C   UNL     1     -52.518 -17.711  13.161 -0.18 +0.00    +0.029 A  
DOCKED: ATOM     23  F   UNL     1     -52.995 -15.525  12.386 -0.02 -0.00    -0.204 F  
DOCKED: ATOM     24  C   UNL     1     -51.588 -18.649  13.610 -0.23 +0.00    +0.001 A  
DOCKED: ENDBRANCH   2  18
DOCKED: TORSDOF 5
DOCKED: TER
DOCKED: ENDMDL
________________________________________________________________________________


    FINAL DOCKED STATE:
    ________________________


Run:   45 / 512
Time taken for this run:   0.002s

DOCKED: MODEL        45
DOCKED: USER    Run = 45
DOCKED: USER
DOCKED: USER    Estimated Free Energy of Binding    =  -4.58 kcal/mol  [=(1)+(2)+(3)-(4)]
DOCKED: USER
DOCKED: USER    (1) Final Intermolecular Energy     =  -6.07 kcal/mol
DOCKED: USER        vdW + Hbond + desolv Energy     =  -6.07 kcal/mol
DOCKED: USER        Electrostatic Energy            =  +0.00 kcal/mol
DOCKED: USER        Moving Ligand-Fixed Receptor    =  -6.07 kcal/mol
DOCKED: USER        Moving Ligand-Moving Receptor   =  +0.00 kcal/mol
DOCKED: USER    (2) Final Total Internal Energy     =  -1.58 kcal/mol
DOCKED: USER    (3) Torsional Free Energy           =  +1.49 kcal/mol
DOCKED: USER    (4) Unbound System's Energy         =  -1.58 kcal/mol
DOCKED: USER
DOCKED: USER
DOCKED: REMARK  5 active torsions:
DOCKED: REMARK  status: ('A' for Active; 'I' for Inactive)
DOCKED: REMARK    1  A    between atoms: C_2  and  C_19 
DOCKED: REMARK    2  A    between atoms: C_2  and  C_11 
DOCKED: REMARK    3  A    between atoms: C_19  and  C_20 
DOCKED: REMARK    4  A    between atoms: C_20  and  C_21 
DOCKED: REMARK    5  A    between atoms: C_21  and  N_22 
DOCKED: USER                              x       y       z     vdW  Elec       q    Type
DOCKED: USER                           _______ _______ _______ _____ _____    ______ ____
DOCKED: ROOT
DOCKED: ATOM      1  O   UNL     1     -45.937 -15.608   7.589 -0.08 -0.00    -0.346 OA 
DOCKED: ATOM      2  C   UNL     1     -44.662 -15.203   6.994 -0.15 +0.00    +0.130 C  
DOCKED: ATOM      3  C   UNL     1     -45.063 -14.501   5.729 -0.23 +0.00    +0.004 A  
DOCKED: ATOM      4  C   UNL     1     -46.446 -14.413   5.662 -0.27 +0.00    +0.006 A  
DOCKED: ATOM      5  C   UNL     1     -47.048 -15.031   6.865 -0.24 +0.00    +0.169 C  
DOCKED: ATOM      6  C   UNL     1     -44.267 -13.971   4.724 -0.19 -0.00    -0.001 A  
DOCKED: ATOM      7  C   UNL     1     -47.079 -13.802   4.593 -0.36 +0.00    +0.008 A  
DOCKED: ATOM      8  C   UNL     1     -44.890 -13.356   3.637 -0.26 +0.00    +0.010 A  
DOCKED: ATOM      9  C   UNL     1     -46.288 -13.271   3.572 -0.32 +0.00    +0.068 A  
DOCKED: ATOM     10  N   UNL     1     -47.412 -12.116   1.543 -2.48 -0.00    -0.191 NA 
DOCKED: ATOM     11  C   UNL     1     -46.908 -12.635   2.453 -0.41 +0.00    +0.101 C  
DOCKED: ENDROOT
DOCKED: BRANCH   2  12
DOCKED: ATOM     12  C   UNL     1     -43.939 -14.289   7.977 -0.14 +0.00    +0.038 C  
DOCKED: BRANCH  12  13
DOCKED: ATOM     13  C   UNL     1     -44.438 -14.501   9.405 -0.15 +0.00    +0.038 C  
DOCKED: BRANCH  13  14
DOCKED: ATOM     14  C   UNL     1     -43.888 -15.798   9.993 -0.04 +0.00    +0.251 C  
DOCKED: BRANCH  14  15
DOCKED: ATOM     15  N   UNL     1     -44.898 -16.848   9.940 -0.06 +0.00    +0.141 N  
DOCKED: ATOM     16  C   UNL     1     -44.404 -18.073  10.571 -0.07 +0.00    +0.285 C  
DOCKED: ATOM     17  C   UNL     1     -46.135 -16.407  10.588 -0.06 +0.00    +0.285 C  
DOCKED: ENDBRANCH  14  15
DOCKED: ENDBRANCH  13  14
DOCKED: ENDBRANCH  12  13
DOCKED: ENDBRANCH   2  12
DOCKED: BRANCH   2  18
DOCKED: ATOM     18  C   UNL     1     -43.882 -16.450   6.745 -0.09 +0.00    +0.006 A  
DOCKED: ATOM     19  C   UNL     1     -44.547 -17.645   6.472 -0.17 +0.00    +0.001 A  
DOCKED: ATOM     20  C   UNL     1     -43.816 -18.811   6.239 -0.17 +0.00    +0.029 A  
DOCKED: ATOM     21  C   UNL     1     -42.423 -18.780   6.279 -0.06 +0.00    +0.140 A  
DOCKED: ATOM     22  C   UNL     1     -41.759 -17.585   6.551 -0.01 +0.00    +0.029 A  
DOCKED: ATOM     23  F   UNL     1     -41.722 -19.899   6.053 -0.02 -0.00    -0.204 F  
DOCKED: ATOM     24  C   UNL     1     -42.489 -16.418   6.785 -0.03 +0.00    +0.001 A  
DOCKED: ENDBRANCH   2  18
DOCKED: TORSDOF 5
DOCKED: TER
DOCKED: ENDMDL
________________________________________________________________________________


    FINAL DOCKED STATE:
    ________________________


Run:   46 / 512
Time taken for this run:   0.002s

DOCKED: MODEL        46
DOCKED: USER    Run = 46
DOCKED: USER
DOCKED: USER    Estimated Free Energy of Binding    =  -3.22 kcal/mol  [=(1)+(2)+(3)-(4)]
DOCKED: USER
DOCKED: USER    (1) Final Intermolecular Energy     =  -4.71 kcal/mol
DOCKED: USER        vdW + Hbond + desolv Energy     =  -4.71 kcal/mol
DOCKED: USER        Electrostatic Energy            =  +0.00 kcal/mol
DOCKED: USER        Moving Ligand-Fixed Receptor    =  -4.71 kcal/mol
DOCKED: USER        Moving Ligand-Moving Receptor   =  +0.00 kcal/mol
DOCKED: USER    (2) Final Total Internal Energy     =  -1.47 kcal/mol
DOCKED: USER    (3) Torsional Free Energy           =  +1.49 kcal/mol
DOCKED: USER    (4) Unbound System's Energy         =  -1.47 kcal/mol
DOCKED: USER
DOCKED: USER
DOCKED: REMARK  5 active torsions:
DOCKED: REMARK  status: ('A' for Active; 'I' for Inactive)
DOCKED: REMARK    1  A    between atoms: C_2  and  C_19 
DOCKED: REMARK    2  A    between atoms: C_2  and  C_11 
DOCKED: REMARK    3  A    between atoms: C_19  and  C_20 
DOCKED: REMARK    4  A    between atoms: C_20  and  C_21 
DOCKED: REMARK    5  A    between atoms: C_21  and  N_22 
DOCKED: USER                              x       y       z     vdW  Elec       q    Type
DOCKED: USER                           _______ _______ _______ _____ _____    ______ ____
DOCKED: ROOT
DOCKED: ATOM      1  O   UNL     1     -41.240 -12.243  -1.250 +0.00 -0.00    -0.346 OA 
DOCKED: ATOM      2  C   UNL     1     -41.109 -11.853   0.154 -0.06 +0.00    +0.130 C  
DOCKED: ATOM      3  C   UNL     1     -42.521 -11.867   0.665 -0.14 +0.00    +0.004 A  
DOCKED: ATOM      4  C   UNL     1     -43.372 -12.332  -0.328 -0.18 +0.00    +0.006 A  
DOCKED: ATOM      5  C   UNL     1     -42.593 -12.664  -1.542 -0.08 +0.00    +0.169 C  
DOCKED: ATOM      6  C   UNL     1     -43.011 -11.508   1.912 -0.18 -0.00    -0.001 A  
DOCKED: ATOM      7  C   UNL     1     -44.734 -12.449  -0.112 -0.28 +0.00    +0.008 A  
DOCKED: ATOM      8  C   UNL     1     -44.384 -11.617   2.144 -0.25 +0.00    +0.010 A  
DOCKED: ATOM      9  C   UNL     1     -45.240 -12.086   1.136 -0.31 +0.00    +0.068 A  
DOCKED: ATOM     10  N   UNL     1     -47.782 -12.280   1.601 -2.54 -0.00    -0.191 NA 
DOCKED: ATOM     11  C   UNL     1     -46.642 -12.193   1.392 -0.25 +0.00    +0.101 C  
DOCKED: ENDROOT
DOCKED: BRANCH   2  12
DOCKED: ATOM     12  C   UNL     1     -40.214 -12.867   0.856 -0.02 +0.00    +0.038 C  
DOCKED: BRANCH  12  13
DOCKED: ATOM     13  C   UNL     1     -39.350 -13.634  -0.144 -0.01 +0.00    +0.038 C  
DOCKED: BRANCH  13  14
DOCKED: ATOM     14  C   UNL     1     -38.248 -12.743  -0.714 +0.00 +0.00    +0.251 C  
DOCKED: BRANCH  14  15
DOCKED: ATOM     15  N   UNL     1     -38.016 -13.058  -2.118 -0.00 +0.00    +0.141 N  
DOCKED: ATOM     16  C   UNL     1     -38.449 -14.424  -2.419 +0.00 +0.00    +0.285 C  
DOCKED: ATOM     17  C   UNL     1     -38.712 -12.104  -2.983 +0.01 +0.00    +0.285 C  
DOCKED: ENDBRANCH  14  15
DOCKED: ENDBRANCH  13  14
DOCKED: ENDBRANCH  12  13
DOCKED: ENDBRANCH   2  12
DOCKED: BRANCH   2  18
DOCKED: ATOM     18  C   UNL     1     -40.497 -10.492   0.174 -0.08 +0.00    +0.006 A  
DOCKED: ATOM     19  C   UNL     1     -40.094  -9.926   1.382 -0.07 +0.00    +0.001 A  
DOCKED: ATOM     20  C   UNL     1     -39.523  -8.653   1.399 -0.05 +0.00    +0.029 A  
DOCKED: ATOM     21  C   UNL     1     -39.355  -7.948   0.208 -0.04 +0.00    +0.140 A  
DOCKED: ATOM     22  C   UNL     1     -39.758  -8.515  -1.001 -0.08 +0.00    +0.029 A  
DOCKED: ATOM     23  F   UNL     1     -38.805  -6.727   0.224 +0.00 -0.00    -0.204 F  
DOCKED: ATOM     24  C   UNL     1     -40.331  -9.788  -1.019 -0.10 +0.00    +0.001 A  
DOCKED: ENDBRANCH   2  18
DOCKED: TORSDOF 5
DOCKED: TER
DOCKED: ENDMDL
________________________________________________________________________________


    FINAL DOCKED STATE:
    ________________________


Run:   47 / 512
Time taken for this run:   0.002s

DOCKED: MODEL        47
DOCKED: USER    Run = 47
DOCKED: USER
DOCKED: USER    Estimated Free Energy of Binding    =  -5.92 kcal/mol  [=(1)+(2)+(3)-(4)]
DOCKED: USER
DOCKED: USER    (1) Final Intermolecular Energy     =  -7.41 kcal/mol
DOCKED: USER        vdW + Hbond + desolv Energy     =  -7.41 kcal/mol
DOCKED: USER        Electrostatic Energy            =  +0.00 kcal/mol
DOCKED: USER        Moving Ligand-Fixed Receptor    =  -7.41 kcal/mol
DOCKED: USER        Moving Ligand-Moving Receptor   =  +0.00 kcal/mol
DOCKED: USER    (2) Final Total Internal Energy     =  -1.17 kcal/mol
DOCKED: USER    (3) Torsional Free Energy           =  +1.49 kcal/mol
DOCKED: USER    (4) Unbound System's Energy         =  -1.17 kcal/mol
DOCKED: USER
DOCKED: USER
DOCKED: REMARK  5 active torsions:
DOCKED: REMARK  status: ('A' for Active; 'I' for Inactive)
DOCKED: REMARK    1  A    between atoms: C_2  and  C_19 
DOCKED: REMARK    2  A    between atoms: C_2  and  C_11 
DOCKED: REMARK    3  A    between atoms: C_19  and  C_20 
DOCKED: REMARK    4  A    between atoms: C_20  and  C_21 
DOCKED: REMARK    5  A    between atoms: C_21  and  N_22 
DOCKED: USER                              x       y       z     vdW  Elec       q    Type
DOCKED: USER                           _______ _______ _______ _____ _____    ______ ____
DOCKED: ROOT
DOCKED: ATOM      1  O   UNL     1     -47.722 -24.501  14.574 -0.22 -0.00    -0.346 OA 
DOCKED: ATOM      2  C   UNL     1     -49.064 -23.932  14.707 -0.22 +0.00    +0.130 C  
DOCKED: ATOM      3  C   UNL     1     -49.590 -23.920  13.301 -0.31 +0.00    +0.004 A  
DOCKED: ATOM      4  C   UNL     1     -48.675 -24.530  12.455 -0.44 +0.00    +0.006 A  
DOCKED: ATOM      5  C   UNL     1     -47.503 -24.993  13.232 -0.27 +0.00    +0.169 C  
DOCKED: ATOM      6  C   UNL     1     -50.788 -23.420  12.812 -0.29 -0.00    -0.001 A  
DOCKED: ATOM      7  C   UNL     1     -48.921 -24.657  11.098 -0.38 +0.00    +0.008 A  
DOCKED: ATOM      8  C   UNL     1     -51.049 -23.536  11.446 -0.31 +0.00    +0.010 A  
DOCKED: ATOM      9  C   UNL     1     -50.121 -24.152  10.593 -0.44 +0.00    +0.068 A  
DOCKED: ATOM     10  N   UNL     1     -50.639 -24.356   8.063 -3.09 -0.00    -0.191 NA 
DOCKED: ATOM     11  C   UNL     1     -50.406 -24.264   9.198 -0.29 +0.00    +0.101 C  
DOCKED: ENDROOT
DOCKED: BRANCH   2  12
DOCKED: ATOM     12  C   UNL     1     -49.877 -24.825  15.637 -0.27 +0.00    +0.038 C  
DOCKED: BRANCH  12  13
DOCKED: ATOM     13  C   UNL     1     -51.174 -24.144  16.069 -0.18 +0.00    +0.038 C  
DOCKED: BRANCH  13  14
DOCKED: ATOM     14  C   UNL     1     -51.198 -23.915  17.580 -0.06 +0.00    +0.251 C  
DOCKED: BRANCH  14  15
DOCKED: ATOM     15  N   UNL     1     -49.884 -24.180  18.154 -0.10 +0.00    +0.141 N  
DOCKED: ATOM     16  C   UNL     1     -49.426 -23.035  18.942 -0.02 +0.00    +0.285 C  
DOCKED: ATOM     17  C   UNL     1     -49.917 -25.386  18.982 -0.06 +0.00    +0.285 C  
DOCKED: ENDBRANCH  14  15
DOCKED: ENDBRANCH  13  14
DOCKED: ENDBRANCH  12  13
DOCKED: ENDBRANCH   2  12
DOCKED: BRANCH   2  18
DOCKED: ATOM     18  C   UNL     1     -48.903 -22.563  15.279 -0.13 +0.00    +0.006 A  
DOCKED: ATOM     19  C   UNL     1     -49.807 -21.556  14.942 -0.11 +0.00    +0.001 A  
DOCKED: ATOM     20  C   UNL     1     -49.655 -20.277  15.477 -0.06 +0.00    +0.029 A  
DOCKED: ATOM     21  C   UNL     1     -48.601 -20.006  16.349 -0.02 +0.00    +0.140 A  
DOCKED: ATOM     22  C   UNL     1     -47.697 -21.014  16.686 -0.04 +0.00    +0.029 A  
DOCKED: ATOM     23  F   UNL     1     -48.456 -18.778  16.864 +0.00 -0.00    -0.204 F  
DOCKED: ATOM     24  C   UNL     1     -47.848 -22.294  16.150 -0.11 +0.00    +0.001 A  
DOCKED: ENDBRANCH   2  18
DOCKED: TORSDOF 5
DOCKED: TER
DOCKED: ENDMDL
________________________________________________________________________________


    FINAL DOCKED STATE:
    ________________________


Run:   48 / 512
Time taken for this run:   0.002s

DOCKED: MODEL        48
DOCKED: USER    Run = 48
DOCKED: USER
DOCKED: USER    Estimated Free Energy of Binding    =  -4.01 kcal/mol  [=(1)+(2)+(3)-(4)]
DOCKED: USER
DOCKED: USER    (1) Final Intermolecular Energy     =  -5.50 kcal/mol
DOCKED: USER        vdW + Hbond + desolv Energy     =  -5.50 kcal/mol
DOCKED: USER        Electrostatic Energy            =  +0.00 kcal/mol
DOCKED: USER        Moving Ligand-Fixed Receptor    =  -5.50 kcal/mol
DOCKED: USER        Moving Ligand-Moving Receptor   =  +0.00 kcal/mol
DOCKED: USER    (2) Final Total Internal Energy     =  -1.05 kcal/mol
DOCKED: USER    (3) Torsional Free Energy           =  +1.49 kcal/mol
DOCKED: USER    (4) Unbound System's Energy         =  -1.05 kcal/mol
DOCKED: USER
DOCKED: USER
DOCKED: REMARK  5 active torsions:
DOCKED: REMARK  status: ('A' for Active; 'I' for Inactive)
DOCKED: REMARK    1  A    between atoms: C_2  and  C_19 
DOCKED: REMARK    2  A    between atoms: C_2  and  C_11 
DOCKED: REMARK    3  A    between atoms: C_19  and  C_20 
DOCKED: REMARK    4  A    between atoms: C_20  and  C_21 
DOCKED: REMARK    5  A    between atoms: C_21  and  N_22 
DOCKED: USER                              x       y       z     vdW  Elec       q    Type
DOCKED: USER                           _______ _______ _______ _____ _____    ______ ____
DOCKED: ROOT
DOCKED: ATOM      1  O   UNL     1     -47.716 -20.936  15.187 -0.03 -0.00    -0.346 OA 
DOCKED: ATOM      2  C   UNL     1     -46.980 -22.202  15.158 -0.17 +0.00    +0.130 C  
DOCKED: ATOM      3  C   UNL     1     -47.632 -22.971  14.046 -0.28 +0.00    +0.004 A  
DOCKED: ATOM      4  C   UNL     1     -48.582 -22.175  13.421 -0.30 +0.00    +0.006 A  
DOCKED: ATOM      5  C   UNL     1     -48.615 -20.839  14.058 -0.18 +0.00    +0.169 C  
DOCKED: ATOM      6  C   UNL     1     -47.396 -24.268  13.615 -0.33 -0.00    -0.001 A  
DOCKED: ATOM      7  C   UNL     1     -49.326 -22.645  12.353 -0.35 +0.00    +0.008 A  
DOCKED: ATOM      8  C   UNL     1     -48.142 -24.758  12.541 -0.35 +0.00    +0.010 A  
DOCKED: ATOM      9  C   UNL     1     -49.102 -23.951  11.914 -0.37 +0.00    +0.068 A  
DOCKED: ATOM     10  N   UNL     1     -50.466 -24.890   9.921 -1.19 -0.00    -0.191 NA 
DOCKED: ATOM     11  C   UNL     1     -49.854 -24.469  10.815 -0.51 +0.00    +0.101 C  
DOCKED: ENDROOT
DOCKED: BRANCH   2  12
DOCKED: ATOM     12  C   UNL     1     -45.511 -21.900  14.889 -0.12 +0.00    +0.038 C  
DOCKED: BRANCH  12  13
DOCKED: ATOM     13  C   UNL     1     -44.641 -23.139  15.094 -0.14 +0.00    +0.038 C  
DOCKED: BRANCH  13  14
DOCKED: ATOM     14  C   UNL     1     -43.586 -22.897  16.172 -0.10 +0.00    +0.251 C  
DOCKED: BRANCH  14  15
DOCKED: ATOM     15  N   UNL     1     -42.863 -24.131  16.458 -0.12 +0.00    +0.141 N  
DOCKED: ATOM     16  C   UNL     1     -41.450 -23.996  16.098 -0.07 +0.00    +0.285 C  
DOCKED: ATOM     17  C   UNL     1     -42.994 -24.489  17.871 -0.09 +0.00    +0.285 C  
DOCKED: ENDBRANCH  14  15
DOCKED: ENDBRANCH  13  14
DOCKED: ENDBRANCH  12  13
DOCKED: ENDBRANCH   2  12
DOCKED: BRANCH   2  18
DOCKED: ATOM     18  C   UNL     1     -47.163 -22.842  16.494 -0.13 +0.00    +0.006 A  
DOCKED: ATOM     19  C   UNL     1     -48.014 -23.938  16.630 -0.18 +0.00    +0.001 A  
DOCKED: ATOM     20  C   UNL     1     -48.184 -24.536  17.879 -0.21 +0.00    +0.029 A  
DOCKED: ATOM     21  C   UNL     1     -47.502 -24.039  18.989 -0.10 +0.00    +0.140 A  
DOCKED: ATOM     22  C   UNL     1     -46.651 -22.943  18.852 -0.07 +0.00    +0.029 A  
DOCKED: ATOM     23  F   UNL     1     -47.664 -24.614  20.188 -0.01 -0.00    -0.204 F  
DOCKED: ATOM     24  C   UNL     1     -46.481 -22.344  17.603 -0.08 +0.00    +0.001 A  
DOCKED: ENDBRANCH   2  18
DOCKED: TORSDOF 5
DOCKED: TER
DOCKED: ENDMDL
________________________________________________________________________________


    FINAL DOCKED STATE:
    ________________________


Run:   49 / 512
Time taken for this run:   0.002s

DOCKED: MODEL        49
DOCKED: USER    Run = 49
DOCKED: USER
DOCKED: USER    Estimated Free Energy of Binding    =  -3.96 kcal/mol  [=(1)+(2)+(3)-(4)]
DOCKED: USER
DOCKED: USER    (1) Final Intermolecular Energy     =  -5.45 kcal/mol
DOCKED: USER        vdW + Hbond + desolv Energy     =  -5.45 kcal/mol
DOCKED: USER        Electrostatic Energy            =  +0.00 kcal/mol
DOCKED: USER        Moving Ligand-Fixed Receptor    =  -5.45 kcal/mol
DOCKED: USER        Moving Ligand-Moving Receptor   =  +0.00 kcal/mol
DOCKED: USER    (2) Final Total Internal Energy     =  -1.41 kcal/mol
DOCKED: USER    (3) Torsional Free Energy           =  +1.49 kcal/mol
DOCKED: USER    (4) Unbound System's Energy         =  -1.41 kcal/mol
DOCKED: USER
DOCKED: USER
DOCKED: REMARK  5 active torsions:
DOCKED: REMARK  status: ('A' for Active; 'I' for Inactive)
DOCKED: REMARK    1  A    between atoms: C_2  and  C_19 
DOCKED: REMARK    2  A    between atoms: C_2  and  C_11 
DOCKED: REMARK    3  A    between atoms: C_19  and  C_20 
DOCKED: REMARK    4  A    between atoms: C_20  and  C_21 
DOCKED: REMARK    5  A    between atoms: C_21  and  N_22 
DOCKED: USER                              x       y       z     vdW  Elec       q    Type
DOCKED: USER                           _______ _______ _______ _____ _____    ______ ____
DOCKED: ROOT
DOCKED: ATOM      1  O   UNL     1     -45.881 -21.503  15.371 -0.07 -0.00    -0.346 OA 
DOCKED: ATOM      2  C   UNL     1     -47.209 -20.895  15.462 -0.09 +0.00    +0.130 C  
DOCKED: ATOM      3  C   UNL     1     -48.088 -21.832  14.685 -0.18 +0.00    +0.004 A  
DOCKED: ATOM      4  C   UNL     1     -47.350 -22.935  14.279 -0.26 +0.00    +0.006 A  
DOCKED: ATOM      5  C   UNL     1     -45.956 -22.813  14.763 -0.09 +0.00    +0.169 C  
DOCKED: ATOM      6  C   UNL     1     -49.435 -21.723  14.372 -0.17 -0.00    -0.001 A  
DOCKED: ATOM      7  C   UNL     1     -47.928 -23.959  13.548 -0.36 +0.00    +0.008 A  
DOCKED: ATOM      8  C   UNL     1     -50.031 -22.745  13.631 -0.23 +0.00    +0.010 A  
DOCKED: ATOM      9  C   UNL     1     -49.281 -23.857  13.222 -0.29 +0.00    +0.068 A  
DOCKED: ATOM     10  N   UNL     1     -50.419 -25.739  11.853 -2.41 -0.00    -0.191 NA 
DOCKED: ATOM     11  C   UNL     1     -49.909 -24.895  12.466 -0.27 +0.00    +0.101 C  
DOCKED: ENDROOT
DOCKED: BRANCH   2  12
DOCKED: ATOM     12  C   UNL     1     -47.596 -20.800  16.933 -0.04 +0.00    +0.038 C  
DOCKED: BRANCH  12  13
DOCKED: ATOM     13  C   UNL     1     -47.190 -22.058  17.698 -0.07 +0.00    +0.038 C  
DOCKED: BRANCH  13  14
DOCKED: ATOM     14  C   UNL     1     -48.416 -22.871  18.110 -0.04 +0.00    +0.251 C  
DOCKED: BRANCH  14  15
DOCKED: ATOM     15  N   UNL     1     -48.382 -24.190  17.490 -0.14 +0.00    +0.141 N  
DOCKED: ATOM     16  C   UNL     1     -48.122 -25.225  18.493 -0.16 +0.00    +0.285 C  
DOCKED: ATOM     17  C   UNL     1     -49.638 -24.464  16.792 -0.10 +0.00    +0.285 C  
DOCKED: ENDBRANCH  14  15
DOCKED: ENDBRANCH  13  14
DOCKED: ENDBRANCH  12  13
DOCKED: ENDBRANCH   2  12
DOCKED: BRANCH   2  18
DOCKED: ATOM     18  C   UNL     1     -47.112 -19.540  14.842 -0.09 +0.00    +0.006 A  
DOCKED: ATOM     19  C   UNL     1     -46.263 -19.330  13.756 -0.14 +0.00    +0.001 A  
DOCKED: ATOM     20  C   UNL     1     -46.174 -18.063  13.178 -0.11 +0.00    +0.029 A  
DOCKED: ATOM     21  C   UNL     1     -46.933 -17.010  13.686 -0.05 +0.00    +0.140 A  
DOCKED: ATOM     22  C   UNL     1     -47.782 -17.221  14.772 -0.04 +0.00    +0.029 A  
DOCKED: ATOM     23  F   UNL     1     -46.848 -15.794  13.130 -0.00 -0.00    -0.204 F  
DOCKED: ATOM     24  C   UNL     1     -47.872 -18.488  15.351 -0.04 +0.00    +0.001 A  
DOCKED: ENDBRANCH   2  18
DOCKED: TORSDOF 5
DOCKED: TER
DOCKED: ENDMDL
________________________________________________________________________________


    FINAL DOCKED STATE:
    ________________________


Run:   50 / 512
Time taken for this run:   0.002s

DOCKED: MODEL        50
DOCKED: USER    Run = 50
DOCKED: USER
DOCKED: USER    Estimated Free Energy of Binding    =  -4.13 kcal/mol  [=(1)+(2)+(3)-(4)]
DOCKED: USER
DOCKED: USER    (1) Final Intermolecular Energy     =  -5.62 kcal/mol
DOCKED: USER        vdW + Hbond + desolv Energy     =  -5.62 kcal/mol
DOCKED: USER        Electrostatic Energy            =  +0.00 kcal/mol
DOCKED: USER        Moving Ligand-Fixed Receptor    =  -5.62 kcal/mol
DOCKED: USER        Moving Ligand-Moving Receptor   =  +0.00 kcal/mol
DOCKED: USER    (2) Final Total Internal Energy     =  -1.16 kcal/mol
DOCKED: USER    (3) Torsional Free Energy           =  +1.49 kcal/mol
DOCKED: USER    (4) Unbound System's Energy         =  -1.16 kcal/mol
DOCKED: USER
DOCKED: USER
DOCKED: REMARK  5 active torsions:
DOCKED: REMARK  status: ('A' for Active; 'I' for Inactive)
DOCKED: REMARK    1  A    between atoms: C_2  and  C_19 
DOCKED: REMARK    2  A    between atoms: C_2  and  C_11 
DOCKED: REMARK    3  A    between atoms: C_19  and  C_20 
DOCKED: REMARK    4  A    between atoms: C_20  and  C_21 
DOCKED: REMARK    5  A    between atoms: C_21  and  N_22 
DOCKED: USER                              x       y       z     vdW  Elec       q    Type
DOCKED: USER                           _______ _______ _______ _____ _____    ______ ____
DOCKED: ROOT
DOCKED: ATOM      1  O   UNL     1     -39.892 -20.614   7.698 +0.01 -0.00    -0.346 OA 
DOCKED: ATOM      2  C   UNL     1     -41.306 -20.635   7.322 -0.06 +0.00    +0.130 C  
DOCKED: ATOM      3  C   UNL     1     -41.853 -21.831   8.047 -0.14 +0.00    +0.004 A  
DOCKED: ATOM      4  C   UNL     1     -40.865 -22.380   8.853 -0.09 +0.00    +0.006 A  
DOCKED: ATOM      5  C   UNL     1     -39.620 -21.590   8.730 -0.02 +0.00    +0.169 C  
DOCKED: ATOM      6  C   UNL     1     -43.125 -22.382   8.004 -0.27 -0.00    -0.001 A  
DOCKED: ATOM      7  C   UNL     1     -41.112 -23.494   9.637 -0.17 +0.00    +0.008 A  
DOCKED: ATOM      8  C   UNL     1     -43.388 -23.509   8.786 -0.30 +0.00    +0.010 A  
DOCKED: ATOM      9  C   UNL     1     -42.387 -24.061   9.598 -0.30 +0.00    +0.068 A  
DOCKED: ATOM     10  N   UNL     1     -42.910 -26.149  11.040 -2.67 -0.00    -0.191 NA 
DOCKED: ATOM     11  C   UNL     1     -42.675 -25.213  10.393 -0.27 +0.00    +0.101 C  
DOCKED: ENDROOT
DOCKED: BRANCH   2  12
DOCKED: ATOM     12  C   UNL     1     -41.945 -19.326   7.771 -0.05 +0.00    +0.038 C  
DOCKED: BRANCH  12  13
DOCKED: ATOM     13  C   UNL     1     -42.431 -19.411   9.217 -0.08 +0.00    +0.038 C  
DOCKED: BRANCH  13  14
DOCKED: ATOM     14  C   UNL     1     -43.937 -19.659   9.276 -0.13 +0.00    +0.251 C  
DOCKED: BRANCH  14  15
DOCKED: ATOM     15  N   UNL     1     -44.634 -18.774   8.351 -0.14 +0.00    +0.141 N  
DOCKED: ATOM     16  C   UNL     1     -45.929 -19.341   7.972 -0.17 +0.00    +0.285 C  
DOCKED: ATOM     17  C   UNL     1     -44.814 -17.448   8.942 -0.06 +0.00    +0.285 C  
DOCKED: ENDBRANCH  14  15
DOCKED: ENDBRANCH  13  14
DOCKED: ENDBRANCH  12  13
DOCKED: ENDBRANCH   2  12
DOCKED: BRANCH   2  18
DOCKED: ATOM     18  C   UNL     1     -41.361 -20.779   5.838 -0.09 +0.00    +0.006 A  
DOCKED: ATOM     19  C   UNL     1     -42.465 -20.304   5.132 -0.16 +0.00    +0.001 A  
DOCKED: ATOM     20  C   UNL     1     -42.515 -20.440   3.744 -0.20 +0.00    +0.029 A  
DOCKED: ATOM     21  C   UNL     1     -41.461 -21.050   3.064 -0.12 +0.00    +0.140 A  
DOCKED: ATOM     22  C   UNL     1     -40.357 -21.524   3.771 -0.07 +0.00    +0.029 A  
DOCKED: ATOM     23  F   UNL     1     -41.509 -21.178   1.732 -0.03 -0.00    -0.204 F  
DOCKED: ATOM     24  C   UNL     1     -40.306 -21.390   5.160 -0.06 +0.00    +0.001 A  
DOCKED: ENDBRANCH   2  18
DOCKED: TORSDOF 5
DOCKED: TER
DOCKED: ENDMDL
________________________________________________________________________________


    FINAL DOCKED STATE:
    ________________________


Run:   51 / 512
Time taken for this run:   0.002s

DOCKED: MODEL        51
DOCKED: USER    Run = 51
DOCKED: USER
DOCKED: USER    Estimated Free Energy of Binding    =  -4.14 kcal/mol  [=(1)+(2)+(3)-(4)]
DOCKED: USER
DOCKED: USER    (1) Final Intermolecular Energy     =  -5.63 kcal/mol
DOCKED: USER        vdW + Hbond + desolv Energy     =  -5.63 kcal/mol
DOCKED: USER        Electrostatic Energy            =  +0.00 kcal/mol
DOCKED: USER        Moving Ligand-Fixed Receptor    =  -5.63 kcal/mol
DOCKED: USER        Moving Ligand-Moving Receptor   =  +0.00 kcal/mol
DOCKED: USER    (2) Final Total Internal Energy     =  -1.26 kcal/mol
DOCKED: USER    (3) Torsional Free Energy           =  +1.49 kcal/mol
DOCKED: USER    (4) Unbound System's Energy         =  -1.26 kcal/mol
DOCKED: USER
DOCKED: USER
DOCKED: REMARK  5 active torsions:
DOCKED: REMARK  status: ('A' for Active; 'I' for Inactive)
DOCKED: REMARK    1  A    between atoms: C_2  and  C_19 
DOCKED: REMARK    2  A    between atoms: C_2  and  C_11 
DOCKED: REMARK    3  A    between atoms: C_19  and  C_20 
DOCKED: REMARK    4  A    between atoms: C_20  and  C_21 
DOCKED: REMARK    5  A    between atoms: C_21  and  N_22 
DOCKED: USER                              x       y       z     vdW  Elec       q    Type
DOCKED: USER                           _______ _______ _______ _____ _____    ______ ____
DOCKED: ROOT
DOCKED: ATOM      1  O   UNL     1     -47.638 -20.436  15.985 -0.01 -0.00    -0.346 OA 
DOCKED: ATOM      2  C   UNL     1     -47.639 -19.998  14.588 -0.12 +0.00    +0.130 C  
DOCKED: ATOM      3  C   UNL     1     -48.214 -21.169  13.845 -0.24 +0.00    +0.004 A  
DOCKED: ATOM      4  C   UNL     1     -48.609 -22.147  14.747 -0.16 +0.00    +0.006 A  
DOCKED: ATOM      5  C   UNL     1     -48.339 -21.693  16.130 -0.06 +0.00    +0.169 C  
DOCKED: ATOM      6  C   UNL     1     -48.384 -21.350  12.480 -0.08 -0.00    -0.001 A  
DOCKED: ATOM      7  C   UNL     1     -49.179 -23.333  14.320 -0.22 +0.00    +0.008 A  
DOCKED: ATOM      8  C   UNL     1     -48.954 -22.543  12.033 -0.32 +0.00    +0.010 A  
DOCKED: ATOM      9  C   UNL     1     -49.350 -23.529  12.949 -0.30 +0.00    +0.068 A  
DOCKED: ATOM     10  N   UNL     1     -50.410 -25.731  12.086 -2.54 -0.00    -0.191 NA 
DOCKED: ATOM     11  C   UNL     1     -49.934 -24.744  12.473 -0.33 +0.00    +0.101 C  
DOCKED: ENDROOT
DOCKED: BRANCH   2  12
DOCKED: ATOM     12  C   UNL     1     -48.499 -18.745  14.477 -0.11 +0.00    +0.038 C  
DOCKED: BRANCH  12  13
DOCKED: ATOM     13  C   UNL     1     -49.900 -19.074  13.966 -0.20 +0.00    +0.038 C  
DOCKED: BRANCH  13  14
DOCKED: ATOM     14  C   UNL     1     -50.853 -19.364  15.125 -0.05 +0.00    +0.251 C  
DOCKED: BRANCH  14  15
DOCKED: ATOM     15  N   UNL     1     -52.212 -19.551  14.630 -0.10 +0.00    +0.141 N  
DOCKED: ATOM     16  C   UNL     1     -52.250 -20.600  13.610 -0.12 +0.00    +0.285 C  
DOCKED: ATOM     17  C   UNL     1     -53.121 -19.878  15.729 -0.02 +0.00    +0.285 C  
DOCKED: ENDBRANCH  14  15
DOCKED: ENDBRANCH  13  14
DOCKED: ENDBRANCH  12  13
DOCKED: ENDBRANCH   2  12
DOCKED: BRANCH   2  18
DOCKED: ATOM     18  C   UNL     1     -46.222 -19.713  14.219 -0.13 +0.00    +0.006 A  
DOCKED: ATOM     19  C   UNL     1     -45.183 -20.249  14.979 -0.10 +0.00    +0.001 A  
DOCKED: ATOM     20  C   UNL     1     -43.858 -19.981  14.633 -0.08 +0.00    +0.029 A  
DOCKED: ATOM     21  C   UNL     1     -43.574 -19.180  13.527 -0.07 +0.00    +0.140 A  
DOCKED: ATOM     22  C   UNL     1     -44.614 -18.646  12.767 -0.10 +0.00    +0.029 A  
DOCKED: ATOM     23  F   UNL     1     -42.302 -18.926  13.194 -0.01 -0.00    -0.204 F  
DOCKED: ATOM     24  C   UNL     1     -45.939 -18.912  13.113 -0.15 +0.00    +0.001 A  
DOCKED: ENDBRANCH   2  18
DOCKED: TORSDOF 5
DOCKED: TER
DOCKED: ENDMDL
________________________________________________________________________________


    FINAL DOCKED STATE:
    ________________________


Run:   52 / 512
Time taken for this run:   0.002s

DOCKED: MODEL        52
DOCKED: USER    Run = 52
DOCKED: USER
DOCKED: USER    Estimated Free Energy of Binding    =  -4.13 kcal/mol  [=(1)+(2)+(3)-(4)]
DOCKED: USER
DOCKED: USER    (1) Final Intermolecular Energy     =  -5.62 kcal/mol
DOCKED: USER        vdW + Hbond + desolv Energy     =  -5.62 kcal/mol
DOCKED: USER        Electrostatic Energy            =  +0.00 kcal/mol
DOCKED: USER        Moving Ligand-Fixed Receptor    =  -5.62 kcal/mol
DOCKED: USER        Moving Ligand-Moving Receptor   =  +0.00 kcal/mol
DOCKED: USER    (2) Final Total Internal Energy     =  -1.38 kcal/mol
DOCKED: USER    (3) Torsional Free Energy           =  +1.49 kcal/mol
DOCKED: USER    (4) Unbound System's Energy         =  -1.38 kcal/mol
DOCKED: USER
DOCKED: USER
DOCKED: REMARK  5 active torsions:
DOCKED: REMARK  status: ('A' for Active; 'I' for Inactive)
DOCKED: REMARK    1  A    between atoms: C_2  and  C_19 
DOCKED: REMARK    2  A    between atoms: C_2  and  C_11 
DOCKED: REMARK    3  A    between atoms: C_19  and  C_20 
DOCKED: REMARK    4  A    between atoms: C_20  and  C_21 
DOCKED: REMARK    5  A    between atoms: C_21  and  N_22 
DOCKED: USER                              x       y       z     vdW  Elec       q    Type
DOCKED: USER                           _______ _______ _______ _____ _____    ______ ____
DOCKED: ROOT
DOCKED: ATOM      1  O   UNL     1     -46.318 -20.851  15.664 -0.04 -0.00    -0.346 OA 
DOCKED: ATOM      2  C   UNL     1     -47.062 -20.154  14.614 -0.12 +0.00    +0.130 C  
DOCKED: ATOM      3  C   UNL     1     -47.796 -21.255  13.903 -0.23 +0.00    +0.004 A  
DOCKED: ATOM      4  C   UNL     1     -47.578 -22.459  14.557 -0.23 +0.00    +0.006 A  
DOCKED: ATOM      5  C   UNL     1     -46.710 -22.242  15.735 -0.13 +0.00    +0.169 C  
DOCKED: ATOM      6  C   UNL     1     -48.600 -21.192  12.775 -0.22 -0.00    -0.001 A  
DOCKED: ATOM      7  C   UNL     1     -48.150 -23.637  14.107 -0.32 +0.00    +0.008 A  
DOCKED: ATOM      8  C   UNL     1     -49.181 -22.372  12.306 -0.33 +0.00    +0.010 A  
DOCKED: ATOM      9  C   UNL     1     -48.957 -23.588  12.969 -0.32 +0.00    +0.068 A  
DOCKED: ATOM     10  N   UNL     1     -50.053 -25.759  12.075 -2.60 -0.00    -0.191 NA 
DOCKED: ATOM     11  C   UNL     1     -49.561 -24.785  12.476 -0.30 +0.00    +0.101 C  
DOCKED: ENDROOT
DOCKED: BRANCH   2  12
DOCKED: ATOM     12  C   UNL     1     -47.997 -19.147  15.272 -0.07 +0.00    +0.038 C  
DOCKED: BRANCH  12  13
DOCKED: ATOM     13  C   UNL     1     -47.241 -17.898  15.724 -0.03 +0.00    +0.038 C  
DOCKED: BRANCH  13  14
DOCKED: ATOM     14  C   UNL     1     -46.259 -18.227  16.847 -0.00 +0.00    +0.251 C  
DOCKED: BRANCH  14  15
DOCKED: ATOM     15  N   UNL     1     -44.971 -17.590  16.598 -0.00 +0.00    +0.141 N  
DOCKED: ATOM     16  C   UNL     1     -45.154 -16.193  16.201 -0.00 +0.00    +0.285 C  
DOCKED: ATOM     17  C   UNL     1     -44.117 -17.673  17.783 -0.00 +0.00    +0.285 C  
DOCKED: ENDBRANCH  14  15
DOCKED: ENDBRANCH  13  14
DOCKED: ENDBRANCH  12  13
DOCKED: ENDBRANCH   2  12
DOCKED: BRANCH   2  18
DOCKED: ATOM     18  C   UNL     1     -46.057 -19.471  13.748 -0.14 +0.00    +0.006 A  
DOCKED: ATOM     19  C   UNL     1     -44.696 -19.701  13.944 -0.11 +0.00    +0.001 A  
DOCKED: ATOM     20  C   UNL     1     -43.758 -19.061  13.133 -0.09 +0.00    +0.029 A  
DOCKED: ATOM     21  C   UNL     1     -44.182 -18.193  12.128 -0.07 +0.00    +0.140 A  
DOCKED: ATOM     22  C   UNL     1     -45.543 -17.963  11.932 -0.12 +0.00    +0.029 A  
DOCKED: ATOM     23  F   UNL     1     -43.281 -17.580  11.349 -0.00 -0.00    -0.204 F  
DOCKED: ATOM     24  C   UNL     1     -46.483 -18.602  12.743 -0.15 +0.00    +0.001 A  
DOCKED: ENDBRANCH   2  18
DOCKED: TORSDOF 5
DOCKED: TER
DOCKED: ENDMDL
________________________________________________________________________________


    FINAL DOCKED STATE:
    ________________________


Run:   53 / 512
Time taken for this run:   0.002s

DOCKED: MODEL        53
DOCKED: USER    Run = 53
DOCKED: USER
DOCKED: USER    Estimated Free Energy of Binding    =  -4.71 kcal/mol  [=(1)+(2)+(3)-(4)]
DOCKED: USER
DOCKED: USER    (1) Final Intermolecular Energy     =  -6.20 kcal/mol
DOCKED: USER        vdW + Hbond + desolv Energy     =  -6.20 kcal/mol
DOCKED: USER        Electrostatic Energy            =  +0.00 kcal/mol
DOCKED: USER        Moving Ligand-Fixed Receptor    =  -6.20 kcal/mol
DOCKED: USER        Moving Ligand-Moving Receptor   =  +0.00 kcal/mol
DOCKED: USER    (2) Final Total Internal Energy     =  -1.18 kcal/mol
DOCKED: USER    (3) Torsional Free Energy           =  +1.49 kcal/mol
DOCKED: USER    (4) Unbound System's Energy         =  -1.18 kcal/mol
DOCKED: USER
DOCKED: USER
DOCKED: REMARK  5 active torsions:
DOCKED: REMARK  status: ('A' for Active; 'I' for Inactive)
DOCKED: REMARK    1  A    between atoms: C_2  and  C_19 
DOCKED: REMARK    2  A    between atoms: C_2  and  C_11 
DOCKED: REMARK    3  A    between atoms: C_19  and  C_20 
DOCKED: REMARK    4  A    between atoms: C_20  and  C_21 
DOCKED: REMARK    5  A    between atoms: C_21  and  N_22 
DOCKED: USER                              x       y       z     vdW  Elec       q    Type
DOCKED: USER                           _______ _______ _______ _____ _____    ______ ____
DOCKED: ROOT
DOCKED: ATOM      1  O   UNL     1     -48.171 -19.011  13.490 -0.08 -0.00    -0.346 OA 
DOCKED: ATOM      2  C   UNL     1     -49.392 -19.293  14.246 -0.15 +0.00    +0.130 C  
DOCKED: ATOM      3  C   UNL     1     -49.721 -20.712  13.881 -0.21 +0.00    +0.004 A  
DOCKED: ATOM      4  C   UNL     1     -48.717 -21.231  13.076 -0.27 +0.00    +0.006 A  
DOCKED: ATOM      5  C   UNL     1     -47.664 -20.213  12.866 -0.11 +0.00    +0.169 C  
DOCKED: ATOM      6  C   UNL     1     -50.815 -21.485  14.242 -0.18 -0.00    -0.001 A  
DOCKED: ATOM      7  C   UNL     1     -48.773 -22.531  12.602 -0.34 +0.00    +0.008 A  
DOCKED: ATOM      8  C   UNL     1     -50.888 -22.797  13.769 -0.20 +0.00    +0.010 A  
DOCKED: ATOM      9  C   UNL     1     -49.871 -23.317  12.954 -0.26 +0.00    +0.068 A  
DOCKED: ATOM     10  N   UNL     1     -50.035 -25.757  12.098 -2.62 -0.00    -0.191 NA 
DOCKED: ATOM     11  C   UNL     1     -49.962 -24.662  12.481 -0.36 +0.00    +0.101 C  
DOCKED: ENDROOT
DOCKED: BRANCH   2  12
DOCKED: ATOM     12  C   UNL     1     -49.094 -19.117  15.730 -0.05 +0.00    +0.038 C  
DOCKED: BRANCH  12  13
DOCKED: ATOM     13  C   UNL     1     -48.876 -20.463  16.419 -0.04 +0.00    +0.038 C  
DOCKED: BRANCH  13  14
DOCKED: ATOM     14  C   UNL     1     -47.480 -21.009  16.128 -0.04 +0.00    +0.251 C  
DOCKED: BRANCH  14  15
DOCKED: ATOM     15  N   UNL     1     -47.430 -22.442  16.394 -0.08 +0.00    +0.141 N  
DOCKED: ATOM     16  C   UNL     1     -46.891 -23.163  15.240 -0.12 +0.00    +0.285 C  
DOCKED: ATOM     17  C   UNL     1     -46.626 -22.718  17.586 -0.06 +0.00    +0.285 C  
DOCKED: ENDBRANCH  14  15
DOCKED: ENDBRANCH  13  14
DOCKED: ENDBRANCH  12  13
DOCKED: ENDBRANCH   2  12
DOCKED: BRANCH   2  18
DOCKED: ATOM     18  C   UNL     1     -50.426 -18.320  13.785 -0.20 +0.00    +0.006 A  
DOCKED: ATOM     19  C   UNL     1     -51.762 -18.505  14.137 -0.18 +0.00    +0.001 A  
DOCKED: ATOM     20  C   UNL     1     -52.728 -17.594  13.706 -0.17 +0.00    +0.029 A  
DOCKED: ATOM     21  C   UNL     1     -52.356 -16.502  12.924 -0.12 +0.00    +0.140 A  
DOCKED: ATOM     22  C   UNL     1     -51.019 -16.318  12.573 -0.16 +0.00    +0.029 A  
DOCKED: ATOM     23  F   UNL     1     -53.282 -15.627  12.511 -0.02 -0.00    -0.204 F  
DOCKED: ATOM     24  C   UNL     1     -50.052 -17.228  13.004 -0.18 +0.00    +0.001 A  
DOCKED: ENDBRANCH   2  18
DOCKED: TORSDOF 5
DOCKED: TER
DOCKED: ENDMDL
________________________________________________________________________________


    FINAL DOCKED STATE:
    ________________________


Run:   54 / 512
Time taken for this run:   0.002s

DOCKED: MODEL        54
DOCKED: USER    Run = 54
DOCKED: USER
DOCKED: USER    Estimated Free Energy of Binding    =  -4.22 kcal/mol  [=(1)+(2)+(3)-(4)]
DOCKED: USER
DOCKED: USER    (1) Final Intermolecular Energy     =  -5.71 kcal/mol
DOCKED: USER        vdW + Hbond + desolv Energy     =  -5.71 kcal/mol
DOCKED: USER        Electrostatic Energy            =  +0.00 kcal/mol
DOCKED: USER        Moving Ligand-Fixed Receptor    =  -5.71 kcal/mol
DOCKED: USER        Moving Ligand-Moving Receptor   =  +0.00 kcal/mol
DOCKED: USER    (2) Final Total Internal Energy     =  -1.23 kcal/mol
DOCKED: USER    (3) Torsional Free Energy           =  +1.49 kcal/mol
DOCKED: USER    (4) Unbound System's Energy         =  -1.23 kcal/mol
DOCKED: USER
DOCKED: USER
DOCKED: REMARK  5 active torsions:
DOCKED: REMARK  status: ('A' for Active; 'I' for Inactive)
DOCKED: REMARK    1  A    between atoms: C_2  and  C_19 
DOCKED: REMARK    2  A    between atoms: C_2  and  C_11 
DOCKED: REMARK    3  A    between atoms: C_19  and  C_20 
DOCKED: REMARK    4  A    between atoms: C_20  and  C_21 
DOCKED: REMARK    5  A    between atoms: C_21  and  N_22 
DOCKED: USER                              x       y       z     vdW  Elec       q    Type
DOCKED: USER                           _______ _______ _______ _____ _____    ______ ____
DOCKED: ROOT
DOCKED: ATOM      1  O   UNL     1     -45.904 -20.893  14.950 -0.07 -0.00    -0.346 OA 
DOCKED: ATOM      2  C   UNL     1     -47.055 -20.165  14.413 -0.14 +0.00    +0.130 C  
DOCKED: ATOM      3  C   UNL     1     -47.916 -21.242  13.818 -0.24 +0.00    +0.004 A  
DOCKED: ATOM      4  C   UNL     1     -47.361 -22.485  14.088 -0.23 +0.00    +0.006 A  
DOCKED: ATOM      5  C   UNL     1     -46.121 -22.321  14.879 -0.14 +0.00    +0.169 C  
DOCKED: ATOM      6  C   UNL     1     -49.100 -21.131  13.105 -0.26 -0.00    -0.001 A  
DOCKED: ATOM      7  C   UNL     1     -47.964 -23.653  13.654 -0.34 +0.00    +0.008 A  
DOCKED: ATOM      8  C   UNL     1     -49.719 -22.300  12.656 -0.29 +0.00    +0.010 A  
DOCKED: ATOM      9  C   UNL     1     -49.154 -23.554  12.930 -0.31 +0.00    +0.068 A  
DOCKED: ATOM     10  N   UNL     1     -50.330 -25.703  12.087 -2.55 -0.00    -0.191 NA 
DOCKED: ATOM     11  C   UNL     1     -49.802 -24.739  12.465 -0.33 +0.00    +0.101 C  
DOCKED: ENDROOT
DOCKED: BRANCH   2  12
DOCKED: ATOM     12  C   UNL     1     -47.737 -19.427  15.559 -0.06 +0.00    +0.038 C  
DOCKED: BRANCH  12  13
DOCKED: ATOM     13  C   UNL     1     -47.089 -19.761  16.901 -0.02 +0.00    +0.038 C  
DOCKED: BRANCH  13  14
DOCKED: ATOM     14  C   UNL     1     -48.124 -20.280  17.897 -0.00 +0.00    +0.251 C  
DOCKED: BRANCH  14  15
DOCKED: ATOM     15  N   UNL     1     -47.850 -21.672  18.234 -0.02 +0.00    +0.141 N  
DOCKED: ATOM     16  C   UNL     1     -46.414 -21.946  18.170 -0.03 +0.00    +0.285 C  
DOCKED: ATOM     17  C   UNL     1     -48.369 -21.992  19.565 -0.01 +0.00    +0.285 C  
DOCKED: ENDBRANCH  14  15
DOCKED: ENDBRANCH  13  14
DOCKED: ENDBRANCH  12  13
DOCKED: ENDBRANCH   2  12
DOCKED: BRANCH   2  18
DOCKED: ATOM     18  C   UNL     1     -46.531 -19.210  13.393 -0.16 +0.00    +0.006 A  
DOCKED: ATOM     19  C   UNL     1     -45.256 -19.393  12.858 -0.12 +0.00    +0.001 A  
DOCKED: ATOM     20  C   UNL     1     -44.767 -18.499  11.905 -0.12 +0.00    +0.029 A  
DOCKED: ATOM     21  C   UNL     1     -45.552 -17.425  11.488 -0.08 +0.00    +0.140 A  
DOCKED: ATOM     22  C   UNL     1     -46.827 -17.243  12.024 -0.07 +0.00    +0.029 A  
DOCKED: ATOM     23  F   UNL     1     -45.083 -16.568  10.572 -0.01 -0.00    -0.204 F  
DOCKED: ATOM     24  C   UNL     1     -47.317 -18.136  12.978 -0.12 +0.00    +0.001 A  
DOCKED: ENDBRANCH   2  18
DOCKED: TORSDOF 5
DOCKED: TER
DOCKED: ENDMDL
________________________________________________________________________________


    FINAL DOCKED STATE:
    ________________________


Run:   55 / 512
Time taken for this run:   0.002s

DOCKED: MODEL        55
DOCKED: USER    Run = 55
DOCKED: USER
DOCKED: USER    Estimated Free Energy of Binding    =  -4.41 kcal/mol  [=(1)+(2)+(3)-(4)]
DOCKED: USER
DOCKED: USER    (1) Final Intermolecular Energy     =  -5.90 kcal/mol
DOCKED: USER        vdW + Hbond + desolv Energy     =  -5.90 kcal/mol
DOCKED: USER        Electrostatic Energy            =  +0.00 kcal/mol
DOCKED: USER        Moving Ligand-Fixed Receptor    =  -5.90 kcal/mol
DOCKED: USER        Moving Ligand-Moving Receptor   =  +0.00 kcal/mol
DOCKED: USER    (2) Final Total Internal Energy     =  -1.30 kcal/mol
DOCKED: USER    (3) Torsional Free Energy           =  +1.49 kcal/mol
DOCKED: USER    (4) Unbound System's Energy         =  -1.30 kcal/mol
DOCKED: USER
DOCKED: USER
DOCKED: REMARK  5 active torsions:
DOCKED: REMARK  status: ('A' for Active; 'I' for Inactive)
DOCKED: REMARK    1  A    between atoms: C_2  and  C_19 
DOCKED: REMARK    2  A    between atoms: C_2  and  C_11 
DOCKED: REMARK    3  A    between atoms: C_19  and  C_20 
DOCKED: REMARK    4  A    between atoms: C_20  and  C_21 
DOCKED: REMARK    5  A    between atoms: C_21  and  N_22 
DOCKED: USER                              x       y       z     vdW  Elec       q    Type
DOCKED: USER                           _______ _______ _______ _____ _____    ______ ____
DOCKED: ROOT
DOCKED: ATOM      1  O   UNL     1     -47.979 -18.849  13.585 -0.07 -0.00    -0.346 OA 
DOCKED: ATOM      2  C   UNL     1     -49.348 -18.936  14.096 -0.15 +0.00    +0.130 C  
DOCKED: ATOM      3  C   UNL     1     -49.783 -20.324  13.726 -0.22 +0.00    +0.004 A  
DOCKED: ATOM      4  C   UNL     1     -48.720 -21.009  13.153 -0.26 +0.00    +0.006 A  
DOCKED: ATOM      5  C   UNL     1     -47.523 -20.139  13.116 -0.17 +0.00    +0.169 C  
DOCKED: ATOM      6  C   UNL     1     -51.016 -20.936  13.893 -0.21 -0.00    -0.001 A  
DOCKED: ATOM      7  C   UNL     1     -48.854 -22.319  12.725 -0.33 +0.00    +0.008 A  
DOCKED: ATOM      8  C   UNL     1     -51.168 -22.255  13.463 -0.22 +0.00    +0.010 A  
DOCKED: ATOM      9  C   UNL     1     -50.092 -22.943  12.882 -0.25 +0.00    +0.068 A  
DOCKED: ATOM     10  N   UNL     1     -50.407 -25.393  12.100 -2.56 -0.00    -0.191 NA 
DOCKED: ATOM     11  C   UNL     1     -50.266 -24.294  12.450 -0.36 +0.00    +0.101 C  
DOCKED: ENDROOT
DOCKED: BRANCH   2  12
DOCKED: ATOM     12  C   UNL     1     -49.316 -18.706  15.603 -0.05 +0.00    +0.038 C  
DOCKED: BRANCH  12  13
DOCKED: ATOM     13  C   UNL     1     -48.947 -17.262  15.938 -0.02 +0.00    +0.038 C  
DOCKED: BRANCH  13  14
DOCKED: ATOM     14  C   UNL     1     -49.951 -16.651  16.913 -0.00 +0.00    +0.251 C  
DOCKED: BRANCH  14  15
DOCKED: ATOM     15  N   UNL     1     -50.051 -15.211  16.702 -0.00 +0.00    +0.141 N  
DOCKED: ATOM     16  C   UNL     1     -49.420 -14.830  15.438 -0.00 +0.00    +0.285 C  
DOCKED: ATOM     17  C   UNL     1     -51.451 -14.783  16.720 +0.00 +0.00    +0.285 C  
DOCKED: ENDBRANCH  14  15
DOCKED: ENDBRANCH  13  14
DOCKED: ENDBRANCH  12  13
DOCKED: ENDBRANCH   2  12
DOCKED: BRANCH   2  18
DOCKED: ATOM     18  C   UNL     1     -50.139 -17.875  13.407 -0.19 +0.00    +0.006 A  
DOCKED: ATOM     19  C   UNL     1     -49.503 -16.975  12.553 -0.16 +0.00    +0.001 A  
DOCKED: ATOM     20  C   UNL     1     -50.244 -15.983  11.909 -0.15 +0.00    +0.029 A  
DOCKED: ATOM     21  C   UNL     1     -51.619 -15.893  12.119 -0.11 +0.00    +0.140 A  
DOCKED: ATOM     22  C   UNL     1     -52.255 -16.794  12.973 -0.17 +0.00    +0.029 A  
DOCKED: ATOM     23  F   UNL     1     -52.330 -14.943  11.499 -0.02 -0.00    -0.204 F  
DOCKED: ATOM     24  C   UNL     1     -51.515 -17.786  13.618 -0.20 +0.00    +0.001 A  
DOCKED: ENDBRANCH   2  18
DOCKED: TORSDOF 5
DOCKED: TER
DOCKED: ENDMDL
________________________________________________________________________________


    FINAL DOCKED STATE:
    ________________________


Run:   56 / 512
Time taken for this run:   0.002s

DOCKED: MODEL        56
DOCKED: USER    Run = 56
DOCKED: USER
DOCKED: USER    Estimated Free Energy of Binding    =  -4.08 kcal/mol  [=(1)+(2)+(3)-(4)]
DOCKED: USER
DOCKED: USER    (1) Final Intermolecular Energy     =  -5.57 kcal/mol
DOCKED: USER        vdW + Hbond + desolv Energy     =  -5.57 kcal/mol
DOCKED: USER        Electrostatic Energy            =  +0.00 kcal/mol
DOCKED: USER        Moving Ligand-Fixed Receptor    =  -5.57 kcal/mol
DOCKED: USER        Moving Ligand-Moving Receptor   =  +0.00 kcal/mol
DOCKED: USER    (2) Final Total Internal Energy     =  -1.12 kcal/mol
DOCKED: USER    (3) Torsional Free Energy           =  +1.49 kcal/mol
DOCKED: USER    (4) Unbound System's Energy         =  -1.12 kcal/mol
DOCKED: USER
DOCKED: USER
DOCKED: REMARK  5 active torsions:
DOCKED: REMARK  status: ('A' for Active; 'I' for Inactive)
DOCKED: REMARK    1  A    between atoms: C_2  and  C_19 
DOCKED: REMARK    2  A    between atoms: C_2  and  C_11 
DOCKED: REMARK    3  A    between atoms: C_19  and  C_20 
DOCKED: REMARK    4  A    between atoms: C_20  and  C_21 
DOCKED: REMARK    5  A    between atoms: C_21  and  N_22 
DOCKED: USER                              x       y       z     vdW  Elec       q    Type
DOCKED: USER                           _______ _______ _______ _____ _____    ______ ____
DOCKED: ROOT
DOCKED: ATOM      1  O   UNL     1     -49.341 -22.969  15.579 -0.01 -0.00    -0.346 OA 
DOCKED: ATOM      2  C   UNL     1     -48.766 -21.964  14.684 -0.14 +0.00    +0.130 C  
DOCKED: ATOM      3  C   UNL     1     -49.090 -22.478  13.311 -0.30 +0.00    +0.004 A  
DOCKED: ATOM      4  C   UNL     1     -49.876 -23.617  13.413 -0.28 +0.00    +0.006 A  
DOCKED: ATOM      5  C   UNL     1     -50.134 -23.924  14.838 -0.15 +0.00    +0.169 C  
DOCKED: ATOM      6  C   UNL     1     -48.728 -21.972  12.071 -0.12 -0.00    -0.001 A  
DOCKED: ATOM      7  C   UNL     1     -50.322 -24.289  12.287 -0.38 +0.00    +0.008 A  
DOCKED: ATOM      8  C   UNL     1     -49.166 -22.641  10.926 +0.11 +0.00    +0.010 A  
DOCKED: ATOM      9  C   UNL     1     -49.959 -23.793  11.034 -0.41 +0.00    +0.068 A  
DOCKED: ATOM     10  N   UNL     1     -50.758 -25.006   8.889 -1.86 -0.00    -0.191 NA 
DOCKED: ATOM     11  C   UNL     1     -50.399 -24.462   9.851 -0.39 +0.00    +0.101 C  
DOCKED: ENDROOT
DOCKED: BRANCH   2  12
DOCKED: ATOM     12  C   UNL     1     -49.419 -20.620  14.983 -0.12 +0.00    +0.038 C  
DOCKED: BRANCH  12  13
DOCKED: ATOM     13  C   UNL     1     -50.286 -20.149  13.817 -0.24 +0.00    +0.038 C  
DOCKED: BRANCH  13  14
DOCKED: ATOM     14  C   UNL     1     -51.508 -19.380  14.315 -0.13 +0.00    +0.251 C  
DOCKED: BRANCH  14  15
DOCKED: ATOM     15  N   UNL     1     -52.706 -20.203  14.200 -0.15 +0.00    +0.141 N  
DOCKED: ATOM     16  C   UNL     1     -52.388 -21.497  13.595 -0.13 +0.00    +0.285 C  
DOCKED: ATOM     17  C   UNL     1     -53.327 -20.395  15.512 -0.03 +0.00    +0.285 C  
DOCKED: ENDBRANCH  14  15
DOCKED: ENDBRANCH  13  14
DOCKED: ENDBRANCH  12  13
DOCKED: ENDBRANCH   2  12
DOCKED: BRANCH   2  18
DOCKED: ATOM     18  C   UNL     1     -47.300 -21.923  14.958 -0.18 +0.00    +0.006 A  
DOCKED: ATOM     19  C   UNL     1     -46.533 -20.856  14.490 -0.15 +0.00    +0.001 A  
DOCKED: ATOM     20  C   UNL     1     -45.162 -20.819  14.746 -0.12 +0.00    +0.029 A  
DOCKED: ATOM     21  C   UNL     1     -44.560 -21.847  15.471 -0.11 +0.00    +0.140 A  
DOCKED: ATOM     22  C   UNL     1     -45.328 -22.913  15.939 -0.08 +0.00    +0.029 A  
DOCKED: ATOM     23  F   UNL     1     -43.244 -21.810  15.718 -0.02 -0.00    -0.204 F  
DOCKED: ATOM     24  C   UNL     1     -46.699 -22.952  15.682 -0.18 +0.00    +0.001 A  
DOCKED: ENDBRANCH   2  18
DOCKED: TORSDOF 5
DOCKED: TER
DOCKED: ENDMDL
________________________________________________________________________________


    FINAL DOCKED STATE:
    ________________________


Run:   57 / 512
Time taken for this run:   0.002s

DOCKED: MODEL        57
DOCKED: USER    Run = 57
DOCKED: USER
DOCKED: USER    Estimated Free Energy of Binding    =  -4.07 kcal/mol  [=(1)+(2)+(3)-(4)]
DOCKED: USER
DOCKED: USER    (1) Final Intermolecular Energy     =  -5.56 kcal/mol
DOCKED: USER        vdW + Hbond + desolv Energy     =  -5.56 kcal/mol
DOCKED: USER        Electrostatic Energy            =  +0.00 kcal/mol
DOCKED: USER        Moving Ligand-Fixed Receptor    =  -5.56 kcal/mol
DOCKED: USER        Moving Ligand-Moving Receptor   =  +0.00 kcal/mol
DOCKED: USER    (2) Final Total Internal Energy     =  -1.45 kcal/mol
DOCKED: USER    (3) Torsional Free Energy           =  +1.49 kcal/mol
DOCKED: USER    (4) Unbound System's Energy         =  -1.45 kcal/mol
DOCKED: USER
DOCKED: USER
DOCKED: REMARK  5 active torsions:
DOCKED: REMARK  status: ('A' for Active; 'I' for Inactive)
DOCKED: REMARK    1  A    between atoms: C_2  and  C_19 
DOCKED: REMARK    2  A    between atoms: C_2  and  C_11 
DOCKED: REMARK    3  A    between atoms: C_19  and  C_20 
DOCKED: REMARK    4  A    between atoms: C_20  and  C_21 
DOCKED: REMARK    5  A    between atoms: C_21  and  N_22 
DOCKED: USER                              x       y       z     vdW  Elec       q    Type
DOCKED: USER                           _______ _______ _______ _____ _____    ______ ____
DOCKED: ROOT
DOCKED: ATOM      1  O   UNL     1     -45.687 -21.212  15.226 -0.07 -0.00    -0.346 OA 
DOCKED: ATOM      2  C   UNL     1     -46.844 -20.399  14.849 -0.12 +0.00    +0.130 C  
DOCKED: ATOM      3  C   UNL     1     -47.770 -21.378  14.187 -0.21 +0.00    +0.004 A  
DOCKED: ATOM      4  C   UNL     1     -47.239 -22.657  14.275 -0.23 +0.00    +0.006 A  
DOCKED: ATOM      5  C   UNL     1     -45.951 -22.617  15.003 -0.15 +0.00    +0.169 C  
DOCKED: ATOM      6  C   UNL     1     -48.990 -21.156  13.565 -0.26 -0.00    -0.001 A  
DOCKED: ATOM      7  C   UNL     1     -47.902 -23.751  13.746 -0.34 +0.00    +0.008 A  
DOCKED: ATOM      8  C   UNL     1     -49.669 -22.248  13.022 -0.29 +0.00    +0.010 A  
DOCKED: ATOM      9  C   UNL     1     -49.128 -23.539  13.113 -0.30 +0.00    +0.068 A  
DOCKED: ATOM     10  N   UNL     1     -50.416 -25.546  12.099 -2.55 -0.00    -0.191 NA 
DOCKED: ATOM     11  C   UNL     1     -49.838 -24.646  12.553 -0.35 +0.00    +0.101 C  
DOCKED: ENDROOT
DOCKED: BRANCH   2  12
DOCKED: ATOM     12  C   UNL     1     -47.435 -19.786  16.113 -0.04 +0.00    +0.038 C  
DOCKED: BRANCH  12  13
DOCKED: ATOM     13  C   UNL     1     -46.441 -19.830  17.272 -0.02 +0.00    +0.038 C  
DOCKED: BRANCH  13  14
DOCKED: ATOM     14  C   UNL     1     -46.116 -18.424  17.772 -0.00 +0.00    +0.251 C  
DOCKED: BRANCH  14  15
DOCKED: ATOM     15  N   UNL     1     -45.554 -17.620  16.693 -0.00 +0.00    +0.141 N  
DOCKED: ATOM     16  C   UNL     1     -45.408 -16.225  17.113 -0.00 +0.00    +0.285 C  
DOCKED: ATOM     17  C   UNL     1     -44.262 -18.160  16.267 -0.00 +0.00    +0.285 C  
DOCKED: ENDBRANCH  14  15
DOCKED: ENDBRANCH  13  14
DOCKED: ENDBRANCH  12  13
DOCKED: ENDBRANCH   2  12
DOCKED: BRANCH   2  18
DOCKED: ATOM     18  C   UNL     1     -46.351 -19.343  13.918 -0.14 +0.00    +0.006 A  
DOCKED: ATOM     19  C   UNL     1     -47.100 -18.184  13.719 -0.11 +0.00    +0.001 A  
DOCKED: ATOM     20  C   UNL     1     -46.638 -17.198  12.847 -0.09 +0.00    +0.029 A  
DOCKED: ATOM     21  C   UNL     1     -45.428 -17.371  12.177 -0.07 +0.00    +0.140 A  
DOCKED: ATOM     22  C   UNL     1     -44.679 -18.530  12.376 -0.11 +0.00    +0.029 A  
DOCKED: ATOM     23  F   UNL     1     -44.984 -16.423  11.342 -0.00 -0.00    -0.204 F  
DOCKED: ATOM     24  C   UNL     1     -45.141 -19.518  13.248 -0.10 +0.00    +0.001 A  
DOCKED: ENDBRANCH   2  18
DOCKED: TORSDOF 5
DOCKED: TER
DOCKED: ENDMDL
________________________________________________________________________________


    FINAL DOCKED STATE:
    ________________________


Run:   58 / 512
Time taken for this run:   0.002s

DOCKED: MODEL        58
DOCKED: USER    Run = 58
DOCKED: USER
DOCKED: USER    Estimated Free Energy of Binding    =  -2.77 kcal/mol  [=(1)+(2)+(3)-(4)]
DOCKED: USER
DOCKED: USER    (1) Final Intermolecular Energy     =  -4.26 kcal/mol
DOCKED: USER        vdW + Hbond + desolv Energy     =  -4.26 kcal/mol
DOCKED: USER        Electrostatic Energy            =  +0.00 kcal/mol
DOCKED: USER        Moving Ligand-Fixed Receptor    =  -4.26 kcal/mol
DOCKED: USER        Moving Ligand-Moving Receptor   =  +0.00 kcal/mol
DOCKED: USER    (2) Final Total Internal Energy     =  -1.39 kcal/mol
DOCKED: USER    (3) Torsional Free Energy           =  +1.49 kcal/mol
DOCKED: USER    (4) Unbound System's Energy         =  -1.39 kcal/mol
DOCKED: USER
DOCKED: USER
DOCKED: REMARK  5 active torsions:
DOCKED: REMARK  status: ('A' for Active; 'I' for Inactive)
DOCKED: REMARK    1  A    between atoms: C_2  and  C_19 
DOCKED: REMARK    2  A    between atoms: C_2  and  C_11 
DOCKED: REMARK    3  A    between atoms: C_19  and  C_20 
DOCKED: REMARK    4  A    between atoms: C_20  and  C_21 
DOCKED: REMARK    5  A    between atoms: C_21  and  N_22 
DOCKED: USER                              x       y       z     vdW  Elec       q    Type
DOCKED: USER                           _______ _______ _______ _____ _____    ______ ____
DOCKED: ROOT
DOCKED: ATOM      1  O   UNL     1     -46.013 -16.950   7.165 -0.07 -0.00    -0.346 OA 
DOCKED: ATOM      2  C   UNL     1     -45.607 -15.621   7.623 -0.18 +0.00    +0.130 C  
DOCKED: ATOM      3  C   UNL     1     -46.857 -15.052   8.229 -0.27 +0.00    +0.004 A  
DOCKED: ATOM      4  C   UNL     1     -47.860 -16.011   8.218 -0.28 +0.00    +0.006 A  
DOCKED: ATOM      5  C   UNL     1     -47.347 -17.267   7.625 -0.21 +0.00    +0.169 C  
DOCKED: ATOM      6  C   UNL     1     -47.086 -13.790   8.757 -0.23 -0.00    -0.001 A  
DOCKED: ATOM      7  C   UNL     1     -49.119 -15.744   8.727 -0.27 +0.00    +0.008 A  
DOCKED: ATOM      8  C   UNL     1     -48.351 -13.503   9.271 -0.29 +0.00    +0.010 A  
DOCKED: ATOM      9  C   UNL     1     -49.363 -14.476   9.256 -0.23 +0.00    +0.068 A  
DOCKED: ATOM     10  N   UNL     1     -51.700 -13.912  10.223 -0.13 -0.00    -0.191 NA 
DOCKED: ATOM     11  C   UNL     1     -50.652 -14.165   9.789 -0.26 +0.00    +0.101 C  
DOCKED: ENDROOT
DOCKED: BRANCH   2  12
DOCKED: ATOM     12  C   UNL     1     -44.478 -15.783   8.634 -0.11 +0.00    +0.038 C  
DOCKED: BRANCH  12  13
DOCKED: ATOM     13  C   UNL     1     -43.554 -16.940   8.258 -0.06 +0.00    +0.038 C  
DOCKED: BRANCH  13  14
DOCKED: ATOM     14  C   UNL     1     -44.012 -18.243   8.910 -0.06 +0.00    +0.251 C  
DOCKED: BRANCH  14  15
DOCKED: ATOM     15  N   UNL     1     -43.881 -19.353   7.973 -0.13 +0.00    +0.141 N  
DOCKED: ATOM     16  C   UNL     1     -45.187 -19.957   7.703 -0.21 +0.00    +0.285 C  
DOCKED: ATOM     17  C   UNL     1     -43.263 -18.903   6.724 -0.09 +0.00    +0.285 C  
DOCKED: ENDBRANCH  14  15
DOCKED: ENDBRANCH  13  14
DOCKED: ENDBRANCH  12  13
DOCKED: ENDBRANCH   2  12
DOCKED: BRANCH   2  18
DOCKED: ATOM     18  C   UNL     1     -45.147 -14.866   6.420 -0.22 +0.00    +0.006 A  
DOCKED: ATOM     19  C   UNL     1     -43.963 -14.133   6.469 -0.14 +0.00    +0.001 A  
DOCKED: ATOM     20  C   UNL     1     -43.534 -13.427   5.344 -0.15 +0.00    +0.029 A  
DOCKED: ATOM     21  C   UNL     1     -44.290 -13.456   4.173 -0.14 +0.00    +0.140 A  
DOCKED: ATOM     22  C   UNL     1     -45.475 -14.191   4.125 -0.25 +0.00    +0.029 A  
DOCKED: ATOM     23  F   UNL     1     -43.878 -12.781   3.092 -0.01 -0.00    -0.204 F  
DOCKED: ATOM     24  C   UNL     1     -45.905 -14.896   5.250 -0.27 +0.00    +0.001 A  
DOCKED: ENDBRANCH   2  18
DOCKED: TORSDOF 5
DOCKED: TER
DOCKED: ENDMDL
________________________________________________________________________________


    FINAL DOCKED STATE:
    ________________________


Run:   59 / 512
Time taken for this run:   0.002s

DOCKED: MODEL        59
DOCKED: USER    Run = 59
DOCKED: USER
DOCKED: USER    Estimated Free Energy of Binding    =  -4.95 kcal/mol  [=(1)+(2)+(3)-(4)]
DOCKED: USER
DOCKED: USER    (1) Final Intermolecular Energy     =  -6.44 kcal/mol
DOCKED: USER        vdW + Hbond + desolv Energy     =  -6.44 kcal/mol
DOCKED: USER        Electrostatic Energy            =  +0.00 kcal/mol
DOCKED: USER        Moving Ligand-Fixed Receptor    =  -6.44 kcal/mol
DOCKED: USER        Moving Ligand-Moving Receptor   =  +0.00 kcal/mol
DOCKED: USER    (2) Final Total Internal Energy     =  -1.03 kcal/mol
DOCKED: USER    (3) Torsional Free Energy           =  +1.49 kcal/mol
DOCKED: USER    (4) Unbound System's Energy         =  -1.03 kcal/mol
DOCKED: USER
DOCKED: USER
DOCKED: REMARK  5 active torsions:
DOCKED: REMARK  status: ('A' for Active; 'I' for Inactive)
DOCKED: REMARK    1  A    between atoms: C_2  and  C_19 
DOCKED: REMARK    2  A    between atoms: C_2  and  C_11 
DOCKED: REMARK    3  A    between atoms: C_19  and  C_20 
DOCKED: REMARK    4  A    between atoms: C_20  and  C_21 
DOCKED: REMARK    5  A    between atoms: C_21  and  N_22 
DOCKED: USER                              x       y       z     vdW  Elec       q    Type
DOCKED: USER                           _______ _______ _______ _____ _____    ______ ____
DOCKED: ROOT
DOCKED: ATOM      1  O   UNL     1     -51.226 -22.189  14.997 -0.01 -0.00    -0.346 OA 
DOCKED: ATOM      2  C   UNL     1     -49.796 -22.313  14.710 -0.12 +0.00    +0.130 C  
DOCKED: ATOM      3  C   UNL     1     -49.755 -22.849  13.309 -0.28 +0.00    +0.004 A  
DOCKED: ATOM      4  C   UNL     1     -51.044 -22.921  12.798 -0.26 +0.00    +0.006 A  
DOCKED: ATOM      5  C   UNL     1     -52.011 -22.433  13.807 -0.17 +0.00    +0.169 C  
DOCKED: ATOM      6  C   UNL     1     -48.664 -23.231  12.542 -0.36 -0.00    -0.001 A  
DOCKED: ATOM      7  C   UNL     1     -51.286 -23.379  11.514 -0.17 +0.00    +0.008 A  
DOCKED: ATOM      8  C   UNL     1     -48.892 -23.699  11.247 -0.12 +0.00    +0.010 A  
DOCKED: ATOM      9  C   UNL     1     -50.196 -23.772  10.736 -0.39 +0.00    +0.068 A  
DOCKED: ATOM     10  N   UNL     1     -50.584 -24.641   8.326 -2.72 -0.00    -0.191 NA 
DOCKED: ATOM     11  C   UNL     1     -50.410 -24.252   9.407 -0.29 +0.00    +0.101 C  
DOCKED: ENDROOT
DOCKED: BRANCH   2  12
DOCKED: ATOM     12  C   UNL     1     -49.158 -20.934  14.838 -0.13 +0.00    +0.038 C  
DOCKED: BRANCH  12  13
DOCKED: ATOM     13  C   UNL     1     -50.079 -19.842  14.297 -0.19 +0.00    +0.038 C  
DOCKED: BRANCH  13  14
DOCKED: ATOM     14  C   UNL     1     -51.035 -19.345  15.379 -0.04 +0.00    +0.251 C  
DOCKED: BRANCH  14  15
DOCKED: ATOM     15  N   UNL     1     -51.417 -17.961  15.122 -0.04 +0.00    +0.141 N  
DOCKED: ATOM     16  C   UNL     1     -51.834 -17.792  13.729 -0.13 +0.00    +0.285 C  
DOCKED: ATOM     17  C   UNL     1     -52.490 -17.546  16.027 -0.00 +0.00    +0.285 C  
DOCKED: ENDBRANCH  14  15
DOCKED: ENDBRANCH  13  14
DOCKED: ENDBRANCH  12  13
DOCKED: ENDBRANCH   2  12
DOCKED: BRANCH   2  18
DOCKED: ATOM     18  C   UNL     1     -49.231 -23.262  15.713 -0.14 +0.00    +0.006 A  
DOCKED: ATOM     19  C   UNL     1     -48.992 -22.836  17.019 -0.09 +0.00    +0.001 A  
DOCKED: ATOM     20  C   UNL     1     -48.463 -23.725  17.955 -0.13 +0.00    +0.029 A  
DOCKED: ATOM     21  C   UNL     1     -48.174 -25.038  17.585 -0.18 +0.00    +0.140 A  
DOCKED: ATOM     22  C   UNL     1     -48.413 -25.463  16.279 -0.10 +0.00    +0.029 A  
DOCKED: ATOM     23  F   UNL     1     -47.668 -25.891  18.485 -0.10 -0.00    -0.204 F  
DOCKED: ATOM     24  C   UNL     1     -48.942 -24.575  15.341 -0.27 +0.00    +0.001 A  
DOCKED: ENDBRANCH   2  18
DOCKED: TORSDOF 5
DOCKED: TER
DOCKED: ENDMDL
________________________________________________________________________________


    FINAL DOCKED STATE:
    ________________________


Run:   60 / 512
Time taken for this run:   0.002s

DOCKED: MODEL        60
DOCKED: USER    Run = 60
DOCKED: USER
DOCKED: USER    Estimated Free Energy of Binding    =  -3.87 kcal/mol  [=(1)+(2)+(3)-(4)]
DOCKED: USER
DOCKED: USER    (1) Final Intermolecular Energy     =  -5.36 kcal/mol
DOCKED: USER        vdW + Hbond + desolv Energy     =  -5.36 kcal/mol
DOCKED: USER        Electrostatic Energy            =  +0.00 kcal/mol
DOCKED: USER        Moving Ligand-Fixed Receptor    =  -5.36 kcal/mol
DOCKED: USER        Moving Ligand-Moving Receptor   =  +0.00 kcal/mol
DOCKED: USER    (2) Final Total Internal Energy     =  -1.24 kcal/mol
DOCKED: USER    (3) Torsional Free Energy           =  +1.49 kcal/mol
DOCKED: USER    (4) Unbound System's Energy         =  -1.24 kcal/mol
DOCKED: USER
DOCKED: USER
DOCKED: REMARK  5 active torsions:
DOCKED: REMARK  status: ('A' for Active; 'I' for Inactive)
DOCKED: REMARK    1  A    between atoms: C_2  and  C_19 
DOCKED: REMARK    2  A    between atoms: C_2  and  C_11 
DOCKED: REMARK    3  A    between atoms: C_19  and  C_20 
DOCKED: REMARK    4  A    between atoms: C_20  and  C_21 
DOCKED: REMARK    5  A    between atoms: C_21  and  N_22 
DOCKED: USER                              x       y       z     vdW  Elec       q    Type
DOCKED: USER                           _______ _______ _______ _____ _____    ______ ____
DOCKED: ROOT
DOCKED: ATOM      1  O   UNL     1     -42.452 -19.662   7.994 +0.00 -0.00    -0.346 OA 
DOCKED: ATOM      2  C   UNL     1     -42.098 -20.643   6.967 -0.11 +0.00    +0.130 C  
DOCKED: ATOM      3  C   UNL     1     -42.200 -21.961   7.678 -0.17 +0.00    +0.004 A  
DOCKED: ATOM      4  C   UNL     1     -42.677 -21.761   8.966 -0.23 +0.00    +0.006 A  
DOCKED: ATOM      5  C   UNL     1     -42.932 -20.321   9.189 -0.13 +0.00    +0.169 C  
DOCKED: ATOM      6  C   UNL     1     -41.905 -23.236   7.218 -0.14 -0.00    -0.001 A  
DOCKED: ATOM      7  C   UNL     1     -42.870 -22.821   9.835 -0.21 +0.00    +0.008 A  
DOCKED: ATOM      8  C   UNL     1     -42.091 -24.315   8.084 -0.27 +0.00    +0.010 A  
DOCKED: ATOM      9  C   UNL     1     -42.571 -24.108   9.386 -0.31 +0.00    +0.068 A  
DOCKED: ATOM     10  N   UNL     1     -42.909 -26.134  10.966 -2.68 -0.00    -0.191 NA 
DOCKED: ATOM     11  C   UNL     1     -42.757 -25.225  10.258 -0.29 +0.00    +0.101 C  
DOCKED: ENDROOT
DOCKED: BRANCH   2  12
DOCKED: ATOM     12  C   UNL     1     -43.087 -20.512   5.815 -0.08 +0.00    +0.038 C  
DOCKED: BRANCH  12  13
DOCKED: ATOM     13  C   UNL     1     -43.989 -19.292   5.990 -0.20 +0.00    +0.038 C  
DOCKED: BRANCH  13  14
DOCKED: ATOM     14  C   UNL     1     -43.894 -18.361   4.783 -0.17 +0.00    +0.251 C  
DOCKED: BRANCH  14  15
DOCKED: ATOM     15  N   UNL     1     -44.113 -16.978   5.190 -0.14 +0.00    +0.141 N  
DOCKED: ATOM     16  C   UNL     1     -45.181 -16.897   6.189 -0.14 +0.00    +0.285 C  
DOCKED: ATOM     17  C   UNL     1     -42.879 -16.394   5.719 -0.02 +0.00    +0.285 C  
DOCKED: ENDBRANCH  14  15
DOCKED: ENDBRANCH  13  14
DOCKED: ENDBRANCH  12  13
DOCKED: ENDBRANCH   2  12
DOCKED: BRANCH   2  18
DOCKED: ATOM     18  C   UNL     1     -40.709 -20.327   6.522 -0.04 +0.00    +0.006 A  
DOCKED: ATOM     19  C   UNL     1     -40.460 -20.011   5.188 -0.03 +0.00    +0.001 A  
DOCKED: ATOM     20  C   UNL     1     -39.160 -19.716   4.773 -0.00 +0.00    +0.029 A  
DOCKED: ATOM     21  C   UNL     1     -38.113 -19.739   5.693 -0.00 +0.00    +0.140 A  
DOCKED: ATOM     22  C   UNL     1     -38.363 -20.055   7.028 -0.00 +0.00    +0.029 A  
DOCKED: ATOM     23  F   UNL     1     -36.866 -19.454   5.296 +0.00 -0.00    -0.204 F  
DOCKED: ATOM     24  C   UNL     1     -39.663 -20.350   7.444 -0.01 +0.00    +0.001 A  
DOCKED: ENDBRANCH   2  18
DOCKED: TORSDOF 5
DOCKED: TER
DOCKED: ENDMDL
________________________________________________________________________________


    FINAL DOCKED STATE:
    ________________________


Run:   61 / 512
Time taken for this run:   0.002s

DOCKED: MODEL        61
DOCKED: USER    Run = 61
DOCKED: USER
DOCKED: USER    Estimated Free Energy of Binding    =  -5.22 kcal/mol  [=(1)+(2)+(3)-(4)]
DOCKED: USER
DOCKED: USER    (1) Final Intermolecular Energy     =  -6.71 kcal/mol
DOCKED: USER        vdW + Hbond + desolv Energy     =  -6.71 kcal/mol
DOCKED: USER        Electrostatic Energy            =  +0.00 kcal/mol
DOCKED: USER        Moving Ligand-Fixed Receptor    =  -6.71 kcal/mol
DOCKED: USER        Moving Ligand-Moving Receptor   =  +0.00 kcal/mol
DOCKED: USER    (2) Final Total Internal Energy     =  -1.10 kcal/mol
DOCKED: USER    (3) Torsional Free Energy           =  +1.49 kcal/mol
DOCKED: USER    (4) Unbound System's Energy         =  -1.10 kcal/mol
DOCKED: USER
DOCKED: USER
DOCKED: REMARK  5 active torsions:
DOCKED: REMARK  status: ('A' for Active; 'I' for Inactive)
DOCKED: REMARK    1  A    between atoms: C_2  and  C_19 
DOCKED: REMARK    2  A    between atoms: C_2  and  C_11 
DOCKED: REMARK    3  A    between atoms: C_19  and  C_20 
DOCKED: REMARK    4  A    between atoms: C_20  and  C_21 
DOCKED: REMARK    5  A    between atoms: C_21  and  N_22 
DOCKED: USER                              x       y       z     vdW  Elec       q    Type
DOCKED: USER                           _______ _______ _______ _____ _____    ______ ____
DOCKED: ROOT
DOCKED: ATOM      1  O   UNL     1     -49.120 -21.467  15.031 -0.02 -0.00    -0.346 OA 
DOCKED: ATOM      2  C   UNL     1     -48.250 -22.641  14.943 -0.17 +0.00    +0.130 C  
DOCKED: ATOM      3  C   UNL     1     -48.603 -23.252  13.618 -0.32 +0.00    +0.004 A  
DOCKED: ATOM      4  C   UNL     1     -49.514 -22.439  12.957 -0.31 +0.00    +0.006 A  
DOCKED: ATOM      5  C   UNL     1     -49.812 -21.246  13.780 -0.19 +0.00    +0.169 C  
DOCKED: ATOM      6  C   UNL     1     -48.146 -24.426  13.038 -0.41 -0.00    -0.001 A  
DOCKED: ATOM      7  C   UNL     1     -50.000 -22.773  11.704 -0.15 +0.00    +0.008 A  
DOCKED: ATOM      8  C   UNL     1     -48.630 -24.779  11.777 -0.33 +0.00    +0.010 A  
DOCKED: ATOM      9  C   UNL     1     -49.552 -23.955  11.114 -0.42 +0.00    +0.068 A  
DOCKED: ATOM     10  N   UNL     1     -50.427 -24.636   8.772 -2.30 -0.00    -0.191 NA 
DOCKED: ATOM     11  C   UNL     1     -50.035 -24.331   9.822 -0.51 +0.00    +0.101 C  
DOCKED: ENDROOT
DOCKED: BRANCH   2  12
DOCKED: ATOM     12  C   UNL     1     -46.801 -22.173  15.014 -0.21 +0.00    +0.038 C  
DOCKED: BRANCH  12  13
DOCKED: ATOM     13  C   UNL     1     -46.712 -20.659  15.195 -0.12 +0.00    +0.038 C  
DOCKED: BRANCH  13  14
DOCKED: ATOM     14  C   UNL     1     -46.649 -19.947  13.845 -0.13 +0.00    +0.251 C  
DOCKED: BRANCH  14  15
DOCKED: ATOM     15  N   UNL     1     -45.265 -19.661  13.487 -0.11 +0.00    +0.141 N  
DOCKED: ATOM     16  C   UNL     1     -45.201 -18.918  12.227 -0.10 +0.00    +0.285 C  
DOCKED: ATOM     17  C   UNL     1     -44.601 -18.910  14.553 -0.04 +0.00    +0.285 C  
DOCKED: ENDBRANCH  14  15
DOCKED: ENDBRANCH  13  14
DOCKED: ENDBRANCH  12  13
DOCKED: ENDBRANCH   2  12
DOCKED: BRANCH   2  18
DOCKED: ATOM     18  C   UNL     1     -48.588 -23.522  16.098 -0.16 +0.00    +0.006 A  
DOCKED: ATOM     19  C   UNL     1     -47.571 -24.057  16.888 -0.10 +0.00    +0.001 A  
DOCKED: ATOM     20  C   UNL     1     -47.889 -24.881  17.968 -0.22 +0.00    +0.029 A  
DOCKED: ATOM     21  C   UNL     1     -49.222 -25.169  18.257 -0.04 +0.00    +0.140 A  
DOCKED: ATOM     22  C   UNL     1     -50.239 -24.634  17.466 -0.15 +0.00    +0.029 A  
DOCKED: ATOM     23  F   UNL     1     -49.527 -25.959  19.295 -0.04 -0.00    -0.204 F  
DOCKED: ATOM     24  C   UNL     1     -49.922 -23.809  16.386 -0.15 +0.00    +0.001 A  
DOCKED: ENDBRANCH   2  18
DOCKED: TORSDOF 5
DOCKED: TER
DOCKED: ENDMDL
________________________________________________________________________________


    FINAL DOCKED STATE:
    ________________________


Run:   62 / 512
Time taken for this run:   0.002s

DOCKED: MODEL        62
DOCKED: USER    Run = 62
DOCKED: USER
DOCKED: USER    Estimated Free Energy of Binding    =  -3.83 kcal/mol  [=(1)+(2)+(3)-(4)]
DOCKED: USER
DOCKED: USER    (1) Final Intermolecular Energy     =  -5.32 kcal/mol
DOCKED: USER        vdW + Hbond + desolv Energy     =  -5.32 kcal/mol
DOCKED: USER        Electrostatic Energy            =  +0.00 kcal/mol
DOCKED: USER        Moving Ligand-Fixed Receptor    =  -5.32 kcal/mol
DOCKED: USER        Moving Ligand-Moving Receptor   =  +0.00 kcal/mol
DOCKED: USER    (2) Final Total Internal Energy     =  -1.13 kcal/mol
DOCKED: USER    (3) Torsional Free Energy           =  +1.49 kcal/mol
DOCKED: USER    (4) Unbound System's Energy         =  -1.13 kcal/mol
DOCKED: USER
DOCKED: USER
DOCKED: REMARK  5 active torsions:
DOCKED: REMARK  status: ('A' for Active; 'I' for Inactive)
DOCKED: REMARK    1  A    between atoms: C_2  and  C_19 
DOCKED: REMARK    2  A    between atoms: C_2  and  C_11 
DOCKED: REMARK    3  A    between atoms: C_19  and  C_20 
DOCKED: REMARK    4  A    between atoms: C_20  and  C_21 
DOCKED: REMARK    5  A    between atoms: C_21  and  N_22 
DOCKED: USER                              x       y       z     vdW  Elec       q    Type
DOCKED: USER                           _______ _______ _______ _____ _____    ______ ____
DOCKED: ROOT
DOCKED: ATOM      1  O   UNL     1     -47.555 -20.589  16.088 -0.01 -0.00    -0.346 OA 
DOCKED: ATOM      2  C   UNL     1     -47.678 -20.062  14.728 -0.11 +0.00    +0.130 C  
DOCKED: ATOM      3  C   UNL     1     -48.249 -21.210  13.948 -0.23 +0.00    +0.004 A  
DOCKED: ATOM      4  C   UNL     1     -48.531 -22.264  14.806 -0.17 +0.00    +0.006 A  
DOCKED: ATOM      5  C   UNL     1     -48.184 -21.887  16.195 -0.06 +0.00    +0.169 C  
DOCKED: ATOM      6  C   UNL     1     -48.510 -21.311  12.589 -0.16 -0.00    -0.001 A  
DOCKED: ATOM      7  C   UNL     1     -49.075 -23.448  14.339 -0.23 +0.00    +0.008 A  
DOCKED: ATOM      8  C   UNL     1     -49.054 -22.500  12.102 -0.33 +0.00    +0.010 A  
DOCKED: ATOM      9  C   UNL     1     -49.335 -23.563  12.973 -0.30 +0.00    +0.068 A  
DOCKED: ATOM     10  N   UNL     1     -50.350 -25.756  12.037 -2.53 -0.00    -0.191 NA 
DOCKED: ATOM     11  C   UNL     1     -49.894 -24.773  12.457 -0.32 +0.00    +0.101 C  
DOCKED: ENDROOT
DOCKED: BRANCH   2  12
DOCKED: ATOM     12  C   UNL     1     -48.602 -18.850  14.762 -0.09 +0.00    +0.038 C  
DOCKED: BRANCH  12  13
DOCKED: ATOM     13  C   UNL     1     -48.083 -17.781  15.722 -0.03 +0.00    +0.038 C  
DOCKED: BRANCH  13  14
DOCKED: ATOM     14  C   UNL     1     -48.160 -16.392  15.091 -0.01 +0.00    +0.251 C  
DOCKED: BRANCH  14  15
DOCKED: ATOM     15  N   UNL     1     -49.294 -16.312  14.178 -0.04 +0.00    +0.141 N  
DOCKED: ATOM     16  C   UNL     1     -50.404 -15.584  14.796 -0.01 +0.00    +0.285 C  
DOCKED: ATOM     17  C   UNL     1     -48.901 -15.668  12.923 -0.06 +0.00    +0.285 C  
DOCKED: ENDBRANCH  14  15
DOCKED: ENDBRANCH  13  14
DOCKED: ENDBRANCH  12  13
DOCKED: ENDBRANCH   2  12
DOCKED: BRANCH   2  18
DOCKED: ATOM     18  C   UNL     1     -46.306 -19.680  14.281 -0.13 +0.00    +0.006 A  
DOCKED: ATOM     19  C   UNL     1     -46.128 -19.017  13.068 -0.16 +0.00    +0.001 A  
DOCKED: ATOM     20  C   UNL     1     -44.845 -18.661  12.651 -0.11 +0.00    +0.029 A  
DOCKED: ATOM     21  C   UNL     1     -43.743 -18.969  13.448 -0.07 +0.00    +0.140 A  
DOCKED: ATOM     22  C   UNL     1     -43.922 -19.632  14.662 -0.07 +0.00    +0.029 A  
DOCKED: ATOM     23  F   UNL     1     -42.511 -18.625  13.049 -0.01 -0.00    -0.204 F  
DOCKED: ATOM     24  C   UNL     1     -45.205 -19.989  15.079 -0.09 +0.00    +0.001 A  
DOCKED: ENDBRANCH   2  18
DOCKED: TORSDOF 5
DOCKED: TER
DOCKED: ENDMDL
________________________________________________________________________________


    FINAL DOCKED STATE:
    ________________________


Run:   63 / 512
Time taken for this run:   0.002s

DOCKED: MODEL        63
DOCKED: USER    Run = 63
DOCKED: USER
DOCKED: USER    Estimated Free Energy of Binding    =  -4.53 kcal/mol  [=(1)+(2)+(3)-(4)]
DOCKED: USER
DOCKED: USER    (1) Final Intermolecular Energy     =  -6.02 kcal/mol
DOCKED: USER        vdW + Hbond + desolv Energy     =  -6.02 kcal/mol
DOCKED: USER        Electrostatic Energy            =  +0.00 kcal/mol
DOCKED: USER        Moving Ligand-Fixed Receptor    =  -6.02 kcal/mol
DOCKED: USER        Moving Ligand-Moving Receptor   =  +0.00 kcal/mol
DOCKED: USER    (2) Final Total Internal Energy     =  -1.36 kcal/mol
DOCKED: USER    (3) Torsional Free Energy           =  +1.49 kcal/mol
DOCKED: USER    (4) Unbound System's Energy         =  -1.36 kcal/mol
DOCKED: USER
DOCKED: USER
DOCKED: REMARK  5 active torsions:
DOCKED: REMARK  status: ('A' for Active; 'I' for Inactive)
DOCKED: REMARK    1  A    between atoms: C_2  and  C_19 
DOCKED: REMARK    2  A    between atoms: C_2  and  C_11 
DOCKED: REMARK    3  A    between atoms: C_19  and  C_20 
DOCKED: REMARK    4  A    between atoms: C_20  and  C_21 
DOCKED: REMARK    5  A    between atoms: C_21  and  N_22 
DOCKED: USER                              x       y       z     vdW  Elec       q    Type
DOCKED: USER                           _______ _______ _______ _____ _____    ______ ____
DOCKED: ROOT
DOCKED: ATOM      1  O   UNL     1     -46.747 -15.385   8.401 -0.09 -0.00    -0.346 OA 
DOCKED: ATOM      2  C   UNL     1     -45.504 -15.536   7.645 -0.18 +0.00    +0.130 C  
DOCKED: ATOM      3  C   UNL     1     -45.816 -14.922   6.311 -0.27 +0.00    +0.004 A  
DOCKED: ATOM      4  C   UNL     1     -47.089 -14.368   6.339 -0.15 +0.00    +0.006 A  
DOCKED: ATOM      5  C   UNL     1     -47.692 -14.564   7.676 -0.26 +0.00    +0.169 C  
DOCKED: ATOM      6  C   UNL     1     -45.033 -14.848   5.169 -0.24 -0.00    -0.001 A  
DOCKED: ATOM      7  C   UNL     1     -47.621 -13.730   5.232 -0.02 +0.00    +0.008 A  
DOCKED: ATOM      8  C   UNL     1     -45.558 -14.211   4.043 -0.24 +0.00    +0.010 A  
DOCKED: ATOM      9  C   UNL     1     -46.845 -13.655   4.075 -0.24 +0.00    +0.068 A  
DOCKED: ATOM     10  N   UNL     1     -47.786 -12.476   1.968 -2.44 -0.00    -0.191 NA 
DOCKED: ATOM     11  C   UNL     1     -47.365 -13.005   2.913 -0.30 +0.00    +0.101 C  
DOCKED: ENDROOT
DOCKED: BRANCH   2  12
DOCKED: ATOM     12  C   UNL     1     -44.394 -14.805   8.390 -0.17 +0.00    +0.038 C  
DOCKED: BRANCH  12  13
DOCKED: ATOM     13  C   UNL     1     -44.535 -14.969   9.902 -0.13 +0.00    +0.038 C  
DOCKED: BRANCH  13  14
DOCKED: ATOM     14  C   UNL     1     -43.188 -15.287  10.549 -0.04 +0.00    +0.251 C  
DOCKED: BRANCH  14  15
DOCKED: ATOM     15  N   UNL     1     -43.246 -16.572  11.235 -0.02 +0.00    +0.141 N  
DOCKED: ATOM     16  C   UNL     1     -44.594 -16.825  11.745 -0.03 +0.00    +0.285 C  
DOCKED: ATOM     17  C   UNL     1     -42.831 -17.654  10.339 -0.02 +0.00    +0.285 C  
DOCKED: ENDBRANCH  14  15
DOCKED: ENDBRANCH  13  14
DOCKED: ENDBRANCH  12  13
DOCKED: ENDBRANCH   2  12
DOCKED: BRANCH   2  18
DOCKED: ATOM     18  C   UNL     1     -45.221 -16.999   7.559 -0.16 +0.00    +0.006 A  
DOCKED: ATOM     19  C   UNL     1     -44.028 -17.446   6.992 -0.10 +0.00    +0.001 A  
DOCKED: ATOM     20  C   UNL     1     -43.765 -18.814   6.912 -0.15 +0.00    +0.029 A  
DOCKED: ATOM     21  C   UNL     1     -44.694 -19.732   7.399 -0.21 +0.00    +0.140 A  
DOCKED: ATOM     22  C   UNL     1     -45.887 -19.285   7.966 -0.26 +0.00    +0.029 A  
DOCKED: ATOM     23  F   UNL     1     -44.440 -21.045   7.324 -0.11 -0.00    -0.204 F  
DOCKED: ATOM     24  C   UNL     1     -46.151 -17.916   8.046 -0.20 +0.00    +0.001 A  
DOCKED: ENDBRANCH   2  18
DOCKED: TORSDOF 5
DOCKED: TER
DOCKED: ENDMDL
________________________________________________________________________________


    FINAL DOCKED STATE:
    ________________________


Run:   64 / 512
Time taken for this run:   0.002s

DOCKED: MODEL        64
DOCKED: USER    Run = 64
DOCKED: USER
DOCKED: USER    Estimated Free Energy of Binding    =  -3.81 kcal/mol  [=(1)+(2)+(3)-(4)]
DOCKED: USER
DOCKED: USER    (1) Final Intermolecular Energy     =  -5.30 kcal/mol
DOCKED: USER        vdW + Hbond + desolv Energy     =  -5.30 kcal/mol
DOCKED: USER        Electrostatic Energy            =  +0.00 kcal/mol
DOCKED: USER        Moving Ligand-Fixed Receptor    =  -5.30 kcal/mol
DOCKED: USER        Moving Ligand-Moving Receptor   =  +0.00 kcal/mol
DOCKED: USER    (2) Final Total Internal Energy     =  -1.30 kcal/mol
DOCKED: USER    (3) Torsional Free Energy           =  +1.49 kcal/mol
DOCKED: USER    (4) Unbound System's Energy         =  -1.30 kcal/mol
DOCKED: USER
DOCKED: USER
DOCKED: REMARK  5 active torsions:
DOCKED: REMARK  status: ('A' for Active; 'I' for Inactive)
DOCKED: REMARK    1  A    between atoms: C_2  and  C_19 
DOCKED: REMARK    2  A    between atoms: C_2  and  C_11 
DOCKED: REMARK    3  A    between atoms: C_19  and  C_20 
DOCKED: REMARK    4  A    between atoms: C_20  and  C_21 
DOCKED: REMARK    5  A    between atoms: C_21  and  N_22 
DOCKED: USER                              x       y       z     vdW  Elec       q    Type
DOCKED: USER                           _______ _______ _______ _____ _____    ______ ____
DOCKED: ROOT
DOCKED: ATOM      1  O   UNL     1     -42.548 -12.317   6.426 -0.09 -0.00    -0.346 OA 
DOCKED: ATOM      2  C   UNL     1     -42.873 -13.683   6.014 -0.12 +0.00    +0.130 C  
DOCKED: ATOM      3  C   UNL     1     -43.907 -13.499   4.941 -0.17 +0.00    +0.004 A  
DOCKED: ATOM      4  C   UNL     1     -44.078 -12.146   4.684 -0.15 +0.00    +0.006 A  
DOCKED: ATOM      5  C   UNL     1     -43.173 -11.353   5.547 -0.09 +0.00    +0.169 C  
DOCKED: ATOM      6  C   UNL     1     -44.630 -14.453   4.240 -0.22 -0.00    -0.001 A  
DOCKED: ATOM      7  C   UNL     1     -44.975 -11.702   3.728 -0.32 +0.00    +0.008 A  
DOCKED: ATOM      8  C   UNL     1     -45.541 -14.021   3.275 -0.02 +0.00    +0.010 A  
DOCKED: ATOM      9  C   UNL     1     -45.712 -12.652   3.020 -0.36 +0.00    +0.068 A  
DOCKED: ATOM     10  N   UNL     1     -47.409 -11.884   1.219 -2.56 -0.00    -0.191 NA 
DOCKED: ATOM     11  C   UNL     1     -46.649 -12.228   2.028 -0.43 +0.00    +0.101 C  
DOCKED: ENDROOT
DOCKED: BRANCH   2  12
DOCKED: ATOM     12  C   UNL     1     -41.600 -14.349   5.503 -0.04 +0.00    +0.038 C  
DOCKED: BRANCH  12  13
DOCKED: ATOM     13  C   UNL     1     -41.854 -15.798   5.095 -0.03 +0.00    +0.038 C  
DOCKED: BRANCH  13  14
DOCKED: ATOM     14  C   UNL     1     -41.550 -16.013   3.613 -0.01 +0.00    +0.251 C  
DOCKED: BRANCH  14  15
DOCKED: ATOM     15  N   UNL     1     -41.554 -14.739   2.905 -0.01 +0.00    +0.141 N  
DOCKED: ATOM     16  C   UNL     1     -40.204 -14.394   2.457 +0.00 +0.00    +0.285 C  
DOCKED: ATOM     17  C   UNL     1     -42.470 -14.786   1.764 -0.04 +0.00    +0.285 C  
DOCKED: ENDBRANCH  14  15
DOCKED: ENDBRANCH  13  14
DOCKED: ENDBRANCH  12  13
DOCKED: ENDBRANCH   2  12
DOCKED: BRANCH   2  18
DOCKED: ATOM     18  C   UNL     1     -43.403 -14.388   7.218 -0.14 +0.00    +0.006 A  
DOCKED: ATOM     19  C   UNL     1     -42.522 -14.902   8.168 -0.08 +0.00    +0.001 A  
DOCKED: ATOM     20  C   UNL     1     -43.019 -15.561   9.293 -0.05 +0.00    +0.029 A  
DOCKED: ATOM     21  C   UNL     1     -44.394 -15.704   9.466 -0.07 +0.00    +0.140 A  
DOCKED: ATOM     22  C   UNL     1     -45.275 -15.189   8.515 -0.16 +0.00    +0.029 A  
DOCKED: ATOM     23  F   UNL     1     -44.871 -16.335  10.547 -0.01 -0.00    -0.204 F  
DOCKED: ATOM     24  C   UNL     1     -44.779 -14.531   7.389 -0.14 +0.00    +0.001 A  
DOCKED: ENDBRANCH   2  18
DOCKED: TORSDOF 5
DOCKED: TER
DOCKED: ENDMDL
________________________________________________________________________________


    FINAL DOCKED STATE:
    ________________________


Run:   65 / 512
Time taken for this run:   0.002s

DOCKED: MODEL        65
DOCKED: USER    Run = 65
DOCKED: USER
DOCKED: USER    Estimated Free Energy of Binding    =  -6.45 kcal/mol  [=(1)+(2)+(3)-(4)]
DOCKED: USER
DOCKED: USER    (1) Final Intermolecular Energy     =  -7.94 kcal/mol
DOCKED: USER        vdW + Hbond + desolv Energy     =  -7.94 kcal/mol
DOCKED: USER        Electrostatic Energy            =  +0.00 kcal/mol
DOCKED: USER        Moving Ligand-Fixed Receptor    =  -7.94 kcal/mol
DOCKED: USER        Moving Ligand-Moving Receptor   =  +0.00 kcal/mol
DOCKED: USER    (2) Final Total Internal Energy     =  -0.85 kcal/mol
DOCKED: USER    (3) Torsional Free Energy           =  +1.49 kcal/mol
DOCKED: USER    (4) Unbound System's Energy         =  -0.85 kcal/mol
DOCKED: USER
DOCKED: USER
DOCKED: REMARK  5 active torsions:
DOCKED: REMARK  status: ('A' for Active; 'I' for Inactive)
DOCKED: REMARK    1  A    between atoms: C_2  and  C_19 
DOCKED: REMARK    2  A    between atoms: C_2  and  C_11 
DOCKED: REMARK    3  A    between atoms: C_19  and  C_20 
DOCKED: REMARK    4  A    between atoms: C_20  and  C_21 
DOCKED: REMARK    5  A    between atoms: C_21  and  N_22 
DOCKED: USER                              x       y       z     vdW  Elec       q    Type
DOCKED: USER                           _______ _______ _______ _____ _____    ______ ____
DOCKED: ROOT
DOCKED: ATOM      1  O   UNL     1     -47.736 -25.038  14.437 -0.49 -0.00    -0.346 OA 
DOCKED: ATOM      2  C   UNL     1     -48.968 -24.265  14.599 -0.25 +0.00    +0.130 C  
DOCKED: ATOM      3  C   UNL     1     -49.501 -24.141  13.201 -0.33 +0.00    +0.004 A  
DOCKED: ATOM      4  C   UNL     1     -48.705 -24.872  12.331 -0.40 +0.00    +0.006 A  
DOCKED: ATOM      5  C   UNL     1     -47.613 -25.531  13.082 -0.17 +0.00    +0.169 C  
DOCKED: ATOM      6  C   UNL     1     -50.609 -23.447  12.738 -0.30 -0.00    -0.001 A  
DOCKED: ATOM      7  C   UNL     1     -48.983 -24.931  10.976 -0.39 +0.00    +0.008 A  
DOCKED: ATOM      8  C   UNL     1     -50.901 -23.492  11.373 -0.30 +0.00    +0.010 A  
DOCKED: ATOM      9  C   UNL     1     -50.092 -24.231  10.497 -0.45 +0.00    +0.068 A  
DOCKED: ATOM     10  N   UNL     1     -50.664 -24.299   7.971 -3.21 -0.00    -0.191 NA 
DOCKED: ATOM     11  C   UNL     1     -50.407 -24.268   9.104 -0.29 +0.00    +0.101 C  
DOCKED: ENDROOT
DOCKED: BRANCH   2  12
DOCKED: ATOM     12  C   UNL     1     -49.903 -25.035  15.524 -0.28 +0.00    +0.038 C  
DOCKED: BRANCH  12  13
DOCKED: ATOM     13  C   UNL     1     -51.298 -24.414  15.549 -0.22 +0.00    +0.038 C  
DOCKED: BRANCH  13  14
DOCKED: ATOM     14  C   UNL     1     -51.678 -23.972  16.961 -0.06 +0.00    +0.251 C  
DOCKED: BRANCH  14  15
DOCKED: ATOM     15  N   UNL     1     -52.335 -25.060  17.674 -0.12 +0.00    +0.141 N  
DOCKED: ATOM     16  C   UNL     1     -53.231 -24.535  18.705 -0.03 +0.00    +0.285 C  
DOCKED: ATOM     17  C   UNL     1     -53.076 -25.913  16.743 -0.05 +0.00    +0.285 C  
DOCKED: ENDBRANCH  14  15
DOCKED: ENDBRANCH  13  14
DOCKED: ENDBRANCH  12  13
DOCKED: ENDBRANCH   2  12
DOCKED: BRANCH   2  18
DOCKED: ATOM     18  C   UNL     1     -48.584 -22.951  15.193 -0.17 +0.00    +0.006 A  
DOCKED: ATOM     19  C   UNL     1     -47.427 -22.847  15.964 -0.16 +0.00    +0.001 A  
DOCKED: ATOM     20  C   UNL     1     -47.069 -21.618  16.519 -0.07 +0.00    +0.029 A  
DOCKED: ATOM     21  C   UNL     1     -47.867 -20.496  16.303 -0.03 +0.00    +0.140 A  
DOCKED: ATOM     22  C   UNL     1     -49.024 -20.601  15.531 -0.06 +0.00    +0.029 A  
DOCKED: ATOM     23  F   UNL     1     -47.522 -19.316  16.834 +0.00 -0.00    -0.204 F  
DOCKED: ATOM     24  C   UNL     1     -49.384 -21.830  14.976 -0.12 +0.00    +0.001 A  
DOCKED: ENDBRANCH   2  18
DOCKED: TORSDOF 5
DOCKED: TER
DOCKED: ENDMDL
________________________________________________________________________________


    FINAL DOCKED STATE:
    ________________________


Run:   66 / 512
Time taken for this run:   0.002s

DOCKED: MODEL        66
DOCKED: USER    Run = 66
DOCKED: USER
DOCKED: USER    Estimated Free Energy of Binding    =  -5.62 kcal/mol  [=(1)+(2)+(3)-(4)]
DOCKED: USER
DOCKED: USER    (1) Final Intermolecular Energy     =  -7.12 kcal/mol
DOCKED: USER        vdW + Hbond + desolv Energy     =  -7.12 kcal/mol
DOCKED: USER        Electrostatic Energy            =  +0.00 kcal/mol
DOCKED: USER        Moving Ligand-Fixed Receptor    =  -7.12 kcal/mol
DOCKED: USER        Moving Ligand-Moving Receptor   =  +0.00 kcal/mol
DOCKED: USER    (2) Final Total Internal Energy     =  -1.26 kcal/mol
DOCKED: USER    (3) Torsional Free Energy           =  +1.49 kcal/mol
DOCKED: USER    (4) Unbound System's Energy         =  -1.26 kcal/mol
DOCKED: USER
DOCKED: USER
DOCKED: REMARK  5 active torsions:
DOCKED: REMARK  status: ('A' for Active; 'I' for Inactive)
DOCKED: REMARK    1  A    between atoms: C_2  and  C_19 
DOCKED: REMARK    2  A    between atoms: C_2  and  C_11 
DOCKED: REMARK    3  A    between atoms: C_19  and  C_20 
DOCKED: REMARK    4  A    between atoms: C_20  and  C_21 
DOCKED: REMARK    5  A    between atoms: C_21  and  N_22 
DOCKED: USER                              x       y       z     vdW  Elec       q    Type
DOCKED: USER                           _______ _______ _______ _____ _____    ______ ____
DOCKED: ROOT
DOCKED: ATOM      1  O   UNL     1     -47.320 -24.533  14.809 -0.13 -0.00    -0.346 OA 
DOCKED: ATOM      2  C   UNL     1     -47.826 -23.171  14.630 -0.24 +0.00    +0.130 C  
DOCKED: ATOM      3  C   UNL     1     -48.450 -23.196  13.265 -0.33 +0.00    +0.004 A  
DOCKED: ATOM      4  C   UNL     1     -48.404 -24.486  12.753 -0.41 +0.00    +0.006 A  
DOCKED: ATOM      5  C   UNL     1     -47.767 -25.392  13.735 -0.20 +0.00    +0.169 C  
DOCKED: ATOM      6  C   UNL     1     -49.024 -22.163  12.538 -0.33 -0.00    -0.001 A  
DOCKED: ATOM      7  C   UNL     1     -48.922 -24.785  11.505 -0.45 +0.00    +0.008 A  
DOCKED: ATOM      8  C   UNL     1     -49.547 -22.448  11.275 +0.29 +0.00    +0.010 A  
DOCKED: ATOM      9  C   UNL     1     -49.496 -23.752  10.762 -0.41 +0.00    +0.068 A  
DOCKED: ATOM     10  N   UNL     1     -50.480 -24.248   8.417 -2.91 -0.00    -0.191 NA 
DOCKED: ATOM     11  C   UNL     1     -50.038 -24.026   9.468 -0.44 +0.00    +0.101 C  
DOCKED: ENDROOT
DOCKED: BRANCH   2  12
DOCKED: ATOM     12  C   UNL     1     -48.832 -22.881  15.737 -0.15 +0.00    +0.038 C  
DOCKED: BRANCH  12  13
DOCKED: ATOM     13  C   UNL     1     -48.713 -23.892  16.877 -0.19 +0.00    +0.038 C  
DOCKED: BRANCH  13  14
DOCKED: ATOM     14  C   UNL     1     -49.972 -24.748  16.986 -0.04 +0.00    +0.251 C  
DOCKED: BRANCH  14  15
DOCKED: ATOM     15  N   UNL     1     -51.053 -24.164  16.200 -0.11 +0.00    +0.141 N  
DOCKED: ATOM     16  C   UNL     1     -51.427 -25.052  15.098 -0.10 +0.00    +0.285 C  
DOCKED: ATOM     17  C   UNL     1     -52.215 -23.888  17.046 -0.03 +0.00    +0.285 C  
DOCKED: ENDBRANCH  14  15
DOCKED: ENDBRANCH  13  14
DOCKED: ENDBRANCH  12  13
DOCKED: ENDBRANCH   2  12
DOCKED: BRANCH   2  18
DOCKED: ATOM     18  C   UNL     1     -46.652 -22.254  14.715 -0.21 +0.00    +0.006 A  
DOCKED: ATOM     19  C   UNL     1     -46.788 -20.914  14.358 -0.17 +0.00    +0.001 A  
DOCKED: ATOM     20  C   UNL     1     -45.689 -20.057  14.438 -0.12 +0.00    +0.029 A  
DOCKED: ATOM     21  C   UNL     1     -44.457 -20.542  14.876 -0.08 +0.00    +0.140 A  
DOCKED: ATOM     22  C   UNL     1     -44.322 -21.883  15.234 -0.14 +0.00    +0.029 A  
DOCKED: ATOM     23  F   UNL     1     -43.403 -19.719  14.955 -0.01 -0.00    -0.204 F  
DOCKED: ATOM     24  C   UNL     1     -45.421 -22.741  15.153 -0.19 +0.00    +0.001 A  
DOCKED: ENDBRANCH   2  18
DOCKED: TORSDOF 5
DOCKED: TER
DOCKED: ENDMDL
________________________________________________________________________________


    FINAL DOCKED STATE:
    ________________________


Run:   67 / 512
Time taken for this run:   0.002s

DOCKED: MODEL        67
DOCKED: USER    Run = 67
DOCKED: USER
DOCKED: USER    Estimated Free Energy of Binding    =  -5.14 kcal/mol  [=(1)+(2)+(3)-(4)]
DOCKED: USER
DOCKED: USER    (1) Final Intermolecular Energy     =  -6.63 kcal/mol
DOCKED: USER        vdW + Hbond + desolv Energy     =  -6.63 kcal/mol
DOCKED: USER        Electrostatic Energy            =  +0.00 kcal/mol
DOCKED: USER        Moving Ligand-Fixed Receptor    =  -6.63 kcal/mol
DOCKED: USER        Moving Ligand-Moving Receptor   =  +0.00 kcal/mol
DOCKED: USER    (2) Final Total Internal Energy     =  -1.04 kcal/mol
DOCKED: USER    (3) Torsional Free Energy           =  +1.49 kcal/mol
DOCKED: USER    (4) Unbound System's Energy         =  -1.04 kcal/mol
DOCKED: USER
DOCKED: USER
DOCKED: REMARK  5 active torsions:
DOCKED: REMARK  status: ('A' for Active; 'I' for Inactive)
DOCKED: REMARK    1  A    between atoms: C_2  and  C_19 
DOCKED: REMARK    2  A    between atoms: C_2  and  C_11 
DOCKED: REMARK    3  A    between atoms: C_19  and  C_20 
DOCKED: REMARK    4  A    between atoms: C_20  and  C_21 
DOCKED: REMARK    5  A    between atoms: C_21  and  N_22 
DOCKED: USER                              x       y       z     vdW  Elec       q    Type
DOCKED: USER                           _______ _______ _______ _____ _____    ______ ____
DOCKED: ROOT
DOCKED: ATOM      1  O   UNL     1     -52.466 -23.646  14.957 -0.03 -0.00    -0.346 OA 
DOCKED: ATOM      2  C   UNL     1     -51.185 -22.948  14.843 -0.12 +0.00    +0.130 C  
DOCKED: ATOM      3  C   UNL     1     -50.796 -23.144  13.406 -0.24 +0.00    +0.004 A  
DOCKED: ATOM      4  C   UNL     1     -51.816 -23.800  12.731 -0.30 +0.00    +0.006 A  
DOCKED: ATOM      5  C   UNL     1     -52.939 -24.068  13.657 -0.11 +0.00    +0.169 C  
DOCKED: ATOM      6  C   UNL     1     -49.637 -22.762  12.746 -0.33 -0.00    -0.001 A  
DOCKED: ATOM      7  C   UNL     1     -51.713 -24.099  11.383 -0.24 +0.00    +0.008 A  
DOCKED: ATOM      8  C   UNL     1     -49.516 -23.060  11.388 -0.36 +0.00    +0.010 A  
DOCKED: ATOM      9  C   UNL     1     -50.549 -23.725  10.710 -0.28 +0.00    +0.068 A  
DOCKED: ATOM     10  N   UNL     1     -50.294 -24.258   8.188 -2.78 -0.00    -0.191 NA 
DOCKED: ATOM     11  C   UNL     1     -50.408 -24.020   9.319 -0.27 +0.00    +0.101 C  
DOCKED: ENDROOT
DOCKED: BRANCH   2  12
DOCKED: ATOM     12  C   UNL     1     -51.399 -21.483  15.205 -0.11 +0.00    +0.038 C  
DOCKED: BRANCH  12  13
DOCKED: ATOM     13  C   UNL     1     -50.105 -20.836  15.695 -0.07 +0.00    +0.038 C  
DOCKED: BRANCH  13  14
DOCKED: ATOM     14  C   UNL     1     -49.820 -19.539  14.940 -0.07 +0.00    +0.251 C  
DOCKED: BRANCH  14  15
DOCKED: ATOM     15  N   UNL     1     -48.401 -19.441  14.618 -0.08 +0.00    +0.141 N  
DOCKED: ATOM     16  C   UNL     1     -48.165 -19.789  13.216 -0.14 +0.00    +0.285 C  
DOCKED: ATOM     17  C   UNL     1     -47.901 -18.095  14.898 -0.03 +0.00    +0.285 C  
DOCKED: ENDBRANCH  14  15
DOCKED: ENDBRANCH  13  14
DOCKED: ENDBRANCH  12  13
DOCKED: ENDBRANCH   2  12
DOCKED: BRANCH   2  18
DOCKED: ATOM     18  C   UNL     1     -50.243 -23.606  15.795 -0.14 +0.00    +0.006 A  
DOCKED: ATOM     19  C   UNL     1     -49.018 -24.091  15.339 -0.23 +0.00    +0.001 A  
DOCKED: ATOM     20  C   UNL     1     -48.138 -24.707  16.231 -0.17 +0.00    +0.029 A  
DOCKED: ATOM     21  C   UNL     1     -48.484 -24.836  17.575 -0.17 +0.00    +0.140 A  
DOCKED: ATOM     22  C   UNL     1     -49.710 -24.350  18.030 -0.14 +0.00    +0.029 A  
DOCKED: ATOM     23  F   UNL     1     -47.639 -25.425  18.431 -0.09 -0.00    -0.204 F  
DOCKED: ATOM     24  C   UNL     1     -50.591 -23.735  17.139 -0.12 +0.00    +0.001 A  
DOCKED: ENDBRANCH   2  18
DOCKED: TORSDOF 5
DOCKED: TER
DOCKED: ENDMDL
________________________________________________________________________________


    FINAL DOCKED STATE:
    ________________________


Run:   68 / 512
Time taken for this run:   0.002s

DOCKED: MODEL        68
DOCKED: USER    Run = 68
DOCKED: USER
DOCKED: USER    Estimated Free Energy of Binding    =  -4.14 kcal/mol  [=(1)+(2)+(3)-(4)]
DOCKED: USER
DOCKED: USER    (1) Final Intermolecular Energy     =  -5.63 kcal/mol
DOCKED: USER        vdW + Hbond + desolv Energy     =  -5.63 kcal/mol
DOCKED: USER        Electrostatic Energy            =  +0.00 kcal/mol
DOCKED: USER        Moving Ligand-Fixed Receptor    =  -5.63 kcal/mol
DOCKED: USER        Moving Ligand-Moving Receptor   =  +0.00 kcal/mol
DOCKED: USER    (2) Final Total Internal Energy     =  -1.47 kcal/mol
DOCKED: USER    (3) Torsional Free Energy           =  +1.49 kcal/mol
DOCKED: USER    (4) Unbound System's Energy         =  -1.47 kcal/mol
DOCKED: USER
DOCKED: USER
DOCKED: REMARK  5 active torsions:
DOCKED: REMARK  status: ('A' for Active; 'I' for Inactive)
DOCKED: REMARK    1  A    between atoms: C_2  and  C_19 
DOCKED: REMARK    2  A    between atoms: C_2  and  C_11 
DOCKED: REMARK    3  A    between atoms: C_19  and  C_20 
DOCKED: REMARK    4  A    between atoms: C_20  and  C_21 
DOCKED: REMARK    5  A    between atoms: C_21  and  N_22 
DOCKED: USER                              x       y       z     vdW  Elec       q    Type
DOCKED: USER                           _______ _______ _______ _____ _____    ______ ____
DOCKED: ROOT
DOCKED: ATOM      1  O   UNL     1     -47.099 -20.475  15.875 -0.01 -0.00    -0.346 OA 
DOCKED: ATOM      2  C   UNL     1     -47.594 -19.896  14.625 -0.11 +0.00    +0.130 C  
DOCKED: ATOM      3  C   UNL     1     -48.174 -21.069  13.890 -0.23 +0.00    +0.004 A  
DOCKED: ATOM      4  C   UNL     1     -48.116 -22.199  14.694 -0.19 +0.00    +0.006 A  
DOCKED: ATOM      5  C   UNL     1     -47.515 -21.854  16.002 -0.08 +0.00    +0.169 C  
DOCKED: ATOM      6  C   UNL     1     -48.719 -21.130  12.616 -0.06 -0.00    -0.001 A  
DOCKED: ATOM      7  C   UNL     1     -48.594 -23.421  14.254 -0.27 +0.00    +0.008 A  
DOCKED: ATOM      8  C   UNL     1     -49.201 -22.356  12.156 -0.32 +0.00    +0.010 A  
DOCKED: ATOM      9  C   UNL     1     -49.140 -23.496  12.972 -0.31 +0.00    +0.068 A  
DOCKED: ATOM     10  N   UNL     1     -50.049 -25.756  12.090 -2.61 -0.00    -0.191 NA 
DOCKED: ATOM     11  C   UNL     1     -49.640 -24.743  12.485 -0.31 +0.00    +0.101 C  
DOCKED: ENDROOT
DOCKED: BRANCH   2  12
DOCKED: ATOM     12  C   UNL     1     -48.634 -18.834  14.964 -0.08 +0.00    +0.038 C  
DOCKED: BRANCH  12  13
DOCKED: ATOM     13  C   UNL     1     -49.861 -19.450  15.634 -0.06 +0.00    +0.038 C  
DOCKED: BRANCH  13  14
DOCKED: ATOM     14  C   UNL     1     -51.019 -19.582  14.646 -0.10 +0.00    +0.251 C  
DOCKED: BRANCH  14  15
DOCKED: ATOM     15  N   UNL     1     -51.492 -20.960  14.600 -0.10 +0.00    +0.141 N  
DOCKED: ATOM     16  C   UNL     1     -51.969 -21.386  15.917 -0.01 +0.00    +0.285 C  
DOCKED: ATOM     17  C   UNL     1     -52.555 -21.107  13.604 -0.13 +0.00    +0.285 C  
DOCKED: ENDBRANCH  14  15
DOCKED: ENDBRANCH  13  14
DOCKED: ENDBRANCH  12  13
DOCKED: ENDBRANCH   2  12
DOCKED: BRANCH   2  18
DOCKED: ATOM     18  C   UNL     1     -46.419 -19.295  13.928 -0.14 +0.00    +0.006 A  
DOCKED: ATOM     19  C   UNL     1     -45.126 -19.651  14.308 -0.11 +0.00    +0.001 A  
DOCKED: ATOM     20  C   UNL     1     -44.029 -19.089  13.656 -0.08 +0.00    +0.029 A  
DOCKED: ATOM     21  C   UNL     1     -44.225 -18.172  12.624 -0.06 +0.00    +0.140 A  
DOCKED: ATOM     22  C   UNL     1     -45.519 -17.816  12.244 -0.10 +0.00    +0.029 A  
DOCKED: ATOM     23  F   UNL     1     -43.172 -17.633  11.997 -0.00 -0.00    -0.204 F  
DOCKED: ATOM     24  C   UNL     1     -46.618 -18.378  12.897 -0.14 +0.00    +0.001 A  
DOCKED: ENDBRANCH   2  18
DOCKED: TORSDOF 5
DOCKED: TER
DOCKED: ENDMDL
________________________________________________________________________________


    FINAL DOCKED STATE:
    ________________________


Run:   69 / 512
Time taken for this run:   0.002s

DOCKED: MODEL        69
DOCKED: USER    Run = 69
DOCKED: USER
DOCKED: USER    Estimated Free Energy of Binding    =  -4.49 kcal/mol  [=(1)+(2)+(3)-(4)]
DOCKED: USER
DOCKED: USER    (1) Final Intermolecular Energy     =  -5.98 kcal/mol
DOCKED: USER        vdW + Hbond + desolv Energy     =  -5.98 kcal/mol
DOCKED: USER        Electrostatic Energy            =  +0.00 kcal/mol
DOCKED: USER        Moving Ligand-Fixed Receptor    =  -5.98 kcal/mol
DOCKED: USER        Moving Ligand-Moving Receptor   =  +0.00 kcal/mol
DOCKED: USER    (2) Final Total Internal Energy     =  -1.31 kcal/mol
DOCKED: USER    (3) Torsional Free Energy           =  +1.49 kcal/mol
DOCKED: USER    (4) Unbound System's Energy         =  -1.31 kcal/mol
DOCKED: USER
DOCKED: USER
DOCKED: REMARK  5 active torsions:
DOCKED: REMARK  status: ('A' for Active; 'I' for Inactive)
DOCKED: REMARK    1  A    between atoms: C_2  and  C_19 
DOCKED: REMARK    2  A    between atoms: C_2  and  C_11 
DOCKED: REMARK    3  A    between atoms: C_19  and  C_20 
DOCKED: REMARK    4  A    between atoms: C_20  and  C_21 
DOCKED: REMARK    5  A    between atoms: C_21  and  N_22 
DOCKED: USER                              x       y       z     vdW  Elec       q    Type
DOCKED: USER                           _______ _______ _______ _____ _____    ______ ____
DOCKED: ROOT
DOCKED: ATOM      1  O   UNL     1     -47.616 -19.447  14.311 -0.04 -0.00    -0.346 OA 
DOCKED: ATOM      2  C   UNL     1     -49.071 -19.438  14.463 -0.12 +0.00    +0.130 C  
DOCKED: ATOM      3  C   UNL     1     -49.495 -20.782  13.947 -0.21 +0.00    +0.004 A  
DOCKED: ATOM      4  C   UNL     1     -48.374 -21.536  13.632 -0.27 +0.00    +0.006 A  
DOCKED: ATOM      5  C   UNL     1     -47.148 -20.761  13.924 -0.17 +0.00    +0.169 C  
DOCKED: ATOM      6  C   UNL     1     -50.772 -21.300  13.781 -0.22 -0.00    -0.001 A  
DOCKED: ATOM      7  C   UNL     1     -48.488 -22.825  13.138 -0.33 +0.00    +0.008 A  
DOCKED: ATOM      8  C   UNL     1     -50.903 -22.597  13.280 -0.24 +0.00    +0.010 A  
DOCKED: ATOM      9  C   UNL     1     -49.767 -23.355  12.961 -0.27 +0.00    +0.068 A  
DOCKED: ATOM     10  N   UNL     1     -50.046 -25.760  12.038 -2.58 -0.00    -0.191 NA 
DOCKED: ATOM     11  C   UNL     1     -49.921 -24.681  12.451 -0.36 +0.00    +0.101 C  
DOCKED: ENDROOT
DOCKED: BRANCH   2  12
DOCKED: ATOM     12  C   UNL     1     -49.401 -19.237  15.938 -0.04 +0.00    +0.038 C  
DOCKED: BRANCH  12  13
DOCKED: ATOM     13  C   UNL     1     -49.280 -20.544  16.719 -0.04 +0.00    +0.038 C  
DOCKED: BRANCH  13  14
DOCKED: ATOM     14  C   UNL     1     -48.005 -20.565  17.560 -0.01 +0.00    +0.251 C  
DOCKED: BRANCH  14  15
DOCKED: ATOM     15  N   UNL     1     -47.617 -21.938  17.859 -0.03 +0.00    +0.141 N  
DOCKED: ATOM     16  C   UNL     1     -47.979 -22.829  16.755 -0.06 +0.00    +0.285 C  
DOCKED: ATOM     17  C   UNL     1     -46.181 -22.021  18.129 -0.03 +0.00    +0.285 C  
DOCKED: ENDBRANCH  14  15
DOCKED: ENDBRANCH  13  14
DOCKED: ENDBRANCH  12  13
DOCKED: ENDBRANCH   2  12
DOCKED: BRANCH   2  18
DOCKED: ATOM     18  C   UNL     1     -49.588 -18.308  13.637 -0.18 +0.00    +0.006 A  
DOCKED: ATOM     19  C   UNL     1     -48.706 -17.533  12.886 -0.14 +0.00    +0.001 A  
DOCKED: ATOM     20  C   UNL     1     -49.191 -16.476  12.114 -0.15 +0.00    +0.029 A  
DOCKED: ATOM     21  C   UNL     1     -50.556 -16.197  12.094 -0.11 +0.00    +0.140 A  
DOCKED: ATOM     22  C   UNL     1     -51.439 -16.972  12.846 -0.18 +0.00    +0.029 A  
DOCKED: ATOM     23  F   UNL     1     -51.022 -15.184  11.352 -0.03 -0.00    -0.204 F  
DOCKED: ATOM     24  C   UNL     1     -50.954 -18.029  13.619 -0.21 +0.00    +0.001 A  
DOCKED: ENDBRANCH   2  18
DOCKED: TORSDOF 5
DOCKED: TER
DOCKED: ENDMDL
________________________________________________________________________________


    FINAL DOCKED STATE:
    ________________________


Run:   70 / 512
Time taken for this run:   0.002s

DOCKED: MODEL        70
DOCKED: USER    Run = 70
DOCKED: USER
DOCKED: USER    Estimated Free Energy of Binding    =  -4.35 kcal/mol  [=(1)+(2)+(3)-(4)]
DOCKED: USER
DOCKED: USER    (1) Final Intermolecular Energy     =  -5.84 kcal/mol
DOCKED: USER        vdW + Hbond + desolv Energy     =  -5.84 kcal/mol
DOCKED: USER        Electrostatic Energy            =  +0.00 kcal/mol
DOCKED: USER        Moving Ligand-Fixed Receptor    =  -5.84 kcal/mol
DOCKED: USER        Moving Ligand-Moving Receptor   =  +0.00 kcal/mol
DOCKED: USER    (2) Final Total Internal Energy     =  -1.39 kcal/mol
DOCKED: USER    (3) Torsional Free Energy           =  +1.49 kcal/mol
DOCKED: USER    (4) Unbound System's Energy         =  -1.39 kcal/mol
DOCKED: USER
DOCKED: USER
DOCKED: REMARK  5 active torsions:
DOCKED: REMARK  status: ('A' for Active; 'I' for Inactive)
DOCKED: REMARK    1  A    between atoms: C_2  and  C_19 
DOCKED: REMARK    2  A    between atoms: C_2  and  C_11 
DOCKED: REMARK    3  A    between atoms: C_19  and  C_20 
DOCKED: REMARK    4  A    between atoms: C_20  and  C_21 
DOCKED: REMARK    5  A    between atoms: C_21  and  N_22 
DOCKED: USER                              x       y       z     vdW  Elec       q    Type
DOCKED: USER                           _______ _______ _______ _____ _____    ______ ____
DOCKED: ROOT
DOCKED: ATOM      1  O   UNL     1     -47.064 -19.911  14.807 -0.04 -0.00    -0.346 OA 
DOCKED: ATOM      2  C   UNL     1     -48.483 -19.624  14.597 -0.11 +0.00    +0.130 C  
DOCKED: ATOM      3  C   UNL     1     -49.020 -20.889  13.991 -0.21 +0.00    +0.004 A  
DOCKED: ATOM      4  C   UNL     1     -48.021 -21.852  13.959 -0.24 +0.00    +0.006 A  
DOCKED: ATOM      5  C   UNL     1     -46.777 -21.305  14.545 -0.14 +0.00    +0.169 C  
DOCKED: ATOM      6  C   UNL     1     -50.293 -21.168  13.515 -0.23 -0.00    -0.001 A  
DOCKED: ATOM      7  C   UNL     1     -48.256 -23.118  13.450 -0.32 +0.00    +0.008 A  
DOCKED: ATOM      8  C   UNL     1     -50.545 -22.439  12.996 -0.24 +0.00    +0.010 A  
DOCKED: ATOM      9  C   UNL     1     -49.532 -23.409  12.964 -0.28 +0.00    +0.068 A  
DOCKED: ATOM     10  N   UNL     1     -50.035 -25.759  11.997 -2.56 -0.00    -0.191 NA 
DOCKED: ATOM     11  C   UNL     1     -49.809 -24.705  12.430 -0.35 +0.00    +0.101 C  
DOCKED: ENDROOT
DOCKED: BRANCH   2  12
DOCKED: ATOM     12  C   UNL     1     -49.115 -19.299  15.946 -0.04 +0.00    +0.038 C  
DOCKED: BRANCH  12  13
DOCKED: ATOM     13  C   UNL     1     -49.710 -20.546  16.597 -0.04 +0.00    +0.038 C  
DOCKED: BRANCH  13  14
DOCKED: ATOM     14  C   UNL     1     -48.620 -21.411  17.227 -0.01 +0.00    +0.251 C  
DOCKED: BRANCH  14  15
DOCKED: ATOM     15  N   UNL     1     -48.828 -22.814  16.890 -0.06 +0.00    +0.141 N  
DOCKED: ATOM     16  C   UNL     1     -48.300 -23.682  17.944 -0.08 +0.00    +0.285 C  
DOCKED: ATOM     17  C   UNL     1     -50.249 -23.086  16.671 -0.03 +0.00    +0.285 C  
DOCKED: ENDBRANCH  14  15
DOCKED: ENDBRANCH  13  14
DOCKED: ENDBRANCH  12  13
DOCKED: ENDBRANCH   2  12
DOCKED: BRANCH   2  18
DOCKED: ATOM     18  C   UNL     1     -48.560 -18.457  13.671 -0.15 +0.00    +0.006 A  
DOCKED: ATOM     19  C   UNL     1     -47.396 -17.942  13.102 -0.12 +0.00    +0.001 A  
DOCKED: ATOM     20  C   UNL     1     -47.469 -16.850  12.236 -0.09 +0.00    +0.029 A  
DOCKED: ATOM     21  C   UNL     1     -48.705 -16.275  11.941 -0.11 +0.00    +0.140 A  
DOCKED: ATOM     22  C   UNL     1     -49.869 -16.791  12.511 -0.16 +0.00    +0.029 A  
DOCKED: ATOM     23  F   UNL     1     -48.775 -15.228  11.109 -0.03 -0.00    -0.204 F  
DOCKED: ATOM     24  C   UNL     1     -49.796 -17.883  13.377 -0.19 +0.00    +0.001 A  
DOCKED: ENDBRANCH   2  18
DOCKED: TORSDOF 5
DOCKED: TER
DOCKED: ENDMDL
________________________________________________________________________________


    FINAL DOCKED STATE:
    ________________________


Run:   71 / 512
Time taken for this run:   0.002s

DOCKED: MODEL        71
DOCKED: USER    Run = 71
DOCKED: USER
DOCKED: USER    Estimated Free Energy of Binding    =  -5.98 kcal/mol  [=(1)+(2)+(3)-(4)]
DOCKED: USER
DOCKED: USER    (1) Final Intermolecular Energy     =  -7.48 kcal/mol
DOCKED: USER        vdW + Hbond + desolv Energy     =  -7.48 kcal/mol
DOCKED: USER        Electrostatic Energy            =  +0.00 kcal/mol
DOCKED: USER        Moving Ligand-Fixed Receptor    =  -7.48 kcal/mol
DOCKED: USER        Moving Ligand-Moving Receptor   =  +0.00 kcal/mol
DOCKED: USER    (2) Final Total Internal Energy     =  -1.17 kcal/mol
DOCKED: USER    (3) Torsional Free Energy           =  +1.49 kcal/mol
DOCKED: USER    (4) Unbound System's Energy         =  -1.17 kcal/mol
DOCKED: USER
DOCKED: USER
DOCKED: REMARK  5 active torsions:
DOCKED: REMARK  status: ('A' for Active; 'I' for Inactive)
DOCKED: REMARK    1  A    between atoms: C_2  and  C_19 
DOCKED: REMARK    2  A    between atoms: C_2  and  C_11 
DOCKED: REMARK    3  A    between atoms: C_19  and  C_20 
DOCKED: REMARK    4  A    between atoms: C_20  and  C_21 
DOCKED: REMARK    5  A    between atoms: C_21  and  N_22 
DOCKED: USER                              x       y       z     vdW  Elec       q    Type
DOCKED: USER                           _______ _______ _______ _____ _____    ______ ____
DOCKED: ROOT
DOCKED: ATOM      1  O   UNL     1     -48.220 -21.721  14.763 -0.05 -0.00    -0.346 OA 
DOCKED: ATOM      2  C   UNL     1     -48.020 -23.170  14.700 -0.23 +0.00    +0.130 C  
DOCKED: ATOM      3  C   UNL     1     -48.527 -23.544  13.338 -0.35 +0.00    +0.004 A  
DOCKED: ATOM      4  C   UNL     1     -48.883 -22.399  12.640 -0.34 +0.00    +0.006 A  
DOCKED: ATOM      5  C   UNL     1     -48.627 -21.203  13.475 -0.23 +0.00    +0.169 C  
DOCKED: ATOM      6  C   UNL     1     -48.653 -24.798  12.757 -0.30 -0.00    -0.001 A  
DOCKED: ATOM      7  C   UNL     1     -49.377 -22.465  11.349 -0.00 +0.00    +0.008 A  
DOCKED: ATOM      8  C   UNL     1     -49.154 -24.882  11.457 -0.48 +0.00    +0.010 A  
DOCKED: ATOM      9  C   UNL     1     -49.514 -23.721  10.757 -0.41 +0.00    +0.068 A  
DOCKED: ATOM     10  N   UNL     1     -50.437 -23.913   8.343 -3.16 -0.00    -0.191 NA 
DOCKED: ATOM     11  C   UNL     1     -50.024 -23.827   9.426 -0.42 +0.00    +0.101 C  
DOCKED: ENDROOT
DOCKED: BRANCH   2  12
DOCKED: ATOM     12  C   UNL     1     -46.534 -23.460  14.881 -0.17 +0.00    +0.038 C  
DOCKED: BRANCH  12  13
DOCKED: ATOM     13  C   UNL     1     -45.748 -22.182  15.165 -0.20 +0.00    +0.038 C  
DOCKED: BRANCH  13  14
DOCKED: ATOM     14  C   UNL     1     -45.964 -21.712  16.602 -0.06 +0.00    +0.251 C  
DOCKED: BRANCH  14  15
DOCKED: ATOM     15  N   UNL     1     -44.741 -21.876  17.379 -0.05 +0.00    +0.141 N  
DOCKED: ATOM     16  C   UNL     1     -44.661 -20.866  18.436 -0.01 +0.00    +0.285 C  
DOCKED: ATOM     17  C   UNL     1     -44.672 -23.220  17.955 -0.06 +0.00    +0.285 C  
DOCKED: ENDBRANCH  14  15
DOCKED: ENDBRANCH  13  14
DOCKED: ENDBRANCH  12  13
DOCKED: ENDBRANCH   2  12
DOCKED: BRANCH   2  18
DOCKED: ATOM     18  C   UNL     1     -48.823 -23.769  15.805 -0.19 +0.00    +0.006 A  
DOCKED: ATOM     19  C   UNL     1     -50.197 -23.948  15.649 -0.18 +0.00    +0.001 A  
DOCKED: ATOM     20  C   UNL     1     -50.948 -24.508  16.684 -0.15 +0.00    +0.029 A  
DOCKED: ATOM     21  C   UNL     1     -50.324 -24.890  17.871 -0.03 +0.00    +0.140 A  
DOCKED: ATOM     22  C   UNL     1     -48.950 -24.711  18.025 -0.19 +0.00    +0.029 A  
DOCKED: ATOM     23  F   UNL     1     -51.045 -25.430  18.862 -0.04 -0.00    -0.204 F  
DOCKED: ATOM     24  C   UNL     1     -48.198 -24.150  16.992 -0.20 +0.00    +0.001 A  
DOCKED: ENDBRANCH   2  18
DOCKED: TORSDOF 5
DOCKED: TER
DOCKED: ENDMDL
________________________________________________________________________________


    FINAL DOCKED STATE:
    ________________________


Run:   72 / 512
Time taken for this run:   0.002s

DOCKED: MODEL        72
DOCKED: USER    Run = 72
DOCKED: USER
DOCKED: USER    Estimated Free Energy of Binding    =  -4.31 kcal/mol  [=(1)+(2)+(3)-(4)]
DOCKED: USER
DOCKED: USER    (1) Final Intermolecular Energy     =  -5.80 kcal/mol
DOCKED: USER        vdW + Hbond + desolv Energy     =  -5.80 kcal/mol
DOCKED: USER        Electrostatic Energy            =  +0.00 kcal/mol
DOCKED: USER        Moving Ligand-Fixed Receptor    =  -5.80 kcal/mol
DOCKED: USER        Moving Ligand-Moving Receptor   =  +0.00 kcal/mol
DOCKED: USER    (2) Final Total Internal Energy     =  -1.35 kcal/mol
DOCKED: USER    (3) Torsional Free Energy           =  +1.49 kcal/mol
DOCKED: USER    (4) Unbound System's Energy         =  -1.35 kcal/mol
DOCKED: USER
DOCKED: USER
DOCKED: REMARK  5 active torsions:
DOCKED: REMARK  status: ('A' for Active; 'I' for Inactive)
DOCKED: REMARK    1  A    between atoms: C_2  and  C_19 
DOCKED: REMARK    2  A    between atoms: C_2  and  C_11 
DOCKED: REMARK    3  A    between atoms: C_19  and  C_20 
DOCKED: REMARK    4  A    between atoms: C_20  and  C_21 
DOCKED: REMARK    5  A    between atoms: C_21  and  N_22 
DOCKED: USER                              x       y       z     vdW  Elec       q    Type
DOCKED: USER                           _______ _______ _______ _____ _____    ______ ____
DOCKED: ROOT
DOCKED: ATOM      1  O   UNL     1     -47.629 -19.494  14.390 -0.04 -0.00    -0.346 OA 
DOCKED: ATOM      2  C   UNL     1     -49.070 -19.537  14.644 -0.11 +0.00    +0.130 C  
DOCKED: ATOM      3  C   UNL     1     -49.493 -20.865  14.087 -0.20 +0.00    +0.004 A  
DOCKED: ATOM      4  C   UNL     1     -48.378 -21.567  13.654 -0.26 +0.00    +0.006 A  
DOCKED: ATOM      5  C   UNL     1     -47.155 -20.770  13.902 -0.16 +0.00    +0.169 C  
DOCKED: ATOM      6  C   UNL     1     -50.764 -21.413  13.983 -0.20 -0.00    -0.001 A  
DOCKED: ATOM      7  C   UNL     1     -48.491 -22.831  13.102 -0.33 +0.00    +0.008 A  
DOCKED: ATOM      8  C   UNL     1     -50.895 -22.686  13.424 -0.23 +0.00    +0.010 A  
DOCKED: ATOM      9  C   UNL     1     -49.765 -23.391  12.986 -0.27 +0.00    +0.068 A  
DOCKED: ATOM     10  N   UNL     1     -50.044 -25.753  11.958 -2.53 -0.00    -0.191 NA 
DOCKED: ATOM     11  C   UNL     1     -49.919 -24.693  12.418 -0.36 +0.00    +0.101 C  
DOCKED: ENDROOT
DOCKED: BRANCH   2  12
DOCKED: ATOM     12  C   UNL     1     -49.299 -19.422  16.146 -0.04 +0.00    +0.038 C  
DOCKED: BRANCH  12  13
DOCKED: ATOM     13  C   UNL     1     -48.340 -20.320  16.926 -0.03 +0.00    +0.038 C  
DOCKED: BRANCH  13  14
DOCKED: ATOM     14  C   UNL     1     -49.051 -21.573  17.434 -0.01 +0.00    +0.251 C  
DOCKED: BRANCH  14  15
DOCKED: ATOM     15  N   UNL     1     -48.172 -22.731  17.332 -0.06 +0.00    +0.141 N  
DOCKED: ATOM     16  C   UNL     1     -47.959 -23.335  18.649 -0.05 +0.00    +0.285 C  
DOCKED: ATOM     17  C   UNL     1     -48.726 -23.719  16.405 -0.09 +0.00    +0.285 C  
DOCKED: ENDBRANCH  14  15
DOCKED: ENDBRANCH  13  14
DOCKED: ENDBRANCH  12  13
DOCKED: ENDBRANCH   2  12
DOCKED: BRANCH   2  18
DOCKED: ATOM     18  C   UNL     1     -49.675 -18.382  13.917 -0.17 +0.00    +0.006 A  
DOCKED: ATOM     19  C   UNL     1     -50.913 -17.879  14.317 -0.13 +0.00    +0.001 A  
DOCKED: ATOM     20  C   UNL     1     -51.478 -16.800  13.637 -0.14 +0.00    +0.029 A  
DOCKED: ATOM     21  C   UNL     1     -50.806 -16.225  12.559 -0.13 +0.00    +0.140 A  
DOCKED: ATOM     22  C   UNL     1     -49.568 -16.729  12.160 -0.13 +0.00    +0.029 A  
DOCKED: ATOM     23  F   UNL     1     -51.347 -15.188  11.908 -0.02 -0.00    -0.204 F  
DOCKED: ATOM     24  C   UNL     1     -49.002 -17.809  12.840 -0.13 +0.00    +0.001 A  
DOCKED: ENDBRANCH   2  18
DOCKED: TORSDOF 5
DOCKED: TER
DOCKED: ENDMDL
________________________________________________________________________________


    FINAL DOCKED STATE:
    ________________________


Run:   73 / 512
Time taken for this run:   0.002s

DOCKED: MODEL        73
DOCKED: USER    Run = 73
DOCKED: USER
DOCKED: USER    Estimated Free Energy of Binding    =  -5.19 kcal/mol  [=(1)+(2)+(3)-(4)]
DOCKED: USER
DOCKED: USER    (1) Final Intermolecular Energy     =  -6.68 kcal/mol
DOCKED: USER        vdW + Hbond + desolv Energy     =  -6.68 kcal/mol
DOCKED: USER        Electrostatic Energy            =  +0.00 kcal/mol
DOCKED: USER        Moving Ligand-Fixed Receptor    =  -6.68 kcal/mol
DOCKED: USER        Moving Ligand-Moving Receptor   =  +0.00 kcal/mol
DOCKED: USER    (2) Final Total Internal Energy     =  -1.21 kcal/mol
DOCKED: USER    (3) Torsional Free Energy           =  +1.49 kcal/mol
DOCKED: USER    (4) Unbound System's Energy         =  -1.21 kcal/mol
DOCKED: USER
DOCKED: USER
DOCKED: REMARK  5 active torsions:
DOCKED: REMARK  status: ('A' for Active; 'I' for Inactive)
DOCKED: REMARK    1  A    between atoms: C_2  and  C_19 
DOCKED: REMARK    2  A    between atoms: C_2  and  C_11 
DOCKED: REMARK    3  A    between atoms: C_19  and  C_20 
DOCKED: REMARK    4  A    between atoms: C_20  and  C_21 
DOCKED: REMARK    5  A    between atoms: C_21  and  N_22 
DOCKED: USER                              x       y       z     vdW  Elec       q    Type
DOCKED: USER                           _______ _______ _______ _____ _____    ______ ____
DOCKED: ROOT
DOCKED: ATOM      1  O   UNL     1     -49.439 -24.192  15.741 -0.08 -0.00    -0.346 OA 
DOCKED: ATOM      2  C   UNL     1     -49.012 -22.891  15.226 -0.13 +0.00    +0.130 C  
DOCKED: ATOM      3  C   UNL     1     -49.231 -23.000  13.745 -0.26 +0.00    +0.004 A  
DOCKED: ATOM      4  C   UNL     1     -49.835 -24.215  13.451 -0.29 +0.00    +0.006 A  
DOCKED: ATOM      5  C   UNL     1     -50.064 -24.977  14.699 -0.12 +0.00    +0.169 C  
DOCKED: ATOM      6  C   UNL     1     -48.932 -22.093  12.740 -0.33 -0.00    -0.001 A  
DOCKED: ATOM      7  C   UNL     1     -50.154 -24.565  12.150 -0.41 +0.00    +0.008 A  
DOCKED: ATOM      8  C   UNL     1     -49.243 -22.432  11.422 -0.09 +0.00    +0.010 A  
DOCKED: ATOM      9  C   UNL     1     -49.852 -23.662  11.129 -0.40 +0.00    +0.068 A  
DOCKED: ATOM     10  N   UNL     1     -50.421 -24.260   8.673 -2.61 -0.00    -0.191 NA 
DOCKED: ATOM     11  C   UNL     1     -50.165 -23.992   9.775 -0.43 +0.00    +0.101 C  
DOCKED: ENDROOT
DOCKED: BRANCH   2  12
DOCKED: ATOM     12  C   UNL     1     -49.868 -21.810  15.875 -0.08 +0.00    +0.038 C  
DOCKED: BRANCH  12  13
DOCKED: ATOM     13  C   UNL     1     -51.002 -21.369  14.951 -0.13 +0.00    +0.038 C  
DOCKED: BRANCH  13  14
DOCKED: ATOM     14  C   UNL     1     -51.134 -19.847  14.932 -0.07 +0.00    +0.251 C  
DOCKED: BRANCH  14  15
DOCKED: ATOM     15  N   UNL     1     -50.500 -19.298  13.740 -0.19 +0.00    +0.141 N  
DOCKED: ATOM     16  C   UNL     1     -51.267 -18.163  13.224 -0.15 +0.00    +0.285 C  
DOCKED: ATOM     17  C   UNL     1     -49.124 -18.891  14.029 -0.11 +0.00    +0.285 C  
DOCKED: ENDBRANCH  14  15
DOCKED: ENDBRANCH  13  14
DOCKED: ENDBRANCH  12  13
DOCKED: ENDBRANCH   2  12
DOCKED: BRANCH   2  18
DOCKED: ATOM     18  C   UNL     1     -47.573 -22.729  15.590 -0.17 +0.00    +0.006 A  
DOCKED: ATOM     19  C   UNL     1     -47.224 -22.110  16.790 -0.09 +0.00    +0.001 A  
DOCKED: ATOM     20  C   UNL     1     -45.879 -21.959  17.129 -0.08 +0.00    +0.029 A  
DOCKED: ATOM     21  C   UNL     1     -44.886 -22.427  16.269 -0.10 +0.00    +0.140 A  
DOCKED: ATOM     22  C   UNL     1     -45.236 -23.045  15.070 -0.09 +0.00    +0.029 A  
DOCKED: ATOM     23  F   UNL     1     -43.595 -22.283  16.596 -0.02 -0.00    -0.204 F  
DOCKED: ATOM     24  C   UNL     1     -46.582 -23.197  14.729 -0.23 +0.00    +0.001 A  
DOCKED: ENDBRANCH   2  18
DOCKED: TORSDOF 5
DOCKED: TER
DOCKED: ENDMDL
________________________________________________________________________________


    FINAL DOCKED STATE:
    ________________________


Run:   74 / 512
Time taken for this run:   0.002s

DOCKED: MODEL        74
DOCKED: USER    Run = 74
DOCKED: USER
DOCKED: USER    Estimated Free Energy of Binding    =  -4.52 kcal/mol  [=(1)+(2)+(3)-(4)]
DOCKED: USER
DOCKED: USER    (1) Final Intermolecular Energy     =  -6.02 kcal/mol
DOCKED: USER        vdW + Hbond + desolv Energy     =  -6.02 kcal/mol
DOCKED: USER        Electrostatic Energy            =  +0.00 kcal/mol
DOCKED: USER        Moving Ligand-Fixed Receptor    =  -6.02 kcal/mol
DOCKED: USER        Moving Ligand-Moving Receptor   =  +0.00 kcal/mol
DOCKED: USER    (2) Final Total Internal Energy     =  -1.32 kcal/mol
DOCKED: USER    (3) Torsional Free Energy           =  +1.49 kcal/mol
DOCKED: USER    (4) Unbound System's Energy         =  -1.32 kcal/mol
DOCKED: USER
DOCKED: USER
DOCKED: REMARK  5 active torsions:
DOCKED: REMARK  status: ('A' for Active; 'I' for Inactive)
DOCKED: REMARK    1  A    between atoms: C_2  and  C_19 
DOCKED: REMARK    2  A    between atoms: C_2  and  C_11 
DOCKED: REMARK    3  A    between atoms: C_19  and  C_20 
DOCKED: REMARK    4  A    between atoms: C_20  and  C_21 
DOCKED: REMARK    5  A    between atoms: C_21  and  N_22 
DOCKED: USER                              x       y       z     vdW  Elec       q    Type
DOCKED: USER                           _______ _______ _______ _____ _____    ______ ____
DOCKED: ROOT
DOCKED: ATOM      1  O   UNL     1     -48.164 -24.036  15.487 -0.09 -0.00    -0.346 OA 
DOCKED: ATOM      2  C   UNL     1     -48.229 -22.686  14.926 -0.17 +0.00    +0.130 C  
DOCKED: ATOM      3  C   UNL     1     -48.683 -22.907  13.512 -0.31 +0.00    +0.004 A  
DOCKED: ATOM      4  C   UNL     1     -48.960 -24.252  13.315 -0.36 +0.00    +0.006 A  
DOCKED: ATOM      5  C   UNL     1     -48.725 -25.002  14.568 -0.08 +0.00    +0.169 C  
DOCKED: ATOM      6  C   UNL     1     -48.848 -21.988  12.485 -0.31 -0.00    -0.001 A  
DOCKED: ATOM      7  C   UNL     1     -49.405 -24.724  12.092 -0.45 +0.00    +0.008 A  
DOCKED: ATOM      8  C   UNL     1     -49.292 -22.450  11.245 +0.01 +0.00    +0.010 A  
DOCKED: ATOM      9  C   UNL     1     -49.570 -23.811  11.050 -0.42 +0.00    +0.068 A  
DOCKED: ATOM     10  N   UNL     1     -50.397 -24.633   8.736 -2.32 -0.00    -0.191 NA 
DOCKED: ATOM     11  C   UNL     1     -50.025 -24.265   9.773 -0.50 +0.00    +0.101 C  
DOCKED: ENDROOT
DOCKED: BRANCH   2  12
DOCKED: ATOM     12  C   UNL     1     -49.219 -21.869  15.746 -0.09 +0.00    +0.038 C  
DOCKED: BRANCH  12  13
DOCKED: ATOM     13  C   UNL     1     -48.664 -21.551  17.133 -0.05 +0.00    +0.038 C  
DOCKED: BRANCH  13  14
DOCKED: ATOM     14  C   UNL     1     -48.762 -20.056  17.434 -0.00 +0.00    +0.251 C  
DOCKED: BRANCH  14  15
DOCKED: ATOM     15  N   UNL     1     -47.447 -19.433  17.338 -0.01 +0.00    +0.141 N  
DOCKED: ATOM     16  C   UNL     1     -47.574 -18.003  17.052 -0.00 +0.00    +0.285 C  
DOCKED: ATOM     17  C   UNL     1     -46.687 -19.638  18.572 -0.00 +0.00    +0.285 C  
DOCKED: ENDBRANCH  14  15
DOCKED: ENDBRANCH  13  14
DOCKED: ENDBRANCH  12  13
DOCKED: ENDBRANCH   2  12
DOCKED: BRANCH   2  18
DOCKED: ATOM     18  C   UNL     1     -46.854 -22.112  15.012 -0.19 +0.00    +0.006 A  
DOCKED: ATOM     19  C   UNL     1     -46.623 -20.796  14.614 -0.15 +0.00    +0.001 A  
DOCKED: ATOM     20  C   UNL     1     -45.338 -20.259  14.696 -0.11 +0.00    +0.029 A  
DOCKED: ATOM     21  C   UNL     1     -44.286 -21.039  15.175 -0.09 +0.00    +0.140 A  
DOCKED: ATOM     22  C   UNL     1     -44.518 -22.355  15.573 -0.16 +0.00    +0.029 A  
DOCKED: ATOM     23  F   UNL     1     -43.052 -20.524  15.254 -0.01 -0.00    -0.204 F  
DOCKED: ATOM     24  C   UNL     1     -45.804 -22.893  15.491 -0.15 +0.00    +0.001 A  
DOCKED: ENDBRANCH   2  18
DOCKED: TORSDOF 5
DOCKED: TER
DOCKED: ENDMDL
________________________________________________________________________________


    FINAL DOCKED STATE:
    ________________________


Run:   75 / 512
Time taken for this run:   0.002s

DOCKED: MODEL        75
DOCKED: USER    Run = 75
DOCKED: USER
DOCKED: USER    Estimated Free Energy of Binding    =  -4.32 kcal/mol  [=(1)+(2)+(3)-(4)]
DOCKED: USER
DOCKED: USER    (1) Final Intermolecular Energy     =  -5.81 kcal/mol
DOCKED: USER        vdW + Hbond + desolv Energy     =  -5.81 kcal/mol
DOCKED: USER        Electrostatic Energy            =  +0.00 kcal/mol
DOCKED: USER        Moving Ligand-Fixed Receptor    =  -5.81 kcal/mol
DOCKED: USER        Moving Ligand-Moving Receptor   =  +0.00 kcal/mol
DOCKED: USER    (2) Final Total Internal Energy     =  -1.22 kcal/mol
DOCKED: USER    (3) Torsional Free Energy           =  +1.49 kcal/mol
DOCKED: USER    (4) Unbound System's Energy         =  -1.22 kcal/mol
DOCKED: USER
DOCKED: USER
DOCKED: REMARK  5 active torsions:
DOCKED: REMARK  status: ('A' for Active; 'I' for Inactive)
DOCKED: REMARK    1  A    between atoms: C_2  and  C_19 
DOCKED: REMARK    2  A    between atoms: C_2  and  C_11 
DOCKED: REMARK    3  A    between atoms: C_19  and  C_20 
DOCKED: REMARK    4  A    between atoms: C_20  and  C_21 
DOCKED: REMARK    5  A    between atoms: C_21  and  N_22 
DOCKED: USER                              x       y       z     vdW  Elec       q    Type
DOCKED: USER                           _______ _______ _______ _____ _____    ______ ____
DOCKED: ROOT
DOCKED: ATOM      1  O   UNL     1     -45.543 -21.381  15.302 -0.07 -0.00    -0.346 OA 
DOCKED: ATOM      2  C   UNL     1     -46.492 -20.497  14.623 -0.13 +0.00    +0.130 C  
DOCKED: ATOM      3  C   UNL     1     -47.455 -21.441  13.965 -0.22 +0.00    +0.004 A  
DOCKED: ATOM      4  C   UNL     1     -47.151 -22.746  14.326 -0.24 +0.00    +0.006 A  
DOCKED: ATOM      5  C   UNL     1     -45.991 -22.755  15.245 -0.17 +0.00    +0.169 C  
DOCKED: ATOM      6  C   UNL     1     -48.523 -21.167  13.123 -0.28 -0.00    -0.001 A  
DOCKED: ATOM      7  C   UNL     1     -47.895 -23.815  13.859 -0.34 +0.00    +0.008 A  
DOCKED: ATOM      8  C   UNL     1     -49.281 -22.235  12.640 -0.32 +0.00    +0.010 A  
DOCKED: ATOM      9  C   UNL     1     -48.969 -23.552  13.006 -0.31 +0.00    +0.068 A  
DOCKED: ATOM     10  N   UNL     1     -50.398 -25.511  12.095 -2.56 -0.00    -0.191 NA 
DOCKED: ATOM     11  C   UNL     1     -49.757 -24.633  12.503 -0.37 +0.00    +0.101 C  
DOCKED: ENDROOT
DOCKED: BRANCH   2  12
DOCKED: ATOM     12  C   UNL     1     -47.153 -19.606  15.668 -0.06 +0.00    +0.038 C  
DOCKED: BRANCH  12  13
DOCKED: ATOM     13  C   UNL     1     -46.117 -18.808  16.457 -0.02 +0.00    +0.038 C  
DOCKED: BRANCH  13  14
DOCKED: ATOM     14  C   UNL     1     -45.991 -17.385  15.917 -0.00 +0.00    +0.251 C  
DOCKED: BRANCH  14  15
DOCKED: ATOM     15  N   UNL     1     -47.309 -16.778  15.775 -0.01 +0.00    +0.141 N  
DOCKED: ATOM     16  C   UNL     1     -47.626 -15.954  16.942 +0.00 +0.00    +0.285 C  
DOCKED: ATOM     17  C   UNL     1     -47.377 -15.975  14.552 -0.01 +0.00    +0.285 C  
DOCKED: ENDBRANCH  14  15
DOCKED: ENDBRANCH  13  14
DOCKED: ENDBRANCH  12  13
DOCKED: ENDBRANCH   2  12
DOCKED: BRANCH   2  18
DOCKED: ATOM     18  C   UNL     1     -45.709 -19.688  13.643 -0.14 +0.00    +0.006 A  
DOCKED: ATOM     19  C   UNL     1     -46.370 -18.844  12.751 -0.16 +0.00    +0.001 A  
DOCKED: ATOM     20  C   UNL     1     -45.637 -18.089  11.835 -0.13 +0.00    +0.029 A  
DOCKED: ATOM     21  C   UNL     1     -44.246 -18.177  11.812 -0.08 +0.00    +0.140 A  
DOCKED: ATOM     22  C   UNL     1     -43.586 -19.021  12.705 -0.09 +0.00    +0.029 A  
DOCKED: ATOM     23  F   UNL     1     -43.543 -17.450  10.934 -0.00 -0.00    -0.204 F  
DOCKED: ATOM     24  C   UNL     1     -44.318 -19.777  13.622 -0.10 +0.00    +0.001 A  
DOCKED: ENDBRANCH   2  18
DOCKED: TORSDOF 5
DOCKED: TER
DOCKED: ENDMDL
________________________________________________________________________________


    FINAL DOCKED STATE:
    ________________________


Run:   76 / 512
Time taken for this run:   0.002s

DOCKED: MODEL        76
DOCKED: USER    Run = 76
DOCKED: USER
DOCKED: USER    Estimated Free Energy of Binding    =  -4.06 kcal/mol  [=(1)+(2)+(3)-(4)]
DOCKED: USER
DOCKED: USER    (1) Final Intermolecular Energy     =  -5.56 kcal/mol
DOCKED: USER        vdW + Hbond + desolv Energy     =  -5.56 kcal/mol
DOCKED: USER        Electrostatic Energy            =  +0.00 kcal/mol
DOCKED: USER        Moving Ligand-Fixed Receptor    =  -5.56 kcal/mol
DOCKED: USER        Moving Ligand-Moving Receptor   =  +0.00 kcal/mol
DOCKED: USER    (2) Final Total Internal Energy     =  -1.35 kcal/mol
DOCKED: USER    (3) Torsional Free Energy           =  +1.49 kcal/mol
DOCKED: USER    (4) Unbound System's Energy         =  -1.35 kcal/mol
DOCKED: USER
DOCKED: USER
DOCKED: REMARK  5 active torsions:
DOCKED: REMARK  status: ('A' for Active; 'I' for Inactive)
DOCKED: REMARK    1  A    between atoms: C_2  and  C_19 
DOCKED: REMARK    2  A    between atoms: C_2  and  C_11 
DOCKED: REMARK    3  A    between atoms: C_19  and  C_20 
DOCKED: REMARK    4  A    between atoms: C_20  and  C_21 
DOCKED: REMARK    5  A    between atoms: C_21  and  N_22 
DOCKED: USER                              x       y       z     vdW  Elec       q    Type
DOCKED: USER                           _______ _______ _______ _____ _____    ______ ____
DOCKED: ROOT
DOCKED: ATOM      1  O   UNL     1     -49.888 -21.311  15.957 -0.00 -0.00    -0.346 OA 
DOCKED: ATOM      2  C   UNL     1     -48.848 -22.341  15.927 -0.08 +0.00    +0.130 C  
DOCKED: ATOM      3  C   UNL     1     -48.951 -22.914  14.543 -0.20 +0.00    +0.004 A  
DOCKED: ATOM      4  C   UNL     1     -49.890 -22.202  13.811 -0.22 +0.00    +0.006 A  
DOCKED: ATOM      5  C   UNL     1     -50.456 -21.116  14.641 -0.11 +0.00    +0.169 C  
DOCKED: ATOM      6  C   UNL     1     -48.261 -23.975  13.974 -0.35 -0.00    -0.001 A  
DOCKED: ATOM      7  C   UNL     1     -50.173 -22.524  12.494 -0.24 +0.00    +0.008 A  
DOCKED: ATOM      8  C   UNL     1     -48.538 -24.315  12.649 -0.42 +0.00    +0.010 A  
DOCKED: ATOM      9  C   UNL     1     -49.489 -23.593  11.913 -0.36 +0.00    +0.068 A  
DOCKED: ATOM     10  N   UNL     1     -49.977 -24.248   9.454 -1.89 -0.00    -0.191 NA 
DOCKED: ATOM     11  C   UNL     1     -49.759 -23.954  10.557 -0.51 +0.00    +0.101 C  
DOCKED: ENDROOT
DOCKED: BRANCH   2  12
DOCKED: ATOM     12  C   UNL     1     -47.503 -21.677  16.195 -0.10 +0.00    +0.038 C  
DOCKED: BRANCH  12  13
DOCKED: ATOM     13  C   UNL     1     -46.848 -21.202  14.900 -0.17 +0.00    +0.038 C  
DOCKED: BRANCH  13  14
DOCKED: ATOM     14  C   UNL     1     -46.740 -19.679  14.865 -0.07 +0.00    +0.251 C  
DOCKED: BRANCH  14  15
DOCKED: ATOM     15  N   UNL     1     -47.564 -19.137  13.791 -0.12 +0.00    +0.141 N  
DOCKED: ATOM     16  C   UNL     1     -47.648 -17.679  13.891 -0.06 +0.00    +0.285 C  
DOCKED: ATOM     17  C   UNL     1     -47.029 -19.526  12.485 +0.09 +0.00    +0.285 C  
DOCKED: ENDBRANCH  14  15
DOCKED: ENDBRANCH  13  14
DOCKED: ENDBRANCH  12  13
DOCKED: ENDBRANCH   2  12
DOCKED: BRANCH   2  18
DOCKED: ATOM     18  C   UNL     1     -49.183 -23.330  16.992 -0.11 +0.00    +0.006 A  
DOCKED: ATOM     19  C   UNL     1     -50.352 -24.084  16.901 -0.15 +0.00    +0.001 A  
DOCKED: ATOM     20  C   UNL     1     -50.664 -25.009  17.899 -0.09 +0.00    +0.029 A  
DOCKED: ATOM     21  C   UNL     1     -49.807 -25.179  18.985 -0.10 +0.00    +0.140 A  
DOCKED: ATOM     22  C   UNL     1     -48.637 -24.425  19.075 -0.14 +0.00    +0.029 A  
DOCKED: ATOM     23  F   UNL     1     -50.106 -26.067  19.941 -0.05 -0.00    -0.204 F  
DOCKED: ATOM     24  C   UNL     1     -48.324 -23.499  18.078 -0.11 +0.00    +0.001 A  
DOCKED: ENDBRANCH   2  18
DOCKED: TORSDOF 5
DOCKED: TER
DOCKED: ENDMDL
________________________________________________________________________________


    FINAL DOCKED STATE:
    ________________________


Run:   77 / 512
Time taken for this run:   0.002s

DOCKED: MODEL        77
DOCKED: USER    Run = 77
DOCKED: USER
DOCKED: USER    Estimated Free Energy of Binding    =  -4.45 kcal/mol  [=(1)+(2)+(3)-(4)]
DOCKED: USER
DOCKED: USER    (1) Final Intermolecular Energy     =  -5.94 kcal/mol
DOCKED: USER        vdW + Hbond + desolv Energy     =  -5.94 kcal/mol
DOCKED: USER        Electrostatic Energy            =  +0.00 kcal/mol
DOCKED: USER        Moving Ligand-Fixed Receptor    =  -5.94 kcal/mol
DOCKED: USER        Moving Ligand-Moving Receptor   =  +0.00 kcal/mol
DOCKED: USER    (2) Final Total Internal Energy     =  -1.28 kcal/mol
DOCKED: USER    (3) Torsional Free Energy           =  +1.49 kcal/mol
DOCKED: USER    (4) Unbound System's Energy         =  -1.28 kcal/mol
DOCKED: USER
DOCKED: USER
DOCKED: REMARK  5 active torsions:
DOCKED: REMARK  status: ('A' for Active; 'I' for Inactive)
DOCKED: REMARK    1  A    between atoms: C_2  and  C_19 
DOCKED: REMARK    2  A    between atoms: C_2  and  C_11 
DOCKED: REMARK    3  A    between atoms: C_19  and  C_20 
DOCKED: REMARK    4  A    between atoms: C_20  and  C_21 
DOCKED: REMARK    5  A    between atoms: C_21  and  N_22 
DOCKED: USER                              x       y       z     vdW  Elec       q    Type
DOCKED: USER                           _______ _______ _______ _____ _____    ______ ____
DOCKED: ROOT
DOCKED: ATOM      1  O   UNL     1     -47.876 -19.234  13.818 -0.06 -0.00    -0.346 OA 
DOCKED: ATOM      2  C   UNL     1     -49.175 -19.432  14.462 -0.13 +0.00    +0.130 C  
DOCKED: ATOM      3  C   UNL     1     -49.587 -20.808  14.023 -0.20 +0.00    +0.004 A  
DOCKED: ATOM      4  C   UNL     1     -48.565 -21.388  13.286 -0.28 +0.00    +0.006 A  
DOCKED: ATOM      5  C   UNL     1     -47.418 -20.457  13.197 -0.16 +0.00    +0.169 C  
DOCKED: ATOM      6  C   UNL     1     -50.767 -21.495  14.267 -0.17 -0.00    -0.001 A  
DOCKED: ATOM      7  C   UNL     1     -48.688 -22.666  12.766 -0.34 +0.00    +0.008 A  
DOCKED: ATOM      8  C   UNL     1     -50.908 -22.782  13.746 -0.21 +0.00    +0.010 A  
DOCKED: ATOM      9  C   UNL     1     -49.873 -23.364  12.999 -0.26 +0.00    +0.068 A  
DOCKED: ATOM     10  N   UNL     1     -50.164 -25.758  12.050 -2.57 -0.00    -0.191 NA 
DOCKED: ATOM     11  C   UNL     1     -50.034 -24.684  12.475 -0.35 +0.00    +0.101 C  
DOCKED: ENDROOT
DOCKED: BRANCH   2  12
DOCKED: ATOM     12  C   UNL     1     -48.989 -19.322  15.970 -0.04 +0.00    +0.038 C  
DOCKED: BRANCH  12  13
DOCKED: ATOM     13  C   UNL     1     -48.508 -20.641  16.571 -0.04 +0.00    +0.038 C  
DOCKED: BRANCH  13  14
DOCKED: ATOM     14  C   UNL     1     -46.988 -20.762  16.486 -0.03 +0.00    +0.251 C  
DOCKED: BRANCH  14  15
DOCKED: ATOM     15  N   UNL     1     -46.596 -22.161  16.367 -0.08 +0.00    +0.141 N  
DOCKED: ATOM     16  C   UNL     1     -47.775 -23.028  16.354 -0.08 +0.00    +0.285 C  
DOCKED: ATOM     17  C   UNL     1     -45.798 -22.372  15.158 -0.12 +0.00    +0.285 C  
DOCKED: ENDBRANCH  14  15
DOCKED: ENDBRANCH  13  14
DOCKED: ENDBRANCH  12  13
DOCKED: ENDBRANCH   2  12
DOCKED: BRANCH   2  18
DOCKED: ATOM     18  C   UNL     1     -50.083 -18.363  13.951 -0.18 +0.00    +0.006 A  
DOCKED: ATOM     19  C   UNL     1     -51.282 -18.706  13.328 -0.23 +0.00    +0.001 A  
DOCKED: ATOM     20  C   UNL     1     -52.129 -17.705  12.850 -0.09 +0.00    +0.029 A  
DOCKED: ATOM     21  C   UNL     1     -51.777 -16.364  12.998 -0.12 +0.00    +0.140 A  
DOCKED: ATOM     22  C   UNL     1     -50.578 -16.022  13.623 -0.09 +0.00    +0.029 A  
DOCKED: ATOM     23  F   UNL     1     -52.591 -15.404  12.542 -0.01 -0.00    -0.204 F  
DOCKED: ATOM     24  C   UNL     1     -49.729 -17.023  14.100 -0.10 +0.00    +0.001 A  
DOCKED: ENDBRANCH   2  18
DOCKED: TORSDOF 5
DOCKED: TER
DOCKED: ENDMDL
________________________________________________________________________________


    FINAL DOCKED STATE:
    ________________________


Run:   78 / 512
Time taken for this run:   0.002s

DOCKED: MODEL        78
DOCKED: USER    Run = 78
DOCKED: USER
DOCKED: USER    Estimated Free Energy of Binding    =  -4.35 kcal/mol  [=(1)+(2)+(3)-(4)]
DOCKED: USER
DOCKED: USER    (1) Final Intermolecular Energy     =  -5.84 kcal/mol
DOCKED: USER        vdW + Hbond + desolv Energy     =  -5.84 kcal/mol
DOCKED: USER        Electrostatic Energy            =  +0.00 kcal/mol
DOCKED: USER        Moving Ligand-Fixed Receptor    =  -5.84 kcal/mol
DOCKED: USER        Moving Ligand-Moving Receptor   =  +0.00 kcal/mol
DOCKED: USER    (2) Final Total Internal Energy     =  -1.11 kcal/mol
DOCKED: USER    (3) Torsional Free Energy           =  +1.49 kcal/mol
DOCKED: USER    (4) Unbound System's Energy         =  -1.11 kcal/mol
DOCKED: USER
DOCKED: USER
DOCKED: REMARK  5 active torsions:
DOCKED: REMARK  status: ('A' for Active; 'I' for Inactive)
DOCKED: REMARK    1  A    between atoms: C_2  and  C_19 
DOCKED: REMARK    2  A    between atoms: C_2  and  C_11 
DOCKED: REMARK    3  A    between atoms: C_19  and  C_20 
DOCKED: REMARK    4  A    between atoms: C_20  and  C_21 
DOCKED: REMARK    5  A    between atoms: C_21  and  N_22 
DOCKED: USER                              x       y       z     vdW  Elec       q    Type
DOCKED: USER                           _______ _______ _______ _____ _____    ______ ____
DOCKED: ROOT
DOCKED: ATOM      1  O   UNL     1     -47.858 -24.301  15.662 -0.10 -0.00    -0.346 OA 
DOCKED: ATOM      2  C   UNL     1     -48.662 -23.104  15.412 -0.14 +0.00    +0.130 C  
DOCKED: ATOM      3  C   UNL     1     -49.080 -23.244  13.977 -0.25 +0.00    +0.004 A  
DOCKED: ATOM      4  C   UNL     1     -48.646 -24.466  13.482 -0.34 +0.00    +0.006 A  
DOCKED: ATOM      5  C   UNL     1     -47.933 -25.213  14.542 -0.14 +0.00    +0.169 C  
DOCKED: ATOM      6  C   UNL     1     -49.796 -22.366  13.177 -0.28 -0.00    -0.001 A  
DOCKED: ATOM      7  C   UNL     1     -48.907 -24.848  12.177 -0.43 +0.00    +0.008 A  
DOCKED: ATOM      8  C   UNL     1     -50.063 -22.735  11.858 -0.13 +0.00    +0.010 A  
DOCKED: ATOM      9  C   UNL     1     -49.622 -23.970  11.361 -0.42 +0.00    +0.068 A  
DOCKED: ATOM     10  N   UNL     1     -50.140 -24.626   8.908 -1.97 -0.00    -0.191 NA 
DOCKED: ATOM     11  C   UNL     1     -49.907 -24.332  10.008 -0.51 +0.00    +0.101 C  
DOCKED: ENDROOT
DOCKED: BRANCH   2  12
DOCKED: ATOM     12  C   UNL     1     -49.842 -23.107  16.377 -0.12 +0.00    +0.038 C  
DOCKED: BRANCH  12  13
DOCKED: ATOM     13  C   UNL     1     -51.162 -23.328  15.641 -0.14 +0.00    +0.038 C  
DOCKED: BRANCH  13  14
DOCKED: ATOM     14  C   UNL     1     -51.731 -24.714  15.938 -0.10 +0.00    +0.251 C  
DOCKED: BRANCH  14  15
DOCKED: ATOM     15  N   UNL     1     -52.285 -25.306  14.725 -0.11 +0.00    +0.141 N  
DOCKED: ATOM     16  C   UNL     1     -53.245 -26.359  15.057 -0.11 +0.00    +0.285 C  
DOCKED: ATOM     17  C   UNL     1     -52.923 -24.281  13.897 -0.05 +0.00    +0.285 C  
DOCKED: ENDBRANCH  14  15
DOCKED: ENDBRANCH  13  14
DOCKED: ENDBRANCH  12  13
DOCKED: ENDBRANCH   2  12
DOCKED: BRANCH   2  18
DOCKED: ATOM     18  C   UNL     1     -47.777 -21.926  15.648 -0.12 +0.00    +0.006 A  
DOCKED: ATOM     19  C   UNL     1     -46.781 -21.988  16.622 -0.10 +0.00    +0.001 A  
DOCKED: ATOM     20  C   UNL     1     -45.953 -20.885  16.842 -0.04 +0.00    +0.029 A  
DOCKED: ATOM     21  C   UNL     1     -46.123 -19.725  16.088 -0.03 +0.00    +0.140 A  
DOCKED: ATOM     22  C   UNL     1     -47.119 -19.665  15.114 -0.08 +0.00    +0.029 A  
DOCKED: ATOM     23  F   UNL     1     -45.328 -18.668  16.298 +0.00 -0.00    -0.204 F  
DOCKED: ATOM     24  C   UNL     1     -47.948 -20.766  14.894 -0.13 +0.00    +0.001 A  
DOCKED: ENDBRANCH   2  18
DOCKED: TORSDOF 5
DOCKED: TER
DOCKED: ENDMDL
________________________________________________________________________________


    FINAL DOCKED STATE:
    ________________________


Run:   79 / 512
Time taken for this run:   0.002s

DOCKED: MODEL        79
DOCKED: USER    Run = 79
DOCKED: USER
DOCKED: USER    Estimated Free Energy of Binding    =  -4.76 kcal/mol  [=(1)+(2)+(3)-(4)]
DOCKED: USER
DOCKED: USER    (1) Final Intermolecular Energy     =  -6.26 kcal/mol
DOCKED: USER        vdW + Hbond + desolv Energy     =  -6.26 kcal/mol
DOCKED: USER        Electrostatic Energy            =  +0.00 kcal/mol
DOCKED: USER        Moving Ligand-Fixed Receptor    =  -6.26 kcal/mol
DOCKED: USER        Moving Ligand-Moving Receptor   =  +0.00 kcal/mol
DOCKED: USER    (2) Final Total Internal Energy     =  -1.39 kcal/mol
DOCKED: USER    (3) Torsional Free Energy           =  +1.49 kcal/mol
DOCKED: USER    (4) Unbound System's Energy         =  -1.39 kcal/mol
DOCKED: USER
DOCKED: USER
DOCKED: REMARK  5 active torsions:
DOCKED: REMARK  status: ('A' for Active; 'I' for Inactive)
DOCKED: REMARK    1  A    between atoms: C_2  and  C_19 
DOCKED: REMARK    2  A    between atoms: C_2  and  C_11 
DOCKED: REMARK    3  A    between atoms: C_19  and  C_20 
DOCKED: REMARK    4  A    between atoms: C_20  and  C_21 
DOCKED: REMARK    5  A    between atoms: C_21  and  N_22 
DOCKED: USER                              x       y       z     vdW  Elec       q    Type
DOCKED: USER                           _______ _______ _______ _____ _____    ______ ____
DOCKED: ROOT
DOCKED: ATOM      1  O   UNL     1     -43.499 -15.292   6.587 -0.02 -0.00    -0.346 OA 
DOCKED: ATOM      2  C   UNL     1     -44.906 -15.438   6.965 -0.16 +0.00    +0.130 C  
DOCKED: ATOM      3  C   UNL     1     -45.647 -14.714   5.879 -0.27 +0.00    +0.004 A  
DOCKED: ATOM      4  C   UNL     1     -44.753 -14.287   4.908 -0.23 +0.00    +0.006 A  
DOCKED: ATOM      5  C   UNL     1     -43.380 -14.704   5.270 -0.09 +0.00    +0.169 C  
DOCKED: ATOM      6  C   UNL     1     -47.006 -14.462   5.756 -0.21 -0.00    -0.001 A  
DOCKED: ATOM      7  C   UNL     1     -45.182 -13.595   3.788 -0.28 +0.00    +0.008 A  
DOCKED: ATOM      8  C   UNL     1     -47.454 -13.762   4.634 -0.36 +0.00    +0.010 A  
DOCKED: ATOM      9  C   UNL     1     -46.546 -13.331   3.655 -0.31 +0.00    +0.068 A  
DOCKED: ATOM     10  N   UNL     1     -47.411 -12.038   1.583 -2.44 -0.00    -0.191 NA 
DOCKED: ATOM     11  C   UNL     1     -47.023 -12.617   2.513 -0.39 +0.00    +0.101 C  
DOCKED: ENDROOT
DOCKED: BRANCH   2  12
DOCKED: ATOM     12  C   UNL     1     -45.239 -16.924   7.022 -0.19 +0.00    +0.038 C  
DOCKED: BRANCH  12  13
DOCKED: ATOM     13  C   UNL     1     -44.049 -17.778   6.588 -0.14 +0.00    +0.038 C  
DOCKED: BRANCH  13  14
DOCKED: ATOM     14  C   UNL     1     -43.512 -18.605   7.754 -0.07 +0.00    +0.251 C  
DOCKED: BRANCH  14  15
DOCKED: ATOM     15  N   UNL     1     -43.677 -17.880   9.009 -0.04 +0.00    +0.141 N  
DOCKED: ATOM     16  C   UNL     1     -44.345 -18.718  10.005 -0.10 +0.00    +0.285 C  
DOCKED: ATOM     17  C   UNL     1     -42.381 -17.425   9.515 -0.01 +0.00    +0.285 C  
DOCKED: ENDBRANCH  14  15
DOCKED: ENDBRANCH  13  14
DOCKED: ENDBRANCH  12  13
DOCKED: ENDBRANCH   2  12
DOCKED: BRANCH   2  18
DOCKED: ATOM     18  C   UNL     1     -45.065 -14.799   8.304 -0.18 +0.00    +0.006 A  
DOCKED: ATOM     19  C   UNL     1     -43.941 -14.379   9.014 -0.13 +0.00    +0.001 A  
DOCKED: ATOM     20  C   UNL     1     -44.092 -13.782  10.267 -0.05 +0.00    +0.029 A  
DOCKED: ATOM     21  C   UNL     1     -45.365 -13.606  10.806 -0.12 +0.00    +0.140 A  
DOCKED: ATOM     22  C   UNL     1     -46.489 -14.026  10.095 -0.19 +0.00    +0.029 A  
DOCKED: ATOM     23  F   UNL     1     -45.510 -13.031  12.008 -0.04 -0.00    -0.204 F  
DOCKED: ATOM     24  C   UNL     1     -46.339 -14.623   8.843 -0.23 +0.00    +0.001 A  
DOCKED: ENDBRANCH   2  18
DOCKED: TORSDOF 5
DOCKED: TER
DOCKED: ENDMDL
________________________________________________________________________________


    FINAL DOCKED STATE:
    ________________________


Run:   80 / 512
Time taken for this run:   0.002s

DOCKED: MODEL        80
DOCKED: USER    Run = 80
DOCKED: USER
DOCKED: USER    Estimated Free Energy of Binding    =  -3.61 kcal/mol  [=(1)+(2)+(3)-(4)]
DOCKED: USER
DOCKED: USER    (1) Final Intermolecular Energy     =  -5.10 kcal/mol
DOCKED: USER        vdW + Hbond + desolv Energy     =  -5.10 kcal/mol
DOCKED: USER        Electrostatic Energy            =  +0.00 kcal/mol
DOCKED: USER        Moving Ligand-Fixed Receptor    =  -5.10 kcal/mol
DOCKED: USER        Moving Ligand-Moving Receptor   =  +0.00 kcal/mol
DOCKED: USER    (2) Final Total Internal Energy     =  -1.00 kcal/mol
DOCKED: USER    (3) Torsional Free Energy           =  +1.49 kcal/mol
DOCKED: USER    (4) Unbound System's Energy         =  -1.00 kcal/mol
DOCKED: USER
DOCKED: USER
DOCKED: REMARK  5 active torsions:
DOCKED: REMARK  status: ('A' for Active; 'I' for Inactive)
DOCKED: REMARK    1  A    between atoms: C_2  and  C_19 
DOCKED: REMARK    2  A    between atoms: C_2  and  C_11 
DOCKED: REMARK    3  A    between atoms: C_19  and  C_20 
DOCKED: REMARK    4  A    between atoms: C_20  and  C_21 
DOCKED: REMARK    5  A    between atoms: C_21  and  N_22 
DOCKED: USER                              x       y       z     vdW  Elec       q    Type
DOCKED: USER                           _______ _______ _______ _____ _____    ______ ____
DOCKED: ROOT
DOCKED: ATOM      1  O   UNL     1     -46.560 -21.490  16.284 -0.03 -0.00    -0.346 OA 
DOCKED: ATOM      2  C   UNL     1     -47.401 -20.640  15.440 -0.08 +0.00    +0.130 C  
DOCKED: ATOM      3  C   UNL     1     -48.076 -21.609  14.513 -0.19 +0.00    +0.004 A  
DOCKED: ATOM      4  C   UNL     1     -47.737 -22.907  14.867 -0.23 +0.00    +0.006 A  
DOCKED: ATOM      5  C   UNL     1     -46.838 -22.889  16.043 -0.13 +0.00    +0.169 C  
DOCKED: ATOM      6  C   UNL     1     -48.931 -21.362  13.450 -0.27 -0.00    -0.001 A  
DOCKED: ATOM      7  C   UNL     1     -48.234 -23.997  14.172 -0.33 +0.00    +0.008 A  
DOCKED: ATOM      8  C   UNL     1     -49.437 -22.450  12.736 -0.33 +0.00    +0.010 A  
DOCKED: ATOM      9  C   UNL     1     -49.090 -23.760  13.096 -0.31 +0.00    +0.068 A  
DOCKED: ATOM     10  N   UNL     1     -50.051 -25.757  11.753 -2.40 -0.00    -0.191 NA 
DOCKED: ATOM     11  C   UNL     1     -49.619 -24.862  12.355 -0.31 +0.00    +0.101 C  
DOCKED: ENDROOT
DOCKED: BRANCH   2  12
DOCKED: ATOM     12  C   UNL     1     -48.383 -19.893  16.335 -0.04 +0.00    +0.038 C  
DOCKED: BRANCH  12  13
DOCKED: ATOM     13  C   UNL     1     -49.195 -20.857  17.198 -0.03 +0.00    +0.038 C  
DOCKED: BRANCH  13  14
DOCKED: ATOM     14  C   UNL     1     -49.437 -20.277  18.590 -0.00 +0.00    +0.251 C  
DOCKED: BRANCH  14  15
DOCKED: ATOM     15  N   UNL     1     -50.721 -19.588  18.636 -0.00 +0.00    +0.141 N  
DOCKED: ATOM     16  C   UNL     1     -51.765 -20.474  19.152 +0.00 +0.00    +0.285 C  
DOCKED: ATOM     17  C   UNL     1     -50.628 -18.380  19.459 +0.00 +0.00    +0.285 C  
DOCKED: ENDBRANCH  14  15
DOCKED: ENDBRANCH  13  14
DOCKED: ENDBRANCH  12  13
DOCKED: ENDBRANCH   2  12
DOCKED: BRANCH   2  18
DOCKED: ATOM     18  C   UNL     1     -46.492 -19.694  14.730 -0.11 +0.00    +0.006 A  
DOCKED: ATOM     19  C   UNL     1     -46.713 -18.320  14.815 -0.05 +0.00    +0.001 A  
DOCKED: ATOM     20  C   UNL     1     -45.862 -17.436  14.150 -0.04 +0.00    +0.029 A  
DOCKED: ATOM     21  C   UNL     1     -44.792 -17.926  13.403 -0.05 +0.00    +0.140 A  
DOCKED: ATOM     22  C   UNL     1     -44.572 -19.301  13.319 -0.11 +0.00    +0.029 A  
DOCKED: ATOM     23  F   UNL     1     -43.975 -17.077  12.767 -0.00 -0.00    -0.204 F  
DOCKED: ATOM     24  C   UNL     1     -45.422 -20.186  13.983 -0.08 +0.00    +0.001 A  
DOCKED: ENDBRANCH   2  18
DOCKED: TORSDOF 5
DOCKED: TER
DOCKED: ENDMDL
________________________________________________________________________________


    FINAL DOCKED STATE:
    ________________________


Run:   81 / 512
Time taken for this run:   0.002s

DOCKED: MODEL        81
DOCKED: USER    Run = 81
DOCKED: USER
DOCKED: USER    Estimated Free Energy of Binding    =  -5.80 kcal/mol  [=(1)+(2)+(3)-(4)]
DOCKED: USER
DOCKED: USER    (1) Final Intermolecular Energy     =  -7.30 kcal/mol
DOCKED: USER        vdW + Hbond + desolv Energy     =  -7.30 kcal/mol
DOCKED: USER        Electrostatic Energy            =  +0.00 kcal/mol
DOCKED: USER        Moving Ligand-Fixed Receptor    =  -7.30 kcal/mol
DOCKED: USER        Moving Ligand-Moving Receptor   =  +0.00 kcal/mol
DOCKED: USER    (2) Final Total Internal Energy     =  -1.38 kcal/mol
DOCKED: USER    (3) Torsional Free Energy           =  +1.49 kcal/mol
DOCKED: USER    (4) Unbound System's Energy         =  -1.38 kcal/mol
DOCKED: USER
DOCKED: USER
DOCKED: REMARK  5 active torsions:
DOCKED: REMARK  status: ('A' for Active; 'I' for Inactive)
DOCKED: REMARK    1  A    between atoms: C_2  and  C_19 
DOCKED: REMARK    2  A    between atoms: C_2  and  C_11 
DOCKED: REMARK    3  A    between atoms: C_19  and  C_20 
DOCKED: REMARK    4  A    between atoms: C_20  and  C_21 
DOCKED: REMARK    5  A    between atoms: C_21  and  N_22 
DOCKED: USER                              x       y       z     vdW  Elec       q    Type
DOCKED: USER                           _______ _______ _______ _____ _____    ______ ____
DOCKED: ROOT
DOCKED: ATOM      1  O   UNL     1     -48.003 -21.423  14.525 -0.06 -0.00    -0.346 OA 
DOCKED: ATOM      2  C   UNL     1     -47.791 -22.870  14.578 -0.23 +0.00    +0.130 C  
DOCKED: ATOM      3  C   UNL     1     -48.351 -23.364  13.276 -0.34 +0.00    +0.004 A  
DOCKED: ATOM      4  C   UNL     1     -48.747 -22.285  12.499 -0.32 +0.00    +0.006 A  
DOCKED: ATOM      5  C   UNL     1     -48.470 -21.021  13.216 -0.24 +0.00    +0.169 C  
DOCKED: ATOM      6  C   UNL     1     -48.488 -24.664  12.811 -0.41 -0.00    -0.001 A  
DOCKED: ATOM      7  C   UNL     1     -49.295 -22.466  11.240 -0.00 +0.00    +0.008 A  
DOCKED: ATOM      8  C   UNL     1     -49.042 -24.863  11.546 -0.47 +0.00    +0.010 A  
DOCKED: ATOM      9  C   UNL     1     -49.443 -23.770  10.764 -0.40 +0.00    +0.068 A  
DOCKED: ATOM     10  N   UNL     1     -50.465 -24.174   8.418 -2.93 -0.00    -0.191 NA 
DOCKED: ATOM     11  C   UNL     1     -50.007 -23.993   9.470 -0.42 +0.00    +0.101 C  
DOCKED: ENDROOT
DOCKED: BRANCH   2  12
DOCKED: ATOM     12  C   UNL     1     -46.296 -23.134  14.720 -0.22 +0.00    +0.038 C  
DOCKED: BRANCH  12  13
DOCKED: ATOM     13  C   UNL     1     -45.680 -22.269  15.817 -0.18 +0.00    +0.038 C  
DOCKED: BRANCH  13  14
DOCKED: ATOM     14  C   UNL     1     -44.847 -21.135  15.221 -0.09 +0.00    +0.251 C  
DOCKED: BRANCH  14  15
DOCKED: ATOM     15  N   UNL     1     -45.711 -20.035  14.809 -0.08 +0.00    +0.141 N  
DOCKED: ATOM     16  C   UNL     1     -45.746 -18.993  15.836 -0.02 +0.00    +0.285 C  
DOCKED: ATOM     17  C   UNL     1     -45.260 -19.475  13.534 -0.08 +0.00    +0.285 C  
DOCKED: ENDBRANCH  14  15
DOCKED: ENDBRANCH  13  14
DOCKED: ENDBRANCH  12  13
DOCKED: ENDBRANCH   2  12
DOCKED: BRANCH   2  18
DOCKED: ATOM     18  C   UNL     1     -48.541 -23.378  15.764 -0.17 +0.00    +0.006 A  
DOCKED: ATOM     19  C   UNL     1     -48.167 -24.581  16.362 -0.22 +0.00    +0.001 A  
DOCKED: ATOM     20  C   UNL     1     -48.870 -25.054  17.471 -0.15 +0.00    +0.029 A  
DOCKED: ATOM     21  C   UNL     1     -49.945 -24.326  17.979 -0.10 +0.00    +0.140 A  
DOCKED: ATOM     22  C   UNL     1     -50.318 -23.123  17.380 -0.07 +0.00    +0.029 A  
DOCKED: ATOM     23  F   UNL     1     -50.618 -24.780  19.044 -0.02 -0.00    -0.204 F  
DOCKED: ATOM     24  C   UNL     1     -49.615 -22.648  16.271 -0.09 +0.00    +0.001 A  
DOCKED: ENDBRANCH   2  18
DOCKED: TORSDOF 5
DOCKED: TER
DOCKED: ENDMDL
________________________________________________________________________________


    FINAL DOCKED STATE:
    ________________________


Run:   82 / 512
Time taken for this run:   0.002s

DOCKED: MODEL        82
DOCKED: USER    Run = 82
DOCKED: USER
DOCKED: USER    Estimated Free Energy of Binding    =  -5.63 kcal/mol  [=(1)+(2)+(3)-(4)]
DOCKED: USER
DOCKED: USER    (1) Final Intermolecular Energy     =  -7.12 kcal/mol
DOCKED: USER        vdW + Hbond + desolv Energy     =  -7.12 kcal/mol
DOCKED: USER        Electrostatic Energy            =  +0.00 kcal/mol
DOCKED: USER        Moving Ligand-Fixed Receptor    =  -7.12 kcal/mol
DOCKED: USER        Moving Ligand-Moving Receptor   =  +0.00 kcal/mol
DOCKED: USER    (2) Final Total Internal Energy     =  -1.22 kcal/mol
DOCKED: USER    (3) Torsional Free Energy           =  +1.49 kcal/mol
DOCKED: USER    (4) Unbound System's Energy         =  -1.22 kcal/mol
DOCKED: USER
DOCKED: USER
DOCKED: REMARK  5 active torsions:
DOCKED: REMARK  status: ('A' for Active; 'I' for Inactive)
DOCKED: REMARK    1  A    between atoms: C_2  and  C_19 
DOCKED: REMARK    2  A    between atoms: C_2  and  C_11 
DOCKED: REMARK    3  A    between atoms: C_19  and  C_20 
DOCKED: REMARK    4  A    between atoms: C_20  and  C_21 
DOCKED: REMARK    5  A    between atoms: C_21  and  N_22 
DOCKED: USER                              x       y       z     vdW  Elec       q    Type
DOCKED: USER                           _______ _______ _______ _____ _____    ______ ____
DOCKED: ROOT
DOCKED: ATOM      1  O   UNL     1     -47.275 -24.587  14.670 -0.16 -0.00    -0.346 OA 
DOCKED: ATOM      2  C   UNL     1     -48.056 -23.352  14.585 -0.24 +0.00    +0.130 C  
DOCKED: ATOM      3  C   UNL     1     -48.707 -23.430  13.234 -0.34 +0.00    +0.004 A  
DOCKED: ATOM      4  C   UNL     1     -48.414 -24.652  12.645 -0.41 +0.00    +0.006 A  
DOCKED: ATOM      5  C   UNL     1     -47.573 -25.460  13.555 -0.23 +0.00    +0.169 C  
DOCKED: ATOM      6  C   UNL     1     -49.503 -22.499  12.584 -0.33 -0.00    -0.001 A  
DOCKED: ATOM      7  C   UNL     1     -48.901 -24.982  11.391 -0.42 +0.00    +0.008 A  
DOCKED: ATOM      8  C   UNL     1     -49.998 -22.815  11.318 +0.05 +0.00    +0.010 A  
DOCKED: ATOM      9  C   UNL     1     -49.698 -24.051  10.725 -0.45 +0.00    +0.068 A  
DOCKED: ATOM     10  N   UNL     1     -50.637 -24.608   8.375 -2.75 -0.00    -0.191 NA 
DOCKED: ATOM     11  C   UNL     1     -50.215 -24.358   9.429 -0.33 +0.00    +0.101 C  
DOCKED: ENDROOT
DOCKED: BRANCH   2  12
DOCKED: ATOM     12  C   UNL     1     -49.062 -23.337  15.729 -0.17 +0.00    +0.038 C  
DOCKED: BRANCH  12  13
DOCKED: ATOM     13  C   UNL     1     -50.189 -24.341  15.492 -0.24 +0.00    +0.038 C  
DOCKED: BRANCH  13  14
DOCKED: ATOM     14  C   UNL     1     -51.556 -23.664  15.579 -0.07 +0.00    +0.251 C  
DOCKED: BRANCH  14  15
DOCKED: ATOM     15  N   UNL     1     -51.403 -22.256  15.926 -0.04 +0.00    +0.141 N  
DOCKED: ATOM     16  C   UNL     1     -52.196 -21.415  15.029 -0.04 +0.00    +0.285 C  
DOCKED: ATOM     17  C   UNL     1     -51.793 -22.023  17.318 -0.00 +0.00    +0.285 C  
DOCKED: ENDBRANCH  14  15
DOCKED: ENDBRANCH  13  14
DOCKED: ENDBRANCH  12  13
DOCKED: ENDBRANCH   2  12
DOCKED: BRANCH   2  18
DOCKED: ATOM     18  C   UNL     1     -47.092 -22.219  14.701 -0.21 +0.00    +0.006 A  
DOCKED: ATOM     19  C   UNL     1     -47.507 -20.919  14.414 -0.18 +0.00    +0.001 A  
DOCKED: ATOM     20  C   UNL     1     -46.605 -19.860  14.523 -0.12 +0.00    +0.029 A  
DOCKED: ATOM     21  C   UNL     1     -45.290 -20.102  14.919 -0.08 +0.00    +0.140 A  
DOCKED: ATOM     22  C   UNL     1     -44.876 -21.402  15.207 -0.13 +0.00    +0.029 A  
DOCKED: ATOM     23  F   UNL     1     -44.425 -19.085  15.026 -0.01 -0.00    -0.204 F  
DOCKED: ATOM     24  C   UNL     1     -45.777 -22.462  15.097 -0.20 +0.00    +0.001 A  
DOCKED: ENDBRANCH   2  18
DOCKED: TORSDOF 5
DOCKED: TER
DOCKED: ENDMDL
________________________________________________________________________________


    FINAL DOCKED STATE:
    ________________________


Run:   83 / 512
Time taken for this run:   0.002s

DOCKED: MODEL        83
DOCKED: USER    Run = 83
DOCKED: USER
DOCKED: USER    Estimated Free Energy of Binding    =  -3.66 kcal/mol  [=(1)+(2)+(3)-(4)]
DOCKED: USER
DOCKED: USER    (1) Final Intermolecular Energy     =  -5.15 kcal/mol
DOCKED: USER        vdW + Hbond + desolv Energy     =  -5.15 kcal/mol
DOCKED: USER        Electrostatic Energy            =  +0.00 kcal/mol
DOCKED: USER        Moving Ligand-Fixed Receptor    =  -5.15 kcal/mol
DOCKED: USER        Moving Ligand-Moving Receptor   =  +0.00 kcal/mol
DOCKED: USER    (2) Final Total Internal Energy     =  -1.22 kcal/mol
DOCKED: USER    (3) Torsional Free Energy           =  +1.49 kcal/mol
DOCKED: USER    (4) Unbound System's Energy         =  -1.22 kcal/mol
DOCKED: USER
DOCKED: USER
DOCKED: REMARK  5 active torsions:
DOCKED: REMARK  status: ('A' for Active; 'I' for Inactive)
DOCKED: REMARK    1  A    between atoms: C_2  and  C_19 
DOCKED: REMARK    2  A    between atoms: C_2  and  C_11 
DOCKED: REMARK    3  A    between atoms: C_19  and  C_20 
DOCKED: REMARK    4  A    between atoms: C_20  and  C_21 
DOCKED: REMARK    5  A    between atoms: C_21  and  N_22 
DOCKED: USER                              x       y       z     vdW  Elec       q    Type
DOCKED: USER                           _______ _______ _______ _____ _____    ______ ____
DOCKED: ROOT
DOCKED: ATOM      1  O   UNL     1     -41.648 -20.755   6.332 +0.00 -0.00    -0.346 OA 
DOCKED: ATOM      2  C   UNL     1     -40.699 -21.824   6.022 -0.08 +0.00    +0.130 C  
DOCKED: ATOM      3  C   UNL     1     -41.024 -22.896   7.021 -0.11 +0.00    +0.004 A  
DOCKED: ATOM      4  C   UNL     1     -42.134 -22.520   7.765 -0.18 +0.00    +0.006 A  
DOCKED: ATOM      5  C   UNL     1     -42.620 -21.199   7.308 -0.14 +0.00    +0.169 C  
DOCKED: ATOM      6  C   UNL     1     -40.396 -24.112   7.247 -0.10 -0.00    -0.001 A  
DOCKED: ATOM      7  C   UNL     1     -42.649 -23.338   8.756 -0.31 +0.00    +0.008 A  
DOCKED: ATOM      8  C   UNL     1     -40.900 -24.946   8.246 -0.20 +0.00    +0.010 A  
DOCKED: ATOM      9  C   UNL     1     -42.021 -24.561   8.996 -0.29 +0.00    +0.068 A  
DOCKED: ATOM     10  N   UNL     1     -42.935 -26.136  10.840 -2.62 -0.00    -0.191 NA 
DOCKED: ATOM     11  C   UNL     1     -42.525 -25.429  10.013 -0.41 +0.00    +0.101 C  
DOCKED: ENDROOT
DOCKED: BRANCH   2  12
DOCKED: ATOM     12  C   UNL     1     -40.925 -22.267   4.581 -0.12 +0.00    +0.038 C  
DOCKED: BRANCH  12  13
DOCKED: ATOM     13  C   UNL     1     -41.334 -21.093   3.695 -0.13 +0.00    +0.038 C  
DOCKED: BRANCH  13  14
DOCKED: ATOM     14  C   UNL     1     -42.838 -20.840   3.777 -0.01 +0.00    +0.251 C  
DOCKED: BRANCH  14  15
DOCKED: ATOM     15  N   UNL     1     -43.138 -19.452   3.448 -0.21 +0.00    +0.141 N  
DOCKED: ATOM     16  C   UNL     1     -43.626 -18.736   4.628 -0.17 +0.00    +0.285 C  
DOCKED: ATOM     17  C   UNL     1     -41.956 -18.784   2.902 -0.04 +0.00    +0.285 C  
DOCKED: ENDBRANCH  14  15
DOCKED: ENDBRANCH  13  14
DOCKED: ENDBRANCH  12  13
DOCKED: ENDBRANCH   2  12
DOCKED: BRANCH   2  18
DOCKED: ATOM     18  C   UNL     1     -39.330 -21.258   6.202 -0.01 +0.00    +0.006 A  
DOCKED: ATOM     19  C   UNL     1     -38.629 -20.766   5.102 -0.00 +0.00    +0.001 A  
DOCKED: ATOM     20  C   UNL     1     -37.349 -20.237   5.272 -0.00 +0.00    +0.029 A  
DOCKED: ATOM     21  C   UNL     1     -36.772 -20.200   6.540 -0.00 +0.00    +0.140 A  
DOCKED: ATOM     22  C   UNL     1     -37.474 -20.691   7.641 -0.00 +0.00    +0.029 A  
DOCKED: ATOM     23  F   UNL     1     -35.545 -19.690   6.703 +0.00 -0.00    -0.204 F  
DOCKED: ATOM     24  C   UNL     1     -38.755 -21.221   7.472 -0.01 +0.00    +0.001 A  
DOCKED: ENDBRANCH   2  18
DOCKED: TORSDOF 5
DOCKED: TER
DOCKED: ENDMDL
________________________________________________________________________________


    FINAL DOCKED STATE:
    ________________________


Run:   84 / 512
Time taken for this run:   0.002s

DOCKED: MODEL        84
DOCKED: USER    Run = 84
DOCKED: USER
DOCKED: USER    Estimated Free Energy of Binding    =  -4.75 kcal/mol  [=(1)+(2)+(3)-(4)]
DOCKED: USER
DOCKED: USER    (1) Final Intermolecular Energy     =  -6.24 kcal/mol
DOCKED: USER        vdW + Hbond + desolv Energy     =  -6.24 kcal/mol
DOCKED: USER        Electrostatic Energy            =  +0.00 kcal/mol
DOCKED: USER        Moving Ligand-Fixed Receptor    =  -6.24 kcal/mol
DOCKED: USER        Moving Ligand-Moving Receptor   =  +0.00 kcal/mol
DOCKED: USER    (2) Final Total Internal Energy     =  -1.36 kcal/mol
DOCKED: USER    (3) Torsional Free Energy           =  +1.49 kcal/mol
DOCKED: USER    (4) Unbound System's Energy         =  -1.36 kcal/mol
DOCKED: USER
DOCKED: USER
DOCKED: REMARK  5 active torsions:
DOCKED: REMARK  status: ('A' for Active; 'I' for Inactive)
DOCKED: REMARK    1  A    between atoms: C_2  and  C_19 
DOCKED: REMARK    2  A    between atoms: C_2  and  C_11 
DOCKED: REMARK    3  A    between atoms: C_19  and  C_20 
DOCKED: REMARK    4  A    between atoms: C_20  and  C_21 
DOCKED: REMARK    5  A    between atoms: C_21  and  N_22 
DOCKED: USER                              x       y       z     vdW  Elec       q    Type
DOCKED: USER                           _______ _______ _______ _____ _____    ______ ____
DOCKED: ROOT
DOCKED: ATOM      1  O   UNL     1     -48.700 -23.877  15.670 -0.06 -0.00    -0.346 OA 
DOCKED: ATOM      2  C   UNL     1     -48.529 -22.563  15.050 -0.14 +0.00    +0.130 C  
DOCKED: ATOM      3  C   UNL     1     -48.886 -22.796  13.610 -0.29 +0.00    +0.004 A  
DOCKED: ATOM      4  C   UNL     1     -49.329 -24.101  13.444 -0.32 +0.00    +0.006 A  
DOCKED: ATOM      5  C   UNL     1     -49.308 -24.807  14.744 -0.14 +0.00    +0.169 C  
DOCKED: ATOM      6  C   UNL     1     -48.835 -21.920  12.536 -0.30 -0.00    -0.001 A  
DOCKED: ATOM      7  C   UNL     1     -49.728 -24.574  12.206 -0.43 +0.00    +0.008 A  
DOCKED: ATOM      8  C   UNL     1     -49.230 -22.384  11.280 +0.05 +0.00    +0.010 A  
DOCKED: ATOM      9  C   UNL     1     -49.675 -23.704  11.116 -0.41 +0.00    +0.068 A  
DOCKED: ATOM     10  N   UNL     1     -50.406 -24.531   8.772 -2.35 -0.00    -0.191 NA 
DOCKED: ATOM     11  C   UNL     1     -50.078 -24.160   9.823 -0.49 +0.00    +0.101 C  
DOCKED: ENDROOT
DOCKED: BRANCH   2  12
DOCKED: ATOM     12  C   UNL     1     -49.464 -21.577  15.741 -0.08 +0.00    +0.038 C  
DOCKED: BRANCH  12  13
DOCKED: ATOM     13  C   UNL     1     -50.915 -22.051  15.682 -0.09 +0.00    +0.038 C  
DOCKED: BRANCH  13  14
DOCKED: ATOM     14  C   UNL     1     -51.872 -20.872  15.516 -0.03 +0.00    +0.251 C  
DOCKED: BRANCH  14  15
DOCKED: ATOM     15  N   UNL     1     -52.260 -20.726  14.119 -0.15 +0.00    +0.141 N  
DOCKED: ATOM     16  C   UNL     1     -51.289 -19.902  13.397 -0.09 +0.00    +0.285 C  
DOCKED: ATOM     17  C   UNL     1     -52.388 -22.036  13.479 -0.12 +0.00    +0.285 C  
DOCKED: ENDBRANCH  14  15
DOCKED: ENDBRANCH  13  14
DOCKED: ENDBRANCH  12  13
DOCKED: ENDBRANCH   2  12
DOCKED: BRANCH   2  18
DOCKED: ATOM     18  C   UNL     1     -47.101 -22.173  15.239 -0.18 +0.00    +0.006 A  
DOCKED: ATOM     19  C   UNL     1     -46.177 -23.112  15.696 -0.11 +0.00    +0.001 A  
DOCKED: ATOM     20  C   UNL     1     -44.842 -22.746  15.872 -0.15 +0.00    +0.029 A  
DOCKED: ATOM     21  C   UNL     1     -44.433 -21.444  15.592 -0.09 +0.00    +0.140 A  
DOCKED: ATOM     22  C   UNL     1     -45.358 -20.505  15.135 -0.10 +0.00    +0.029 A  
DOCKED: ATOM     23  F   UNL     1     -43.152 -21.093  15.760 -0.01 -0.00    -0.204 F  
DOCKED: ATOM     24  C   UNL     1     -46.694 -20.870  14.958 -0.14 +0.00    +0.001 A  
DOCKED: ENDBRANCH   2  18
DOCKED: TORSDOF 5
DOCKED: TER
DOCKED: ENDMDL
________________________________________________________________________________


    FINAL DOCKED STATE:
    ________________________


Run:   85 / 512
Time taken for this run:   0.002s

DOCKED: MODEL        85
DOCKED: USER    Run = 85
DOCKED: USER
DOCKED: USER    Estimated Free Energy of Binding    =  -4.40 kcal/mol  [=(1)+(2)+(3)-(4)]
DOCKED: USER
DOCKED: USER    (1) Final Intermolecular Energy     =  -5.89 kcal/mol
DOCKED: USER        vdW + Hbond + desolv Energy     =  -5.89 kcal/mol
DOCKED: USER        Electrostatic Energy            =  +0.00 kcal/mol
DOCKED: USER        Moving Ligand-Fixed Receptor    =  -5.89 kcal/mol
DOCKED: USER        Moving Ligand-Moving Receptor   =  +0.00 kcal/mol
DOCKED: USER    (2) Final Total Internal Energy     =  -1.13 kcal/mol
DOCKED: USER    (3) Torsional Free Energy           =  +1.49 kcal/mol
DOCKED: USER    (4) Unbound System's Energy         =  -1.13 kcal/mol
DOCKED: USER
DOCKED: USER
DOCKED: REMARK  5 active torsions:
DOCKED: REMARK  status: ('A' for Active; 'I' for Inactive)
DOCKED: REMARK    1  A    between atoms: C_2  and  C_19 
DOCKED: REMARK    2  A    between atoms: C_2  and  C_11 
DOCKED: REMARK    3  A    between atoms: C_19  and  C_20 
DOCKED: REMARK    4  A    between atoms: C_20  and  C_21 
DOCKED: REMARK    5  A    between atoms: C_21  and  N_22 
DOCKED: USER                              x       y       z     vdW  Elec       q    Type
DOCKED: USER                           _______ _______ _______ _____ _____    ______ ____
DOCKED: ROOT
DOCKED: ATOM      1  O   UNL     1     -49.697 -23.749  15.370 -0.04 -0.00    -0.346 OA 
DOCKED: ATOM      2  C   UNL     1     -49.177 -22.556  14.702 -0.14 +0.00    +0.130 C  
DOCKED: ATOM      3  C   UNL     1     -49.370 -22.848  13.242 -0.30 +0.00    +0.004 A  
DOCKED: ATOM      4  C   UNL     1     -50.041 -24.053  13.092 -0.31 +0.00    +0.006 A  
DOCKED: ATOM      5  C   UNL     1     -50.347 -24.627  14.421 -0.19 +0.00    +0.169 C  
DOCKED: ATOM      6  C   UNL     1     -48.991 -22.101  12.136 -0.27 -0.00    -0.001 A  
DOCKED: ATOM      7  C   UNL     1     -50.352 -24.553  11.839 -0.43 +0.00    +0.008 A  
DOCKED: ATOM      8  C   UNL     1     -49.293 -22.594  10.866 +0.08 +0.00    +0.010 A  
DOCKED: ATOM      9  C   UNL     1     -49.971 -23.814  10.718 -0.42 +0.00    +0.068 A  
DOCKED: ATOM     10  N   UNL     1     -50.521 -24.698   8.346 -2.59 -0.00    -0.191 NA 
DOCKED: ATOM     11  C   UNL     1     -50.274 -24.302   9.410 -0.32 +0.00    +0.101 C  
DOCKED: ENDROOT
DOCKED: BRANCH   2  12
DOCKED: ATOM     12  C   UNL     1     -49.978 -21.349  15.177 -0.11 +0.00    +0.038 C  
DOCKED: BRANCH  12  13
DOCKED: ATOM     13  C   UNL     1     -49.384 -20.752  16.451 -0.04 +0.00    +0.038 C  
DOCKED: BRANCH  13  14
DOCKED: ATOM     14  C   UNL     1     -49.697 -21.624  17.665 -0.01 +0.00    +0.251 C  
DOCKED: BRANCH  14  15
DOCKED: ATOM     15  N   UNL     1     -49.220 -20.984  18.885 -0.00 +0.00    +0.141 N  
DOCKED: ATOM     16  C   UNL     1     -50.206 -20.023  19.383 -0.00 +0.00    +0.285 C  
DOCKED: ATOM     17  C   UNL     1     -48.925 -21.985  19.911 -0.00 +0.00    +0.285 C  
DOCKED: ENDBRANCH  14  15
DOCKED: ENDBRANCH  13  14
DOCKED: ENDBRANCH  12  13
DOCKED: ENDBRANCH   2  12
DOCKED: BRANCH   2  18
DOCKED: ATOM     18  C   UNL     1     -47.740 -22.432  15.086 -0.19 +0.00    +0.006 A  
DOCKED: ATOM     19  C   UNL     1     -46.924 -21.506  14.439 -0.18 +0.00    +0.001 A  
DOCKED: ATOM     20  C   UNL     1     -45.580 -21.391  14.799 -0.11 +0.00    +0.029 A  
DOCKED: ATOM     21  C   UNL     1     -45.056 -22.203  15.804 -0.12 +0.00    +0.140 A  
DOCKED: ATOM     22  C   UNL     1     -45.873 -23.129  16.451 -0.02 +0.00    +0.029 A  
DOCKED: ATOM     23  F   UNL     1     -43.767 -22.092  16.150 -0.02 -0.00    -0.204 F  
DOCKED: ATOM     24  C   UNL     1     -47.217 -23.245  16.091 -0.16 +0.00    +0.001 A  
DOCKED: ENDBRANCH   2  18
DOCKED: TORSDOF 5
DOCKED: TER
DOCKED: ENDMDL
________________________________________________________________________________


    FINAL DOCKED STATE:
    ________________________


Run:   86 / 512
Time taken for this run:   0.002s

DOCKED: MODEL        86
DOCKED: USER    Run = 86
DOCKED: USER
DOCKED: USER    Estimated Free Energy of Binding    =  -4.10 kcal/mol  [=(1)+(2)+(3)-(4)]
DOCKED: USER
DOCKED: USER    (1) Final Intermolecular Energy     =  -5.59 kcal/mol
DOCKED: USER        vdW + Hbond + desolv Energy     =  -5.59 kcal/mol
DOCKED: USER        Electrostatic Energy            =  +0.00 kcal/mol
DOCKED: USER        Moving Ligand-Fixed Receptor    =  -5.59 kcal/mol
DOCKED: USER        Moving Ligand-Moving Receptor   =  +0.00 kcal/mol
DOCKED: USER    (2) Final Total Internal Energy     =  -1.37 kcal/mol
DOCKED: USER    (3) Torsional Free Energy           =  +1.49 kcal/mol
DOCKED: USER    (4) Unbound System's Energy         =  -1.37 kcal/mol
DOCKED: USER
DOCKED: USER
DOCKED: REMARK  5 active torsions:
DOCKED: REMARK  status: ('A' for Active; 'I' for Inactive)
DOCKED: REMARK    1  A    between atoms: C_2  and  C_19 
DOCKED: REMARK    2  A    between atoms: C_2  and  C_11 
DOCKED: REMARK    3  A    between atoms: C_19  and  C_20 
DOCKED: REMARK    4  A    between atoms: C_20  and  C_21 
DOCKED: REMARK    5  A    between atoms: C_21  and  N_22 
DOCKED: USER                              x       y       z     vdW  Elec       q    Type
DOCKED: USER                           _______ _______ _______ _____ _____    ______ ____
DOCKED: ROOT
DOCKED: ATOM      1  O   UNL     1     -48.616 -18.891  14.445 -0.03 -0.00    -0.346 OA 
DOCKED: ATOM      2  C   UNL     1     -50.077 -18.955  14.402 -0.14 +0.00    +0.130 C  
DOCKED: ATOM      3  C   UNL     1     -50.362 -20.335  13.883 -0.21 +0.00    +0.004 A  
DOCKED: ATOM      4  C   UNL     1     -49.173 -21.037  13.745 -0.23 +0.00    +0.006 A  
DOCKED: ATOM      5  C   UNL     1     -48.037 -20.188  14.170 -0.15 +0.00    +0.169 C  
DOCKED: ATOM      6  C   UNL     1     -51.577 -20.925  13.567 -0.21 -0.00    -0.001 A  
DOCKED: ATOM      7  C   UNL     1     -49.156 -22.343  13.287 -0.30 +0.00    +0.008 A  
DOCKED: ATOM      8  C   UNL     1     -51.576 -22.240  13.100 -0.20 +0.00    +0.010 A  
DOCKED: ATOM      9  C   UNL     1     -50.372 -22.945  12.961 -0.24 +0.00    +0.068 A  
DOCKED: ATOM     10  N   UNL     1     -50.406 -25.387  12.095 -2.56 -0.00    -0.191 NA 
DOCKED: ATOM     11  C   UNL     1     -50.390 -24.292  12.483 -0.35 +0.00    +0.101 C  
DOCKED: ENDROOT
DOCKED: BRANCH   2  12
DOCKED: ATOM     12  C   UNL     1     -50.612 -18.730  15.812 -0.05 +0.00    +0.038 C  
DOCKED: BRANCH  12  13
DOCKED: ATOM     13  C   UNL     1     -49.906 -17.560  16.495 -0.02 +0.00    +0.038 C  
DOCKED: BRANCH  13  14
DOCKED: ATOM     14  C   UNL     1     -50.851 -16.370  16.660 -0.00 +0.00    +0.251 C  
DOCKED: BRANCH  14  15
DOCKED: ATOM     15  N   UNL     1     -50.199 -15.141  16.225 -0.00 +0.00    +0.141 N  
DOCKED: ATOM     16  C   UNL     1     -50.057 -14.208  17.344 +0.00 +0.00    +0.285 C  
DOCKED: ATOM     17  C   UNL     1     -48.890 -15.431  15.638 -0.00 +0.00    +0.285 C  
DOCKED: ENDBRANCH  14  15
DOCKED: ENDBRANCH  13  14
DOCKED: ENDBRANCH  12  13
DOCKED: ENDBRANCH   2  12
DOCKED: BRANCH   2  18
DOCKED: ATOM     18  C   UNL     1     -50.534 -17.879  13.475 -0.20 +0.00    +0.006 A  
DOCKED: ATOM     19  C   UNL     1     -49.610 -17.213  12.671 -0.16 +0.00    +0.001 A  
DOCKED: ATOM     20  C   UNL     1     -50.038 -16.206  11.805 -0.12 +0.00    +0.029 A  
DOCKED: ATOM     21  C   UNL     1     -51.389 -15.867  11.744 -0.06 +0.00    +0.140 A  
DOCKED: ATOM     22  C   UNL     1     -52.313 -16.534  12.548 -0.13 +0.00    +0.029 A  
DOCKED: ATOM     23  F   UNL     1     -51.800 -14.903  10.911 -0.03 -0.00    -0.204 F  
DOCKED: ATOM     24  C   UNL     1     -51.885 -17.541  13.415 -0.20 +0.00    +0.001 A  
DOCKED: ENDBRANCH   2  18
DOCKED: TORSDOF 5
DOCKED: TER
DOCKED: ENDMDL
________________________________________________________________________________


    FINAL DOCKED STATE:
    ________________________


Run:   87 / 512
Time taken for this run:   0.002s

DOCKED: MODEL        87
DOCKED: USER    Run = 87
DOCKED: USER
DOCKED: USER    Estimated Free Energy of Binding    =  -4.52 kcal/mol  [=(1)+(2)+(3)-(4)]
DOCKED: USER
DOCKED: USER    (1) Final Intermolecular Energy     =  -6.01 kcal/mol
DOCKED: USER        vdW + Hbond + desolv Energy     =  -6.01 kcal/mol
DOCKED: USER        Electrostatic Energy            =  +0.00 kcal/mol
DOCKED: USER        Moving Ligand-Fixed Receptor    =  -6.01 kcal/mol
DOCKED: USER        Moving Ligand-Moving Receptor   =  +0.00 kcal/mol
DOCKED: USER    (2) Final Total Internal Energy     =  -1.24 kcal/mol
DOCKED: USER    (3) Torsional Free Energy           =  +1.49 kcal/mol
DOCKED: USER    (4) Unbound System's Energy         =  -1.24 kcal/mol
DOCKED: USER
DOCKED: USER
DOCKED: REMARK  5 active torsions:
DOCKED: REMARK  status: ('A' for Active; 'I' for Inactive)
DOCKED: REMARK    1  A    between atoms: C_2  and  C_19 
DOCKED: REMARK    2  A    between atoms: C_2  and  C_11 
DOCKED: REMARK    3  A    between atoms: C_19  and  C_20 
DOCKED: REMARK    4  A    between atoms: C_20  and  C_21 
DOCKED: REMARK    5  A    between atoms: C_21  and  N_22 
DOCKED: USER                              x       y       z     vdW  Elec       q    Type
DOCKED: USER                           _______ _______ _______ _____ _____    ______ ____
DOCKED: ROOT
DOCKED: ATOM      1  O   UNL     1     -43.165 -15.875   5.693 +0.00 -0.00    -0.346 OA 
DOCKED: ATOM      2  C   UNL     1     -44.469 -15.787   6.351 -0.14 +0.00    +0.130 C  
DOCKED: ATOM      3  C   UNL     1     -45.284 -14.934   5.422 -0.26 +0.00    +0.004 A  
DOCKED: ATOM      4  C   UNL     1     -44.547 -14.652   4.281 -0.21 +0.00    +0.006 A  
DOCKED: ATOM      5  C   UNL     1     -43.218 -15.298   4.368 -0.08 +0.00    +0.169 C  
DOCKED: ATOM      6  C   UNL     1     -46.578 -14.457   5.571 -0.28 -0.00    -0.001 A  
DOCKED: ATOM      7  C   UNL     1     -45.072 -13.883   3.256 -0.23 +0.00    +0.008 A  
DOCKED: ATOM      8  C   UNL     1     -47.120 -13.676   4.548 -0.35 +0.00    +0.010 A  
DOCKED: ATOM      9  C   UNL     1     -46.371 -13.392   3.397 -0.23 +0.00    +0.068 A  
DOCKED: ATOM     10  N   UNL     1     -47.409 -11.944   1.515 -2.43 -0.00    -0.191 NA 
DOCKED: ATOM     11  C   UNL     1     -46.943 -12.593   2.359 -0.38 +0.00    +0.101 C  
DOCKED: ENDROOT
DOCKED: BRANCH   2  12
DOCKED: ATOM     12  C   UNL     1     -45.028 -17.197   6.506 -0.20 +0.00    +0.038 C  
DOCKED: BRANCH  12  13
DOCKED: ATOM     13  C   UNL     1     -43.944 -18.180   6.944 -0.14 +0.00    +0.038 C  
DOCKED: BRANCH  13  14
DOCKED: ATOM     14  C   UNL     1     -43.735 -19.271   5.894 -0.15 +0.00    +0.251 C  
DOCKED: BRANCH  14  15
DOCKED: ATOM     15  N   UNL     1     -42.315 -19.560   5.739 -0.10 +0.00    +0.141 N  
DOCKED: ATOM     16  C   UNL     1     -42.091 -20.446   4.595 -0.12 +0.00    +0.285 C  
DOCKED: ATOM     17  C   UNL     1     -41.551 -18.321   5.578 -0.01 +0.00    +0.285 C  
DOCKED: ENDBRANCH  14  15
DOCKED: ENDBRANCH  13  14
DOCKED: ENDBRANCH  12  13
DOCKED: ENDBRANCH   2  12
DOCKED: BRANCH   2  18
DOCKED: ATOM     18  C   UNL     1     -44.245 -15.148   7.681 -0.14 +0.00    +0.006 A  
DOCKED: ATOM     19  C   UNL     1     -45.195 -15.290   8.692 -0.16 +0.00    +0.001 A  
DOCKED: ATOM     20  C   UNL     1     -44.984 -14.692   9.934 -0.14 +0.00    +0.029 A  
DOCKED: ATOM     21  C   UNL     1     -43.824 -13.954  10.165 -0.05 +0.00    +0.140 A  
DOCKED: ATOM     22  C   UNL     1     -42.874 -13.812   9.154 -0.04 +0.00    +0.029 A  
DOCKED: ATOM     23  F   UNL     1     -43.621 -13.381  11.359 -0.04 -0.00    -0.204 F  
DOCKED: ATOM     24  C   UNL     1     -43.085 -14.410   7.910 -0.13 +0.00    +0.001 A  
DOCKED: ENDBRANCH   2  18
DOCKED: TORSDOF 5
DOCKED: TER
DOCKED: ENDMDL
________________________________________________________________________________


    FINAL DOCKED STATE:
    ________________________


Run:   88 / 512
Time taken for this run:   0.002s

DOCKED: MODEL        88
DOCKED: USER    Run = 88
DOCKED: USER
DOCKED: USER    Estimated Free Energy of Binding    =  -4.43 kcal/mol  [=(1)+(2)+(3)-(4)]
DOCKED: USER
DOCKED: USER    (1) Final Intermolecular Energy     =  -5.93 kcal/mol
DOCKED: USER        vdW + Hbond + desolv Energy     =  -5.93 kcal/mol
DOCKED: USER        Electrostatic Energy            =  +0.00 kcal/mol
DOCKED: USER        Moving Ligand-Fixed Receptor    =  -5.93 kcal/mol
DOCKED: USER        Moving Ligand-Moving Receptor   =  +0.00 kcal/mol
DOCKED: USER    (2) Final Total Internal Energy     =  -1.27 kcal/mol
DOCKED: USER    (3) Torsional Free Energy           =  +1.49 kcal/mol
DOCKED: USER    (4) Unbound System's Energy         =  -1.27 kcal/mol
DOCKED: USER
DOCKED: USER
DOCKED: REMARK  5 active torsions:
DOCKED: REMARK  status: ('A' for Active; 'I' for Inactive)
DOCKED: REMARK    1  A    between atoms: C_2  and  C_19 
DOCKED: REMARK    2  A    between atoms: C_2  and  C_11 
DOCKED: REMARK    3  A    between atoms: C_19  and  C_20 
DOCKED: REMARK    4  A    between atoms: C_20  and  C_21 
DOCKED: REMARK    5  A    between atoms: C_21  and  N_22 
DOCKED: USER                              x       y       z     vdW  Elec       q    Type
DOCKED: USER                           _______ _______ _______ _____ _____    ______ ____
DOCKED: ROOT
DOCKED: ATOM      1  O   UNL     1     -51.350 -22.057  14.917 -0.01 -0.00    -0.346 OA 
DOCKED: ATOM      2  C   UNL     1     -49.916 -22.229  14.682 -0.12 +0.00    +0.130 C  
DOCKED: ATOM      3  C   UNL     1     -49.844 -22.788  13.291 -0.27 +0.00    +0.004 A  
DOCKED: ATOM      4  C   UNL     1     -51.116 -22.829  12.737 -0.25 +0.00    +0.006 A  
DOCKED: ATOM      5  C   UNL     1     -52.102 -22.296  13.704 -0.18 +0.00    +0.169 C  
DOCKED: ATOM      6  C   UNL     1     -48.740 -23.216  12.568 -0.37 -0.00    -0.001 A  
DOCKED: ATOM      7  C   UNL     1     -51.328 -23.300  11.453 -0.07 +0.00    +0.008 A  
DOCKED: ATOM      8  C   UNL     1     -48.938 -23.698  11.273 -0.22 +0.00    +0.010 A  
DOCKED: ATOM      9  C   UNL     1     -50.225 -23.739  10.718 -0.38 +0.00    +0.068 A  
DOCKED: ATOM     10  N   UNL     1     -50.557 -24.634   8.310 -2.71 -0.00    -0.191 NA 
DOCKED: ATOM     11  C   UNL     1     -50.409 -24.233   9.390 -0.29 +0.00    +0.101 C  
DOCKED: ENDROOT
DOCKED: BRANCH   2  12
DOCKED: ATOM     12  C   UNL     1     -49.240 -20.869  14.810 -0.13 +0.00    +0.038 C  
DOCKED: BRANCH  12  13
DOCKED: ATOM     13  C   UNL     1     -49.852 -20.047  15.943 -0.05 +0.00    +0.038 C  
DOCKED: BRANCH  13  14
DOCKED: ATOM     14  C   UNL     1     -48.843 -19.047  16.504 -0.01 +0.00    +0.251 C  
DOCKED: BRANCH  14  15
DOCKED: ATOM     15  N   UNL     1     -48.218 -19.579  17.710 -0.00 +0.00    +0.141 N  
DOCKED: ATOM     16  C   UNL     1     -49.153 -20.437  18.440 -0.00 +0.00    +0.285 C  
DOCKED: ATOM     17  C   UNL     1     -47.002 -20.323  17.376 -0.01 +0.00    +0.285 C  
DOCKED: ENDBRANCH  14  15
DOCKED: ENDBRANCH  13  14
DOCKED: ENDBRANCH  12  13
DOCKED: ENDBRANCH   2  12
DOCKED: BRANCH   2  18
DOCKED: ATOM     18  C   UNL     1     -49.415 -23.179  15.718 -0.13 +0.00    +0.006 A  
DOCKED: ATOM     19  C   UNL     1     -48.082 -23.127  16.124 -0.15 +0.00    +0.001 A  
DOCKED: ATOM     20  C   UNL     1     -47.615 -24.016  17.092 -0.13 +0.00    +0.029 A  
DOCKED: ATOM     21  C   UNL     1     -48.480 -24.955  17.653 -0.18 +0.00    +0.140 A  
DOCKED: ATOM     22  C   UNL     1     -49.813 -25.006  17.246 +0.00 +0.00    +0.029 A  
DOCKED: ATOM     23  F   UNL     1     -48.031 -25.807  18.583 -0.10 -0.00    -0.204 F  
DOCKED: ATOM     24  C   UNL     1     -50.281 -24.117  16.277 -0.17 +0.00    +0.001 A  
DOCKED: ENDBRANCH   2  18
DOCKED: TORSDOF 5
DOCKED: TER
DOCKED: ENDMDL
________________________________________________________________________________


    FINAL DOCKED STATE:
    ________________________


Run:   89 / 512
Time taken for this run:   0.002s

DOCKED: MODEL        89
DOCKED: USER    Run = 89
DOCKED: USER
DOCKED: USER    Estimated Free Energy of Binding    =  -4.34 kcal/mol  [=(1)+(2)+(3)-(4)]
DOCKED: USER
DOCKED: USER    (1) Final Intermolecular Energy     =  -5.83 kcal/mol
DOCKED: USER        vdW + Hbond + desolv Energy     =  -5.83 kcal/mol
DOCKED: USER        Electrostatic Energy            =  +0.00 kcal/mol
DOCKED: USER        Moving Ligand-Fixed Receptor    =  -5.83 kcal/mol
DOCKED: USER        Moving Ligand-Moving Receptor   =  +0.00 kcal/mol
DOCKED: USER    (2) Final Total Internal Energy     =  -1.30 kcal/mol
DOCKED: USER    (3) Torsional Free Energy           =  +1.49 kcal/mol
DOCKED: USER    (4) Unbound System's Energy         =  -1.30 kcal/mol
DOCKED: USER
DOCKED: USER
DOCKED: REMARK  5 active torsions:
DOCKED: REMARK  status: ('A' for Active; 'I' for Inactive)
DOCKED: REMARK    1  A    between atoms: C_2  and  C_19 
DOCKED: REMARK    2  A    between atoms: C_2  and  C_11 
DOCKED: REMARK    3  A    between atoms: C_19  and  C_20 
DOCKED: REMARK    4  A    between atoms: C_20  and  C_21 
DOCKED: REMARK    5  A    between atoms: C_21  and  N_22 
DOCKED: USER                              x       y       z     vdW  Elec       q    Type
DOCKED: USER                           _______ _______ _______ _____ _____    ______ ____
DOCKED: ROOT
DOCKED: ATOM      1  O   UNL     1     -47.164 -19.716  14.637 -0.04 -0.00    -0.346 OA 
DOCKED: ATOM      2  C   UNL     1     -48.606 -19.497  14.516 -0.12 +0.00    +0.130 C  
DOCKED: ATOM      3  C   UNL     1     -49.121 -20.793  13.961 -0.21 +0.00    +0.004 A  
DOCKED: ATOM      4  C   UNL     1     -48.083 -21.711  13.876 -0.25 +0.00    +0.006 A  
DOCKED: ATOM      5  C   UNL     1     -46.831 -21.099  14.374 -0.15 +0.00    +0.169 C  
DOCKED: ATOM      6  C   UNL     1     -50.408 -21.137  13.572 -0.23 -0.00    -0.001 A  
DOCKED: ATOM      7  C   UNL     1     -48.292 -22.993  13.399 -0.32 +0.00    +0.008 A  
DOCKED: ATOM      8  C   UNL     1     -50.634 -22.426  13.085 -0.24 +0.00    +0.010 A  
DOCKED: ATOM      9  C   UNL     1     -49.581 -23.349  13.000 -0.28 +0.00    +0.068 A  
DOCKED: ATOM     10  N   UNL     1     -50.036 -25.734  12.096 -2.60 -0.00    -0.191 NA 
DOCKED: ATOM     11  C   UNL     1     -49.832 -24.664  12.500 -0.35 +0.00    +0.101 C  
DOCKED: ENDROOT
DOCKED: BRANCH   2  12
DOCKED: ATOM     12  C   UNL     1     -49.164 -19.180  15.898 -0.04 +0.00    +0.038 C  
DOCKED: BRANCH  12  13
DOCKED: ATOM     13  C   UNL     1     -49.921 -20.373  16.480 -0.04 +0.00    +0.038 C  
DOCKED: BRANCH  13  14
DOCKED: ATOM     14  C   UNL     1     -49.295 -20.832  17.796 -0.00 +0.00    +0.251 C  
DOCKED: BRANCH  14  15
DOCKED: ATOM     15  N   UNL     1     -48.456 -22.004  17.577 -0.03 +0.00    +0.141 N  
DOCKED: ATOM     16  C   UNL     1     -47.502 -22.169  18.675 -0.02 +0.00    +0.285 C  
DOCKED: ATOM     17  C   UNL     1     -49.278 -23.207  17.435 -0.04 +0.00    +0.285 C  
DOCKED: ENDBRANCH  14  15
DOCKED: ENDBRANCH  13  14
DOCKED: ENDBRANCH  12  13
DOCKED: ENDBRANCH   2  12
DOCKED: BRANCH   2  18
DOCKED: ATOM     18  C   UNL     1     -48.796 -18.348  13.583 -0.16 +0.00    +0.006 A  
DOCKED: ATOM     19  C   UNL     1     -47.692 -17.768  12.959 -0.12 +0.00    +0.001 A  
DOCKED: ATOM     20  C   UNL     1     -47.871 -16.694  12.087 -0.10 +0.00    +0.029 A  
DOCKED: ATOM     21  C   UNL     1     -49.152 -16.202  11.839 -0.12 +0.00    +0.140 A  
DOCKED: ATOM     22  C   UNL     1     -50.255 -16.783  12.463 -0.15 +0.00    +0.029 A  
DOCKED: ATOM     23  F   UNL     1     -49.323 -15.172  11.001 -0.03 -0.00    -0.204 F  
DOCKED: ATOM     24  C   UNL     1     -50.078 -17.857  13.337 -0.20 +0.00    +0.001 A  
DOCKED: ENDBRANCH   2  18
DOCKED: TORSDOF 5
DOCKED: TER
DOCKED: ENDMDL
________________________________________________________________________________


    FINAL DOCKED STATE:
    ________________________


Run:   90 / 512
Time taken for this run:   0.002s

DOCKED: MODEL        90
DOCKED: USER    Run = 90
DOCKED: USER
DOCKED: USER    Estimated Free Energy of Binding    =  -3.55 kcal/mol  [=(1)+(2)+(3)-(4)]
DOCKED: USER
DOCKED: USER    (1) Final Intermolecular Energy     =  -5.04 kcal/mol
DOCKED: USER        vdW + Hbond + desolv Energy     =  -5.04 kcal/mol
DOCKED: USER        Electrostatic Energy            =  +0.00 kcal/mol
DOCKED: USER        Moving Ligand-Fixed Receptor    =  -5.04 kcal/mol
DOCKED: USER        Moving Ligand-Moving Receptor   =  +0.00 kcal/mol
DOCKED: USER    (2) Final Total Internal Energy     =  -1.22 kcal/mol
DOCKED: USER    (3) Torsional Free Energy           =  +1.49 kcal/mol
DOCKED: USER    (4) Unbound System's Energy         =  -1.22 kcal/mol
DOCKED: USER
DOCKED: USER
DOCKED: REMARK  5 active torsions:
DOCKED: REMARK  status: ('A' for Active; 'I' for Inactive)
DOCKED: REMARK    1  A    between atoms: C_2  and  C_19 
DOCKED: REMARK    2  A    between atoms: C_2  and  C_11 
DOCKED: REMARK    3  A    between atoms: C_19  and  C_20 
DOCKED: REMARK    4  A    between atoms: C_20  and  C_21 
DOCKED: REMARK    5  A    between atoms: C_21  and  N_22 
DOCKED: USER                              x       y       z     vdW  Elec       q    Type
DOCKED: USER                           _______ _______ _______ _____ _____    ______ ____
DOCKED: ROOT
DOCKED: ATOM      1  O   UNL     1     -42.058 -11.802   2.630 -0.02 -0.00    -0.346 OA 
DOCKED: ATOM      2  C   UNL     1     -42.432 -12.456   3.885 -0.08 +0.00    +0.130 C  
DOCKED: ATOM      3  C   UNL     1     -43.912 -12.672   3.751 -0.19 +0.00    +0.004 A  
DOCKED: ATOM      4  C   UNL     1     -44.329 -12.278   2.487 -0.26 +0.00    +0.006 A  
DOCKED: ATOM      5  C   UNL     1     -43.170 -11.793   1.704 -0.14 +0.00    +0.169 C  
DOCKED: ATOM      6  C   UNL     1     -44.815 -13.187   4.669 -0.18 -0.00    -0.001 A  
DOCKED: ATOM      7  C   UNL     1     -45.654 -12.379   2.102 -0.41 +0.00    +0.008 A  
DOCKED: ATOM      8  C   UNL     1     -46.156 -13.291   4.297 -0.30 +0.00    +0.010 A  
DOCKED: ATOM      9  C   UNL     1     -46.573 -12.890   3.019 -0.37 +0.00    +0.068 A  
DOCKED: ATOM     10  N   UNL     1     -49.070 -13.102   2.359 -2.34 -0.00    -0.191 NA 
DOCKED: ATOM     11  C   UNL     1     -47.950 -13.006   2.655 +0.07 +0.00    +0.101 C  
DOCKED: ENDROOT
DOCKED: BRANCH   2  12
DOCKED: ATOM     12  C   UNL     1     -41.650 -13.760   4.001 -0.04 +0.00    +0.038 C  
DOCKED: BRANCH  12  13
DOCKED: ATOM     13  C   UNL     1     -40.643 -13.908   2.862 -0.02 +0.00    +0.038 C  
DOCKED: BRANCH  13  14
DOCKED: ATOM     14  C   UNL     1     -39.267 -13.390   3.275 +0.00 +0.00    +0.251 C  
DOCKED: BRANCH  14  15
DOCKED: ATOM     15  N   UNL     1     -38.671 -14.271   4.272 -0.00 +0.00    +0.141 N  
DOCKED: ATOM     16  C   UNL     1     -37.761 -15.227   3.639 +0.00 +0.00    +0.285 C  
DOCKED: ATOM     17  C   UNL     1     -37.962 -13.493   5.289 +0.00 +0.00    +0.285 C  
DOCKED: ENDBRANCH  14  15
DOCKED: ENDBRANCH  13  14
DOCKED: ENDBRANCH  12  13
DOCKED: ENDBRANCH   2  12
DOCKED: BRANCH   2  18
DOCKED: ATOM     18  C   UNL     1     -42.079 -11.516   4.989 -0.12 +0.00    +0.006 A  
DOCKED: ATOM     19  C   UNL     1     -41.205 -11.923   5.997 -0.09 +0.00    +0.001 A  
DOCKED: ATOM     20  C   UNL     1     -40.876 -11.043   7.029 -0.09 +0.00    +0.029 A  
DOCKED: ATOM     21  C   UNL     1     -41.420  -9.760   7.051 -0.09 +0.00    +0.140 A  
DOCKED: ATOM     22  C   UNL     1     -42.293  -9.354   6.042 -0.16 +0.00    +0.029 A  
DOCKED: ATOM     23  F   UNL     1     -41.103  -8.915   8.041 -0.03 -0.00    -0.204 F  
DOCKED: ATOM     24  C   UNL     1     -42.624 -10.233   5.010 -0.19 +0.00    +0.001 A  
DOCKED: ENDBRANCH   2  18
DOCKED: TORSDOF 5
DOCKED: TER
DOCKED: ENDMDL
________________________________________________________________________________


    FINAL DOCKED STATE:
    ________________________


Run:   91 / 512
Time taken for this run:   0.002s

DOCKED: MODEL        91
DOCKED: USER    Run = 91
DOCKED: USER
DOCKED: USER    Estimated Free Energy of Binding    =  -3.29 kcal/mol  [=(1)+(2)+(3)-(4)]
DOCKED: USER
DOCKED: USER    (1) Final Intermolecular Energy     =  -4.78 kcal/mol
DOCKED: USER        vdW + Hbond + desolv Energy     =  -4.78 kcal/mol
DOCKED: USER        Electrostatic Energy            =  +0.00 kcal/mol
DOCKED: USER        Moving Ligand-Fixed Receptor    =  -4.78 kcal/mol
DOCKED: USER        Moving Ligand-Moving Receptor   =  +0.00 kcal/mol
DOCKED: USER    (2) Final Total Internal Energy     =  -1.40 kcal/mol
DOCKED: USER    (3) Torsional Free Energy           =  +1.49 kcal/mol
DOCKED: USER    (4) Unbound System's Energy         =  -1.40 kcal/mol
DOCKED: USER
DOCKED: USER
DOCKED: REMARK  5 active torsions:
DOCKED: REMARK  status: ('A' for Active; 'I' for Inactive)
DOCKED: REMARK    1  A    between atoms: C_2  and  C_19 
DOCKED: REMARK    2  A    between atoms: C_2  and  C_11 
DOCKED: REMARK    3  A    between atoms: C_19  and  C_20 
DOCKED: REMARK    4  A    between atoms: C_20  and  C_21 
DOCKED: REMARK    5  A    between atoms: C_21  and  N_22 
DOCKED: USER                              x       y       z     vdW  Elec       q    Type
DOCKED: USER                           _______ _______ _______ _____ _____    ______ ____
DOCKED: ROOT
DOCKED: ATOM      1  O   UNL     1     -46.424 -21.115  16.654 -0.02 -0.00    -0.346 OA 
DOCKED: ATOM      2  C   UNL     1     -45.969 -21.684  15.384 -0.14 +0.00    +0.130 C  
DOCKED: ATOM      3  C   UNL     1     -47.003 -22.725  15.066 -0.22 +0.00    +0.004 A  
DOCKED: ATOM      4  C   UNL     1     -48.018 -22.680  16.012 -0.13 +0.00    +0.006 A  
DOCKED: ATOM      5  C   UNL     1     -47.737 -21.613  16.999 -0.04 +0.00    +0.169 C  
DOCKED: ATOM      6  C   UNL     1     -47.048 -23.632  14.017 -0.23 -0.00    -0.001 A  
DOCKED: ATOM      7  C   UNL     1     -49.104 -23.536  15.945 -0.16 +0.00    +0.008 A  
DOCKED: ATOM      8  C   UNL     1     -48.134 -24.505  13.939 -0.38 +0.00    +0.010 A  
DOCKED: ATOM      9  C   UNL     1     -49.157 -24.457  14.898 -0.23 +0.00    +0.068 A  
DOCKED: ATOM     10  N   UNL     1     -51.161 -26.089  14.720 -1.72 -0.00    -0.191 NA 
DOCKED: ATOM     11  C   UNL     1     -50.262 -25.357  14.800 +0.01 +0.00    +0.101 C  
DOCKED: ENDROOT
DOCKED: BRANCH   2  12
DOCKED: ATOM     12  C   UNL     1     -45.913 -20.568  14.348 -0.14 +0.00    +0.038 C  
DOCKED: BRANCH  12  13
DOCKED: ATOM     13  C   UNL     1     -47.194 -20.513  13.518 -0.20 +0.00    +0.038 C  
DOCKED: BRANCH  13  14
DOCKED: ATOM     14  C   UNL     1     -47.852 -19.138  13.614 -0.13 +0.00    +0.251 C  
DOCKED: BRANCH  14  15
DOCKED: ATOM     15  N   UNL     1     -49.253 -19.272  13.998 -0.14 +0.00    +0.141 N  
DOCKED: ATOM     16  C   UNL     1     -49.769 -20.587  13.617 -0.15 +0.00    +0.285 C  
DOCKED: ATOM     17  C   UNL     1     -49.415 -19.061  15.437 -0.03 +0.00    +0.285 C  
DOCKED: ENDBRANCH  14  15
DOCKED: ENDBRANCH  13  14
DOCKED: ENDBRANCH  12  13
DOCKED: ENDBRANCH   2  12
DOCKED: BRANCH   2  18
DOCKED: ATOM     18  C   UNL     1     -44.616 -22.264  15.625 -0.16 +0.00    +0.006 A  
DOCKED: ATOM     19  C   UNL     1     -44.363 -22.981  16.794 -0.10 +0.00    +0.001 A  
DOCKED: ATOM     20  C   UNL     1     -43.097 -23.522  17.019 -0.12 +0.00    +0.029 A  
DOCKED: ATOM     21  C   UNL     1     -42.086 -23.346  16.075 -0.09 +0.00    +0.140 A  
DOCKED: ATOM     22  C   UNL     1     -42.339 -22.629  14.906 -0.14 +0.00    +0.029 A  
DOCKED: ATOM     23  F   UNL     1     -40.871 -23.867  16.290 -0.00 -0.00    -0.204 F  
DOCKED: ATOM     24  C   UNL     1     -43.606 -22.087  14.680 -0.12 +0.00    +0.001 A  
DOCKED: ENDBRANCH   2  18
DOCKED: TORSDOF 5
DOCKED: TER
DOCKED: ENDMDL
________________________________________________________________________________


    FINAL DOCKED STATE:
    ________________________


Run:   92 / 512
Time taken for this run:   0.002s

DOCKED: MODEL        92
DOCKED: USER    Run = 92
DOCKED: USER
DOCKED: USER    Estimated Free Energy of Binding    =  -3.93 kcal/mol  [=(1)+(2)+(3)-(4)]
DOCKED: USER
DOCKED: USER    (1) Final Intermolecular Energy     =  -5.42 kcal/mol
DOCKED: USER        vdW + Hbond + desolv Energy     =  -5.42 kcal/mol
DOCKED: USER        Electrostatic Energy            =  +0.00 kcal/mol
DOCKED: USER        Moving Ligand-Fixed Receptor    =  -5.42 kcal/mol
DOCKED: USER        Moving Ligand-Moving Receptor   =  +0.00 kcal/mol
DOCKED: USER    (2) Final Total Internal Energy     =  -1.47 kcal/mol
DOCKED: USER    (3) Torsional Free Energy           =  +1.49 kcal/mol
DOCKED: USER    (4) Unbound System's Energy         =  -1.47 kcal/mol
DOCKED: USER
DOCKED: USER
DOCKED: REMARK  5 active torsions:
DOCKED: REMARK  status: ('A' for Active; 'I' for Inactive)
DOCKED: REMARK    1  A    between atoms: C_2  and  C_19 
DOCKED: REMARK    2  A    between atoms: C_2  and  C_11 
DOCKED: REMARK    3  A    between atoms: C_19  and  C_20 
DOCKED: REMARK    4  A    between atoms: C_20  and  C_21 
DOCKED: REMARK    5  A    between atoms: C_21  and  N_22 
DOCKED: USER                              x       y       z     vdW  Elec       q    Type
DOCKED: USER                           _______ _______ _______ _____ _____    ______ ____
DOCKED: ROOT
DOCKED: ATOM      1  O   UNL     1     -49.917 -18.948  14.203 -0.07 -0.00    -0.346 OA 
DOCKED: ATOM      2  C   UNL     1     -48.552 -19.474  14.185 -0.14 +0.00    +0.130 C  
DOCKED: ATOM      3  C   UNL     1     -48.722 -20.902  13.755 -0.24 +0.00    +0.004 A  
DOCKED: ATOM      4  C   UNL     1     -50.054 -21.141  13.447 -0.23 +0.00    +0.006 A  
DOCKED: ATOM      5  C   UNL     1     -50.843 -19.904  13.637 -0.20 +0.00    +0.169 C  
DOCKED: ATOM      6  C   UNL     1     -47.772 -21.906  13.635 -0.25 -0.00    -0.001 A  
DOCKED: ATOM      7  C   UNL     1     -50.481 -22.385  13.015 -0.25 +0.00    +0.008 A  
DOCKED: ATOM      8  C   UNL     1     -48.188 -23.167  13.205 -0.32 +0.00    +0.010 A  
DOCKED: ATOM      9  C   UNL     1     -49.536 -23.405  12.896 -0.29 +0.00    +0.068 A  
DOCKED: ATOM     10  N   UNL     1     -50.274 -25.756  12.096 -2.57 -0.00    -0.191 NA 
DOCKED: ATOM     11  C   UNL     1     -49.943 -24.702  12.455 -0.35 +0.00    +0.101 C  
DOCKED: ENDROOT
DOCKED: BRANCH   2  12
DOCKED: ATOM     12  C   UNL     1     -47.731 -18.651  13.200 -0.16 +0.00    +0.038 C  
DOCKED: BRANCH  12  13
DOCKED: ATOM     13  C   UNL     1     -48.442 -17.350  12.832 -0.14 +0.00    +0.038 C  
DOCKED: BRANCH  13  14
DOCKED: ATOM     14  C   UNL     1     -47.790 -16.153  13.522 -0.04 +0.00    +0.251 C  
DOCKED: BRANCH  14  15
DOCKED: ATOM     15  N   UNL     1     -48.761 -15.463  14.364 -0.02 +0.00    +0.141 N  
DOCKED: ATOM     16  C   UNL     1     -50.084 -16.074  14.232 -0.03 +0.00    +0.285 C  
DOCKED: ATOM     17  C   UNL     1     -48.332 -15.478  15.763 -0.00 +0.00    +0.285 C  
DOCKED: ENDBRANCH  14  15
DOCKED: ENDBRANCH  13  14
DOCKED: ENDBRANCH  12  13
DOCKED: ENDBRANCH   2  12
DOCKED: BRANCH   2  18
DOCKED: ATOM     18  C   UNL     1     -48.016 -19.344  15.572 -0.05 +0.00    +0.006 A  
DOCKED: ATOM     19  C   UNL     1     -46.841 -18.629  15.801 -0.03 +0.00    +0.001 A  
DOCKED: ATOM     20  C   UNL     1     -46.341 -18.509  17.098 -0.01 +0.00    +0.029 A  
DOCKED: ATOM     21  C   UNL     1     -47.017 -19.103  18.164 -0.00 +0.00    +0.140 A  
DOCKED: ATOM     22  C   UNL     1     -48.192 -19.817  17.934 -0.01 +0.00    +0.029 A  
DOCKED: ATOM     23  F   UNL     1     -46.537 -18.986  19.409 +0.00 -0.00    -0.204 F  
DOCKED: ATOM     24  C   UNL     1     -48.693 -19.939  16.637 -0.03 +0.00    +0.001 A  
DOCKED: ENDBRANCH   2  18
DOCKED: TORSDOF 5
DOCKED: TER
DOCKED: ENDMDL
________________________________________________________________________________


    FINAL DOCKED STATE:
    ________________________


Run:   93 / 512
Time taken for this run:   0.002s

DOCKED: MODEL        93
DOCKED: USER    Run = 93
DOCKED: USER
DOCKED: USER    Estimated Free Energy of Binding    =  -5.60 kcal/mol  [=(1)+(2)+(3)-(4)]
DOCKED: USER
DOCKED: USER    (1) Final Intermolecular Energy     =  -7.09 kcal/mol
DOCKED: USER        vdW + Hbond + desolv Energy     =  -7.09 kcal/mol
DOCKED: USER        Electrostatic Energy            =  +0.00 kcal/mol
DOCKED: USER        Moving Ligand-Fixed Receptor    =  -7.09 kcal/mol
DOCKED: USER        Moving Ligand-Moving Receptor   =  +0.00 kcal/mol
DOCKED: USER    (2) Final Total Internal Energy     =  -1.37 kcal/mol
DOCKED: USER    (3) Torsional Free Energy           =  +1.49 kcal/mol
DOCKED: USER    (4) Unbound System's Energy         =  -1.37 kcal/mol
DOCKED: USER
DOCKED: USER
DOCKED: REMARK  5 active torsions:
DOCKED: REMARK  status: ('A' for Active; 'I' for Inactive)
DOCKED: REMARK    1  A    between atoms: C_2  and  C_19 
DOCKED: REMARK    2  A    between atoms: C_2  and  C_11 
DOCKED: REMARK    3  A    between atoms: C_19  and  C_20 
DOCKED: REMARK    4  A    between atoms: C_20  and  C_21 
DOCKED: REMARK    5  A    between atoms: C_21  and  N_22 
DOCKED: USER                              x       y       z     vdW  Elec       q    Type
DOCKED: USER                           _______ _______ _______ _____ _____    ______ ____
DOCKED: ROOT
DOCKED: ATOM      1  O   UNL     1     -48.201 -21.551  14.250 -0.08 -0.00    -0.346 OA 
DOCKED: ATOM      2  C   UNL     1     -48.606 -22.933  14.507 -0.20 +0.00    +0.130 C  
DOCKED: ATOM      3  C   UNL     1     -49.113 -23.412  13.178 -0.34 +0.00    +0.004 A  
DOCKED: ATOM      4  C   UNL     1     -48.913 -22.429  12.220 -0.34 +0.00    +0.006 A  
DOCKED: ATOM      5  C   UNL     1     -48.258 -21.253  12.835 -0.20 +0.00    +0.169 C  
DOCKED: ATOM      6  C   UNL     1     -49.695 -24.626  12.841 -0.31 -0.00    -0.001 A  
DOCKED: ATOM      7  C   UNL     1     -49.288 -22.621  10.901 +0.01 +0.00    +0.008 A  
DOCKED: ATOM      8  C   UNL     1     -50.082 -24.833  11.516 -0.47 +0.00    +0.010 A  
DOCKED: ATOM      9  C   UNL     1     -49.880 -23.836  10.551 -0.44 +0.00    +0.068 A  
DOCKED: ATOM     10  N   UNL     1     -50.606 -24.254   8.100 -3.14 -0.00    -0.191 NA 
DOCKED: ATOM     11  C   UNL     1     -50.281 -24.066   9.199 -0.27 +0.00    +0.101 C  
DOCKED: ENDROOT
DOCKED: BRANCH   2  12
DOCKED: ATOM     12  C   UNL     1     -47.389 -23.710  14.994 -0.27 +0.00    +0.038 C  
DOCKED: BRANCH  12  13
DOCKED: ATOM     13  C   UNL     1     -46.994 -23.298  16.410 -0.13 +0.00    +0.038 C  
DOCKED: BRANCH  13  14
DOCKED: ATOM     14  C   UNL     1     -46.129 -22.039  16.395 -0.08 +0.00    +0.251 C  
DOCKED: BRANCH  14  15
DOCKED: ATOM     15  N   UNL     1     -45.391 -21.947  15.141 -0.14 +0.00    +0.141 N  
DOCKED: ATOM     16  C   UNL     1     -45.203 -20.547  14.755 -0.08 +0.00    +0.285 C  
DOCKED: ATOM     17  C   UNL     1     -44.096 -22.620  15.254 -0.11 +0.00    +0.285 C  
DOCKED: ENDBRANCH  14  15
DOCKED: ENDBRANCH  13  14
DOCKED: ENDBRANCH  12  13
DOCKED: ENDBRANCH   2  12
DOCKED: BRANCH   2  18
DOCKED: ATOM     18  C   UNL     1     -49.670 -22.888  15.553 -0.12 +0.00    +0.006 A  
DOCKED: ATOM     19  C   UNL     1     -50.122 -24.071  16.138 -0.17 +0.00    +0.001 A  
DOCKED: ATOM     20  C   UNL     1     -51.116 -24.027  17.116 -0.12 +0.00    +0.029 A  
DOCKED: ATOM     21  C   UNL     1     -51.657 -22.803  17.508 -0.02 +0.00    +0.140 A  
DOCKED: ATOM     22  C   UNL     1     -51.204 -21.621  16.922 -0.03 +0.00    +0.029 A  
DOCKED: ATOM     23  F   UNL     1     -52.610 -22.762  18.447 +0.01 -0.00    -0.204 F  
DOCKED: ATOM     24  C   UNL     1     -50.209 -21.663  15.944 -0.06 +0.00    +0.001 A  
DOCKED: ENDBRANCH   2  18
DOCKED: TORSDOF 5
DOCKED: TER
DOCKED: ENDMDL
________________________________________________________________________________


    FINAL DOCKED STATE:
    ________________________


Run:   94 / 512
Time taken for this run:   0.002s

DOCKED: MODEL        94
DOCKED: USER    Run = 94
DOCKED: USER
DOCKED: USER    Estimated Free Energy of Binding    =  -3.42 kcal/mol  [=(1)+(2)+(3)-(4)]
DOCKED: USER
DOCKED: USER    (1) Final Intermolecular Energy     =  -4.91 kcal/mol
DOCKED: USER        vdW + Hbond + desolv Energy     =  -4.91 kcal/mol
DOCKED: USER        Electrostatic Energy            =  +0.00 kcal/mol
DOCKED: USER        Moving Ligand-Fixed Receptor    =  -4.91 kcal/mol
DOCKED: USER        Moving Ligand-Moving Receptor   =  +0.00 kcal/mol
DOCKED: USER    (2) Final Total Internal Energy     =  -1.35 kcal/mol
DOCKED: USER    (3) Torsional Free Energy           =  +1.49 kcal/mol
DOCKED: USER    (4) Unbound System's Energy         =  -1.35 kcal/mol
DOCKED: USER
DOCKED: USER
DOCKED: REMARK  5 active torsions:
DOCKED: REMARK  status: ('A' for Active; 'I' for Inactive)
DOCKED: REMARK    1  A    between atoms: C_2  and  C_19 
DOCKED: REMARK    2  A    between atoms: C_2  and  C_11 
DOCKED: REMARK    3  A    between atoms: C_19  and  C_20 
DOCKED: REMARK    4  A    between atoms: C_20  and  C_21 
DOCKED: REMARK    5  A    between atoms: C_21  and  N_22 
DOCKED: USER                              x       y       z     vdW  Elec       q    Type
DOCKED: USER                           _______ _______ _______ _____ _____    ______ ____
DOCKED: ROOT
DOCKED: ATOM      1  O   UNL     1     -41.499 -10.842   4.772 -0.01 -0.00    -0.346 OA 
DOCKED: ATOM      2  C   UNL     1     -41.335 -10.891   3.319 -0.07 +0.00    +0.130 C  
DOCKED: ATOM      3  C   UNL     1     -42.692 -11.291   2.818 -0.15 +0.00    +0.004 A  
DOCKED: ATOM      4  C   UNL     1     -43.582 -11.357   3.881 -0.21 +0.00    +0.006 A  
DOCKED: ATOM      5  C   UNL     1     -42.889 -10.998   5.138 -0.17 +0.00    +0.169 C  
DOCKED: ATOM      6  C   UNL     1     -43.109 -11.564   1.523 -0.19 -0.00    -0.001 A  
DOCKED: ATOM      7  C   UNL     1     -44.909 -11.700   3.689 -0.32 +0.00    +0.008 A  
DOCKED: ATOM      8  C   UNL     1     -44.444 -11.916   1.314 -0.29 +0.00    +0.010 A  
DOCKED: ATOM      9  C   UNL     1     -45.339 -11.983   2.392 -0.35 +0.00    +0.068 A  
DOCKED: ATOM     10  N   UNL     1     -47.811 -12.633   1.968 -2.52 -0.00    -0.191 NA 
DOCKED: ATOM     11  C   UNL     1     -46.702 -12.342   2.158 -0.41 +0.00    +0.101 C  
DOCKED: ENDROOT
DOCKED: BRANCH   2  12
DOCKED: ATOM     12  C   UNL     1     -40.907  -9.511   2.834 -0.11 +0.00    +0.038 C  
DOCKED: BRANCH  12  13
DOCKED: ATOM     13  C   UNL     1     -39.476  -9.189   3.262 -0.04 +0.00    +0.038 C  
DOCKED: BRANCH  13  14
DOCKED: ATOM     14  C   UNL     1     -39.460  -8.186   4.414 -0.00 +0.00    +0.251 C  
DOCKED: BRANCH  14  15
DOCKED: ATOM     15  N   UNL     1     -38.619  -8.674   5.500 -0.00 +0.00    +0.141 N  
DOCKED: ATOM     16  C   UNL     1     -39.416  -9.421   6.474 -0.01 +0.00    +0.285 C  
DOCKED: ATOM     17  C   UNL     1     -37.538  -9.513   4.979 +0.00 +0.00    +0.285 C  
DOCKED: ENDBRANCH  14  15
DOCKED: ENDBRANCH  13  14
DOCKED: ENDBRANCH  12  13
DOCKED: ENDBRANCH   2  12
DOCKED: BRANCH   2  18
DOCKED: ATOM     18  C   UNL     1     -40.285 -11.912   3.032 -0.02 +0.00    +0.006 A  
DOCKED: ATOM     19  C   UNL     1     -39.426 -12.331   4.047 -0.01 +0.00    +0.001 A  
DOCKED: ATOM     20  C   UNL     1     -38.444 -13.286   3.778 -0.00 +0.00    +0.029 A  
DOCKED: ATOM     21  C   UNL     1     -38.323 -13.819   2.496 -0.00 +0.00    +0.140 A  
DOCKED: ATOM     22  C   UNL     1     -39.183 -13.400   1.481 -0.00 +0.00    +0.029 A  
DOCKED: ATOM     23  F   UNL     1     -37.382 -14.737   2.238 +0.00 -0.00    -0.204 F  
DOCKED: ATOM     24  C   UNL     1     -40.165 -12.445   1.750 -0.02 +0.00    +0.001 A  
DOCKED: ENDBRANCH   2  18
DOCKED: TORSDOF 5
DOCKED: TER
DOCKED: ENDMDL
________________________________________________________________________________


    FINAL DOCKED STATE:
    ________________________


Run:   95 / 512
Time taken for this run:   0.002s

DOCKED: MODEL        95
DOCKED: USER    Run = 95
DOCKED: USER
DOCKED: USER    Estimated Free Energy of Binding    =  -3.82 kcal/mol  [=(1)+(2)+(3)-(4)]
DOCKED: USER
DOCKED: USER    (1) Final Intermolecular Energy     =  -5.31 kcal/mol
DOCKED: USER        vdW + Hbond + desolv Energy     =  -5.31 kcal/mol
DOCKED: USER        Electrostatic Energy            =  +0.00 kcal/mol
DOCKED: USER        Moving Ligand-Fixed Receptor    =  -5.31 kcal/mol
DOCKED: USER        Moving Ligand-Moving Receptor   =  +0.00 kcal/mol
DOCKED: USER    (2) Final Total Internal Energy     =  -1.32 kcal/mol
DOCKED: USER    (3) Torsional Free Energy           =  +1.49 kcal/mol
DOCKED: USER    (4) Unbound System's Energy         =  -1.32 kcal/mol
DOCKED: USER
DOCKED: USER
DOCKED: REMARK  5 active torsions:
DOCKED: REMARK  status: ('A' for Active; 'I' for Inactive)
DOCKED: REMARK    1  A    between atoms: C_2  and  C_19 
DOCKED: REMARK    2  A    between atoms: C_2  and  C_11 
DOCKED: REMARK    3  A    between atoms: C_19  and  C_20 
DOCKED: REMARK    4  A    between atoms: C_20  and  C_21 
DOCKED: REMARK    5  A    between atoms: C_21  and  N_22 
DOCKED: USER                              x       y       z     vdW  Elec       q    Type
DOCKED: USER                           _______ _______ _______ _____ _____    ______ ____
DOCKED: ROOT
DOCKED: ATOM      1  O   UNL     1     -47.965 -21.089  16.925 -0.00 -0.00    -0.346 OA 
DOCKED: ATOM      2  C   UNL     1     -46.848 -21.732  16.231 -0.09 +0.00    +0.130 C  
DOCKED: ATOM      3  C   UNL     1     -47.516 -22.624  15.224 -0.19 +0.00    +0.004 A  
DOCKED: ATOM      4  C   UNL     1     -48.889 -22.426  15.264 -0.13 +0.00    +0.006 A  
DOCKED: ATOM      5  C   UNL     1     -49.219 -21.396  16.274 -0.04 +0.00    +0.169 C  
DOCKED: ATOM      6  C   UNL     1     -46.953 -23.530  14.337 -0.26 -0.00    -0.001 A  
DOCKED: ATOM      7  C   UNL     1     -49.742 -23.125  14.426 -0.18 +0.00    +0.008 A  
DOCKED: ATOM      8  C   UNL     1     -47.800 -24.245  13.489 -0.38 +0.00    +0.010 A  
DOCKED: ATOM      9  C   UNL     1     -49.187 -24.043  13.534 -0.27 +0.00    +0.068 A  
DOCKED: ATOM     10  N   UNL     1     -50.731 -25.384  11.943 -2.23 -0.00    -0.191 NA 
DOCKED: ATOM     11  C   UNL     1     -50.039 -24.783  12.657 -0.23 +0.00    +0.101 C  
DOCKED: ENDROOT
DOCKED: BRANCH   2  12
DOCKED: ATOM     12  C   UNL     1     -45.992 -20.648  15.587 -0.10 +0.00    +0.038 C  
DOCKED: BRANCH  12  13
DOCKED: ATOM     13  C   UNL     1     -46.471 -20.326  14.173 -0.16 +0.00    +0.038 C  
DOCKED: BRANCH  13  14
DOCKED: ATOM     14  C   UNL     1     -46.791 -18.840  14.026 -0.09 +0.00    +0.251 C  
DOCKED: BRANCH  14  15
DOCKED: ATOM     15  N   UNL     1     -48.234 -18.631  14.010 -0.10 +0.00    +0.141 N  
DOCKED: ATOM     16  C   UNL     1     -48.559 -17.313  13.462 -0.09 +0.00    +0.285 C  
DOCKED: ATOM     17  C   UNL     1     -48.898 -19.681  13.236 -0.12 +0.00    +0.285 C  
DOCKED: ENDBRANCH  14  15
DOCKED: ENDBRANCH  13  14
DOCKED: ENDBRANCH  12  13
DOCKED: ENDBRANCH   2  12
DOCKED: BRANCH   2  18
DOCKED: ATOM     18  C   UNL     1     -46.075 -22.491  17.257 -0.10 +0.00    +0.006 A  
DOCKED: ATOM     19  C   UNL     1     -44.743 -22.164  17.508 -0.08 +0.00    +0.001 A  
DOCKED: ATOM     20  C   UNL     1     -44.020 -22.874  18.468 -0.07 +0.00    +0.029 A  
DOCKED: ATOM     21  C   UNL     1     -44.631 -23.908  19.175 -0.09 +0.00    +0.140 A  
DOCKED: ATOM     22  C   UNL     1     -45.963 -24.235  18.924 -0.14 +0.00    +0.029 A  
DOCKED: ATOM     23  F   UNL     1     -43.938 -24.589  20.098 -0.03 -0.00    -0.204 F  
DOCKED: ATOM     24  C   UNL     1     -46.686 -23.525  17.964 -0.13 +0.00    +0.001 A  
DOCKED: ENDBRANCH   2  18
DOCKED: TORSDOF 5
DOCKED: TER
DOCKED: ENDMDL
________________________________________________________________________________


    FINAL DOCKED STATE:
    ________________________


Run:   96 / 512
Time taken for this run:   0.002s

DOCKED: MODEL        96
DOCKED: USER    Run = 96
DOCKED: USER
DOCKED: USER    Estimated Free Energy of Binding    =  -4.60 kcal/mol  [=(1)+(2)+(3)-(4)]
DOCKED: USER
DOCKED: USER    (1) Final Intermolecular Energy     =  -6.09 kcal/mol
DOCKED: USER        vdW + Hbond + desolv Energy     =  -6.09 kcal/mol
DOCKED: USER        Electrostatic Energy            =  +0.00 kcal/mol
DOCKED: USER        Moving Ligand-Fixed Receptor    =  -6.09 kcal/mol
DOCKED: USER        Moving Ligand-Moving Receptor   =  +0.00 kcal/mol
DOCKED: USER    (2) Final Total Internal Energy     =  -1.26 kcal/mol
DOCKED: USER    (3) Torsional Free Energy           =  +1.49 kcal/mol
DOCKED: USER    (4) Unbound System's Energy         =  -1.26 kcal/mol
DOCKED: USER
DOCKED: USER
DOCKED: REMARK  5 active torsions:
DOCKED: REMARK  status: ('A' for Active; 'I' for Inactive)
DOCKED: REMARK    1  A    between atoms: C_2  and  C_19 
DOCKED: REMARK    2  A    between atoms: C_2  and  C_11 
DOCKED: REMARK    3  A    between atoms: C_19  and  C_20 
DOCKED: REMARK    4  A    between atoms: C_20  and  C_21 
DOCKED: REMARK    5  A    between atoms: C_21  and  N_22 
DOCKED: USER                              x       y       z     vdW  Elec       q    Type
DOCKED: USER                           _______ _______ _______ _____ _____    ______ ____
DOCKED: ROOT
DOCKED: ATOM      1  O   UNL     1     -48.010 -19.078  13.555 -0.08 -0.00    -0.346 OA 
DOCKED: ATOM      2  C   UNL     1     -49.260 -19.326  14.274 -0.14 +0.00    +0.130 C  
DOCKED: ATOM      3  C   UNL     1     -49.619 -20.734  13.894 -0.21 +0.00    +0.004 A  
DOCKED: ATOM      4  C   UNL     1     -48.608 -21.280  13.117 -0.28 +0.00    +0.006 A  
DOCKED: ATOM      5  C   UNL     1     -47.520 -20.293  12.942 -0.11 +0.00    +0.169 C  
DOCKED: ATOM      6  C   UNL     1     -50.746 -21.475  14.220 -0.18 -0.00    -0.001 A  
DOCKED: ATOM      7  C   UNL     1     -48.688 -22.577  12.638 -0.33 +0.00    +0.008 A  
DOCKED: ATOM      8  C   UNL     1     -50.843 -22.782  13.741 -0.21 +0.00    +0.010 A  
DOCKED: ATOM      9  C   UNL     1     -49.819 -23.330  12.955 -0.27 +0.00    +0.068 A  
DOCKED: ATOM     10  N   UNL     1     -50.030 -25.762  12.086 -2.61 -0.00    -0.191 NA 
DOCKED: ATOM     11  C   UNL     1     -49.935 -24.671  12.475 -0.36 +0.00    +0.101 C  
DOCKED: ENDROOT
DOCKED: BRANCH   2  12
DOCKED: ATOM     12  C   UNL     1     -49.001 -19.162  15.766 -0.05 +0.00    +0.038 C  
DOCKED: BRANCH  12  13
DOCKED: ATOM     13  C   UNL     1     -47.532 -19.407  16.106 -0.04 +0.00    +0.038 C  
DOCKED: BRANCH  13  14
DOCKED: ATOM     14  C   UNL     1     -47.349 -20.744  16.822 -0.02 +0.00    +0.251 C  
DOCKED: BRANCH  14  15
DOCKED: ATOM     15  N   UNL     1     -46.220 -21.472  16.257 -0.06 +0.00    +0.141 N  
DOCKED: ATOM     16  C   UNL     1     -45.314 -21.922  17.315 -0.04 +0.00    +0.285 C  
DOCKED: ATOM     17  C   UNL     1     -46.685 -22.615  15.469 -0.12 +0.00    +0.285 C  
DOCKED: ENDBRANCH  14  15
DOCKED: ENDBRANCH  13  14
DOCKED: ENDBRANCH  12  13
DOCKED: ENDBRANCH   2  12
DOCKED: BRANCH   2  18
DOCKED: ATOM     18  C   UNL     1     -50.250 -18.322  13.786 -0.19 +0.00    +0.006 A  
DOCKED: ATOM     19  C   UNL     1     -51.564 -18.356  14.251 -0.17 +0.00    +0.001 A  
DOCKED: ATOM     20  C   UNL     1     -52.489 -17.416  13.794 -0.16 +0.00    +0.029 A  
DOCKED: ATOM     21  C   UNL     1     -52.099 -16.445  12.873 -0.12 +0.00    +0.140 A  
DOCKED: ATOM     22  C   UNL     1     -50.785 -16.411  12.408 -0.15 +0.00    +0.029 A  
DOCKED: ATOM     23  F   UNL     1     -52.987 -15.542  12.436 -0.02 -0.00    -0.204 F  
DOCKED: ATOM     24  C   UNL     1     -49.859 -17.351  12.865 -0.18 +0.00    +0.001 A  
DOCKED: ENDBRANCH   2  18
DOCKED: TORSDOF 5
DOCKED: TER
DOCKED: ENDMDL
________________________________________________________________________________


    FINAL DOCKED STATE:
    ________________________


Run:   97 / 512
Time taken for this run:   0.002s

DOCKED: MODEL        97
DOCKED: USER    Run = 97
DOCKED: USER
DOCKED: USER    Estimated Free Energy of Binding    =  -4.72 kcal/mol  [=(1)+(2)+(3)-(4)]
DOCKED: USER
DOCKED: USER    (1) Final Intermolecular Energy     =  -6.21 kcal/mol
DOCKED: USER        vdW + Hbond + desolv Energy     =  -6.21 kcal/mol
DOCKED: USER        Electrostatic Energy            =  +0.00 kcal/mol
DOCKED: USER        Moving Ligand-Fixed Receptor    =  -6.21 kcal/mol
DOCKED: USER        Moving Ligand-Moving Receptor   =  +0.00 kcal/mol
DOCKED: USER    (2) Final Total Internal Energy     =  -0.98 kcal/mol
DOCKED: USER    (3) Torsional Free Energy           =  +1.49 kcal/mol
DOCKED: USER    (4) Unbound System's Energy         =  -0.98 kcal/mol
DOCKED: USER
DOCKED: USER
DOCKED: REMARK  5 active torsions:
DOCKED: REMARK  status: ('A' for Active; 'I' for Inactive)
DOCKED: REMARK    1  A    between atoms: C_2  and  C_19 
DOCKED: REMARK    2  A    between atoms: C_2  and  C_11 
DOCKED: REMARK    3  A    between atoms: C_19  and  C_20 
DOCKED: REMARK    4  A    between atoms: C_20  and  C_21 
DOCKED: REMARK    5  A    between atoms: C_21  and  N_22 
DOCKED: USER                              x       y       z     vdW  Elec       q    Type
DOCKED: USER                           _______ _______ _______ _____ _____    ______ ____
DOCKED: ROOT
DOCKED: ATOM      1  O   UNL     1     -50.623 -21.756  15.494 -0.00 -0.00    -0.346 OA 
DOCKED: ATOM      2  C   UNL     1     -49.337 -22.443  15.366 -0.10 +0.00    +0.130 C  
DOCKED: ATOM      3  C   UNL     1     -49.386 -23.046  13.992 -0.23 +0.00    +0.004 A  
DOCKED: ATOM      4  C   UNL     1     -50.549 -22.648  13.349 -0.24 +0.00    +0.006 A  
DOCKED: ATOM      5  C   UNL     1     -51.333 -21.757  14.233 -0.14 +0.00    +0.169 C  
DOCKED: ATOM      6  C   UNL     1     -48.470 -23.872  13.358 -0.37 -0.00    -0.001 A  
DOCKED: ATOM      7  C   UNL     1     -50.838 -23.062  12.060 -0.20 +0.00    +0.008 A  
DOCKED: ATOM      8  C   UNL     1     -48.748 -24.302  12.060 -0.40 +0.00    +0.010 A  
DOCKED: ATOM      9  C   UNL     1     -49.926 -23.899  11.414 -0.40 +0.00    +0.068 A  
DOCKED: ATOM     10  N   UNL     1     -50.410 -24.710   9.001 -2.02 -0.00    -0.191 NA 
DOCKED: ATOM     11  C   UNL     1     -50.193 -24.347  10.084 -0.47 +0.00    +0.101 C  
DOCKED: ENDROOT
DOCKED: BRANCH   2  12
DOCKED: ATOM     12  C   UNL     1     -48.223 -21.414  15.523 -0.11 +0.00    +0.038 C  
DOCKED: BRANCH  12  13
DOCKED: ATOM     13  C   UNL     1     -47.177 -21.553  14.418 -0.21 +0.00    +0.038 C  
DOCKED: BRANCH  13  14
DOCKED: ATOM     14  C   UNL     1     -45.767 -21.352  14.969 -0.10 +0.00    +0.251 C  
DOCKED: BRANCH  14  15
DOCKED: ATOM     15  N   UNL     1     -45.291 -22.576  15.603 -0.15 +0.00    +0.141 N  
DOCKED: ATOM     16  C   UNL     1     -43.967 -22.940  15.094 -0.11 +0.00    +0.285 C  
DOCKED: ATOM     17  C   UNL     1     -45.250 -22.421  17.058 -0.06 +0.00    +0.285 C  
DOCKED: ENDBRANCH  14  15
DOCKED: ENDBRANCH  13  14
DOCKED: ENDBRANCH  12  13
DOCKED: ENDBRANCH   2  12
DOCKED: BRANCH   2  18
DOCKED: ATOM     18  C   UNL     1     -49.280 -23.467  16.450 -0.13 +0.00    +0.006 A  
DOCKED: ATOM     19  C   UNL     1     -50.334 -23.584  17.354 -0.11 +0.00    +0.001 A  
DOCKED: ATOM     20  C   UNL     1     -50.279 -24.542  18.367 -0.14 +0.00    +0.029 A  
DOCKED: ATOM     21  C   UNL     1     -49.171 -25.382  18.474 -0.05 +0.00    +0.140 A  
DOCKED: ATOM     22  C   UNL     1     -48.117 -25.264  17.568 -0.21 +0.00    +0.029 A  
DOCKED: ATOM     23  F   UNL     1     -49.120 -26.302  19.445 -0.05 -0.00    -0.204 F  
DOCKED: ATOM     24  C   UNL     1     -48.171 -24.306  16.555 -0.21 +0.00    +0.001 A  
DOCKED: ENDBRANCH   2  18
DOCKED: TORSDOF 5
DOCKED: TER
DOCKED: ENDMDL
________________________________________________________________________________


    FINAL DOCKED STATE:
    ________________________


Run:   98 / 512
Time taken for this run:   0.002s

DOCKED: MODEL        98
DOCKED: USER    Run = 98
DOCKED: USER
DOCKED: USER    Estimated Free Energy of Binding    =  -4.03 kcal/mol  [=(1)+(2)+(3)-(4)]
DOCKED: USER
DOCKED: USER    (1) Final Intermolecular Energy     =  -5.52 kcal/mol
DOCKED: USER        vdW + Hbond + desolv Energy     =  -5.52 kcal/mol
DOCKED: USER        Electrostatic Energy            =  +0.00 kcal/mol
DOCKED: USER        Moving Ligand-Fixed Receptor    =  -5.52 kcal/mol
DOCKED: USER        Moving Ligand-Moving Receptor   =  +0.00 kcal/mol
DOCKED: USER    (2) Final Total Internal Energy     =  -1.08 kcal/mol
DOCKED: USER    (3) Torsional Free Energy           =  +1.49 kcal/mol
DOCKED: USER    (4) Unbound System's Energy         =  -1.08 kcal/mol
DOCKED: USER
DOCKED: USER
DOCKED: REMARK  5 active torsions:
DOCKED: REMARK  status: ('A' for Active; 'I' for Inactive)
DOCKED: REMARK    1  A    between atoms: C_2  and  C_19 
DOCKED: REMARK    2  A    between atoms: C_2  and  C_11 
DOCKED: REMARK    3  A    between atoms: C_19  and  C_20 
DOCKED: REMARK    4  A    between atoms: C_20  and  C_21 
DOCKED: REMARK    5  A    between atoms: C_21  and  N_22 
DOCKED: USER                              x       y       z     vdW  Elec       q    Type
DOCKED: USER                           _______ _______ _______ _____ _____    ______ ____
DOCKED: ROOT
DOCKED: ATOM      1  O   UNL     1     -42.400 -15.815   4.841 +0.01 -0.00    -0.346 OA 
DOCKED: ATOM      2  C   UNL     1     -43.651 -15.999   5.577 -0.09 +0.00    +0.130 C  
DOCKED: ATOM      3  C   UNL     1     -44.632 -15.134   4.841 -0.21 +0.00    +0.004 A  
DOCKED: ATOM      4  C   UNL     1     -44.025 -14.590   3.718 -0.17 +0.00    +0.006 A  
DOCKED: ATOM      5  C   UNL     1     -42.624 -15.061   3.627 -0.05 +0.00    +0.169 C  
DOCKED: ATOM      6  C   UNL     1     -45.959 -14.859   5.135 -0.25 -0.00    -0.001 A  
DOCKED: ATOM      7  C   UNL     1     -44.716 -13.755   2.858 -0.23 +0.00    +0.008 A  
DOCKED: ATOM      8  C   UNL     1     -46.669 -14.014   4.280 -0.18 +0.00    +0.010 A  
DOCKED: ATOM      9  C   UNL     1     -46.051 -13.466   3.146 -0.11 +0.00    +0.068 A  
DOCKED: ATOM     10  N   UNL     1     -47.399 -11.907   1.576 -2.36 -0.00    -0.191 NA 
DOCKED: ATOM     11  C   UNL     1     -46.794 -12.606   2.281 -0.40 +0.00    +0.101 C  
DOCKED: ENDROOT
DOCKED: BRANCH   2  12
DOCKED: ATOM     12  C   UNL     1     -44.019 -17.478   5.541 -0.17 +0.00    +0.038 C  
DOCKED: BRANCH  12  13
DOCKED: ATOM     13  C   UNL     1     -43.085 -18.262   4.623 -0.15 +0.00    +0.038 C  
DOCKED: BRANCH  13  14
DOCKED: ATOM     14  C   UNL     1     -43.762 -18.578   3.290 -0.20 +0.00    +0.251 C  
DOCKED: BRANCH  14  15
DOCKED: ATOM     15  N   UNL     1     -43.333 -19.883   2.800 -0.25 +0.00    +0.141 N  
DOCKED: ATOM     16  C   UNL     1     -43.965 -20.185   1.515 -0.22 +0.00    +0.285 C  
DOCKED: ATOM     17  C   UNL     1     -41.875 -19.932   2.673 -0.08 +0.00    +0.285 C  
DOCKED: ENDBRANCH  14  15
DOCKED: ENDBRANCH  13  14
DOCKED: ENDBRANCH  12  13
DOCKED: ENDBRANCH   2  12
DOCKED: BRANCH   2  18
DOCKED: ATOM     18  C   UNL     1     -43.405 -15.540   6.976 -0.08 +0.00    +0.006 A  
DOCKED: ATOM     19  C   UNL     1     -43.287 -14.178   7.251 -0.14 +0.00    +0.001 A  
DOCKED: ATOM     20  C   UNL     1     -43.057 -13.750   8.559 +0.00 +0.00    +0.029 A  
DOCKED: ATOM     21  C   UNL     1     -42.946 -14.682   9.589 -0.08 +0.00    +0.140 A  
DOCKED: ATOM     22  C   UNL     1     -43.064 -16.044   9.313 -0.04 +0.00    +0.029 A  
DOCKED: ATOM     23  F   UNL     1     -42.727 -14.271  10.844 -0.03 -0.00    -0.204 F  
DOCKED: ATOM     24  C   UNL     1     -43.294 -16.474   8.005 -0.05 +0.00    +0.001 A  
DOCKED: ENDBRANCH   2  18
DOCKED: TORSDOF 5
DOCKED: TER
DOCKED: ENDMDL
________________________________________________________________________________


    FINAL DOCKED STATE:
    ________________________


Run:   99 / 512
Time taken for this run:   0.002s

DOCKED: MODEL        99
DOCKED: USER    Run = 99
DOCKED: USER
DOCKED: USER    Estimated Free Energy of Binding    =  -5.57 kcal/mol  [=(1)+(2)+(3)-(4)]
DOCKED: USER
DOCKED: USER    (1) Final Intermolecular Energy     =  -7.06 kcal/mol
DOCKED: USER        vdW + Hbond + desolv Energy     =  -7.06 kcal/mol
DOCKED: USER        Electrostatic Energy            =  +0.00 kcal/mol
DOCKED: USER        Moving Ligand-Fixed Receptor    =  -7.06 kcal/mol
DOCKED: USER        Moving Ligand-Moving Receptor   =  +0.00 kcal/mol
DOCKED: USER    (2) Final Total Internal Energy     =  -0.83 kcal/mol
DOCKED: USER    (3) Torsional Free Energy           =  +1.49 kcal/mol
DOCKED: USER    (4) Unbound System's Energy         =  -0.83 kcal/mol
DOCKED: USER
DOCKED: USER
DOCKED: REMARK  5 active torsions:
DOCKED: REMARK  status: ('A' for Active; 'I' for Inactive)
DOCKED: REMARK    1  A    between atoms: C_2  and  C_19 
DOCKED: REMARK    2  A    between atoms: C_2  and  C_11 
DOCKED: REMARK    3  A    between atoms: C_19  and  C_20 
DOCKED: REMARK    4  A    between atoms: C_20  and  C_21 
DOCKED: REMARK    5  A    between atoms: C_21  and  N_22 
DOCKED: USER                              x       y       z     vdW  Elec       q    Type
DOCKED: USER                           _______ _______ _______ _____ _____    ______ ____
DOCKED: ROOT
DOCKED: ATOM      1  O   UNL     1     -47.902 -21.321  14.524 -0.06 -0.00    -0.346 OA 
DOCKED: ATOM      2  C   UNL     1     -47.695 -22.767  14.621 -0.22 +0.00    +0.130 C  
DOCKED: ATOM      3  C   UNL     1     -48.287 -23.301  13.349 -0.33 +0.00    +0.004 A  
DOCKED: ATOM      4  C   UNL     1     -48.698 -22.246  12.546 -0.31 +0.00    +0.006 A  
DOCKED: ATOM      5  C   UNL     1     -48.398 -20.960  13.214 -0.23 +0.00    +0.169 C  
DOCKED: ATOM      6  C   UNL     1     -48.441 -24.615  12.931 -0.42 -0.00    -0.001 A  
DOCKED: ATOM      7  C   UNL     1     -49.276 -22.466  11.307 -0.06 +0.00    +0.008 A  
DOCKED: ATOM      8  C   UNL     1     -49.026 -24.853  11.686 -0.47 +0.00    +0.010 A  
DOCKED: ATOM      9  C   UNL     1     -49.441 -23.784  10.878 -0.40 +0.00    +0.068 A  
DOCKED: ATOM     10  N   UNL     1     -50.519 -24.261   8.571 -2.73 -0.00    -0.191 NA 
DOCKED: ATOM     11  C   UNL     1     -50.036 -24.047   9.606 -0.47 +0.00    +0.101 C  
DOCKED: ENDROOT
DOCKED: BRANCH   2  12
DOCKED: ATOM     12  C   UNL     1     -46.198 -23.033  14.735 -0.19 +0.00    +0.038 C  
DOCKED: BRANCH  12  13
DOCKED: ATOM     13  C   UNL     1     -45.547 -22.116  15.769 -0.17 +0.00    +0.038 C  
DOCKED: BRANCH  13  14
DOCKED: ATOM     14  C   UNL     1     -46.039 -22.441  17.178 -0.06 +0.00    +0.251 C  
DOCKED: BRANCH  14  15
DOCKED: ATOM     15  N   UNL     1     -44.944 -22.955  17.992 -0.07 +0.00    +0.141 N  
DOCKED: ATOM     16  C   UNL     1     -45.396 -24.078  18.815 -0.08 +0.00    +0.285 C  
DOCKED: ATOM     17  C   UNL     1     -43.822 -23.365  17.146 -0.04 +0.00    +0.285 C  
DOCKED: ENDBRANCH  14  15
DOCKED: ENDBRANCH  13  14
DOCKED: ENDBRANCH  12  13
DOCKED: ENDBRANCH   2  12
DOCKED: BRANCH   2  18
DOCKED: ATOM     18  C   UNL     1     -48.419 -23.231  15.840 -0.16 +0.00    +0.006 A  
DOCKED: ATOM     19  C   UNL     1     -48.500 -24.593  16.125 -0.26 +0.00    +0.001 A  
DOCKED: ATOM     20  C   UNL     1     -49.178 -25.026  17.265 -0.09 +0.00    +0.029 A  
DOCKED: ATOM     21  C   UNL     1     -49.773 -24.097  18.118 -0.09 +0.00    +0.140 A  
DOCKED: ATOM     22  C   UNL     1     -49.691 -22.735  17.832 -0.05 +0.00    +0.029 A  
DOCKED: ATOM     23  F   UNL     1     -50.422 -24.513  19.213 -0.01 -0.00    -0.204 F  
DOCKED: ATOM     24  C   UNL     1     -49.013 -22.301  16.691 -0.07 +0.00    +0.001 A  
DOCKED: ENDBRANCH   2  18
DOCKED: TORSDOF 5
DOCKED: TER
DOCKED: ENDMDL
________________________________________________________________________________


    FINAL DOCKED STATE:
    ________________________


Run:   100 / 512
Time taken for this run:   0.002s

DOCKED: MODEL        100
DOCKED: USER    Run = 100
DOCKED: USER
DOCKED: USER    Estimated Free Energy of Binding    =  -4.80 kcal/mol  [=(1)+(2)+(3)-(4)]
DOCKED: USER
DOCKED: USER    (1) Final Intermolecular Energy     =  -6.29 kcal/mol
DOCKED: USER        vdW + Hbond + desolv Energy     =  -6.29 kcal/mol
DOCKED: USER        Electrostatic Energy            =  +0.00 kcal/mol
DOCKED: USER        Moving Ligand-Fixed Receptor    =  -6.29 kcal/mol
DOCKED: USER        Moving Ligand-Moving Receptor   =  +0.00 kcal/mol
DOCKED: USER    (2) Final Total Internal Energy     =  -1.55 kcal/mol
DOCKED: USER    (3) Torsional Free Energy           =  +1.49 kcal/mol
DOCKED: USER    (4) Unbound System's Energy         =  -1.55 kcal/mol
DOCKED: USER
DOCKED: USER
DOCKED: REMARK  5 active torsions:
DOCKED: REMARK  status: ('A' for Active; 'I' for Inactive)
DOCKED: REMARK    1  A    between atoms: C_2  and  C_19 
DOCKED: REMARK    2  A    between atoms: C_2  and  C_11 
DOCKED: REMARK    3  A    between atoms: C_19  and  C_20 
DOCKED: REMARK    4  A    between atoms: C_20  and  C_21 
DOCKED: REMARK    5  A    between atoms: C_21  and  N_22 
DOCKED: USER                              x       y       z     vdW  Elec       q    Type
DOCKED: USER                           _______ _______ _______ _____ _____    ______ ____
DOCKED: ROOT
DOCKED: ATOM      1  O   UNL     1     -51.664 -22.688  15.045 -0.00 -0.00    -0.346 OA 
DOCKED: ATOM      2  C   UNL     1     -50.307 -22.251  14.717 -0.11 +0.00    +0.130 C  
DOCKED: ATOM      3  C   UNL     1     -50.136 -22.654  13.281 -0.26 +0.00    +0.004 A  
DOCKED: ATOM      4  C   UNL     1     -51.328 -23.175  12.797 -0.28 +0.00    +0.006 A  
DOCKED: ATOM      5  C   UNL     1     -52.358 -23.142  13.860 -0.17 +0.00    +0.169 C  
DOCKED: ATOM      6  C   UNL     1     -49.019 -22.556  12.464 -0.36 -0.00    -0.001 A  
DOCKED: ATOM      7  C   UNL     1     -51.443 -23.618  11.491 -0.28 +0.00    +0.008 A  
DOCKED: ATOM      8  C   UNL     1     -49.118 -23.003  11.145 -0.15 +0.00    +0.010 A  
DOCKED: ATOM      9  C   UNL     1     -50.325 -23.531  10.661 -0.33 +0.00    +0.068 A  
DOCKED: ATOM     10  N   UNL     1     -50.476 -24.347   8.207 -2.94 -0.00    -0.191 NA 
DOCKED: ATOM     11  C   UNL     1     -50.408 -23.981   9.308 -0.27 +0.00    +0.101 C  
DOCKED: ENDROOT
DOCKED: BRANCH   2  12
DOCKED: ATOM     12  C   UNL     1     -50.223 -20.743  14.924 -0.12 +0.00    +0.038 C  
DOCKED: BRANCH  12  13
DOCKED: ATOM     13  C   UNL     1     -51.603 -20.136  15.166 -0.11 +0.00    +0.038 C  
DOCKED: BRANCH  13  14
DOCKED: ATOM     14  C   UNL     1     -51.851 -19.910  16.656 -0.00 +0.00    +0.251 C  
DOCKED: BRANCH  14  15
DOCKED: ATOM     15  N   UNL     1     -51.382 -21.055  17.427 -0.01 +0.00    +0.141 N  
DOCKED: ATOM     16  C   UNL     1     -50.560 -20.616  18.555 -0.00 +0.00    +0.285 C  
DOCKED: ATOM     17  C   UNL     1     -52.513 -21.853  17.904 +0.00 +0.00    +0.285 C  
DOCKED: ENDBRANCH  14  15
DOCKED: ENDBRANCH  13  14
DOCKED: ENDBRANCH  12  13
DOCKED: ENDBRANCH   2  12
DOCKED: BRANCH   2  18
DOCKED: ATOM     18  C   UNL     1     -49.381 -22.973  15.637 -0.12 +0.00    +0.006 A  
DOCKED: ATOM     19  C   UNL     1     -49.536 -24.343  15.847 -0.22 +0.00    +0.001 A  
DOCKED: ATOM     20  C   UNL     1     -48.670 -25.017  16.709 -0.23 +0.00    +0.029 A  
DOCKED: ATOM     21  C   UNL     1     -47.650 -24.322  17.358 -0.09 +0.00    +0.140 A  
DOCKED: ATOM     22  C   UNL     1     -47.496 -22.952  17.147 -0.11 +0.00    +0.029 A  
DOCKED: ATOM     23  F   UNL     1     -46.818 -24.970  18.183 -0.04 -0.00    -0.204 F  
DOCKED: ATOM     24  C   UNL     1     -48.362 -22.276  16.286 -0.09 +0.00    +0.001 A  
DOCKED: ENDBRANCH   2  18
DOCKED: TORSDOF 5
DOCKED: TER
DOCKED: ENDMDL
________________________________________________________________________________


    FINAL DOCKED STATE:
    ________________________


Run:   101 / 512
Time taken for this run:   0.002s

DOCKED: MODEL        101
DOCKED: USER    Run = 101
DOCKED: USER
DOCKED: USER    Estimated Free Energy of Binding    =  -3.56 kcal/mol  [=(1)+(2)+(3)-(4)]
DOCKED: USER
DOCKED: USER    (1) Final Intermolecular Energy     =  -5.06 kcal/mol
DOCKED: USER        vdW + Hbond + desolv Energy     =  -5.06 kcal/mol
DOCKED: USER        Electrostatic Energy            =  +0.00 kcal/mol
DOCKED: USER        Moving Ligand-Fixed Receptor    =  -5.06 kcal/mol
DOCKED: USER        Moving Ligand-Moving Receptor   =  +0.00 kcal/mol
DOCKED: USER    (2) Final Total Internal Energy     =  -1.58 kcal/mol
DOCKED: USER    (3) Torsional Free Energy           =  +1.49 kcal/mol
DOCKED: USER    (4) Unbound System's Energy         =  -1.58 kcal/mol
DOCKED: USER
DOCKED: USER
DOCKED: REMARK  5 active torsions:
DOCKED: REMARK  status: ('A' for Active; 'I' for Inactive)
DOCKED: REMARK    1  A    between atoms: C_2  and  C_19 
DOCKED: REMARK    2  A    between atoms: C_2  and  C_11 
DOCKED: REMARK    3  A    between atoms: C_19  and  C_20 
DOCKED: REMARK    4  A    between atoms: C_20  and  C_21 
DOCKED: REMARK    5  A    between atoms: C_21  and  N_22 
DOCKED: USER                              x       y       z     vdW  Elec       q    Type
DOCKED: USER                           _______ _______ _______ _____ _____    ______ ____
DOCKED: ROOT
DOCKED: ATOM      1  O   UNL     1     -44.060 -15.270   7.277 -0.04 -0.00    -0.346 OA 
DOCKED: ATOM      2  C   UNL     1     -45.356 -15.563   6.664 -0.20 +0.00    +0.130 C  
DOCKED: ATOM      3  C   UNL     1     -45.460 -14.564   5.548 -0.27 +0.00    +0.004 A  
DOCKED: ATOM      4  C   UNL     1     -44.281 -13.838   5.461 -0.15 +0.00    +0.006 A  
DOCKED: ATOM      5  C   UNL     1     -43.324 -14.307   6.488 -0.12 +0.00    +0.169 C  
DOCKED: ATOM      6  C   UNL     1     -46.510 -14.325   4.674 -0.19 -0.00    -0.001 A  
DOCKED: ATOM      7  C   UNL     1     -44.112 -12.851   4.505 -0.19 +0.00    +0.008 A  
DOCKED: ATOM      8  C   UNL     1     -46.356 -13.329   3.707 -0.37 +0.00    +0.010 A  
DOCKED: ATOM      9  C   UNL     1     -45.163 -12.596   3.623 -0.28 +0.00    +0.068 A  
DOCKED: ATOM     10  N   UNL     1     -44.910 -10.759   1.814 -0.85 -0.00    -0.191 NA 
DOCKED: ATOM     11  C   UNL     1     -45.024 -11.583   2.626 -0.31 +0.00    +0.101 C  
DOCKED: ENDROOT
DOCKED: BRANCH   2  12
DOCKED: ATOM     12  C   UNL     1     -45.342 -17.005   6.170 -0.22 +0.00    +0.038 C  
DOCKED: BRANCH  12  13
DOCKED: ATOM     13  C   UNL     1     -44.196 -17.797   6.797 -0.15 +0.00    +0.038 C  
DOCKED: BRANCH  13  14
DOCKED: ATOM     14  C   UNL     1     -44.664 -18.546   8.044 -0.13 +0.00    +0.251 C  
DOCKED: BRANCH  14  15
DOCKED: ATOM     15  N   UNL     1     -44.570 -17.685   9.217 -0.07 +0.00    +0.141 N  
DOCKED: ATOM     16  C   UNL     1     -45.259 -18.290  10.358 -0.08 +0.00    +0.285 C  
DOCKED: ATOM     17  C   UNL     1     -43.169 -17.421   9.552 -0.02 +0.00    +0.285 C  
DOCKED: ENDBRANCH  14  15
DOCKED: ENDBRANCH  13  14
DOCKED: ENDBRANCH  12  13
DOCKED: ENDBRANCH   2  12
DOCKED: BRANCH   2  18
DOCKED: ATOM     18  C   UNL     1     -46.393 -15.366   7.720 -0.26 +0.00    +0.006 A  
DOCKED: ATOM     19  C   UNL     1     -46.170 -14.457   8.753 -0.22 +0.00    +0.001 A  
DOCKED: ATOM     20  C   UNL     1     -47.140 -14.274   9.740 -0.21 +0.00    +0.029 A  
DOCKED: ATOM     21  C   UNL     1     -48.330 -14.999   9.691 -0.17 +0.00    +0.140 A  
DOCKED: ATOM     22  C   UNL     1     -48.552 -15.907   8.656 -0.27 +0.00    +0.029 A  
DOCKED: ATOM     23  F   UNL     1     -49.261 -14.821  10.637 -0.02 -0.00    -0.204 F  
DOCKED: ATOM     24  C   UNL     1     -47.582 -16.092   7.669 -0.26 +0.00    +0.001 A  
DOCKED: ENDBRANCH   2  18
DOCKED: TORSDOF 5
DOCKED: TER
DOCKED: ENDMDL
________________________________________________________________________________


    FINAL DOCKED STATE:
    ________________________


Run:   102 / 512
Time taken for this run:   0.002s

DOCKED: MODEL        102
DOCKED: USER    Run = 102
DOCKED: USER
DOCKED: USER    Estimated Free Energy of Binding    =  -4.38 kcal/mol  [=(1)+(2)+(3)-(4)]
DOCKED: USER
DOCKED: USER    (1) Final Intermolecular Energy     =  -5.87 kcal/mol
DOCKED: USER        vdW + Hbond + desolv Energy     =  -5.87 kcal/mol
DOCKED: USER        Electrostatic Energy            =  +0.00 kcal/mol
DOCKED: USER        Moving Ligand-Fixed Receptor    =  -5.87 kcal/mol
DOCKED: USER        Moving Ligand-Moving Receptor   =  +0.00 kcal/mol
DOCKED: USER    (2) Final Total Internal Energy     =  -1.38 kcal/mol
DOCKED: USER    (3) Torsional Free Energy           =  +1.49 kcal/mol
DOCKED: USER    (4) Unbound System's Energy         =  -1.38 kcal/mol
DOCKED: USER
DOCKED: USER
DOCKED: REMARK  5 active torsions:
DOCKED: REMARK  status: ('A' for Active; 'I' for Inactive)
DOCKED: REMARK    1  A    between atoms: C_2  and  C_19 
DOCKED: REMARK    2  A    between atoms: C_2  and  C_11 
DOCKED: REMARK    3  A    between atoms: C_19  and  C_20 
DOCKED: REMARK    4  A    between atoms: C_20  and  C_21 
DOCKED: REMARK    5  A    between atoms: C_21  and  N_22 
DOCKED: USER                              x       y       z     vdW  Elec       q    Type
DOCKED: USER                           _______ _______ _______ _____ _____    ______ ____
DOCKED: ROOT
DOCKED: ATOM      1  O   UNL     1     -46.794 -15.560   8.404 -0.09 -0.00    -0.346 OA 
DOCKED: ATOM      2  C   UNL     1     -45.472 -15.558   7.776 -0.17 +0.00    +0.130 C  
DOCKED: ATOM      3  C   UNL     1     -45.710 -14.917   6.440 -0.26 +0.00    +0.004 A  
DOCKED: ATOM      4  C   UNL     1     -47.027 -14.490   6.354 -0.26 +0.00    +0.006 A  
DOCKED: ATOM      5  C   UNL     1     -47.739 -14.802   7.613 -0.21 +0.00    +0.169 C  
DOCKED: ATOM      6  C   UNL     1     -44.827 -14.717   5.388 -0.22 -0.00    -0.001 A  
DOCKED: ATOM      7  C   UNL     1     -47.508 -13.857   5.220 -0.07 +0.00    +0.008 A  
DOCKED: ATOM      8  C   UNL     1     -45.297 -14.084   4.236 -0.28 +0.00    +0.010 A  
DOCKED: ATOM      9  C   UNL     1     -46.631 -13.656   4.153 -0.29 +0.00    +0.068 A  
DOCKED: ATOM     10  N   UNL     1     -47.470 -12.479   2.003 -2.13 -0.00    -0.191 NA 
DOCKED: ATOM     11  C   UNL     1     -47.094 -13.008   2.967 -0.35 +0.00    +0.101 C  
DOCKED: ENDROOT
DOCKED: BRANCH   2  12
DOCKED: ATOM     12  C   UNL     1     -44.521 -14.757   8.658 -0.17 +0.00    +0.038 C  
DOCKED: BRANCH  12  13
DOCKED: ATOM     13  C   UNL     1     -45.280 -13.770   9.543 -0.11 +0.00    +0.038 C  
DOCKED: BRANCH  13  14
DOCKED: ATOM     14  C   UNL     1     -45.491 -14.340  10.945 -0.10 +0.00    +0.251 C  
DOCKED: BRANCH  14  15
DOCKED: ATOM     15  N   UNL     1     -46.749 -15.074  11.010 -0.07 +0.00    +0.141 N  
DOCKED: ATOM     16  C   UNL     1     -46.658 -16.170  11.976 -0.05 +0.00    +0.285 C  
DOCKED: ATOM     17  C   UNL     1     -47.851 -14.178  11.363 -0.05 +0.00    +0.285 C  
DOCKED: ENDBRANCH  14  15
DOCKED: ENDBRANCH  13  14
DOCKED: ENDBRANCH  12  13
DOCKED: ENDBRANCH   2  12
DOCKED: BRANCH   2  18
DOCKED: ATOM     18  C   UNL     1     -45.037 -16.981   7.669 -0.14 +0.00    +0.006 A  
DOCKED: ATOM     19  C   UNL     1     -43.680 -17.290   7.586 -0.07 +0.00    +0.001 A  
DOCKED: ATOM     20  C   UNL     1     -43.274 -18.622   7.486 -0.09 +0.00    +0.029 A  
DOCKED: ATOM     21  C   UNL     1     -44.225 -19.641   7.470 -0.19 +0.00    +0.140 A  
DOCKED: ATOM     22  C   UNL     1     -45.582 -19.331   7.553 -0.17 +0.00    +0.029 A  
DOCKED: ATOM     23  F   UNL     1     -43.835 -20.919   7.376 -0.10 -0.00    -0.204 F  
DOCKED: ATOM     24  C   UNL     1     -45.989 -17.999   7.653 -0.23 +0.00    +0.001 A  
DOCKED: ENDBRANCH   2  18
DOCKED: TORSDOF 5
DOCKED: TER
DOCKED: ENDMDL
________________________________________________________________________________


    FINAL DOCKED STATE:
    ________________________


Run:   103 / 512
Time taken for this run:   0.002s

DOCKED: MODEL        103
DOCKED: USER    Run = 103
DOCKED: USER
DOCKED: USER    Estimated Free Energy of Binding    =  -3.97 kcal/mol  [=(1)+(2)+(3)-(4)]
DOCKED: USER
DOCKED: USER    (1) Final Intermolecular Energy     =  -5.46 kcal/mol
DOCKED: USER        vdW + Hbond + desolv Energy     =  -5.46 kcal/mol
DOCKED: USER        Electrostatic Energy            =  +0.00 kcal/mol
DOCKED: USER        Moving Ligand-Fixed Receptor    =  -5.46 kcal/mol
DOCKED: USER        Moving Ligand-Moving Receptor   =  +0.00 kcal/mol
DOCKED: USER    (2) Final Total Internal Energy     =  -1.30 kcal/mol
DOCKED: USER    (3) Torsional Free Energy           =  +1.49 kcal/mol
DOCKED: USER    (4) Unbound System's Energy         =  -1.30 kcal/mol
DOCKED: USER
DOCKED: USER
DOCKED: REMARK  5 active torsions:
DOCKED: REMARK  status: ('A' for Active; 'I' for Inactive)
DOCKED: REMARK    1  A    between atoms: C_2  and  C_19 
DOCKED: REMARK    2  A    between atoms: C_2  and  C_11 
DOCKED: REMARK    3  A    between atoms: C_19  and  C_20 
DOCKED: REMARK    4  A    between atoms: C_20  and  C_21 
DOCKED: REMARK    5  A    between atoms: C_21  and  N_22 
DOCKED: USER                              x       y       z     vdW  Elec       q    Type
DOCKED: USER                           _______ _______ _______ _____ _____    ______ ____
DOCKED: ROOT
DOCKED: ATOM      1  O   UNL     1     -40.305 -22.642   5.180 -0.00 -0.00    -0.346 OA 
DOCKED: ATOM      2  C   UNL     1     -40.687 -21.643   6.178 -0.07 +0.00    +0.130 C  
DOCKED: ATOM      3  C   UNL     1     -41.237 -22.460   7.312 -0.11 +0.00    +0.004 A  
DOCKED: ATOM      4  C   UNL     1     -41.080 -23.810   7.033 -0.14 +0.00    +0.006 A  
DOCKED: ATOM      5  C   UNL     1     -40.415 -23.979   5.721 -0.08 +0.00    +0.169 C  
DOCKED: ATOM      6  C   UNL     1     -41.818 -22.041   8.500 -0.15 -0.00    -0.001 A  
DOCKED: ATOM      7  C   UNL     1     -41.500 -24.783   7.923 -0.23 +0.00    +0.008 A  
DOCKED: ATOM      8  C   UNL     1     -42.251 -23.011   9.406 -0.26 +0.00    +0.010 A  
DOCKED: ATOM      9  C   UNL     1     -42.092 -24.375   9.119 -0.29 +0.00    +0.068 A  
DOCKED: ATOM     10  N   UNL     1     -42.902 -26.148  10.826 -2.62 -0.00    -0.191 NA 
DOCKED: ATOM     11  C   UNL     1     -42.539 -25.353  10.060 -0.42 +0.00    +0.101 C  
DOCKED: ENDROOT
DOCKED: BRANCH   2  12
DOCKED: ATOM     12  C   UNL     1     -39.446 -20.849   6.567 -0.01 +0.00    +0.038 C  
DOCKED: BRANCH  12  13
DOCKED: ATOM     13  C   UNL     1     -38.407 -21.737   7.250 -0.01 +0.00    +0.038 C  
DOCKED: BRANCH  13  14
DOCKED: ATOM     14  C   UNL     1     -38.425 -21.537   8.764 -0.00 +0.00    +0.251 C  
DOCKED: BRANCH  14  15
DOCKED: ATOM     15  N   UNL     1     -37.912 -22.724   9.438 -0.01 +0.00    +0.141 N  
DOCKED: ATOM     16  C   UNL     1     -37.269 -23.624   8.480 -0.01 +0.00    +0.285 C  
DOCKED: ATOM     17  C   UNL     1     -36.970 -22.351  10.494 +0.00 +0.00    +0.285 C  
DOCKED: ENDBRANCH  14  15
DOCKED: ENDBRANCH  13  14
DOCKED: ENDBRANCH  12  13
DOCKED: ENDBRANCH   2  12
DOCKED: BRANCH   2  18
DOCKED: ATOM     18  C   UNL     1     -41.713 -20.763   5.545 -0.12 +0.00    +0.006 A  
DOCKED: ATOM     19  C   UNL     1     -42.276 -19.715   6.272 -0.11 +0.00    +0.001 A  
DOCKED: ATOM     20  C   UNL     1     -43.236 -18.894   5.678 -0.16 +0.00    +0.029 A  
DOCKED: ATOM     21  C   UNL     1     -43.629 -19.121   4.360 -0.20 +0.00    +0.140 A  
DOCKED: ATOM     22  C   UNL     1     -43.065 -20.169   3.634 -0.21 +0.00    +0.029 A  
DOCKED: ATOM     23  F   UNL     1     -44.548 -18.331   3.790 -0.12 -0.00    -0.204 F  
DOCKED: ATOM     24  C   UNL     1     -42.106 -20.992   4.227 -0.15 +0.00    +0.001 A  
DOCKED: ENDBRANCH   2  18
DOCKED: TORSDOF 5
DOCKED: TER
DOCKED: ENDMDL
________________________________________________________________________________


    FINAL DOCKED STATE:
    ________________________


Run:   104 / 512
Time taken for this run:   0.002s

DOCKED: MODEL        104
DOCKED: USER    Run = 104
DOCKED: USER
DOCKED: USER    Estimated Free Energy of Binding    =  -3.38 kcal/mol  [=(1)+(2)+(3)-(4)]
DOCKED: USER
DOCKED: USER    (1) Final Intermolecular Energy     =  -4.87 kcal/mol
DOCKED: USER        vdW + Hbond + desolv Energy     =  -4.87 kcal/mol
DOCKED: USER        Electrostatic Energy            =  +0.00 kcal/mol
DOCKED: USER        Moving Ligand-Fixed Receptor    =  -4.87 kcal/mol
DOCKED: USER        Moving Ligand-Moving Receptor   =  +0.00 kcal/mol
DOCKED: USER    (2) Final Total Internal Energy     =  -1.53 kcal/mol
DOCKED: USER    (3) Torsional Free Energy           =  +1.49 kcal/mol
DOCKED: USER    (4) Unbound System's Energy         =  -1.53 kcal/mol
DOCKED: USER
DOCKED: USER
DOCKED: REMARK  5 active torsions:
DOCKED: REMARK  status: ('A' for Active; 'I' for Inactive)
DOCKED: REMARK    1  A    between atoms: C_2  and  C_19 
DOCKED: REMARK    2  A    between atoms: C_2  and  C_11 
DOCKED: REMARK    3  A    between atoms: C_19  and  C_20 
DOCKED: REMARK    4  A    between atoms: C_20  and  C_21 
DOCKED: REMARK    5  A    between atoms: C_21  and  N_22 
DOCKED: USER                              x       y       z     vdW  Elec       q    Type
DOCKED: USER                           _______ _______ _______ _____ _____    ______ ____
DOCKED: ROOT
DOCKED: ATOM      1  O   UNL     1     -40.854 -11.391   1.636 -0.01 -0.00    -0.346 OA 
DOCKED: ATOM      2  C   UNL     1     -41.268 -11.208   3.027 -0.06 +0.00    +0.130 C  
DOCKED: ATOM      3  C   UNL     1     -42.747 -11.465   2.999 -0.15 +0.00    +0.004 A  
DOCKED: ATOM      4  C   UNL     1     -43.127 -11.869   1.727 -0.18 +0.00    +0.006 A  
DOCKED: ATOM      5  C   UNL     1     -41.942 -11.918   0.841 -0.08 +0.00    +0.169 C  
DOCKED: ATOM      6  C   UNL     1     -43.680 -11.361   4.021 -0.22 -0.00    -0.001 A  
DOCKED: ATOM      7  C   UNL     1     -44.444 -12.177   1.432 -0.29 +0.00    +0.008 A  
DOCKED: ATOM      8  C   UNL     1     -45.013 -11.664   3.738 -0.32 +0.00    +0.010 A  
DOCKED: ATOM      9  C   UNL     1     -45.392 -12.070   2.449 -0.35 +0.00    +0.068 A  
DOCKED: ATOM     10  N   UNL     1     -47.874 -12.630   1.959 -2.50 -0.00    -0.191 NA 
DOCKED: ATOM     11  C   UNL     1     -46.761 -12.378   2.179 -0.39 +0.00    +0.101 C  
DOCKED: ENDROOT
DOCKED: BRANCH   2  12
DOCKED: ATOM     12  C   UNL     1     -40.509 -12.206   3.893 -0.03 +0.00    +0.038 C  
DOCKED: BRANCH  12  13
DOCKED: ATOM     13  C   UNL     1     -39.262 -12.726   3.180 -0.01 +0.00    +0.038 C  
DOCKED: BRANCH  13  14
DOCKED: ATOM     14  C   UNL     1     -38.159 -11.670   3.162 +0.00 +0.00    +0.251 C  
DOCKED: BRANCH  14  15
DOCKED: ATOM     15  N   UNL     1     -37.947 -11.181   1.805 -0.00 +0.00    +0.141 N  
DOCKED: ATOM     16  C   UNL     1     -37.228  -9.906   1.822 +0.00 +0.00    +0.285 C  
DOCKED: ATOM     17  C   UNL     1     -37.212 -12.167   1.010 +0.00 +0.00    +0.285 C  
DOCKED: ENDBRANCH  14  15
DOCKED: ENDBRANCH  13  14
DOCKED: ENDBRANCH  12  13
DOCKED: ENDBRANCH   2  12
DOCKED: BRANCH   2  18
DOCKED: ATOM     18  C   UNL     1     -40.929  -9.803   3.402 -0.08 +0.00    +0.006 A  
DOCKED: ATOM     19  C   UNL     1     -40.566  -9.500   4.713 -0.05 +0.00    +0.001 A  
DOCKED: ATOM     20  C   UNL     1     -40.250  -8.186   5.062 -0.03 +0.00    +0.029 A  
DOCKED: ATOM     21  C   UNL     1     -40.297  -7.179   4.099 -0.02 +0.00    +0.140 A  
DOCKED: ATOM     22  C   UNL     1     -40.660  -7.483   2.788 -0.08 +0.00    +0.029 A  
DOCKED: ATOM     23  F   UNL     1     -39.991  -5.919   4.434 +0.01 -0.00    -0.204 F  
DOCKED: ATOM     24  C   UNL     1     -40.977  -8.797   2.438 -0.05 +0.00    +0.001 A  
DOCKED: ENDBRANCH   2  18
DOCKED: TORSDOF 5
DOCKED: TER
DOCKED: ENDMDL
________________________________________________________________________________


    FINAL DOCKED STATE:
    ________________________


Run:   105 / 512
Time taken for this run:   0.002s

DOCKED: MODEL        105
DOCKED: USER    Run = 105
DOCKED: USER
DOCKED: USER    Estimated Free Energy of Binding    =  -5.33 kcal/mol  [=(1)+(2)+(3)-(4)]
DOCKED: USER
DOCKED: USER    (1) Final Intermolecular Energy     =  -6.82 kcal/mol
DOCKED: USER        vdW + Hbond + desolv Energy     =  -6.82 kcal/mol
DOCKED: USER        Electrostatic Energy            =  +0.00 kcal/mol
DOCKED: USER        Moving Ligand-Fixed Receptor    =  -6.82 kcal/mol
DOCKED: USER        Moving Ligand-Moving Receptor   =  +0.00 kcal/mol
DOCKED: USER    (2) Final Total Internal Energy     =  -1.01 kcal/mol
DOCKED: USER    (3) Torsional Free Energy           =  +1.49 kcal/mol
DOCKED: USER    (4) Unbound System's Energy         =  -1.01 kcal/mol
DOCKED: USER
DOCKED: USER
DOCKED: REMARK  5 active torsions:
DOCKED: REMARK  status: ('A' for Active; 'I' for Inactive)
DOCKED: REMARK    1  A    between atoms: C_2  and  C_19 
DOCKED: REMARK    2  A    between atoms: C_2  and  C_11 
DOCKED: REMARK    3  A    between atoms: C_19  and  C_20 
DOCKED: REMARK    4  A    between atoms: C_20  and  C_21 
DOCKED: REMARK    5  A    between atoms: C_21  and  N_22 
DOCKED: USER                              x       y       z     vdW  Elec       q    Type
DOCKED: USER                           _______ _______ _______ _____ _____    ______ ____
DOCKED: ROOT
DOCKED: ATOM      1  O   UNL     1     -52.464 -24.264  14.959 -0.12 -0.00    -0.346 OA 
DOCKED: ATOM      2  C   UNL     1     -51.308 -23.367  14.922 -0.13 +0.00    +0.130 C  
DOCKED: ATOM      3  C   UNL     1     -50.902 -23.363  13.477 -0.24 +0.00    +0.004 A  
DOCKED: ATOM      4  C   UNL     1     -51.811 -24.103  12.735 -0.28 +0.00    +0.006 A  
DOCKED: ATOM      5  C   UNL     1     -52.873 -24.630  13.621 -0.03 +0.00    +0.169 C  
DOCKED: ATOM      6  C   UNL     1     -49.821 -22.744  12.866 -0.32 -0.00    -0.001 A  
DOCKED: ATOM      7  C   UNL     1     -51.670 -24.253  11.366 -0.26 +0.00    +0.008 A  
DOCKED: ATOM      8  C   UNL     1     -49.663 -22.890  11.487 -0.29 +0.00    +0.010 A  
DOCKED: ATOM      9  C   UNL     1     -50.583 -23.640  10.741 -0.25 +0.00    +0.068 A  
DOCKED: ATOM     10  N   UNL     1     -50.263 -23.887   8.182 -2.93 -0.00    -0.191 NA 
DOCKED: ATOM     11  C   UNL     1     -50.406 -23.777   9.329 -0.27 +0.00    +0.101 C  
DOCKED: ENDROOT
DOCKED: BRANCH   2  12
DOCKED: ATOM     12  C   UNL     1     -51.746 -21.994  15.420 -0.11 +0.00    +0.038 C  
DOCKED: BRANCH  12  13
DOCKED: ATOM     13  C   UNL     1     -52.598 -21.271  14.379 -0.21 +0.00    +0.038 C  
DOCKED: BRANCH  13  14
DOCKED: ATOM     14  C   UNL     1     -52.934 -19.852  14.833 -0.08 +0.00    +0.251 C  
DOCKED: BRANCH  14  15
DOCKED: ATOM     15  N   UNL     1     -51.774 -18.981  14.676 -0.09 +0.00    +0.141 N  
DOCKED: ATOM     16  C   UNL     1     -52.183 -17.657  14.204 -0.08 +0.00    +0.285 C  
DOCKED: ATOM     17  C   UNL     1     -51.041 -18.866  15.938 -0.01 +0.00    +0.285 C  
DOCKED: ENDBRANCH  14  15
DOCKED: ENDBRANCH  13  14
DOCKED: ENDBRANCH  12  13
DOCKED: ENDBRANCH   2  12
DOCKED: BRANCH   2  18
DOCKED: ATOM     18  C   UNL     1     -50.269 -23.957  15.817 -0.17 +0.00    +0.006 A  
DOCKED: ATOM     19  C   UNL     1     -49.264 -24.762  15.281 -0.27 +0.00    +0.001 A  
DOCKED: ATOM     20  C   UNL     1     -48.294 -25.313  16.118 -0.14 +0.00    +0.029 A  
DOCKED: ATOM     21  C   UNL     1     -48.329 -25.059  17.489 -0.17 +0.00    +0.140 A  
DOCKED: ATOM     22  C   UNL     1     -49.334 -24.253  18.024 -0.14 +0.00    +0.029 A  
DOCKED: ATOM     23  F   UNL     1     -47.396 -25.587  18.292 -0.10 -0.00    -0.204 F  
DOCKED: ATOM     24  C   UNL     1     -50.305 -23.702  17.187 -0.12 +0.00    +0.001 A  
DOCKED: ENDBRANCH   2  18
DOCKED: TORSDOF 5
DOCKED: TER
DOCKED: ENDMDL
________________________________________________________________________________


    FINAL DOCKED STATE:
    ________________________


Run:   106 / 512
Time taken for this run:   0.002s

DOCKED: MODEL        106
DOCKED: USER    Run = 106
DOCKED: USER
DOCKED: USER    Estimated Free Energy of Binding    =  -4.26 kcal/mol  [=(1)+(2)+(3)-(4)]
DOCKED: USER
DOCKED: USER    (1) Final Intermolecular Energy     =  -5.75 kcal/mol
DOCKED: USER        vdW + Hbond + desolv Energy     =  -5.75 kcal/mol
DOCKED: USER        Electrostatic Energy            =  +0.00 kcal/mol
DOCKED: USER        Moving Ligand-Fixed Receptor    =  -5.75 kcal/mol
DOCKED: USER        Moving Ligand-Moving Receptor   =  +0.00 kcal/mol
DOCKED: USER    (2) Final Total Internal Energy     =  -1.41 kcal/mol
DOCKED: USER    (3) Torsional Free Energy           =  +1.49 kcal/mol
DOCKED: USER    (4) Unbound System's Energy         =  -1.41 kcal/mol
DOCKED: USER
DOCKED: USER
DOCKED: REMARK  5 active torsions:
DOCKED: REMARK  status: ('A' for Active; 'I' for Inactive)
DOCKED: REMARK    1  A    between atoms: C_2  and  C_19 
DOCKED: REMARK    2  A    between atoms: C_2  and  C_11 
DOCKED: REMARK    3  A    between atoms: C_19  and  C_20 
DOCKED: REMARK    4  A    between atoms: C_20  and  C_21 
DOCKED: REMARK    5  A    between atoms: C_21  and  N_22 
DOCKED: USER                              x       y       z     vdW  Elec       q    Type
DOCKED: USER                           _______ _______ _______ _____ _____    ______ ____
DOCKED: ROOT
DOCKED: ATOM      1  O   UNL     1     -46.717 -20.116  14.679 -0.05 -0.00    -0.346 OA 
DOCKED: ATOM      2  C   UNL     1     -48.131 -19.749  14.580 -0.11 +0.00    +0.130 C  
DOCKED: ATOM      3  C   UNL     1     -48.780 -20.974  14.003 -0.21 +0.00    +0.004 A  
DOCKED: ATOM      4  C   UNL     1     -47.841 -21.989  13.886 -0.25 +0.00    +0.006 A  
DOCKED: ATOM      5  C   UNL     1     -46.528 -21.519  14.381 -0.08 +0.00    +0.169 C  
DOCKED: ATOM      6  C   UNL     1     -50.099 -21.177  13.622 -0.23 -0.00    -0.001 A  
DOCKED: ATOM      7  C   UNL     1     -48.184 -23.233  13.384 -0.32 +0.00    +0.008 A  
DOCKED: ATOM      8  C   UNL     1     -50.459 -22.424  13.110 -0.25 +0.00    +0.010 A  
DOCKED: ATOM      9  C   UNL     1     -49.506 -23.447  12.992 -0.28 +0.00    +0.068 A  
DOCKED: ATOM     10  N   UNL     1     -50.209 -25.753  12.042 -2.55 -0.00    -0.191 NA 
DOCKED: ATOM     11  C   UNL     1     -49.894 -24.718  12.468 -0.34 +0.00    +0.101 C  
DOCKED: ENDROOT
DOCKED: BRANCH   2  12
DOCKED: ATOM     12  C   UNL     1     -48.640 -19.409  15.975 -0.04 +0.00    +0.038 C  
DOCKED: BRANCH  12  13
DOCKED: ATOM     13  C   UNL     1     -47.693 -19.927  17.056 -0.02 +0.00    +0.038 C  
DOCKED: BRANCH  13  14
DOCKED: ATOM     14  C   UNL     1     -48.330 -21.071  17.843 -0.01 +0.00    +0.251 C  
DOCKED: BRANCH  14  15
DOCKED: ATOM     15  N   UNL     1     -48.038 -22.350  17.206 -0.05 +0.00    +0.141 N  
DOCKED: ATOM     16  C   UNL     1     -47.171 -23.165  18.057 -0.06 +0.00    +0.285 C  
DOCKED: ATOM     17  C   UNL     1     -49.277 -23.070  16.906 -0.04 +0.00    +0.285 C  
DOCKED: ENDBRANCH  14  15
DOCKED: ENDBRANCH  13  14
DOCKED: ENDBRANCH  12  13
DOCKED: ENDBRANCH   2  12
DOCKED: BRANCH   2  18
DOCKED: ATOM     18  C   UNL     1     -48.212 -18.566  13.674 -0.15 +0.00    +0.006 A  
DOCKED: ATOM     19  C   UNL     1     -47.047 -18.010  13.147 -0.12 +0.00    +0.001 A  
DOCKED: ATOM     20  C   UNL     1     -47.125 -16.904  12.301 -0.10 +0.00    +0.029 A  
DOCKED: ATOM     21  C   UNL     1     -48.366 -16.355  11.982 -0.10 +0.00    +0.140 A  
DOCKED: ATOM     22  C   UNL     1     -49.531 -16.912  12.509 -0.15 +0.00    +0.029 A  
DOCKED: ATOM     23  F   UNL     1     -48.440 -15.294  11.168 -0.03 -0.00    -0.204 F  
DOCKED: ATOM     24  C   UNL     1     -49.455 -18.019  13.356 -0.18 +0.00    +0.001 A  
DOCKED: ENDBRANCH   2  18
DOCKED: TORSDOF 5
DOCKED: TER
DOCKED: ENDMDL
________________________________________________________________________________


    FINAL DOCKED STATE:
    ________________________


Run:   107 / 512
Time taken for this run:   0.002s

DOCKED: MODEL        107
DOCKED: USER    Run = 107
DOCKED: USER
DOCKED: USER    Estimated Free Energy of Binding    =  -3.43 kcal/mol  [=(1)+(2)+(3)-(4)]
DOCKED: USER
DOCKED: USER    (1) Final Intermolecular Energy     =  -4.92 kcal/mol
DOCKED: USER        vdW + Hbond + desolv Energy     =  -4.92 kcal/mol
DOCKED: USER        Electrostatic Energy            =  +0.00 kcal/mol
DOCKED: USER        Moving Ligand-Fixed Receptor    =  -4.92 kcal/mol
DOCKED: USER        Moving Ligand-Moving Receptor   =  +0.00 kcal/mol
DOCKED: USER    (2) Final Total Internal Energy     =  -1.42 kcal/mol
DOCKED: USER    (3) Torsional Free Energy           =  +1.49 kcal/mol
DOCKED: USER    (4) Unbound System's Energy         =  -1.42 kcal/mol
DOCKED: USER
DOCKED: USER
DOCKED: REMARK  5 active torsions:
DOCKED: REMARK  status: ('A' for Active; 'I' for Inactive)
DOCKED: REMARK    1  A    between atoms: C_2  and  C_19 
DOCKED: REMARK    2  A    between atoms: C_2  and  C_11 
DOCKED: REMARK    3  A    between atoms: C_19  and  C_20 
DOCKED: REMARK    4  A    between atoms: C_20  and  C_21 
DOCKED: REMARK    5  A    between atoms: C_21  and  N_22 
DOCKED: USER                              x       y       z     vdW  Elec       q    Type
DOCKED: USER                           _______ _______ _______ _____ _____    ______ ____
DOCKED: ROOT
DOCKED: ATOM      1  O   UNL     1     -40.855 -12.545   3.453 +0.01 -0.00    -0.346 OA 
DOCKED: ATOM      2  C   UNL     1     -41.680 -13.023   4.564 -0.04 +0.00    +0.130 C  
DOCKED: ATOM      3  C   UNL     1     -43.084 -12.910   4.043 -0.12 +0.00    +0.004 A  
DOCKED: ATOM      4  C   UNL     1     -43.059 -12.509   2.715 -0.12 +0.00    +0.006 A  
DOCKED: ATOM      5  C   UNL     1     -41.658 -12.343   2.267 -0.04 +0.00    +0.169 C  
DOCKED: ATOM      6  C   UNL     1     -44.287 -13.155   4.690 -0.18 -0.00    -0.001 A  
DOCKED: ATOM      7  C   UNL     1     -44.227 -12.335   1.992 -0.26 +0.00    +0.008 A  
DOCKED: ATOM      8  C   UNL     1     -45.474 -12.979   3.976 -0.32 +0.00    +0.010 A  
DOCKED: ATOM      9  C   UNL     1     -45.443 -12.572   2.634 -0.34 +0.00    +0.068 A  
DOCKED: ATOM     10  N   UNL     1     -47.664 -12.260   1.337 -2.56 -0.00    -0.191 NA 
DOCKED: ATOM     11  C   UNL     1     -46.668 -12.399   1.919 -0.39 +0.00    +0.101 C  
DOCKED: ENDROOT
DOCKED: BRANCH   2  12
DOCKED: ATOM     12  C   UNL     1     -41.278 -14.459   4.881 -0.02 +0.00    +0.038 C  
DOCKED: BRANCH  12  13
DOCKED: ATOM     13  C   UNL     1     -39.883 -14.777   4.347 -0.01 +0.00    +0.038 C  
DOCKED: BRANCH  13  14
DOCKED: ATOM     14  C   UNL     1     -38.813 -13.988   5.099 -0.00 +0.00    +0.251 C  
DOCKED: BRANCH  14  15
DOCKED: ATOM     15  N   UNL     1     -38.088 -13.115   4.184 -0.00 +0.00    +0.141 N  
DOCKED: ATOM     16  C   UNL     1     -36.675 -13.038   4.555 +0.00 +0.00    +0.285 C  
DOCKED: ATOM     17  C   UNL     1     -38.226 -13.587   2.805 +0.00 +0.00    +0.285 C  
DOCKED: ENDBRANCH  14  15
DOCKED: ENDBRANCH  13  14
DOCKED: ENDBRANCH  12  13
DOCKED: ENDBRANCH   2  12
DOCKED: BRANCH   2  18
DOCKED: ATOM     18  C   UNL     1     -41.416 -12.121   5.723 -0.09 +0.00    +0.006 A  
DOCKED: ATOM     19  C   UNL     1     -41.320 -10.744   5.527 -0.09 +0.00    +0.001 A  
DOCKED: ATOM     20  C   UNL     1     -41.072  -9.903   6.612 -0.09 +0.00    +0.029 A  
DOCKED: ATOM     21  C   UNL     1     -40.923 -10.438   7.891 -0.06 +0.00    +0.140 A  
DOCKED: ATOM     22  C   UNL     1     -41.019 -11.816   8.086 -0.07 +0.00    +0.029 A  
DOCKED: ATOM     23  F   UNL     1     -40.687  -9.630   8.932 -0.03 -0.00    -0.204 F  
DOCKED: ATOM     24  C   UNL     1     -41.266 -12.659   7.001 -0.10 +0.00    +0.001 A  
DOCKED: ENDBRANCH   2  18
DOCKED: TORSDOF 5
DOCKED: TER
DOCKED: ENDMDL
________________________________________________________________________________


    FINAL DOCKED STATE:
    ________________________


Run:   108 / 512
Time taken for this run:   0.002s

DOCKED: MODEL        108
DOCKED: USER    Run = 108
DOCKED: USER
DOCKED: USER    Estimated Free Energy of Binding    =  -4.87 kcal/mol  [=(1)+(2)+(3)-(4)]
DOCKED: USER
DOCKED: USER    (1) Final Intermolecular Energy     =  -6.36 kcal/mol
DOCKED: USER        vdW + Hbond + desolv Energy     =  -6.36 kcal/mol
DOCKED: USER        Electrostatic Energy            =  +0.00 kcal/mol
DOCKED: USER        Moving Ligand-Fixed Receptor    =  -6.36 kcal/mol
DOCKED: USER        Moving Ligand-Moving Receptor   =  +0.00 kcal/mol
DOCKED: USER    (2) Final Total Internal Energy     =  -1.08 kcal/mol
DOCKED: USER    (3) Torsional Free Energy           =  +1.49 kcal/mol
DOCKED: USER    (4) Unbound System's Energy         =  -1.08 kcal/mol
DOCKED: USER
DOCKED: USER
DOCKED: REMARK  5 active torsions:
DOCKED: REMARK  status: ('A' for Active; 'I' for Inactive)
DOCKED: REMARK    1  A    between atoms: C_2  and  C_19 
DOCKED: REMARK    2  A    between atoms: C_2  and  C_11 
DOCKED: REMARK    3  A    between atoms: C_19  and  C_20 
DOCKED: REMARK    4  A    between atoms: C_20  and  C_21 
DOCKED: REMARK    5  A    between atoms: C_21  and  N_22 
DOCKED: USER                              x       y       z     vdW  Elec       q    Type
DOCKED: USER                           _______ _______ _______ _____ _____    ______ ____
DOCKED: ROOT
DOCKED: ATOM      1  O   UNL     1     -46.779 -15.315   7.972 -0.11 -0.00    -0.346 OA 
DOCKED: ATOM      2  C   UNL     1     -45.450 -15.293   7.361 -0.19 +0.00    +0.130 C  
DOCKED: ATOM      3  C   UNL     1     -45.679 -14.645   6.026 -0.26 +0.00    +0.004 A  
DOCKED: ATOM      4  C   UNL     1     -47.000 -14.232   5.928 -0.14 +0.00    +0.006 A  
DOCKED: ATOM      5  C   UNL     1     -47.724 -14.562   7.176 -0.07 +0.00    +0.169 C  
DOCKED: ATOM      6  C   UNL     1     -44.786 -14.428   4.987 -0.23 -0.00    -0.001 A  
DOCKED: ATOM      7  C   UNL     1     -47.474 -13.597   4.793 -0.22 +0.00    +0.008 A  
DOCKED: ATOM      8  C   UNL     1     -45.250 -13.792   3.834 -0.28 +0.00    +0.010 A  
DOCKED: ATOM      9  C   UNL     1     -46.587 -13.378   3.738 -0.32 +0.00    +0.068 A  
DOCKED: ATOM     10  N   UNL     1     -47.413 -12.195   1.586 -2.51 -0.00    -0.191 NA 
DOCKED: ATOM     11  C   UNL     1     -47.043 -12.726   2.551 -0.34 +0.00    +0.101 C  
DOCKED: ENDROOT
DOCKED: BRANCH   2  12
DOCKED: ATOM     12  C   UNL     1     -44.519 -14.487   8.260 -0.17 +0.00    +0.038 C  
DOCKED: BRANCH  12  13
DOCKED: ATOM     13  C   UNL     1     -43.107 -15.070   8.263 -0.10 +0.00    +0.038 C  
DOCKED: BRANCH  13  14
DOCKED: ATOM     14  C   UNL     1     -42.319 -14.608   7.039 -0.06 +0.00    +0.251 C  
DOCKED: BRANCH  14  15
DOCKED: ATOM     15  N   UNL     1     -42.290 -13.152   6.973 -0.12 +0.00    +0.141 N  
DOCKED: ATOM     16  C   UNL     1     -41.411 -12.606   8.009 -0.06 +0.00    +0.285 C  
DOCKED: ATOM     17  C   UNL     1     -41.854 -12.703   5.650 -0.07 +0.00    +0.285 C  
DOCKED: ENDBRANCH  14  15
DOCKED: ENDBRANCH  13  14
DOCKED: ENDBRANCH  12  13
DOCKED: ENDBRANCH   2  12
DOCKED: BRANCH   2  18
DOCKED: ATOM     18  C   UNL     1     -44.997 -16.710   7.250 -0.15 +0.00    +0.006 A  
DOCKED: ATOM     19  C   UNL     1     -45.191 -17.589   8.315 -0.15 +0.00    +0.001 A  
DOCKED: ATOM     20  C   UNL     1     -44.767 -18.914   8.209 -0.20 +0.00    +0.029 A  
DOCKED: ATOM     21  C   UNL     1     -44.151 -19.359   7.040 -0.17 +0.00    +0.140 A  
DOCKED: ATOM     22  C   UNL     1     -43.958 -18.479   5.975 -0.18 +0.00    +0.029 A  
DOCKED: ATOM     23  F   UNL     1     -43.746 -20.631   6.938 -0.09 -0.00    -0.204 F  
DOCKED: ATOM     24  C   UNL     1     -44.381 -17.153   6.080 -0.16 +0.00    +0.001 A  
DOCKED: ENDBRANCH   2  18
DOCKED: TORSDOF 5
DOCKED: TER
DOCKED: ENDMDL
________________________________________________________________________________


    FINAL DOCKED STATE:
    ________________________


Run:   109 / 512
Time taken for this run:   0.002s

DOCKED: MODEL        109
DOCKED: USER    Run = 109
DOCKED: USER
DOCKED: USER    Estimated Free Energy of Binding    =  -3.95 kcal/mol  [=(1)+(2)+(3)-(4)]
DOCKED: USER
DOCKED: USER    (1) Final Intermolecular Energy     =  -5.44 kcal/mol
DOCKED: USER        vdW + Hbond + desolv Energy     =  -5.44 kcal/mol
DOCKED: USER        Electrostatic Energy            =  +0.00 kcal/mol
DOCKED: USER        Moving Ligand-Fixed Receptor    =  -5.44 kcal/mol
DOCKED: USER        Moving Ligand-Moving Receptor   =  +0.00 kcal/mol
DOCKED: USER    (2) Final Total Internal Energy     =  -1.04 kcal/mol
DOCKED: USER    (3) Torsional Free Energy           =  +1.49 kcal/mol
DOCKED: USER    (4) Unbound System's Energy         =  -1.04 kcal/mol
DOCKED: USER
DOCKED: USER
DOCKED: REMARK  5 active torsions:
DOCKED: REMARK  status: ('A' for Active; 'I' for Inactive)
DOCKED: REMARK    1  A    between atoms: C_2  and  C_19 
DOCKED: REMARK    2  A    between atoms: C_2  and  C_11 
DOCKED: REMARK    3  A    between atoms: C_19  and  C_20 
DOCKED: REMARK    4  A    between atoms: C_20  and  C_21 
DOCKED: REMARK    5  A    between atoms: C_21  and  N_22 
DOCKED: USER                              x       y       z     vdW  Elec       q    Type
DOCKED: USER                           _______ _______ _______ _____ _____    ______ ____
DOCKED: ROOT
DOCKED: ATOM      1  O   UNL     1     -40.866 -20.735   6.798 +0.01 -0.00    -0.346 OA 
DOCKED: ATOM      2  C   UNL     1     -40.827 -21.956   5.992 -0.09 +0.00    +0.130 C  
DOCKED: ATOM      3  C   UNL     1     -41.247 -23.033   6.950 -0.13 +0.00    +0.004 A  
DOCKED: ATOM      4  C   UNL     1     -41.603 -22.464   8.165 -0.14 +0.00    +0.006 A  
DOCKED: ATOM      5  C   UNL     1     -41.457 -20.993   8.093 -0.06 +0.00    +0.169 C  
DOCKED: ATOM      6  C   UNL     1     -41.321 -24.405   6.757 -0.17 -0.00    -0.001 A  
DOCKED: ATOM      7  C   UNL     1     -42.037 -23.242   9.225 -0.25 +0.00    +0.008 A  
DOCKED: ATOM      8  C   UNL     1     -41.752 -25.203   7.818 -0.27 +0.00    +0.010 A  
DOCKED: ATOM      9  C   UNL     1     -42.109 -24.624   9.045 -0.30 +0.00    +0.068 A  
DOCKED: ATOM     10  N   UNL     1     -42.911 -26.135  10.992 -2.68 -0.00    -0.191 NA 
DOCKED: ATOM     11  C   UNL     1     -42.551 -25.457  10.119 -0.41 +0.00    +0.101 C  
DOCKED: ENDROOT
DOCKED: BRANCH   2  12
DOCKED: ATOM     12  C   UNL     1     -41.790 -21.793   4.822 -0.03 +0.00    +0.038 C  
DOCKED: BRANCH  12  13
DOCKED: ATOM     13  C   UNL     1     -41.808 -20.353   4.313 -0.14 +0.00    +0.038 C  
DOCKED: BRANCH  13  14
DOCKED: ATOM     14  C   UNL     1     -42.701 -20.217   3.081 -0.18 +0.00    +0.251 C  
DOCKED: BRANCH  14  15
DOCKED: ATOM     15  N   UNL     1     -43.766 -19.253   3.330 -0.26 +0.00    +0.141 N  
DOCKED: ATOM     16  C   UNL     1     -43.727 -18.788   4.718 -0.17 +0.00    +0.285 C  
DOCKED: ATOM     17  C   UNL     1     -43.660 -18.118   2.412 -0.12 +0.00    +0.285 C  
DOCKED: ENDBRANCH  14  15
DOCKED: ENDBRANCH  13  14
DOCKED: ENDBRANCH  12  13
DOCKED: ENDBRANCH   2  12
DOCKED: BRANCH   2  18
DOCKED: ATOM     18  C   UNL     1     -39.422 -22.118   5.515 -0.03 +0.00    +0.006 A  
DOCKED: ATOM     19  C   UNL     1     -38.377 -22.185   6.435 -0.01 +0.00    +0.001 A  
DOCKED: ATOM     20  C   UNL     1     -37.064 -22.336   5.987 -0.00 +0.00    +0.029 A  
DOCKED: ATOM     21  C   UNL     1     -36.798 -22.422   4.621 -0.00 +0.00    +0.140 A  
DOCKED: ATOM     22  C   UNL     1     -37.845 -22.356   3.701 -0.00 +0.00    +0.029 A  
DOCKED: ATOM     23  F   UNL     1     -35.538 -22.569   4.192 +0.00 -0.00    -0.204 F  
DOCKED: ATOM     24  C   UNL     1     -39.158 -22.203   4.148 -0.02 +0.00    +0.001 A  
DOCKED: ENDBRANCH   2  18
DOCKED: TORSDOF 5
DOCKED: TER
DOCKED: ENDMDL
________________________________________________________________________________


    FINAL DOCKED STATE:
    ________________________


Run:   110 / 512
Time taken for this run:   0.002s

DOCKED: MODEL        110
DOCKED: USER    Run = 110
DOCKED: USER
DOCKED: USER    Estimated Free Energy of Binding    =  -4.02 kcal/mol  [=(1)+(2)+(3)-(4)]
DOCKED: USER
DOCKED: USER    (1) Final Intermolecular Energy     =  -5.51 kcal/mol
DOCKED: USER        vdW + Hbond + desolv Energy     =  -5.51 kcal/mol
DOCKED: USER        Electrostatic Energy            =  +0.00 kcal/mol
DOCKED: USER        Moving Ligand-Fixed Receptor    =  -5.51 kcal/mol
DOCKED: USER        Moving Ligand-Moving Receptor   =  +0.00 kcal/mol
DOCKED: USER    (2) Final Total Internal Energy     =  -1.48 kcal/mol
DOCKED: USER    (3) Torsional Free Energy           =  +1.49 kcal/mol
DOCKED: USER    (4) Unbound System's Energy         =  -1.48 kcal/mol
DOCKED: USER
DOCKED: USER
DOCKED: REMARK  5 active torsions:
DOCKED: REMARK  status: ('A' for Active; 'I' for Inactive)
DOCKED: REMARK    1  A    between atoms: C_2  and  C_19 
DOCKED: REMARK    2  A    between atoms: C_2  and  C_11 
DOCKED: REMARK    3  A    between atoms: C_19  and  C_20 
DOCKED: REMARK    4  A    between atoms: C_20  and  C_21 
DOCKED: REMARK    5  A    between atoms: C_21  and  N_22 
DOCKED: USER                              x       y       z     vdW  Elec       q    Type
DOCKED: USER                           _______ _______ _______ _____ _____    ______ ____
DOCKED: ROOT
DOCKED: ATOM      1  O   UNL     1     -47.136 -19.690  14.788 -0.03 -0.00    -0.346 OA 
DOCKED: ATOM      2  C   UNL     1     -48.576 -19.458  14.663 -0.10 +0.00    +0.130 C  
DOCKED: ATOM      3  C   UNL     1     -49.097 -20.737  14.074 -0.20 +0.00    +0.004 A  
DOCKED: ATOM      4  C   UNL     1     -48.065 -21.660  13.976 -0.24 +0.00    +0.006 A  
DOCKED: ATOM      5  C   UNL     1     -46.811 -21.069  14.495 -0.14 +0.00    +0.169 C  
DOCKED: ATOM      6  C   UNL     1     -50.383 -21.062  13.670 -0.23 -0.00    -0.001 A  
DOCKED: ATOM      7  C   UNL     1     -48.280 -22.930  13.468 -0.31 +0.00    +0.008 A  
DOCKED: ATOM      8  C   UNL     1     -50.615 -22.337  13.152 -0.24 +0.00    +0.010 A  
DOCKED: ATOM      9  C   UNL     1     -49.569 -23.266  13.052 -0.27 +0.00    +0.068 A  
DOCKED: ATOM     10  N   UNL     1     -50.035 -25.627  12.091 -2.54 -0.00    -0.191 NA 
DOCKED: ATOM     11  C   UNL     1     -49.826 -24.568  12.522 -0.37 +0.00    +0.101 C  
DOCKED: ENDROOT
DOCKED: BRANCH   2  12
DOCKED: ATOM     12  C   UNL     1     -49.141 -19.168  16.048 -0.04 +0.00    +0.038 C  
DOCKED: BRANCH  12  13
DOCKED: ATOM     13  C   UNL     1     -48.029 -19.049  17.089 -0.01 +0.00    +0.038 C  
DOCKED: BRANCH  13  14
DOCKED: ATOM     14  C   UNL     1     -47.475 -17.627  17.141 -0.00 +0.00    +0.251 C  
DOCKED: BRANCH  14  15
DOCKED: ATOM     15  N   UNL     1     -46.173 -17.565  16.489 -0.00 +0.00    +0.141 N  
DOCKED: ATOM     16  C   UNL     1     -45.569 -16.244  16.666 -0.00 +0.00    +0.285 C  
DOCKED: ATOM     17  C   UNL     1     -45.284 -18.604  17.014 -0.00 +0.00    +0.285 C  
DOCKED: ENDBRANCH  14  15
DOCKED: ENDBRANCH  13  14
DOCKED: ENDBRANCH  12  13
DOCKED: ENDBRANCH   2  12
DOCKED: BRANCH   2  18
DOCKED: ATOM     18  C   UNL     1     -48.751 -18.286  13.755 -0.15 +0.00    +0.006 A  
DOCKED: ATOM     19  C   UNL     1     -47.714 -17.903  12.905 -0.11 +0.00    +0.001 A  
DOCKED: ATOM     20  C   UNL     1     -47.879 -16.807  12.056 -0.07 +0.00    +0.029 A  
DOCKED: ATOM     21  C   UNL     1     -49.079 -16.098  12.059 -0.12 +0.00    +0.140 A  
DOCKED: ATOM     22  C   UNL     1     -50.116 -16.482  12.909 -0.15 +0.00    +0.029 A  
DOCKED: ATOM     23  F   UNL     1     -49.238 -15.047  11.243 -0.02 -0.00    -0.204 F  
DOCKED: ATOM     24  C   UNL     1     -49.952 -17.578  13.758 -0.16 +0.00    +0.001 A  
DOCKED: ENDBRANCH   2  18
DOCKED: TORSDOF 5
DOCKED: TER
DOCKED: ENDMDL
________________________________________________________________________________


    FINAL DOCKED STATE:
    ________________________


Run:   111 / 512
Time taken for this run:   0.002s

DOCKED: MODEL        111
DOCKED: USER    Run = 111
DOCKED: USER
DOCKED: USER    Estimated Free Energy of Binding    =  -4.42 kcal/mol  [=(1)+(2)+(3)-(4)]
DOCKED: USER
DOCKED: USER    (1) Final Intermolecular Energy     =  -5.92 kcal/mol
DOCKED: USER        vdW + Hbond + desolv Energy     =  -5.92 kcal/mol
DOCKED: USER        Electrostatic Energy            =  +0.00 kcal/mol
DOCKED: USER        Moving Ligand-Fixed Receptor    =  -5.92 kcal/mol
DOCKED: USER        Moving Ligand-Moving Receptor   =  +0.00 kcal/mol
DOCKED: USER    (2) Final Total Internal Energy     =  -0.85 kcal/mol
DOCKED: USER    (3) Torsional Free Energy           =  +1.49 kcal/mol
DOCKED: USER    (4) Unbound System's Energy         =  -0.85 kcal/mol
DOCKED: USER
DOCKED: USER
DOCKED: REMARK  5 active torsions:
DOCKED: REMARK  status: ('A' for Active; 'I' for Inactive)
DOCKED: REMARK    1  A    between atoms: C_2  and  C_19 
DOCKED: REMARK    2  A    between atoms: C_2  and  C_11 
DOCKED: REMARK    3  A    between atoms: C_19  and  C_20 
DOCKED: REMARK    4  A    between atoms: C_20  and  C_21 
DOCKED: REMARK    5  A    between atoms: C_21  and  N_22 
DOCKED: USER                              x       y       z     vdW  Elec       q    Type
DOCKED: USER                           _______ _______ _______ _____ _____    ______ ____
DOCKED: ROOT
DOCKED: ATOM      1  O   UNL     1     -40.593 -20.132   7.552 +0.01 -0.00    -0.346 OA 
DOCKED: ATOM      2  C   UNL     1     -42.038 -20.207   7.334 -0.08 +0.00    +0.130 C  
DOCKED: ATOM      3  C   UNL     1     -42.434 -21.498   7.991 -0.18 +0.00    +0.004 A  
DOCKED: ATOM      4  C   UNL     1     -41.333 -22.056   8.625 -0.10 +0.00    +0.006 A  
DOCKED: ATOM      5  C   UNL     1     -40.153 -21.181   8.445 -0.02 +0.00    +0.169 C  
DOCKED: ATOM      6  C   UNL     1     -43.672 -22.122   8.035 -0.28 -0.00    -0.001 A  
DOCKED: ATOM      7  C   UNL     1     -41.429 -23.252   9.315 -0.18 +0.00    +0.008 A  
DOCKED: ATOM      8  C   UNL     1     -43.784 -23.331   8.723 -0.13 +0.00    +0.010 A  
DOCKED: ATOM      9  C   UNL     1     -42.668 -23.893   9.361 -0.30 +0.00    +0.068 A  
DOCKED: ATOM     10  N   UNL     1     -42.911 -26.136  10.635 -2.57 -0.00    -0.191 NA 
DOCKED: ATOM     11  C   UNL     1     -42.802 -25.130  10.063 -0.31 +0.00    +0.101 C  
DOCKED: ENDROOT
DOCKED: BRANCH   2  12
DOCKED: ATOM     12  C   UNL     1     -42.688 -18.989   7.980 -0.07 +0.00    +0.038 C  
DOCKED: BRANCH  12  13
DOCKED: ATOM     13  C   UNL     1     -43.927 -19.379   8.784 -0.18 +0.00    +0.038 C  
DOCKED: BRANCH  13  14
DOCKED: ATOM     14  C   UNL     1     -45.201 -19.165   7.967 -0.21 +0.00    +0.251 C  
DOCKED: BRANCH  14  15
DOCKED: ATOM     15  N   UNL     1     -45.640 -17.779   8.066 -0.15 +0.00    +0.141 N  
DOCKED: ATOM     16  C   UNL     1     -45.051 -17.133   9.240 -0.06 +0.00    +0.285 C  
DOCKED: ATOM     17  C   UNL     1     -45.291 -17.039   6.852 -0.13 +0.00    +0.285 C  
DOCKED: ENDBRANCH  14  15
DOCKED: ENDBRANCH  13  14
DOCKED: ENDBRANCH  12  13
DOCKED: ENDBRANCH   2  12
DOCKED: BRANCH   2  18
DOCKED: ATOM     18  C   UNL     1     -42.257 -20.215   5.858 -0.13 +0.00    +0.006 A  
DOCKED: ATOM     19  C   UNL     1     -43.444 -19.711   5.327 -0.18 +0.00    +0.001 A  
DOCKED: ATOM     20  C   UNL     1     -43.648 -19.720   3.947 -0.20 +0.00    +0.029 A  
DOCKED: ATOM     21  C   UNL     1     -42.665 -20.230   3.100 -0.19 +0.00    +0.140 A  
DOCKED: ATOM     22  C   UNL     1     -41.478 -20.733   3.632 -0.12 +0.00    +0.029 A  
DOCKED: ATOM     23  F   UNL     1     -42.860 -20.236   1.775 -0.06 -0.00    -0.204 F  
DOCKED: ATOM     24  C   UNL     1     -41.273 -20.726   5.013 -0.10 +0.00    +0.001 A  
DOCKED: ENDBRANCH   2  18
DOCKED: TORSDOF 5
DOCKED: TER
DOCKED: ENDMDL
________________________________________________________________________________


    FINAL DOCKED STATE:
    ________________________


Run:   112 / 512
Time taken for this run:   0.002s

DOCKED: MODEL        112
DOCKED: USER    Run = 112
DOCKED: USER
DOCKED: USER    Estimated Free Energy of Binding    =  -4.27 kcal/mol  [=(1)+(2)+(3)-(4)]
DOCKED: USER
DOCKED: USER    (1) Final Intermolecular Energy     =  -5.76 kcal/mol
DOCKED: USER        vdW + Hbond + desolv Energy     =  -5.76 kcal/mol
DOCKED: USER        Electrostatic Energy            =  +0.00 kcal/mol
DOCKED: USER        Moving Ligand-Fixed Receptor    =  -5.76 kcal/mol
DOCKED: USER        Moving Ligand-Moving Receptor   =  +0.00 kcal/mol
DOCKED: USER    (2) Final Total Internal Energy     =  -1.47 kcal/mol
DOCKED: USER    (3) Torsional Free Energy           =  +1.49 kcal/mol
DOCKED: USER    (4) Unbound System's Energy         =  -1.47 kcal/mol
DOCKED: USER
DOCKED: USER
DOCKED: REMARK  5 active torsions:
DOCKED: REMARK  status: ('A' for Active; 'I' for Inactive)
DOCKED: REMARK    1  A    between atoms: C_2  and  C_19 
DOCKED: REMARK    2  A    between atoms: C_2  and  C_11 
DOCKED: REMARK    3  A    between atoms: C_19  and  C_20 
DOCKED: REMARK    4  A    between atoms: C_20  and  C_21 
DOCKED: REMARK    5  A    between atoms: C_21  and  N_22 
DOCKED: USER                              x       y       z     vdW  Elec       q    Type
DOCKED: USER                           _______ _______ _______ _____ _____    ______ ____
DOCKED: ROOT
DOCKED: ATOM      1  O   UNL     1     -50.880 -24.276  15.860 -0.06 -0.00    -0.346 OA 
DOCKED: ATOM      2  C   UNL     1     -50.179 -23.054  15.463 -0.10 +0.00    +0.130 C  
DOCKED: ATOM      3  C   UNL     1     -50.105 -23.152  13.966 -0.21 +0.00    +0.004 A  
DOCKED: ATOM      4  C   UNL     1     -50.799 -24.274  13.537 -0.26 +0.00    +0.006 A  
DOCKED: ATOM      5  C   UNL     1     -51.383 -24.979  14.700 -0.10 +0.00    +0.169 C  
DOCKED: ATOM      6  C   UNL     1     -49.483 -22.309  13.057 -0.31 -0.00    -0.001 A  
DOCKED: ATOM      7  C   UNL     1     -50.892 -24.594  12.193 -0.34 +0.00    +0.008 A  
DOCKED: ATOM      8  C   UNL     1     -49.563 -22.621  11.698 -0.22 +0.00    +0.010 A  
DOCKED: ATOM      9  C   UNL     1     -50.265 -23.757  11.269 -0.37 +0.00    +0.068 A  
DOCKED: ATOM     10  N   UNL     1     -50.400 -24.303   8.740 -2.50 -0.00    -0.191 NA 
DOCKED: ATOM     11  C   UNL     1     -50.339 -24.059   9.874 -0.36 +0.00    +0.101 C  
DOCKED: ENDROOT
DOCKED: BRANCH   2  12
DOCKED: ATOM     12  C   UNL     1     -50.990 -21.855  15.939 -0.08 +0.00    +0.038 C  
DOCKED: BRANCH  12  13
DOCKED: ATOM     13  C   UNL     1     -52.008 -22.260  17.003 -0.06 +0.00    +0.038 C  
DOCKED: BRANCH  13  14
DOCKED: ATOM     14  C   UNL     1     -51.328 -22.517  18.346 -0.01 +0.00    +0.251 C  
DOCKED: BRANCH  14  15
DOCKED: ATOM     15  N   UNL     1     -51.994 -23.604  19.053 -0.04 +0.00    +0.141 N  
DOCKED: ATOM     16  C   UNL     1     -53.092 -24.145  18.250 -0.02 +0.00    +0.285 C  
DOCKED: ATOM     17  C   UNL     1     -51.041 -24.663  19.387 -0.07 +0.00    +0.285 C  
DOCKED: ENDBRANCH  14  15
DOCKED: ENDBRANCH  13  14
DOCKED: ENDBRANCH  12  13
DOCKED: ENDBRANCH   2  12
DOCKED: BRANCH   2  18
DOCKED: ATOM     18  C   UNL     1     -48.837 -23.090  16.115 -0.13 +0.00    +0.006 A  
DOCKED: ATOM     19  C   UNL     1     -47.942 -22.038  15.925 -0.10 +0.00    +0.001 A  
DOCKED: ATOM     20  C   UNL     1     -46.687 -22.073  16.535 -0.10 +0.00    +0.029 A  
DOCKED: ATOM     21  C   UNL     1     -46.330 -23.158  17.333 -0.07 +0.00    +0.140 A  
DOCKED: ATOM     22  C   UNL     1     -47.226 -24.210  17.522 -0.04 +0.00    +0.029 A  
DOCKED: ATOM     23  F   UNL     1     -45.126 -23.190  17.920 -0.03 -0.00    -0.204 F  
DOCKED: ATOM     24  C   UNL     1     -48.481 -24.177  16.912 -0.20 +0.00    +0.001 A  
DOCKED: ENDBRANCH   2  18
DOCKED: TORSDOF 5
DOCKED: TER
DOCKED: ENDMDL
________________________________________________________________________________


    FINAL DOCKED STATE:
    ________________________


Run:   113 / 512
Time taken for this run:   0.002s

DOCKED: MODEL        113
DOCKED: USER    Run = 113
DOCKED: USER
DOCKED: USER    Estimated Free Energy of Binding    =  -5.43 kcal/mol  [=(1)+(2)+(3)-(4)]
DOCKED: USER
DOCKED: USER    (1) Final Intermolecular Energy     =  -6.92 kcal/mol
DOCKED: USER        vdW + Hbond + desolv Energy     =  -6.92 kcal/mol
DOCKED: USER        Electrostatic Energy            =  +0.00 kcal/mol
DOCKED: USER        Moving Ligand-Fixed Receptor    =  -6.92 kcal/mol
DOCKED: USER        Moving Ligand-Moving Receptor   =  +0.00 kcal/mol
DOCKED: USER    (2) Final Total Internal Energy     =  -1.57 kcal/mol
DOCKED: USER    (3) Torsional Free Energy           =  +1.49 kcal/mol
DOCKED: USER    (4) Unbound System's Energy         =  -1.57 kcal/mol
DOCKED: USER
DOCKED: USER
DOCKED: REMARK  5 active torsions:
DOCKED: REMARK  status: ('A' for Active; 'I' for Inactive)
DOCKED: REMARK    1  A    between atoms: C_2  and  C_19 
DOCKED: REMARK    2  A    between atoms: C_2  and  C_11 
DOCKED: REMARK    3  A    between atoms: C_19  and  C_20 
DOCKED: REMARK    4  A    between atoms: C_20  and  C_21 
DOCKED: REMARK    5  A    between atoms: C_21  and  N_22 
DOCKED: USER                              x       y       z     vdW  Elec       q    Type
DOCKED: USER                           _______ _______ _______ _____ _____    ______ ____
DOCKED: ROOT
DOCKED: ATOM      1  O   UNL     1     -47.961 -23.565  14.614 -0.11 -0.00    -0.346 OA 
DOCKED: ATOM      2  C   UNL     1     -49.419 -23.476  14.706 -0.17 +0.00    +0.130 C  
DOCKED: ATOM      3  C   UNL     1     -49.877 -23.603  13.282 -0.29 +0.00    +0.004 A  
DOCKED: ATOM      4  C   UNL     1     -48.787 -23.854  12.461 -0.40 +0.00    +0.006 A  
DOCKED: ATOM      5  C   UNL     1     -47.552 -23.923  13.273 -0.16 +0.00    +0.169 C  
DOCKED: ATOM      6  C   UNL     1     -51.158 -23.514  12.756 -0.30 -0.00    -0.001 A  
DOCKED: ATOM      7  C   UNL     1     -48.937 -24.020  11.095 -0.23 +0.00    +0.008 A  
DOCKED: ATOM      8  C   UNL     1     -51.325 -23.675  11.380 -0.28 +0.00    +0.010 A  
DOCKED: ATOM      9  C   UNL     1     -50.220 -23.927  10.554 -0.41 +0.00    +0.068 A  
DOCKED: ATOM     10  N   UNL     1     -50.565 -24.226   8.003 -3.15 -0.00    -0.191 NA 
DOCKED: ATOM     11  C   UNL     1     -50.410 -24.092   9.147 -0.28 +0.00    +0.101 C  
DOCKED: ENDROOT
DOCKED: BRANCH   2  12
DOCKED: ATOM     12  C   UNL     1     -49.917 -24.610  15.593 -0.26 +0.00    +0.038 C  
DOCKED: BRANCH  12  13
DOCKED: ATOM     13  C   UNL     1     -48.756 -25.373  16.227 -0.19 +0.00    +0.038 C  
DOCKED: BRANCH  13  14
DOCKED: ATOM     14  C   UNL     1     -48.563 -24.966  17.687 -0.16 +0.00    +0.251 C  
DOCKED: BRANCH  14  15
DOCKED: ATOM     15  N   UNL     1     -48.253 -23.545  17.780 -0.09 +0.00    +0.141 N  
DOCKED: ATOM     16  C   UNL     1     -48.653 -23.014  19.084 -0.02 +0.00    +0.285 C  
DOCKED: ATOM     17  C   UNL     1     -46.825 -23.312  17.554 -0.07 +0.00    +0.285 C  
DOCKED: ENDBRANCH  14  15
DOCKED: ENDBRANCH  13  14
DOCKED: ENDBRANCH  12  13
DOCKED: ENDBRANCH   2  12
DOCKED: BRANCH   2  18
DOCKED: ATOM     18  C   UNL     1     -49.737 -22.146  15.303 -0.10 +0.00    +0.006 A  
DOCKED: ATOM     19  C   UNL     1     -48.812 -21.106  15.221 -0.10 +0.00    +0.001 A  
DOCKED: ATOM     20  C   UNL     1     -49.111 -19.863  15.781 -0.04 +0.00    +0.029 A  
DOCKED: ATOM     21  C   UNL     1     -50.334 -19.661  16.419 -0.01 +0.00    +0.140 A  
DOCKED: ATOM     22  C   UNL     1     -51.259 -20.702  16.500 -0.03 +0.00    +0.029 A  
DOCKED: ATOM     23  F   UNL     1     -50.621 -18.467  16.954 +0.00 -0.00    -0.204 F  
DOCKED: ATOM     24  C   UNL     1     -50.961 -21.946  15.941 -0.07 +0.00    +0.001 A  
DOCKED: ENDBRANCH   2  18
DOCKED: TORSDOF 5
DOCKED: TER
DOCKED: ENDMDL
________________________________________________________________________________


    FINAL DOCKED STATE:
    ________________________


Run:   114 / 512
Time taken for this run:   0.002s

DOCKED: MODEL        114
DOCKED: USER    Run = 114
DOCKED: USER
DOCKED: USER    Estimated Free Energy of Binding    =  -4.20 kcal/mol  [=(1)+(2)+(3)-(4)]
DOCKED: USER
DOCKED: USER    (1) Final Intermolecular Energy     =  -5.69 kcal/mol
DOCKED: USER        vdW + Hbond + desolv Energy     =  -5.69 kcal/mol
DOCKED: USER        Electrostatic Energy            =  +0.00 kcal/mol
DOCKED: USER        Moving Ligand-Fixed Receptor    =  -5.69 kcal/mol
DOCKED: USER        Moving Ligand-Moving Receptor   =  +0.00 kcal/mol
DOCKED: USER    (2) Final Total Internal Energy     =  -1.54 kcal/mol
DOCKED: USER    (3) Torsional Free Energy           =  +1.49 kcal/mol
DOCKED: USER    (4) Unbound System's Energy         =  -1.54 kcal/mol
DOCKED: USER
DOCKED: USER
DOCKED: REMARK  5 active torsions:
DOCKED: REMARK  status: ('A' for Active; 'I' for Inactive)
DOCKED: REMARK    1  A    between atoms: C_2  and  C_19 
DOCKED: REMARK    2  A    between atoms: C_2  and  C_11 
DOCKED: REMARK    3  A    between atoms: C_19  and  C_20 
DOCKED: REMARK    4  A    between atoms: C_20  and  C_21 
DOCKED: REMARK    5  A    between atoms: C_21  and  N_22 
DOCKED: USER                              x       y       z     vdW  Elec       q    Type
DOCKED: USER                           _______ _______ _______ _____ _____    ______ ____
DOCKED: ROOT
DOCKED: ATOM      1  O   UNL     1     -46.685 -15.523   8.086 -0.10 -0.00    -0.346 OA 
DOCKED: ATOM      2  C   UNL     1     -45.343 -15.185   7.610 -0.18 +0.00    +0.130 C  
DOCKED: ATOM      3  C   UNL     1     -45.587 -14.528   6.282 -0.21 +0.00    +0.004 A  
DOCKED: ATOM      4  C   UNL     1     -46.953 -14.401   6.068 -0.21 +0.00    +0.006 A  
DOCKED: ATOM      5  C   UNL     1     -47.695 -14.945   7.227 +0.02 +0.00    +0.169 C  
DOCKED: ATOM      6  C   UNL     1     -44.675 -14.069   5.344 -0.20 -0.00    -0.001 A  
DOCKED: ATOM      7  C   UNL     1     -47.450 -13.819   4.915 -0.26 +0.00    +0.008 A  
DOCKED: ATOM      8  C   UNL     1     -45.161 -13.483   4.174 -0.28 +0.00    +0.010 A  
DOCKED: ATOM      9  C   UNL     1     -46.542 -13.359   3.961 -0.35 +0.00    +0.068 A  
DOCKED: ATOM     10  N   UNL     1     -47.411 -12.262   1.780 -2.35 -0.00    -0.191 NA 
DOCKED: ATOM     11  C   UNL     1     -47.021 -12.755   2.758 -0.38 +0.00    +0.101 C  
DOCKED: ENDROOT
DOCKED: BRANCH   2  12
DOCKED: ATOM     12  C   UNL     1     -44.692 -14.251   8.623 -0.14 +0.00    +0.038 C  
DOCKED: BRANCH  12  13
DOCKED: ATOM     13  C   UNL     1     -45.682 -13.829   9.708 -0.19 +0.00    +0.038 C  
DOCKED: BRANCH  13  14
DOCKED: ATOM     14  C   UNL     1     -45.490 -14.655  10.978 -0.08 +0.00    +0.251 C  
DOCKED: BRANCH  14  15
DOCKED: ATOM     15  N   UNL     1     -44.968 -15.977  10.650 -0.05 +0.00    +0.141 N  
DOCKED: ATOM     16  C   UNL     1     -43.719 -16.232  11.369 -0.02 +0.00    +0.285 C  
DOCKED: ATOM     17  C   UNL     1     -45.954 -17.013  10.962 -0.06 +0.00    +0.285 C  
DOCKED: ENDBRANCH  14  15
DOCKED: ENDBRANCH  13  14
DOCKED: ENDBRANCH  12  13
DOCKED: ENDBRANCH   2  12
DOCKED: BRANCH   2  18
DOCKED: ATOM     18  C   UNL     1     -44.585 -16.465   7.494 -0.11 +0.00    +0.006 A  
DOCKED: ATOM     19  C   UNL     1     -45.272 -17.676   7.413 -0.19 +0.00    +0.001 A  
DOCKED: ATOM     20  C   UNL     1     -44.562 -18.873   7.305 -0.20 +0.00    +0.029 A  
DOCKED: ATOM     21  C   UNL     1     -43.169 -18.857   7.278 -0.08 +0.00    +0.140 A  
DOCKED: ATOM     22  C   UNL     1     -42.483 -17.646   7.359 -0.03 +0.00    +0.029 A  
DOCKED: ATOM     23  F   UNL     1     -42.488 -20.006   7.173 -0.02 -0.00    -0.204 F  
DOCKED: ATOM     24  C   UNL     1     -43.191 -16.448   7.468 -0.05 +0.00    +0.001 A  
DOCKED: ENDBRANCH   2  18
DOCKED: TORSDOF 5
DOCKED: TER
DOCKED: ENDMDL
________________________________________________________________________________


    FINAL DOCKED STATE:
    ________________________


Run:   115 / 512
Time taken for this run:   0.002s

DOCKED: MODEL        115
DOCKED: USER    Run = 115
DOCKED: USER
DOCKED: USER    Estimated Free Energy of Binding    =  -3.73 kcal/mol  [=(1)+(2)+(3)-(4)]
DOCKED: USER
DOCKED: USER    (1) Final Intermolecular Energy     =  -5.22 kcal/mol
DOCKED: USER        vdW + Hbond + desolv Energy     =  -5.22 kcal/mol
DOCKED: USER        Electrostatic Energy            =  +0.00 kcal/mol
DOCKED: USER        Moving Ligand-Fixed Receptor    =  -5.22 kcal/mol
DOCKED: USER        Moving Ligand-Moving Receptor   =  +0.00 kcal/mol
DOCKED: USER    (2) Final Total Internal Energy     =  -1.38 kcal/mol
DOCKED: USER    (3) Torsional Free Energy           =  +1.49 kcal/mol
DOCKED: USER    (4) Unbound System's Energy         =  -1.38 kcal/mol
DOCKED: USER
DOCKED: USER
DOCKED: REMARK  5 active torsions:
DOCKED: REMARK  status: ('A' for Active; 'I' for Inactive)
DOCKED: REMARK    1  A    between atoms: C_2  and  C_19 
DOCKED: REMARK    2  A    between atoms: C_2  and  C_11 
DOCKED: REMARK    3  A    between atoms: C_19  and  C_20 
DOCKED: REMARK    4  A    between atoms: C_20  and  C_21 
DOCKED: REMARK    5  A    between atoms: C_21  and  N_22 
DOCKED: USER                              x       y       z     vdW  Elec       q    Type
DOCKED: USER                           _______ _______ _______ _____ _____    ______ ____
DOCKED: ROOT
DOCKED: ATOM      1  O   UNL     1     -47.430 -20.152  15.663 -0.01 -0.00    -0.346 OA 
DOCKED: ATOM      2  C   UNL     1     -48.560 -19.675  14.865 -0.09 +0.00    +0.130 C  
DOCKED: ATOM      3  C   UNL     1     -49.029 -20.902  14.138 -0.19 +0.00    +0.004 A  
DOCKED: ATOM      4  C   UNL     1     -48.303 -22.005  14.566 -0.19 +0.00    +0.006 A  
DOCKED: ATOM      5  C   UNL     1     -47.327 -21.593  15.599 -0.10 +0.00    +0.169 C  
DOCKED: ATOM      6  C   UNL     1     -50.026 -21.034  13.182 -0.21 -0.00    -0.001 A  
DOCKED: ATOM      7  C   UNL     1     -48.544 -23.269  14.054 -0.28 +0.00    +0.008 A  
DOCKED: ATOM      8  C   UNL     1     -50.277 -22.301  12.653 -0.17 +0.00    +0.010 A  
DOCKED: ATOM      9  C   UNL     1     -49.540 -23.413  13.088 -0.27 +0.00    +0.068 A  
DOCKED: ATOM     10  N   UNL     1     -50.036 -25.752  12.090 -2.61 -0.00    -0.191 NA 
DOCKED: ATOM     11  C   UNL     1     -49.813 -24.703  12.537 -0.32 +0.00    +0.101 C  
DOCKED: ENDROOT
DOCKED: BRANCH   2  12
DOCKED: ATOM     12  C   UNL     1     -49.612 -19.107  15.809 -0.05 +0.00    +0.038 C  
DOCKED: BRANCH  12  13
DOCKED: ATOM     13  C   UNL     1     -49.028 -18.013  16.701 -0.02 +0.00    +0.038 C  
DOCKED: BRANCH  13  14
DOCKED: ATOM     14  C   UNL     1     -48.443 -18.603  17.982 -0.00 +0.00    +0.251 C  
DOCKED: BRANCH  14  15
DOCKED: ATOM     15  N   UNL     1     -47.290 -17.825  18.419 -0.00 +0.00    +0.141 N  
DOCKED: ATOM     16  C   UNL     1     -46.597 -18.501  19.517 +0.00 +0.00    +0.285 C  
DOCKED: ATOM     17  C   UNL     1     -46.370 -17.597  17.303 -0.00 +0.00    +0.285 C  
DOCKED: ENDBRANCH  14  15
DOCKED: ENDBRANCH  13  14
DOCKED: ENDBRANCH  12  13
DOCKED: ENDBRANCH   2  12
DOCKED: BRANCH   2  18
DOCKED: ATOM     18  C   UNL     1     -48.033 -18.622  13.948 -0.13 +0.00    +0.006 A  
DOCKED: ATOM     19  C   UNL     1     -46.666 -18.546  13.687 -0.12 +0.00    +0.001 A  
DOCKED: ATOM     20  C   UNL     1     -46.175 -17.560  12.830 -0.09 +0.00    +0.029 A  
DOCKED: ATOM     21  C   UNL     1     -47.051 -16.653  12.236 -0.07 +0.00    +0.140 A  
DOCKED: ATOM     22  C   UNL     1     -48.419 -16.730  12.497 -0.13 +0.00    +0.029 A  
DOCKED: ATOM     23  F   UNL     1     -46.579 -15.708  11.412 -0.01 -0.00    -0.204 F  
DOCKED: ATOM     24  C   UNL     1     -48.911 -17.715  13.355 -0.15 +0.00    +0.001 A  
DOCKED: ENDBRANCH   2  18
DOCKED: TORSDOF 5
DOCKED: TER
DOCKED: ENDMDL
________________________________________________________________________________


    FINAL DOCKED STATE:
    ________________________


Run:   116 / 512
Time taken for this run:   0.002s

DOCKED: MODEL        116
DOCKED: USER    Run = 116
DOCKED: USER
DOCKED: USER    Estimated Free Energy of Binding    =  -4.49 kcal/mol  [=(1)+(2)+(3)-(4)]
DOCKED: USER
DOCKED: USER    (1) Final Intermolecular Energy     =  -5.99 kcal/mol
DOCKED: USER        vdW + Hbond + desolv Energy     =  -5.99 kcal/mol
DOCKED: USER        Electrostatic Energy            =  +0.00 kcal/mol
DOCKED: USER        Moving Ligand-Fixed Receptor    =  -5.99 kcal/mol
DOCKED: USER        Moving Ligand-Moving Receptor   =  +0.00 kcal/mol
DOCKED: USER    (2) Final Total Internal Energy     =  -1.17 kcal/mol
DOCKED: USER    (3) Torsional Free Energy           =  +1.49 kcal/mol
DOCKED: USER    (4) Unbound System's Energy         =  -1.17 kcal/mol
DOCKED: USER
DOCKED: USER
DOCKED: REMARK  5 active torsions:
DOCKED: REMARK  status: ('A' for Active; 'I' for Inactive)
DOCKED: REMARK    1  A    between atoms: C_2  and  C_19 
DOCKED: REMARK    2  A    between atoms: C_2  and  C_11 
DOCKED: REMARK    3  A    between atoms: C_19  and  C_20 
DOCKED: REMARK    4  A    between atoms: C_20  and  C_21 
DOCKED: REMARK    5  A    between atoms: C_21  and  N_22 
DOCKED: USER                              x       y       z     vdW  Elec       q    Type
DOCKED: USER                           _______ _______ _______ _____ _____    ______ ____
DOCKED: ROOT
DOCKED: ATOM      1  O   UNL     1     -48.080 -19.102  13.547 -0.08 -0.00    -0.346 OA 
DOCKED: ATOM      2  C   UNL     1     -49.351 -19.325  14.237 -0.15 +0.00    +0.130 C  
DOCKED: ATOM      3  C   UNL     1     -49.726 -20.728  13.857 -0.22 +0.00    +0.004 A  
DOCKED: ATOM      4  C   UNL     1     -48.706 -21.296  13.107 -0.28 +0.00    +0.006 A  
DOCKED: ATOM      5  C   UNL     1     -47.597 -20.328  12.951 -0.12 +0.00    +0.169 C  
DOCKED: ATOM      6  C   UNL     1     -50.872 -21.448  14.160 -0.18 -0.00    -0.001 A  
DOCKED: ATOM      7  C   UNL     1     -48.797 -22.594  12.633 -0.34 +0.00    +0.008 A  
DOCKED: ATOM      8  C   UNL     1     -50.981 -22.756  13.686 -0.21 +0.00    +0.010 A  
DOCKED: ATOM      9  C   UNL     1     -49.949 -23.326  12.926 -0.26 +0.00    +0.068 A  
DOCKED: ATOM     10  N   UNL     1     -50.181 -25.759  12.066 -2.57 -0.00    -0.191 NA 
DOCKED: ATOM     11  C   UNL     1     -50.077 -24.668  12.451 -0.36 +0.00    +0.101 C  
DOCKED: ENDROOT
DOCKED: BRANCH   2  12
DOCKED: ATOM     12  C   UNL     1     -49.124 -19.156  15.735 -0.05 +0.00    +0.038 C  
DOCKED: BRANCH  12  13
DOCKED: ATOM     13  C   UNL     1     -47.714 -18.647  16.030 -0.03 +0.00    +0.038 C  
DOCKED: BRANCH  13  14
DOCKED: ATOM     14  C   UNL     1     -47.229 -19.134  17.394 -0.00 +0.00    +0.251 C  
DOCKED: BRANCH  14  15
DOCKED: ATOM     15  N   UNL     1     -46.624 -20.455  17.276 -0.02 +0.00    +0.141 N  
DOCKED: ATOM     16  C   UNL     1     -47.576 -21.495  17.666 -0.01 +0.00    +0.285 C  
DOCKED: ATOM     17  C   UNL     1     -46.152 -20.686  15.909 -0.05 +0.00    +0.285 C  
DOCKED: ENDBRANCH  14  15
DOCKED: ENDBRANCH  13  14
DOCKED: ENDBRANCH  12  13
DOCKED: ENDBRANCH   2  12
DOCKED: BRANCH   2  18
DOCKED: ATOM     18  C   UNL     1     -50.312 -18.306  13.721 -0.20 +0.00    +0.006 A  
DOCKED: ATOM     19  C   UNL     1     -49.844 -17.207  13.002 -0.18 +0.00    +0.001 A  
DOCKED: ATOM     20  C   UNL     1     -50.743 -16.256  12.520 -0.16 +0.00    +0.029 A  
DOCKED: ATOM     21  C   UNL     1     -52.109 -16.404  12.758 -0.12 +0.00    +0.140 A  
DOCKED: ATOM     22  C   UNL     1     -52.577 -17.504  13.477 -0.18 +0.00    +0.029 A  
DOCKED: ATOM     23  F   UNL     1     -52.973 -15.491  12.294 -0.02 -0.00    -0.204 F  
DOCKED: ATOM     24  C   UNL     1     -51.678 -18.456  13.959 -0.20 +0.00    +0.001 A  
DOCKED: ENDBRANCH   2  18
DOCKED: TORSDOF 5
DOCKED: TER
DOCKED: ENDMDL
________________________________________________________________________________


    FINAL DOCKED STATE:
    ________________________


Run:   117 / 512
Time taken for this run:   0.002s

DOCKED: MODEL        117
DOCKED: USER    Run = 117
DOCKED: USER
DOCKED: USER    Estimated Free Energy of Binding    =  -4.52 kcal/mol  [=(1)+(2)+(3)-(4)]
DOCKED: USER
DOCKED: USER    (1) Final Intermolecular Energy     =  -6.02 kcal/mol
DOCKED: USER        vdW + Hbond + desolv Energy     =  -6.02 kcal/mol
DOCKED: USER        Electrostatic Energy            =  +0.00 kcal/mol
DOCKED: USER        Moving Ligand-Fixed Receptor    =  -6.02 kcal/mol
DOCKED: USER        Moving Ligand-Moving Receptor   =  +0.00 kcal/mol
DOCKED: USER    (2) Final Total Internal Energy     =  -1.18 kcal/mol
DOCKED: USER    (3) Torsional Free Energy           =  +1.49 kcal/mol
DOCKED: USER    (4) Unbound System's Energy         =  -1.18 kcal/mol
DOCKED: USER
DOCKED: USER
DOCKED: REMARK  5 active torsions:
DOCKED: REMARK  status: ('A' for Active; 'I' for Inactive)
DOCKED: REMARK    1  A    between atoms: C_2  and  C_19 
DOCKED: REMARK    2  A    between atoms: C_2  and  C_11 
DOCKED: REMARK    3  A    between atoms: C_19  and  C_20 
DOCKED: REMARK    4  A    between atoms: C_20  and  C_21 
DOCKED: REMARK    5  A    between atoms: C_21  and  N_22 
DOCKED: USER                              x       y       z     vdW  Elec       q    Type
DOCKED: USER                           _______ _______ _______ _____ _____    ______ ____
DOCKED: ROOT
DOCKED: ATOM      1  O   UNL     1     -48.523 -21.541  15.609 -0.01 -0.00    -0.346 OA 
DOCKED: ATOM      2  C   UNL     1     -47.550 -22.613  15.394 -0.16 +0.00    +0.130 C  
DOCKED: ATOM      3  C   UNL     1     -48.031 -23.290  14.143 -0.30 +0.00    +0.004 A  
DOCKED: ATOM      4  C   UNL     1     -49.118 -22.599  13.627 -0.27 +0.00    +0.006 A  
DOCKED: ATOM      5  C   UNL     1     -49.420 -21.427  14.479 -0.13 +0.00    +0.169 C  
DOCKED: ATOM      6  C   UNL     1     -47.539 -24.420  13.507 -0.35 -0.00    -0.001 A  
DOCKED: ATOM      7  C   UNL     1     -49.751 -23.013  12.467 -0.35 +0.00    +0.008 A  
DOCKED: ATOM      8  C   UNL     1     -48.169 -24.853  12.339 -0.29 +0.00    +0.010 A  
DOCKED: ATOM      9  C   UNL     1     -49.269 -24.152  11.821 -0.40 +0.00    +0.068 A  
DOCKED: ATOM     10  N   UNL     1     -50.410 -24.980   9.647 -1.45 -0.00    -0.191 NA 
DOCKED: ATOM     11  C   UNL     1     -49.899 -24.609  10.623 -0.52 +0.00    +0.101 C  
DOCKED: ENDROOT
DOCKED: BRANCH   2  12
DOCKED: ATOM     12  C   UNL     1     -46.169 -21.987  15.236 -0.19 +0.00    +0.038 C  
DOCKED: BRANCH  12  13
DOCKED: ATOM     13  C   UNL     1     -46.261 -20.472  15.064 -0.12 +0.00    +0.038 C  
DOCKED: BRANCH  13  14
DOCKED: ATOM     14  C   UNL     1     -46.526 -20.099  13.606 -0.12 +0.00    +0.251 C  
DOCKED: BRANCH  14  15
DOCKED: ATOM     15  N   UNL     1     -46.885 -18.690  13.500 -0.11 +0.00    +0.141 N  
DOCKED: ATOM     16  C   UNL     1     -46.092 -18.033  12.460 -0.09 +0.00    +0.285 C  
DOCKED: ATOM     17  C   UNL     1     -48.314 -18.542  13.217 -0.10 +0.00    +0.285 C  
DOCKED: ENDBRANCH  14  15
DOCKED: ENDBRANCH  13  14
DOCKED: ENDBRANCH  12  13
DOCKED: ENDBRANCH   2  12
DOCKED: BRANCH   2  18
DOCKED: ATOM     18  C   UNL     1     -47.605 -23.499  16.593 -0.15 +0.00    +0.006 A  
DOCKED: ATOM     19  C   UNL     1     -48.527 -24.544  16.645 -0.24 +0.00    +0.001 A  
DOCKED: ATOM     20  C   UNL     1     -48.578 -25.372  17.767 -0.14 +0.00    +0.029 A  
DOCKED: ATOM     21  C   UNL     1     -47.707 -25.154  18.834 -0.18 +0.00    +0.140 A  
DOCKED: ATOM     22  C   UNL     1     -46.786 -24.109  18.781 -0.15 +0.00    +0.029 A  
DOCKED: ATOM     23  F   UNL     1     -47.755 -25.950  19.911 -0.06 -0.00    -0.204 F  
DOCKED: ATOM     24  C   UNL     1     -46.734 -23.280  17.659 -0.12 +0.00    +0.001 A  
DOCKED: ENDBRANCH   2  18
DOCKED: TORSDOF 5
DOCKED: TER
DOCKED: ENDMDL
________________________________________________________________________________


    FINAL DOCKED STATE:
    ________________________


Run:   118 / 512
Time taken for this run:   0.002s

DOCKED: MODEL        118
DOCKED: USER    Run = 118
DOCKED: USER
DOCKED: USER    Estimated Free Energy of Binding    =  -3.84 kcal/mol  [=(1)+(2)+(3)-(4)]
DOCKED: USER
DOCKED: USER    (1) Final Intermolecular Energy     =  -5.34 kcal/mol
DOCKED: USER        vdW + Hbond + desolv Energy     =  -5.34 kcal/mol
DOCKED: USER        Electrostatic Energy            =  +0.00 kcal/mol
DOCKED: USER        Moving Ligand-Fixed Receptor    =  -5.34 kcal/mol
DOCKED: USER        Moving Ligand-Moving Receptor   =  +0.00 kcal/mol
DOCKED: USER    (2) Final Total Internal Energy     =  -1.48 kcal/mol
DOCKED: USER    (3) Torsional Free Energy           =  +1.49 kcal/mol
DOCKED: USER    (4) Unbound System's Energy         =  -1.48 kcal/mol
DOCKED: USER
DOCKED: USER
DOCKED: REMARK  5 active torsions:
DOCKED: REMARK  status: ('A' for Active; 'I' for Inactive)
DOCKED: REMARK    1  A    between atoms: C_2  and  C_19 
DOCKED: REMARK    2  A    between atoms: C_2  and  C_11 
DOCKED: REMARK    3  A    between atoms: C_19  and  C_20 
DOCKED: REMARK    4  A    between atoms: C_20  and  C_21 
DOCKED: REMARK    5  A    between atoms: C_21  and  N_22 
DOCKED: USER                              x       y       z     vdW  Elec       q    Type
DOCKED: USER                           _______ _______ _______ _____ _____    ______ ____
DOCKED: ROOT
DOCKED: ATOM      1  O   UNL     1     -46.712 -22.652  16.970 -0.05 -0.00    -0.346 OA 
DOCKED: ATOM      2  C   UNL     1     -46.665 -21.725  15.839 -0.12 +0.00    +0.130 C  
DOCKED: ATOM      3  C   UNL     1     -47.525 -22.383  14.799 -0.21 +0.00    +0.004 A  
DOCKED: ATOM      4  C   UNL     1     -48.103 -23.528  15.328 -0.21 +0.00    +0.006 A  
DOCKED: ATOM      5  C   UNL     1     -47.682 -23.699  16.737 -0.12 +0.00    +0.169 C  
DOCKED: ATOM      6  C   UNL     1     -47.786 -21.993  13.494 -0.23 -0.00    -0.001 A  
DOCKED: ATOM      7  C   UNL     1     -48.952 -24.321  14.575 -0.28 +0.00    +0.008 A  
DOCKED: ATOM      8  C   UNL     1     -48.636 -22.784  12.720 -0.34 +0.00    +0.010 A  
DOCKED: ATOM      9  C   UNL     1     -49.216 -23.942  13.258 -0.29 +0.00    +0.068 A  
DOCKED: ATOM     10  N   UNL     1     -50.795 -25.386  11.796 -2.10 -0.00    -0.191 NA 
DOCKED: ATOM     11  C   UNL     1     -50.086 -24.739  12.452 -0.33 +0.00    +0.101 C  
DOCKED: ENDROOT
DOCKED: BRANCH   2  12
DOCKED: ATOM     12  C   UNL     1     -47.211 -20.377  16.295 -0.05 +0.00    +0.038 C  
DOCKED: BRANCH  12  13
DOCKED: ATOM     13  C   UNL     1     -48.449 -20.547  17.173 -0.03 +0.00    +0.038 C  
DOCKED: BRANCH  13  14
DOCKED: ATOM     14  C   UNL     1     -49.670 -19.887  16.534 -0.01 +0.00    +0.251 C  
DOCKED: BRANCH  14  15
DOCKED: ATOM     15  N   UNL     1     -50.053 -20.598  15.320 -0.05 +0.00    +0.141 N  
DOCKED: ATOM     16  C   UNL     1     -51.302 -21.332  15.524 -0.02 +0.00    +0.285 C  
DOCKED: ATOM     17  C   UNL     1     -50.188 -19.666  14.199 -0.13 +0.00    +0.285 C  
DOCKED: ENDBRANCH  14  15
DOCKED: ENDBRANCH  13  14
DOCKED: ENDBRANCH  12  13
DOCKED: ENDBRANCH   2  12
DOCKED: BRANCH   2  18
DOCKED: ATOM     18  C   UNL     1     -45.235 -21.614  15.425 -0.15 +0.00    +0.006 A  
DOCKED: ATOM     19  C   UNL     1     -44.337 -22.633  15.742 -0.17 +0.00    +0.001 A  
DOCKED: ATOM     20  C   UNL     1     -43.001 -22.527  15.354 -0.14 +0.00    +0.029 A  
DOCKED: ATOM     21  C   UNL     1     -42.565 -21.406  14.650 -0.08 +0.00    +0.140 A  
DOCKED: ATOM     22  C   UNL     1     -43.464 -20.388  14.333 -0.10 +0.00    +0.029 A  
DOCKED: ATOM     23  F   UNL     1     -41.282 -21.306  14.277 -0.00 -0.00    -0.204 F  
DOCKED: ATOM     24  C   UNL     1     -44.801 -20.492  14.721 -0.12 +0.00    +0.001 A  
DOCKED: ENDBRANCH   2  18
DOCKED: TORSDOF 5
DOCKED: TER
DOCKED: ENDMDL
________________________________________________________________________________


    FINAL DOCKED STATE:
    ________________________


Run:   119 / 512
Time taken for this run:   0.002s

DOCKED: MODEL        119
DOCKED: USER    Run = 119
DOCKED: USER
DOCKED: USER    Estimated Free Energy of Binding    =  -5.44 kcal/mol  [=(1)+(2)+(3)-(4)]
DOCKED: USER
DOCKED: USER    (1) Final Intermolecular Energy     =  -6.93 kcal/mol
DOCKED: USER        vdW + Hbond + desolv Energy     =  -6.93 kcal/mol
DOCKED: USER        Electrostatic Energy            =  +0.00 kcal/mol
DOCKED: USER        Moving Ligand-Fixed Receptor    =  -6.93 kcal/mol
DOCKED: USER        Moving Ligand-Moving Receptor   =  +0.00 kcal/mol
DOCKED: USER    (2) Final Total Internal Energy     =  -1.03 kcal/mol
DOCKED: USER    (3) Torsional Free Energy           =  +1.49 kcal/mol
DOCKED: USER    (4) Unbound System's Energy         =  -1.03 kcal/mol
DOCKED: USER
DOCKED: USER
DOCKED: REMARK  5 active torsions:
DOCKED: REMARK  status: ('A' for Active; 'I' for Inactive)
DOCKED: REMARK    1  A    between atoms: C_2  and  C_19 
DOCKED: REMARK    2  A    between atoms: C_2  and  C_11 
DOCKED: REMARK    3  A    between atoms: C_19  and  C_20 
DOCKED: REMARK    4  A    between atoms: C_20  and  C_21 
DOCKED: REMARK    5  A    between atoms: C_21  and  N_22 
DOCKED: USER                              x       y       z     vdW  Elec       q    Type
DOCKED: USER                           _______ _______ _______ _____ _____    ______ ____
DOCKED: ROOT
DOCKED: ATOM      1  O   UNL     1     -51.837 -22.768  14.971 -0.00 -0.00    -0.346 OA 
DOCKED: ATOM      2  C   UNL     1     -50.476 -22.321  14.674 -0.12 +0.00    +0.130 C  
DOCKED: ATOM      3  C   UNL     1     -50.262 -22.742  13.249 -0.26 +0.00    +0.004 A  
DOCKED: ATOM      4  C   UNL     1     -51.435 -23.282  12.741 -0.28 +0.00    +0.006 A  
DOCKED: ATOM      5  C   UNL     1     -52.494 -23.245  13.774 -0.17 +0.00    +0.169 C  
DOCKED: ATOM      6  C   UNL     1     -49.124 -22.644  12.462 -0.36 -0.00    -0.001 A  
DOCKED: ATOM      7  C   UNL     1     -51.510 -23.745  11.438 -0.27 +0.00    +0.008 A  
DOCKED: ATOM      8  C   UNL     1     -49.182 -23.110  11.147 -0.24 +0.00    +0.010 A  
DOCKED: ATOM      9  C   UNL     1     -50.369 -23.657  10.638 -0.34 +0.00    +0.068 A  
DOCKED: ATOM     10  N   UNL     1     -50.445 -24.508   8.192 -2.77 -0.00    -0.191 NA 
DOCKED: ATOM     11  C   UNL     1     -50.411 -24.127   9.290 -0.27 +0.00    +0.101 C  
DOCKED: ENDROOT
DOCKED: BRANCH   2  12
DOCKED: ATOM     12  C   UNL     1     -50.412 -20.810  14.862 -0.13 +0.00    +0.038 C  
DOCKED: BRANCH  12  13
DOCKED: ATOM     13  C   UNL     1     -50.812 -20.072  13.586 -0.25 +0.00    +0.038 C  
DOCKED: BRANCH  13  14
DOCKED: ATOM     14  C   UNL     1     -51.559 -18.779  13.910 -0.16 +0.00    +0.251 C  
DOCKED: BRANCH  14  15
DOCKED: ATOM     15  N   UNL     1     -50.786 -17.624  13.471 -0.17 +0.00    +0.141 N  
DOCKED: ATOM     16  C   UNL     1     -50.830 -16.561  14.477 -0.04 +0.00    +0.285 C  
DOCKED: ATOM     17  C   UNL     1     -49.400 -18.005  13.195 -0.13 +0.00    +0.285 C  
DOCKED: ENDBRANCH  14  15
DOCKED: ENDBRANCH  13  14
DOCKED: ENDBRANCH  12  13
DOCKED: ENDBRANCH   2  12
DOCKED: BRANCH   2  18
DOCKED: ATOM     18  C   UNL     1     -49.568 -23.021  15.630 -0.12 +0.00    +0.006 A  
DOCKED: ATOM     19  C   UNL     1     -48.225 -22.657  15.709 -0.14 +0.00    +0.001 A  
DOCKED: ATOM     20  C   UNL     1     -47.377 -23.313  16.603 -0.13 +0.00    +0.029 A  
DOCKED: ATOM     21  C   UNL     1     -47.874 -24.330  17.416 -0.14 +0.00    +0.140 A  
DOCKED: ATOM     22  C   UNL     1     -49.218 -24.693  17.337 -0.18 +0.00    +0.029 A  
DOCKED: ATOM     23  F   UNL     1     -47.061 -24.958  18.275 -0.07 -0.00    -0.204 F  
DOCKED: ATOM     24  C   UNL     1     -50.067 -24.038  16.443 -0.16 +0.00    +0.001 A  
DOCKED: ENDBRANCH   2  18
DOCKED: TORSDOF 5
DOCKED: TER
DOCKED: ENDMDL
________________________________________________________________________________


    FINAL DOCKED STATE:
    ________________________


Run:   120 / 512
Time taken for this run:   0.002s

DOCKED: MODEL        120
DOCKED: USER    Run = 120
DOCKED: USER
DOCKED: USER    Estimated Free Energy of Binding    =  -4.59 kcal/mol  [=(1)+(2)+(3)-(4)]
DOCKED: USER
DOCKED: USER    (1) Final Intermolecular Energy     =  -6.08 kcal/mol
DOCKED: USER        vdW + Hbond + desolv Energy     =  -6.08 kcal/mol
DOCKED: USER        Electrostatic Energy            =  +0.00 kcal/mol
DOCKED: USER        Moving Ligand-Fixed Receptor    =  -6.08 kcal/mol
DOCKED: USER        Moving Ligand-Moving Receptor   =  +0.00 kcal/mol
DOCKED: USER    (2) Final Total Internal Energy     =  -1.38 kcal/mol
DOCKED: USER    (3) Torsional Free Energy           =  +1.49 kcal/mol
DOCKED: USER    (4) Unbound System's Energy         =  -1.38 kcal/mol
DOCKED: USER
DOCKED: USER
DOCKED: REMARK  5 active torsions:
DOCKED: REMARK  status: ('A' for Active; 'I' for Inactive)
DOCKED: REMARK    1  A    between atoms: C_2  and  C_19 
DOCKED: REMARK    2  A    between atoms: C_2  and  C_11 
DOCKED: REMARK    3  A    between atoms: C_19  and  C_20 
DOCKED: REMARK    4  A    between atoms: C_20  and  C_21 
DOCKED: REMARK    5  A    between atoms: C_21  and  N_22 
DOCKED: USER                              x       y       z     vdW  Elec       q    Type
DOCKED: USER                           _______ _______ _______ _____ _____    ______ ____
DOCKED: ROOT
DOCKED: ATOM      1  O   UNL     1     -46.346 -15.524   7.726 -0.09 -0.00    -0.346 OA 
DOCKED: ATOM      2  C   UNL     1     -45.031 -15.170   7.188 -0.17 +0.00    +0.130 C  
DOCKED: ATOM      3  C   UNL     1     -45.347 -14.487   5.888 -0.23 +0.00    +0.004 A  
DOCKED: ATOM      4  C   UNL     1     -46.721 -14.362   5.748 -0.23 +0.00    +0.006 A  
DOCKED: ATOM      5  C   UNL     1     -47.401 -14.933   6.933 -0.12 +0.00    +0.169 C  
DOCKED: ATOM      6  C   UNL     1     -44.485 -14.005   4.914 -0.21 -0.00    -0.001 A  
DOCKED: ATOM      7  C   UNL     1     -47.280 -13.758   4.635 -0.37 +0.00    +0.008 A  
DOCKED: ATOM      8  C   UNL     1     -45.033 -13.397   3.783 -0.27 +0.00    +0.010 A  
DOCKED: ATOM      9  C   UNL     1     -46.424 -13.274   3.645 -0.33 +0.00    +0.068 A  
DOCKED: ATOM     10  N   UNL     1     -47.408 -12.137   1.535 -2.49 -0.00    -0.191 NA 
DOCKED: ATOM     11  C   UNL     1     -46.967 -12.648   2.481 -0.39 +0.00    +0.101 C  
DOCKED: ENDROOT
DOCKED: BRANCH   2  12
DOCKED: ATOM     12  C   UNL     1     -44.332 -14.255   8.185 -0.12 +0.00    +0.038 C  
DOCKED: BRANCH  12  13
DOCKED: ATOM     13  C   UNL     1     -45.159 -14.083   9.458 -0.17 +0.00    +0.038 C  
DOCKED: BRANCH  13  14
DOCKED: ATOM     14  C   UNL     1     -44.861 -15.195  10.461 -0.07 +0.00    +0.251 C  
DOCKED: BRANCH  14  15
DOCKED: ATOM     15  N   UNL     1     -46.014 -15.422  11.324 -0.05 +0.00    +0.141 N  
DOCKED: ATOM     16  C   UNL     1     -47.040 -14.404  11.094 -0.07 +0.00    +0.285 C  
DOCKED: ATOM     17  C   UNL     1     -46.567 -16.759  11.104 -0.04 +0.00    +0.285 C  
DOCKED: ENDBRANCH  14  15
DOCKED: ENDBRANCH  13  14
DOCKED: ENDBRANCH  12  13
DOCKED: ENDBRANCH   2  12
DOCKED: BRANCH   2  18
DOCKED: ATOM     18  C   UNL     1     -44.277 -16.445   7.006 -0.11 +0.00    +0.006 A  
DOCKED: ATOM     19  C   UNL     1     -44.788 -17.445   6.180 -0.19 +0.00    +0.001 A  
DOCKED: ATOM     20  C   UNL     1     -44.081 -18.637   6.012 -0.18 +0.00    +0.029 A  
DOCKED: ATOM     21  C   UNL     1     -42.866 -18.826   6.669 -0.08 +0.00    +0.140 A  
DOCKED: ATOM     22  C   UNL     1     -42.356 -17.825   7.494 -0.02 +0.00    +0.029 A  
DOCKED: ATOM     23  F   UNL     1     -42.188 -19.969   6.505 -0.02 -0.00    -0.204 F  
DOCKED: ATOM     24  C   UNL     1     -43.062 -16.633   7.664 -0.04 +0.00    +0.001 A  
DOCKED: ENDBRANCH   2  18
DOCKED: TORSDOF 5
DOCKED: TER
DOCKED: ENDMDL
________________________________________________________________________________


    FINAL DOCKED STATE:
    ________________________


Run:   121 / 512
Time taken for this run:   0.002s

DOCKED: MODEL        121
DOCKED: USER    Run = 121
DOCKED: USER
DOCKED: USER    Estimated Free Energy of Binding    =  -4.14 kcal/mol  [=(1)+(2)+(3)-(4)]
DOCKED: USER
DOCKED: USER    (1) Final Intermolecular Energy     =  -5.63 kcal/mol
DOCKED: USER        vdW + Hbond + desolv Energy     =  -5.63 kcal/mol
DOCKED: USER        Electrostatic Energy            =  +0.00 kcal/mol
DOCKED: USER        Moving Ligand-Fixed Receptor    =  -5.63 kcal/mol
DOCKED: USER        Moving Ligand-Moving Receptor   =  +0.00 kcal/mol
DOCKED: USER    (2) Final Total Internal Energy     =  -0.81 kcal/mol
DOCKED: USER    (3) Torsional Free Energy           =  +1.49 kcal/mol
DOCKED: USER    (4) Unbound System's Energy         =  -0.81 kcal/mol
DOCKED: USER
DOCKED: USER
DOCKED: REMARK  5 active torsions:
DOCKED: REMARK  status: ('A' for Active; 'I' for Inactive)
DOCKED: REMARK    1  A    between atoms: C_2  and  C_19 
DOCKED: REMARK    2  A    between atoms: C_2  and  C_11 
DOCKED: REMARK    3  A    between atoms: C_19  and  C_20 
DOCKED: REMARK    4  A    between atoms: C_20  and  C_21 
DOCKED: REMARK    5  A    between atoms: C_21  and  N_22 
DOCKED: USER                              x       y       z     vdW  Elec       q    Type
DOCKED: USER                           _______ _______ _______ _____ _____    ______ ____
DOCKED: ROOT
DOCKED: ATOM      1  O   UNL     1     -47.343 -20.212  15.847 -0.01 -0.00    -0.346 OA 
DOCKED: ATOM      2  C   UNL     1     -47.478 -19.829  14.441 -0.13 +0.00    +0.130 C  
DOCKED: ATOM      3  C   UNL     1     -48.107 -21.032  13.800 -0.23 +0.00    +0.004 A  
DOCKED: ATOM      4  C   UNL     1     -48.407 -21.976  14.771 -0.16 +0.00    +0.006 A  
DOCKED: ATOM      5  C   UNL     1     -48.016 -21.467  16.105 -0.06 +0.00    +0.169 C  
DOCKED: ATOM      6  C   UNL     1     -48.400 -21.267  12.464 -0.06 -0.00    -0.001 A  
DOCKED: ATOM      7  C   UNL     1     -49.003 -23.182  14.444 -0.21 +0.00    +0.008 A  
DOCKED: ATOM      8  C   UNL     1     -48.997 -22.481  12.118 -0.33 +0.00    +0.010 A  
DOCKED: ATOM      9  C   UNL     1     -49.298 -23.433  13.103 -0.29 +0.00    +0.068 A  
DOCKED: ATOM     10  N   UNL     1     -50.411 -25.673  12.427 -2.50 -0.00    -0.191 NA 
DOCKED: ATOM     11  C   UNL     1     -49.911 -24.668  12.730 -0.29 +0.00    +0.101 C  
DOCKED: ENDROOT
DOCKED: BRANCH   2  12
DOCKED: ATOM     12  C   UNL     1     -48.357 -18.587  14.361 -0.11 +0.00    +0.038 C  
DOCKED: BRANCH  12  13
DOCKED: ATOM     13  C   UNL     1     -49.393 -18.708  13.246 -0.20 +0.00    +0.038 C  
DOCKED: BRANCH  13  14
DOCKED: ATOM     14  C   UNL     1     -50.813 -18.666  13.807 -0.16 +0.00    +0.251 C  
DOCKED: BRANCH  14  15
DOCKED: ATOM     15  N   UNL     1     -51.162 -17.306  14.201 -0.08 +0.00    +0.141 N  
DOCKED: ATOM     16  C   UNL     1     -51.915 -16.639  13.138 -0.10 +0.00    +0.285 C  
DOCKED: ATOM     17  C   UNL     1     -51.936 -17.312  15.444 -0.01 +0.00    +0.285 C  
DOCKED: ENDBRANCH  14  15
DOCKED: ENDBRANCH  13  14
DOCKED: ENDBRANCH  12  13
DOCKED: ENDBRANCH   2  12
DOCKED: BRANCH   2  18
DOCKED: ATOM     18  C   UNL     1     -46.103 -19.550  13.932 -0.14 +0.00    +0.006 A  
DOCKED: ATOM     19  C   UNL     1     -45.927 -18.734  12.815 -0.15 +0.00    +0.001 A  
DOCKED: ATOM     20  C   UNL     1     -44.641 -18.475  12.339 -0.11 +0.00    +0.029 A  
DOCKED: ATOM     21  C   UNL     1     -43.535 -19.030  12.980 -0.07 +0.00    +0.140 A  
DOCKED: ATOM     22  C   UNL     1     -43.712 -19.846  14.098 -0.09 +0.00    +0.029 A  
DOCKED: ATOM     23  F   UNL     1     -42.301 -18.779  12.525 -0.01 -0.00    -0.204 F  
DOCKED: ATOM     24  C   UNL     1     -44.998 -20.107  14.574 -0.11 +0.00    +0.001 A  
DOCKED: ENDBRANCH   2  18
DOCKED: TORSDOF 5
DOCKED: TER
DOCKED: ENDMDL
________________________________________________________________________________


    FINAL DOCKED STATE:
    ________________________


Run:   122 / 512
Time taken for this run:   0.002s

DOCKED: MODEL        122
DOCKED: USER    Run = 122
DOCKED: USER
DOCKED: USER    Estimated Free Energy of Binding    =  -4.89 kcal/mol  [=(1)+(2)+(3)-(4)]
DOCKED: USER
DOCKED: USER    (1) Final Intermolecular Energy     =  -6.38 kcal/mol
DOCKED: USER        vdW + Hbond + desolv Energy     =  -6.38 kcal/mol
DOCKED: USER        Electrostatic Energy            =  +0.00 kcal/mol
DOCKED: USER        Moving Ligand-Fixed Receptor    =  -6.38 kcal/mol
DOCKED: USER        Moving Ligand-Moving Receptor   =  +0.00 kcal/mol
DOCKED: USER    (2) Final Total Internal Energy     =  -1.29 kcal/mol
DOCKED: USER    (3) Torsional Free Energy           =  +1.49 kcal/mol
DOCKED: USER    (4) Unbound System's Energy         =  -1.29 kcal/mol
DOCKED: USER
DOCKED: USER
DOCKED: REMARK  5 active torsions:
DOCKED: REMARK  status: ('A' for Active; 'I' for Inactive)
DOCKED: REMARK    1  A    between atoms: C_2  and  C_19 
DOCKED: REMARK    2  A    between atoms: C_2  and  C_11 
DOCKED: REMARK    3  A    between atoms: C_19  and  C_20 
DOCKED: REMARK    4  A    between atoms: C_20  and  C_21 
DOCKED: REMARK    5  A    between atoms: C_21  and  N_22 
DOCKED: USER                              x       y       z     vdW  Elec       q    Type
DOCKED: USER                           _______ _______ _______ _____ _____    ______ ____
DOCKED: ROOT
DOCKED: ATOM      1  O   UNL     1     -44.003 -14.971   6.791 -0.05 -0.00    -0.346 OA 
DOCKED: ATOM      2  C   UNL     1     -45.438 -15.167   6.997 -0.20 +0.00    +0.130 C  
DOCKED: ATOM      3  C   UNL     1     -46.068 -14.479   5.821 -0.28 +0.00    +0.004 A  
DOCKED: ATOM      4  C   UNL     1     -45.078 -14.026   4.960 -0.24 +0.00    +0.006 A  
DOCKED: ATOM      5  C   UNL     1     -43.745 -14.388   5.493 -0.12 +0.00    +0.169 C  
DOCKED: ATOM      6  C   UNL     1     -47.410 -14.280   5.529 +0.06 -0.00    -0.001 A  
DOCKED: ATOM      7  C   UNL     1     -45.392 -13.358   3.789 -0.31 +0.00    +0.008 A  
DOCKED: ATOM      8  C   UNL     1     -47.742 -13.605   4.354 -0.36 +0.00    +0.010 A  
DOCKED: ATOM      9  C   UNL     1     -46.738 -13.147   3.488 -0.34 +0.00    +0.068 A  
DOCKED: ATOM     10  N   UNL     1     -47.390 -11.902   1.311 -2.47 -0.00    -0.191 NA 
DOCKED: ATOM     11  C   UNL     1     -47.098 -12.459   2.288 -0.24 +0.00    +0.101 C  
DOCKED: ENDROOT
DOCKED: BRANCH   2  12
DOCKED: ATOM     12  C   UNL     1     -45.721 -16.665   7.030 -0.23 +0.00    +0.038 C  
DOCKED: BRANCH  12  13
DOCKED: ATOM     13  C   UNL     1     -45.105 -17.321   8.264 -0.15 +0.00    +0.038 C  
DOCKED: BRANCH  13  14
DOCKED: ATOM     14  C   UNL     1     -43.711 -17.866   7.957 -0.05 +0.00    +0.251 C  
DOCKED: BRANCH  14  15
DOCKED: ATOM     15  N   UNL     1     -43.495 -17.927   6.517 -0.07 +0.00    +0.141 N  
DOCKED: ATOM     16  C   UNL     1     -42.165 -17.423   6.172 -0.01 +0.00    +0.285 C  
DOCKED: ATOM     17  C   UNL     1     -43.661 -19.297   6.028 -0.15 +0.00    +0.285 C  
DOCKED: ENDBRANCH  14  15
DOCKED: ENDBRANCH  13  14
DOCKED: ENDBRANCH  12  13
DOCKED: ENDBRANCH   2  12
DOCKED: BRANCH   2  18
DOCKED: ATOM     18  C   UNL     1     -45.784 -14.526   8.300 -0.20 +0.00    +0.006 A  
DOCKED: ATOM     19  C   UNL     1     -44.778 -14.225   9.216 -0.15 +0.00    +0.001 A  
DOCKED: ATOM     20  C   UNL     1     -45.103 -13.625  10.434 -0.09 +0.00    +0.029 A  
DOCKED: ATOM     21  C   UNL     1     -46.431 -13.327  10.732 -0.16 +0.00    +0.140 A  
DOCKED: ATOM     22  C   UNL     1     -47.437 -13.629   9.815 -0.24 +0.00    +0.029 A  
DOCKED: ATOM     23  F   UNL     1     -46.742 -12.750  11.900 -0.04 -0.00    -0.204 F  
DOCKED: ATOM     24  C   UNL     1     -47.114 -14.229   8.597 -0.28 +0.00    +0.001 A  
DOCKED: ENDBRANCH   2  18
DOCKED: TORSDOF 5
DOCKED: TER
DOCKED: ENDMDL
________________________________________________________________________________


    FINAL DOCKED STATE:
    ________________________


Run:   123 / 512
Time taken for this run:   0.002s

DOCKED: MODEL        123
DOCKED: USER    Run = 123
DOCKED: USER
DOCKED: USER    Estimated Free Energy of Binding    =  -4.57 kcal/mol  [=(1)+(2)+(3)-(4)]
DOCKED: USER
DOCKED: USER    (1) Final Intermolecular Energy     =  -6.06 kcal/mol
DOCKED: USER        vdW + Hbond + desolv Energy     =  -6.06 kcal/mol
DOCKED: USER        Electrostatic Energy            =  +0.00 kcal/mol
DOCKED: USER        Moving Ligand-Fixed Receptor    =  -6.06 kcal/mol
DOCKED: USER        Moving Ligand-Moving Receptor   =  +0.00 kcal/mol
DOCKED: USER    (2) Final Total Internal Energy     =  -1.50 kcal/mol
DOCKED: USER    (3) Torsional Free Energy           =  +1.49 kcal/mol
DOCKED: USER    (4) Unbound System's Energy         =  -1.50 kcal/mol
DOCKED: USER
DOCKED: USER
DOCKED: REMARK  5 active torsions:
DOCKED: REMARK  status: ('A' for Active; 'I' for Inactive)
DOCKED: REMARK    1  A    between atoms: C_2  and  C_19 
DOCKED: REMARK    2  A    between atoms: C_2  and  C_11 
DOCKED: REMARK    3  A    between atoms: C_19  and  C_20 
DOCKED: REMARK    4  A    between atoms: C_20  and  C_21 
DOCKED: REMARK    5  A    between atoms: C_21  and  N_22 
DOCKED: USER                              x       y       z     vdW  Elec       q    Type
DOCKED: USER                           _______ _______ _______ _____ _____    ______ ____
DOCKED: ROOT
DOCKED: ATOM      1  O   UNL     1     -49.226 -24.055  15.664 -0.07 -0.00    -0.346 OA 
DOCKED: ATOM      2  C   UNL     1     -48.896 -22.741  15.109 -0.13 +0.00    +0.130 C  
DOCKED: ATOM      3  C   UNL     1     -49.152 -22.898  13.638 -0.27 +0.00    +0.004 A  
DOCKED: ATOM      4  C   UNL     1     -49.686 -24.154  13.388 -0.30 +0.00    +0.006 A  
DOCKED: ATOM      5  C   UNL     1     -49.831 -24.900  14.658 -0.08 +0.00    +0.169 C  
DOCKED: ATOM      6  C   UNL     1     -48.939 -21.996  12.605 -0.32 -0.00    -0.001 A  
DOCKED: ATOM      7  C   UNL     1     -50.021 -24.552  12.105 -0.42 +0.00    +0.008 A  
DOCKED: ATOM      8  C   UNL     1     -49.268 -22.385  11.305 +0.01 +0.00    +0.010 A  
DOCKED: ATOM      9  C   UNL     1     -49.806 -23.656  11.057 -0.40 +0.00    +0.068 A  
DOCKED: ATOM     10  N   UNL     1     -50.410 -24.343   8.632 -2.60 -0.00    -0.191 NA 
DOCKED: ATOM     11  C   UNL     1     -50.138 -24.035   9.720 -0.44 +0.00    +0.101 C  
DOCKED: ENDROOT
DOCKED: BRANCH   2  12
DOCKED: ATOM     12  C   UNL     1     -49.799 -21.701  15.761 -0.08 +0.00    +0.038 C  
DOCKED: BRANCH  12  13
DOCKED: ATOM     13  C   UNL     1     -51.007 -22.353  16.430 -0.07 +0.00    +0.038 C  
DOCKED: BRANCH  13  14
DOCKED: ATOM     14  C   UNL     1     -50.808 -22.457  17.941 -0.01 +0.00    +0.251 C  
DOCKED: BRANCH  14  15
DOCKED: ATOM     15  N   UNL     1     -49.504 -23.034  18.244 -0.04 +0.00    +0.141 N  
DOCKED: ATOM     16  C   UNL     1     -48.840 -22.281  19.308 -0.01 +0.00    +0.285 C  
DOCKED: ATOM     17  C   UNL     1     -49.639 -24.441  18.626 -0.08 +0.00    +0.285 C  
DOCKED: ENDBRANCH  14  15
DOCKED: ENDBRANCH  13  14
DOCKED: ENDBRANCH  12  13
DOCKED: ENDBRANCH   2  12
DOCKED: BRANCH   2  18
DOCKED: ATOM     18  C   UNL     1     -47.460 -22.482  15.425 -0.17 +0.00    +0.006 A  
DOCKED: ATOM     19  C   UNL     1     -46.463 -23.226  14.795 -0.20 +0.00    +0.001 A  
DOCKED: ATOM     20  C   UNL     1     -45.121 -22.983  15.092 -0.12 +0.00    +0.029 A  
DOCKED: ATOM     21  C   UNL     1     -44.779 -21.997  16.016 -0.10 +0.00    +0.140 A  
DOCKED: ATOM     22  C   UNL     1     -45.777 -21.254  16.646 -0.06 +0.00    +0.029 A  
DOCKED: ATOM     23  F   UNL     1     -43.491 -21.763  16.300 -0.01 -0.00    -0.204 F  
DOCKED: ATOM     24  C   UNL     1     -47.120 -21.496  16.350 -0.08 +0.00    +0.001 A  
DOCKED: ENDBRANCH   2  18
DOCKED: TORSDOF 5
DOCKED: TER
DOCKED: ENDMDL
________________________________________________________________________________


    FINAL DOCKED STATE:
    ________________________


Run:   124 / 512
Time taken for this run:   0.002s

DOCKED: MODEL        124
DOCKED: USER    Run = 124
DOCKED: USER
DOCKED: USER    Estimated Free Energy of Binding    =  -4.31 kcal/mol  [=(1)+(2)+(3)-(4)]
DOCKED: USER
DOCKED: USER    (1) Final Intermolecular Energy     =  -5.80 kcal/mol
DOCKED: USER        vdW + Hbond + desolv Energy     =  -5.80 kcal/mol
DOCKED: USER        Electrostatic Energy            =  +0.00 kcal/mol
DOCKED: USER        Moving Ligand-Fixed Receptor    =  -5.80 kcal/mol
DOCKED: USER        Moving Ligand-Moving Receptor   =  +0.00 kcal/mol
DOCKED: USER    (2) Final Total Internal Energy     =  -1.16 kcal/mol
DOCKED: USER    (3) Torsional Free Energy           =  +1.49 kcal/mol
DOCKED: USER    (4) Unbound System's Energy         =  -1.16 kcal/mol
DOCKED: USER
DOCKED: USER
DOCKED: REMARK  5 active torsions:
DOCKED: REMARK  status: ('A' for Active; 'I' for Inactive)
DOCKED: REMARK    1  A    between atoms: C_2  and  C_19 
DOCKED: REMARK    2  A    between atoms: C_2  and  C_11 
DOCKED: REMARK    3  A    between atoms: C_19  and  C_20 
DOCKED: REMARK    4  A    between atoms: C_20  and  C_21 
DOCKED: REMARK    5  A    between atoms: C_21  and  N_22 
DOCKED: USER                              x       y       z     vdW  Elec       q    Type
DOCKED: USER                           _______ _______ _______ _____ _____    ______ ____
DOCKED: ROOT
DOCKED: ATOM      1  O   UNL     1     -45.974 -15.686   7.632 -0.08 -0.00    -0.346 OA 
DOCKED: ATOM      2  C   UNL     1     -44.734 -15.045   7.192 -0.16 +0.00    +0.130 C  
DOCKED: ATOM      3  C   UNL     1     -45.120 -14.355   5.916 -0.16 +0.00    +0.004 A  
DOCKED: ATOM      4  C   UNL     1     -46.484 -14.495   5.703 -0.30 +0.00    +0.006 A  
DOCKED: ATOM      5  C   UNL     1     -47.089 -15.265   6.813 -0.17 +0.00    +0.169 C  
DOCKED: ATOM      6  C   UNL     1     -44.329 -13.649   5.021 -0.18 -0.00    -0.001 A  
DOCKED: ATOM      7  C   UNL     1     -47.101 -13.942   4.593 -0.28 +0.00    +0.008 A  
DOCKED: ATOM      8  C   UNL     1     -44.935 -13.090   3.895 -0.27 +0.00    +0.010 A  
DOCKED: ATOM      9  C   UNL     1     -46.314 -13.235   3.683 -0.34 +0.00    +0.068 A  
DOCKED: ATOM     10  N   UNL     1     -47.409 -12.180   1.585 -2.51 -0.00    -0.191 NA 
DOCKED: ATOM     11  C   UNL     1     -46.918 -12.654   2.525 -0.40 +0.00    +0.101 C  
DOCKED: ENDROOT
DOCKED: BRANCH   2  12
DOCKED: ATOM     12  C   UNL     1     -44.279 -14.076   8.277 -0.04 +0.00    +0.038 C  
DOCKED: BRANCH  12  13
DOCKED: ATOM     13  C   UNL     1     -44.915 -14.411   9.624 -0.17 +0.00    +0.038 C  
DOCKED: BRANCH  13  14
DOCKED: ATOM     14  C   UNL     1     -46.213 -13.632   9.828 -0.15 +0.00    +0.251 C  
DOCKED: BRANCH  14  15
DOCKED: ATOM     15  N   UNL     1     -46.789 -13.938  11.132 -0.10 +0.00    +0.141 N  
DOCKED: ATOM     16  C   UNL     1     -46.286 -15.219  11.631 -0.04 +0.00    +0.285 C  
DOCKED: ATOM     17  C   UNL     1     -46.495 -12.870  12.089 -0.09 +0.00    +0.285 C  
DOCKED: ENDBRANCH  14  15
DOCKED: ENDBRANCH  13  14
DOCKED: ENDBRANCH  12  13
DOCKED: ENDBRANCH   2  12
DOCKED: BRANCH   2  18
DOCKED: ATOM     18  C   UNL     1     -43.731 -16.131   6.985 -0.08 +0.00    +0.006 A  
DOCKED: ATOM     19  C   UNL     1     -42.423 -15.966   7.438 -0.04 +0.00    +0.001 A  
DOCKED: ATOM     20  C   UNL     1     -41.486 -16.983   7.243 -0.01 +0.00    +0.029 A  
DOCKED: ATOM     21  C   UNL     1     -41.859 -18.161   6.599 -0.02 +0.00    +0.140 A  
DOCKED: ATOM     22  C   UNL     1     -43.168 -18.325   6.147 -0.10 +0.00    +0.029 A  
DOCKED: ATOM     23  F   UNL     1     -40.961 -19.137   6.414 +0.00 -0.00    -0.204 F  
DOCKED: ATOM     24  C   UNL     1     -44.106 -17.309   6.340 -0.13 +0.00    +0.001 A  
DOCKED: ENDBRANCH   2  18
DOCKED: TORSDOF 5
DOCKED: TER
DOCKED: ENDMDL
________________________________________________________________________________


    FINAL DOCKED STATE:
    ________________________


Run:   125 / 512
Time taken for this run:   0.002s

DOCKED: MODEL        125
DOCKED: USER    Run = 125
DOCKED: USER
DOCKED: USER    Estimated Free Energy of Binding    =  -3.73 kcal/mol  [=(1)+(2)+(3)-(4)]
DOCKED: USER
DOCKED: USER    (1) Final Intermolecular Energy     =  -5.22 kcal/mol
DOCKED: USER        vdW + Hbond + desolv Energy     =  -5.22 kcal/mol
DOCKED: USER        Electrostatic Energy            =  +0.00 kcal/mol
DOCKED: USER        Moving Ligand-Fixed Receptor    =  -5.22 kcal/mol
DOCKED: USER        Moving Ligand-Moving Receptor   =  +0.00 kcal/mol
DOCKED: USER    (2) Final Total Internal Energy     =  -1.17 kcal/mol
DOCKED: USER    (3) Torsional Free Energy           =  +1.49 kcal/mol
DOCKED: USER    (4) Unbound System's Energy         =  -1.17 kcal/mol
DOCKED: USER
DOCKED: USER
DOCKED: REMARK  5 active torsions:
DOCKED: REMARK  status: ('A' for Active; 'I' for Inactive)
DOCKED: REMARK    1  A    between atoms: C_2  and  C_19 
DOCKED: REMARK    2  A    between atoms: C_2  and  C_11 
DOCKED: REMARK    3  A    between atoms: C_19  and  C_20 
DOCKED: REMARK    4  A    between atoms: C_20  and  C_21 
DOCKED: REMARK    5  A    between atoms: C_21  and  N_22 
DOCKED: USER                              x       y       z     vdW  Elec       q    Type
DOCKED: USER                           _______ _______ _______ _____ _____    ______ ____
DOCKED: ROOT
DOCKED: ATOM      1  O   UNL     1     -46.146 -21.319  15.577 -0.06 -0.00    -0.346 OA 
DOCKED: ATOM      2  C   UNL     1     -47.417 -20.640  15.323 -0.09 +0.00    +0.130 C  
DOCKED: ATOM      3  C   UNL     1     -48.196 -21.628  14.504 -0.18 +0.00    +0.004 A  
DOCKED: ATOM      4  C   UNL     1     -47.479 -22.811  14.393 -0.26 +0.00    +0.006 A  
DOCKED: ATOM      5  C   UNL     1     -46.200 -22.694  15.130 -0.18 +0.00    +0.169 C  
DOCKED: ATOM      6  C   UNL     1     -49.444 -21.494  13.915 -0.22 -0.00    -0.001 A  
DOCKED: ATOM      7  C   UNL     1     -47.979 -23.893  13.690 -0.35 +0.00    +0.008 A  
DOCKED: ATOM      8  C   UNL     1     -49.960 -22.576  13.198 -0.27 +0.00    +0.010 A  
DOCKED: ATOM      9  C   UNL     1     -49.231 -23.769  13.087 -0.30 +0.00    +0.068 A  
DOCKED: ATOM     10  N   UNL     1     -50.221 -25.758  11.754 -2.39 -0.00    -0.191 NA 
DOCKED: ATOM     11  C   UNL     1     -49.776 -24.866  12.351 -0.31 +0.00    +0.101 C  
DOCKED: ENDROOT
DOCKED: BRANCH   2  12
DOCKED: ATOM     12  C   UNL     1     -48.074 -20.330  16.663 -0.03 +0.00    +0.038 C  
DOCKED: BRANCH  12  13
DOCKED: ATOM     13  C   UNL     1     -47.031 -20.081  17.751 -0.01 +0.00    +0.038 C  
DOCKED: BRANCH  13  14
DOCKED: ATOM     14  C   UNL     1     -46.517 -21.397  18.330 -0.01 +0.00    +0.251 C  
DOCKED: BRANCH  14  15
DOCKED: ATOM     15  N   UNL     1     -45.060 -21.393  18.384 -0.02 +0.00    +0.141 N  
DOCKED: ATOM     16  C   UNL     1     -44.518 -22.612  17.781 -0.05 +0.00    +0.285 C  
DOCKED: ATOM     17  C   UNL     1     -44.522 -20.210  17.709 -0.01 +0.00    +0.285 C  
DOCKED: ENDBRANCH  14  15
DOCKED: ENDBRANCH  13  14
DOCKED: ENDBRANCH  12  13
DOCKED: ENDBRANCH   2  12
DOCKED: BRANCH   2  18
DOCKED: ATOM     18  C   UNL     1     -47.100 -19.387  14.577 -0.11 +0.00    +0.006 A  
DOCKED: ATOM     19  C   UNL     1     -46.557 -18.293  15.250 -0.04 +0.00    +0.001 A  
DOCKED: ATOM     20  C   UNL     1     -46.262 -17.122  14.550 -0.03 +0.00    +0.029 A  
DOCKED: ATOM     21  C   UNL     1     -46.509 -17.047  13.180 -0.05 +0.00    +0.140 A  
DOCKED: ATOM     22  C   UNL     1     -47.051 -18.142  12.508 -0.06 +0.00    +0.029 A  
DOCKED: ATOM     23  F   UNL     1     -46.223 -15.924  12.509 -0.00 -0.00    -0.204 F  
DOCKED: ATOM     24  C   UNL     1     -47.347 -19.313  13.206 -0.18 +0.00    +0.001 A  
DOCKED: ENDBRANCH   2  18
DOCKED: TORSDOF 5
DOCKED: TER
DOCKED: ENDMDL
________________________________________________________________________________


    FINAL DOCKED STATE:
    ________________________


Run:   126 / 512
Time taken for this run:   0.002s

DOCKED: MODEL        126
DOCKED: USER    Run = 126
DOCKED: USER
DOCKED: USER    Estimated Free Energy of Binding    =  -3.78 kcal/mol  [=(1)+(2)+(3)-(4)]
DOCKED: USER
DOCKED: USER    (1) Final Intermolecular Energy     =  -5.27 kcal/mol
DOCKED: USER        vdW + Hbond + desolv Energy     =  -5.27 kcal/mol
DOCKED: USER        Electrostatic Energy            =  +0.00 kcal/mol
DOCKED: USER        Moving Ligand-Fixed Receptor    =  -5.27 kcal/mol
DOCKED: USER        Moving Ligand-Moving Receptor   =  +0.00 kcal/mol
DOCKED: USER    (2) Final Total Internal Energy     =  -1.20 kcal/mol
DOCKED: USER    (3) Torsional Free Energy           =  +1.49 kcal/mol
DOCKED: USER    (4) Unbound System's Energy         =  -1.20 kcal/mol
DOCKED: USER
DOCKED: USER
DOCKED: REMARK  5 active torsions:
DOCKED: REMARK  status: ('A' for Active; 'I' for Inactive)
DOCKED: REMARK    1  A    between atoms: C_2  and  C_19 
DOCKED: REMARK    2  A    between atoms: C_2  and  C_11 
DOCKED: REMARK    3  A    between atoms: C_19  and  C_20 
DOCKED: REMARK    4  A    between atoms: C_20  and  C_21 
DOCKED: REMARK    5  A    between atoms: C_21  and  N_22 
DOCKED: USER                              x       y       z     vdW  Elec       q    Type
DOCKED: USER                           _______ _______ _______ _____ _____    ______ ____
DOCKED: ROOT
DOCKED: ATOM      1  O   UNL     1     -48.249 -20.377  15.901 -0.01 -0.00    -0.346 OA 
DOCKED: ATOM      2  C   UNL     1     -47.096 -21.251  15.676 -0.09 +0.00    +0.130 C  
DOCKED: ATOM      3  C   UNL     1     -47.642 -22.351  14.813 -0.21 +0.00    +0.004 A  
DOCKED: ATOM      4  C   UNL     1     -48.961 -22.074  14.481 -0.17 +0.00    +0.006 A  
DOCKED: ATOM      5  C   UNL     1     -49.370 -20.784  15.082 -0.08 +0.00    +0.169 C  
DOCKED: ATOM      6  C   UNL     1     -47.018 -23.500  14.349 -0.28 -0.00    -0.001 A  
DOCKED: ATOM      7  C   UNL     1     -49.699 -22.931  13.683 -0.24 +0.00    +0.008 A  
DOCKED: ATOM      8  C   UNL     1     -47.750 -24.377  13.546 -0.39 +0.00    +0.010 A  
DOCKED: ATOM      9  C   UNL     1     -49.084 -24.093  13.215 -0.31 +0.00    +0.068 A  
DOCKED: ATOM     10  N   UNL     1     -50.413 -25.739  11.719 -2.34 -0.00    -0.191 NA 
DOCKED: ATOM     11  C   UNL     1     -49.817 -25.001  12.390 -0.25 +0.00    +0.101 C  
DOCKED: ENDROOT
DOCKED: BRANCH   2  12
DOCKED: ATOM     12  C   UNL     1     -46.005 -20.442  14.987 -0.12 +0.00    +0.038 C  
DOCKED: BRANCH  12  13
DOCKED: ATOM     13  C   UNL     1     -46.427 -18.986  14.795 -0.08 +0.00    +0.038 C  
DOCKED: BRANCH  13  14
DOCKED: ATOM     14  C   UNL     1     -47.075 -18.778  13.428 -0.12 +0.00    +0.251 C  
DOCKED: BRANCH  14  15
DOCKED: ATOM     15  N   UNL     1     -48.326 -18.042  13.567 -0.11 +0.00    +0.141 N  
DOCKED: ATOM     16  C   UNL     1     -48.425 -17.438  14.896 -0.03 +0.00    +0.285 C  
DOCKED: ATOM     17  C   UNL     1     -48.436 -17.012  12.532 -0.08 +0.00    +0.285 C  
DOCKED: ENDBRANCH  14  15
DOCKED: ENDBRANCH  13  14
DOCKED: ENDBRANCH  12  13
DOCKED: ENDBRANCH   2  12
DOCKED: BRANCH   2  18
DOCKED: ATOM     18  C   UNL     1     -46.646 -21.732  17.015 -0.07 +0.00    +0.006 A  
DOCKED: ATOM     19  C   UNL     1     -46.118 -20.829  17.938 -0.02 +0.00    +0.001 A  
DOCKED: ATOM     20  C   UNL     1     -45.697 -21.281  19.190 -0.01 +0.00    +0.029 A  
DOCKED: ATOM     21  C   UNL     1     -45.804 -22.631  19.516 -0.03 +0.00    +0.140 A  
DOCKED: ATOM     22  C   UNL     1     -46.332 -23.533  18.593 -0.11 +0.00    +0.029 A  
DOCKED: ATOM     23  F   UNL     1     -45.401 -23.064  20.718 -0.00 -0.00    -0.204 F  
DOCKED: ATOM     24  C   UNL     1     -46.753 -23.083  17.340 -0.12 +0.00    +0.001 A  
DOCKED: ENDBRANCH   2  18
DOCKED: TORSDOF 5
DOCKED: TER
DOCKED: ENDMDL
________________________________________________________________________________


    FINAL DOCKED STATE:
    ________________________


Run:   127 / 512
Time taken for this run:   0.002s

DOCKED: MODEL        127
DOCKED: USER    Run = 127
DOCKED: USER
DOCKED: USER    Estimated Free Energy of Binding    =  -4.26 kcal/mol  [=(1)+(2)+(3)-(4)]
DOCKED: USER
DOCKED: USER    (1) Final Intermolecular Energy     =  -5.76 kcal/mol
DOCKED: USER        vdW + Hbond + desolv Energy     =  -5.76 kcal/mol
DOCKED: USER        Electrostatic Energy            =  +0.00 kcal/mol
DOCKED: USER        Moving Ligand-Fixed Receptor    =  -5.76 kcal/mol
DOCKED: USER        Moving Ligand-Moving Receptor   =  +0.00 kcal/mol
DOCKED: USER    (2) Final Total Internal Energy     =  -1.34 kcal/mol
DOCKED: USER    (3) Torsional Free Energy           =  +1.49 kcal/mol
DOCKED: USER    (4) Unbound System's Energy         =  -1.34 kcal/mol
DOCKED: USER
DOCKED: USER
DOCKED: REMARK  5 active torsions:
DOCKED: REMARK  status: ('A' for Active; 'I' for Inactive)
DOCKED: REMARK    1  A    between atoms: C_2  and  C_19 
DOCKED: REMARK    2  A    between atoms: C_2  and  C_11 
DOCKED: REMARK    3  A    between atoms: C_19  and  C_20 
DOCKED: REMARK    4  A    between atoms: C_20  and  C_21 
DOCKED: REMARK    5  A    between atoms: C_21  and  N_22 
DOCKED: USER                              x       y       z     vdW  Elec       q    Type
DOCKED: USER                           _______ _______ _______ _____ _____    ______ ____
DOCKED: ROOT
DOCKED: ATOM      1  O   UNL     1     -45.733 -21.158  15.238 -0.07 -0.00    -0.346 OA 
DOCKED: ATOM      2  C   UNL     1     -46.657 -20.332  14.460 -0.14 +0.00    +0.130 C  
DOCKED: ATOM      3  C   UNL     1     -47.580 -21.329  13.822 -0.22 +0.00    +0.004 A  
DOCKED: ATOM      4  C   UNL     1     -47.281 -22.604  14.283 -0.24 +0.00    +0.006 A  
DOCKED: ATOM      5  C   UNL     1     -46.164 -22.538  15.252 -0.17 +0.00    +0.169 C  
DOCKED: ATOM      6  C   UNL     1     -48.610 -21.124  12.916 -0.26 -0.00    -0.001 A  
DOCKED: ATOM      7  C   UNL     1     -47.993 -23.711  13.853 -0.34 +0.00    +0.008 A  
DOCKED: ATOM      8  C   UNL     1     -49.335 -22.231  12.470 -0.32 +0.00    +0.010 A  
DOCKED: ATOM      9  C   UNL     1     -49.028 -23.517  12.937 -0.31 +0.00    +0.068 A  
DOCKED: ATOM     10  N   UNL     1     -50.396 -25.550  12.093 -2.55 -0.00    -0.191 NA 
DOCKED: ATOM     11  C   UNL     1     -49.782 -24.638  12.471 -0.38 +0.00    +0.101 C  
DOCKED: ENDROOT
DOCKED: BRANCH   2  12
DOCKED: ATOM     12  C   UNL     1     -47.374 -19.382  15.412 -0.06 +0.00    +0.038 C  
DOCKED: BRANCH  12  13
DOCKED: ATOM     13  C   UNL     1     -46.447 -18.268  15.891 -0.02 +0.00    +0.038 C  
DOCKED: BRANCH  13  14
DOCKED: ATOM     14  C   UNL     1     -45.948 -18.539  17.309 -0.00 +0.00    +0.251 C  
DOCKED: BRANCH  14  15
DOCKED: ATOM     15  N   UNL     1     -44.504 -18.740  17.309 -0.00 +0.00    +0.141 N  
DOCKED: ATOM     16  C   UNL     1     -43.868 -17.915  16.282 -0.00 +0.00    +0.285 C  
DOCKED: ATOM     17  C   UNL     1     -43.941 -18.434  18.626 -0.00 +0.00    +0.285 C  
DOCKED: ENDBRANCH  14  15
DOCKED: ENDBRANCH  13  14
DOCKED: ENDBRANCH  12  13
DOCKED: ENDBRANCH   2  12
DOCKED: BRANCH   2  18
DOCKED: ATOM     18  C   UNL     1     -45.837 -19.579  13.465 -0.14 +0.00    +0.006 A  
DOCKED: ATOM     19  C   UNL     1     -46.459 -18.728  12.552 -0.14 +0.00    +0.001 A  
DOCKED: ATOM     20  C   UNL     1     -45.691 -18.025  11.623 -0.12 +0.00    +0.029 A  
DOCKED: ATOM     21  C   UNL     1     -44.305 -18.174  11.607 -0.08 +0.00    +0.140 A  
DOCKED: ATOM     22  C   UNL     1     -43.685 -19.026  12.520 -0.10 +0.00    +0.029 A  
DOCKED: ATOM     23  F   UNL     1     -43.569 -17.498  10.716 -0.00 -0.00    -0.204 F  
DOCKED: ATOM     24  C   UNL     1     -44.451 -19.730  13.451 -0.10 +0.00    +0.001 A  
DOCKED: ENDBRANCH   2  18
DOCKED: TORSDOF 5
DOCKED: TER
DOCKED: ENDMDL
________________________________________________________________________________


    FINAL DOCKED STATE:
    ________________________


Run:   128 / 512
Time taken for this run:   0.002s

DOCKED: MODEL        128
DOCKED: USER    Run = 128
DOCKED: USER
DOCKED: USER    Estimated Free Energy of Binding    =  -3.94 kcal/mol  [=(1)+(2)+(3)-(4)]
DOCKED: USER
DOCKED: USER    (1) Final Intermolecular Energy     =  -5.43 kcal/mol
DOCKED: USER        vdW + Hbond + desolv Energy     =  -5.43 kcal/mol
DOCKED: USER        Electrostatic Energy            =  +0.00 kcal/mol
DOCKED: USER        Moving Ligand-Fixed Receptor    =  -5.43 kcal/mol
DOCKED: USER        Moving Ligand-Moving Receptor   =  +0.00 kcal/mol
DOCKED: USER    (2) Final Total Internal Energy     =  -1.46 kcal/mol
DOCKED: USER    (3) Torsional Free Energy           =  +1.49 kcal/mol
DOCKED: USER    (4) Unbound System's Energy         =  -1.46 kcal/mol
DOCKED: USER
DOCKED: USER
DOCKED: REMARK  5 active torsions:
DOCKED: REMARK  status: ('A' for Active; 'I' for Inactive)
DOCKED: REMARK    1  A    between atoms: C_2  and  C_19 
DOCKED: REMARK    2  A    between atoms: C_2  and  C_11 
DOCKED: REMARK    3  A    between atoms: C_19  and  C_20 
DOCKED: REMARK    4  A    between atoms: C_20  and  C_21 
DOCKED: REMARK    5  A    between atoms: C_21  and  N_22 
DOCKED: USER                              x       y       z     vdW  Elec       q    Type
DOCKED: USER                           _______ _______ _______ _____ _____    ______ ____
DOCKED: ROOT
DOCKED: ATOM      1  O   UNL     1     -39.697 -21.589   6.213 +0.01 -0.00    -0.346 OA 
DOCKED: ATOM      2  C   UNL     1     -41.030 -21.056   6.499 -0.07 +0.00    +0.130 C  
DOCKED: ATOM      3  C   UNL     1     -41.636 -22.078   7.418 -0.13 +0.00    +0.004 A  
DOCKED: ATOM      4  C   UNL     1     -40.694 -23.053   7.718 -0.09 +0.00    +0.006 A  
DOCKED: ATOM      5  C   UNL     1     -39.416 -22.742   7.041 -0.02 +0.00    +0.169 C  
DOCKED: ATOM      6  C   UNL     1     -42.914 -22.135   7.953 -0.25 -0.00    -0.001 A  
DOCKED: ATOM      7  C   UNL     1     -40.997 -24.113   8.555 -0.16 +0.00    +0.008 A  
DOCKED: ATOM      8  C   UNL     1     -43.236 -23.200   8.796 -0.33 +0.00    +0.010 A  
DOCKED: ATOM      9  C   UNL     1     -42.282 -24.184   9.095 -0.29 +0.00    +0.068 A  
DOCKED: ATOM     10  N   UNL     1     -42.910 -26.145  10.667 -2.57 -0.00    -0.191 NA 
DOCKED: ATOM     11  C   UNL     1     -42.629 -25.266   9.962 -0.40 +0.00    +0.101 C  
DOCKED: ENDROOT
DOCKED: BRANCH   2  12
DOCKED: ATOM     12  C   UNL     1     -40.872 -19.689   7.154 -0.03 +0.00    +0.038 C  
DOCKED: BRANCH  12  13
DOCKED: ATOM     13  C   UNL     1     -39.422 -19.213   7.107 -0.00 +0.00    +0.038 C  
DOCKED: BRANCH  13  14
DOCKED: ATOM     14  C   UNL     1     -39.222 -18.169   6.010 -0.00 +0.00    +0.251 C  
DOCKED: BRANCH  14  15
DOCKED: ATOM     15  N   UNL     1     -38.092 -18.532   5.164 -0.00 +0.00    +0.141 N  
DOCKED: ATOM     16  C   UNL     1     -37.396 -19.701   5.705 +0.00 +0.00    +0.285 C  
DOCKED: ATOM     17  C   UNL     1     -38.537 -18.796   3.794 +0.00 +0.00    +0.285 C  
DOCKED: ENDBRANCH  14  15
DOCKED: ENDBRANCH  13  14
DOCKED: ENDBRANCH  12  13
DOCKED: ENDBRANCH   2  12
DOCKED: BRANCH   2  18
DOCKED: ATOM     18  C   UNL     1     -41.747 -20.949   5.195 -0.13 +0.00    +0.006 A  
DOCKED: ATOM     19  C   UNL     1     -41.425 -21.814   4.150 -0.13 +0.00    +0.001 A  
DOCKED: ATOM     20  C   UNL     1     -42.096 -21.712   2.931 -0.15 +0.00    +0.029 A  
DOCKED: ATOM     21  C   UNL     1     -43.087 -20.747   2.758 -0.18 +0.00    +0.140 A  
DOCKED: ATOM     22  C   UNL     1     -43.409 -19.882   3.804 -0.19 +0.00    +0.029 A  
DOCKED: ATOM     23  F   UNL     1     -43.732 -20.651   1.589 -0.12 -0.00    -0.204 F  
DOCKED: ATOM     24  C   UNL     1     -42.738 -19.983   5.024 -0.18 +0.00    +0.001 A  
DOCKED: ENDBRANCH   2  18
DOCKED: TORSDOF 5
DOCKED: TER
DOCKED: ENDMDL
________________________________________________________________________________


    FINAL DOCKED STATE:
    ________________________


Run:   129 / 512
Time taken for this run:   0.002s

DOCKED: MODEL        129
DOCKED: USER    Run = 129
DOCKED: USER
DOCKED: USER    Estimated Free Energy of Binding    =  -3.46 kcal/mol  [=(1)+(2)+(3)-(4)]
DOCKED: USER
DOCKED: USER    (1) Final Intermolecular Energy     =  -4.95 kcal/mol
DOCKED: USER        vdW + Hbond + desolv Energy     =  -4.95 kcal/mol
DOCKED: USER        Electrostatic Energy            =  +0.00 kcal/mol
DOCKED: USER        Moving Ligand-Fixed Receptor    =  -4.95 kcal/mol
DOCKED: USER        Moving Ligand-Moving Receptor   =  +0.00 kcal/mol
DOCKED: USER    (2) Final Total Internal Energy     =  -1.43 kcal/mol
DOCKED: USER    (3) Torsional Free Energy           =  +1.49 kcal/mol
DOCKED: USER    (4) Unbound System's Energy         =  -1.43 kcal/mol
DOCKED: USER
DOCKED: USER
DOCKED: REMARK  5 active torsions:
DOCKED: REMARK  status: ('A' for Active; 'I' for Inactive)
DOCKED: REMARK    1  A    between atoms: C_2  and  C_19 
DOCKED: REMARK    2  A    between atoms: C_2  and  C_11 
DOCKED: REMARK    3  A    between atoms: C_19  and  C_20 
DOCKED: REMARK    4  A    between atoms: C_20  and  C_21 
DOCKED: REMARK    5  A    between atoms: C_21  and  N_22 
DOCKED: USER                              x       y       z     vdW  Elec       q    Type
DOCKED: USER                           _______ _______ _______ _____ _____    ______ ____
DOCKED: ROOT
DOCKED: ATOM      1  O   UNL     1     -49.161 -19.776  15.649 -0.01 -0.00    -0.346 OA 
DOCKED: ATOM      2  C   UNL     1     -48.320 -19.818  14.453 -0.13 +0.00    +0.130 C  
DOCKED: ATOM      3  C   UNL     1     -48.711 -21.103  13.783 -0.24 +0.00    +0.004 A  
DOCKED: ATOM      4  C   UNL     1     -49.761 -21.690  14.475 -0.15 +0.00    +0.006 A  
DOCKED: ATOM      5  C   UNL     1     -50.141 -20.840  15.626 -0.05 +0.00    +0.169 C  
DOCKED: ATOM      6  C   UNL     1     -48.187 -21.700  12.645 -0.11 -0.00    -0.001 A  
DOCKED: ATOM      7  C   UNL     1     -50.318 -22.887  14.060 -0.19 +0.00    +0.008 A  
DOCKED: ATOM      8  C   UNL     1     -48.735 -22.910  12.216 -0.30 +0.00    +0.010 A  
DOCKED: ATOM      9  C   UNL     1     -49.796 -23.500  12.920 -0.27 +0.00    +0.068 A  
DOCKED: ATOM     10  N   UNL     1     -50.793 -25.744  12.094 -2.35 -0.00    -0.191 NA 
DOCKED: ATOM     11  C   UNL     1     -50.345 -24.738  12.465 -0.32 +0.00    +0.101 C  
DOCKED: ENDROOT
DOCKED: BRANCH   2  12
DOCKED: ATOM     12  C   UNL     1     -48.625 -18.589  13.604 -0.17 +0.00    +0.038 C  
DOCKED: BRANCH  12  13
DOCKED: ATOM     13  C   UNL     1     -50.080 -18.152  13.762 -0.19 +0.00    +0.038 C  
DOCKED: BRANCH  13  14
DOCKED: ATOM     14  C   UNL     1     -50.230 -17.141  14.897 -0.03 +0.00    +0.251 C  
DOCKED: BRANCH  14  15
DOCKED: ATOM     15  N   UNL     1     -48.920 -16.703  15.363 -0.02 +0.00    +0.141 N  
DOCKED: ATOM     16  C   UNL     1     -48.703 -15.291  15.044 -0.00 +0.00    +0.285 C  
DOCKED: ATOM     17  C   UNL     1     -48.784 -16.925  16.803 -0.00 +0.00    +0.285 C  
DOCKED: ENDBRANCH  14  15
DOCKED: ENDBRANCH  13  14
DOCKED: ENDBRANCH  12  13
DOCKED: ENDBRANCH   2  12
DOCKED: BRANCH   2  18
DOCKED: ATOM     18  C   UNL     1     -46.901 -19.812  14.916 -0.10 +0.00    +0.006 A  
DOCKED: ATOM     19  C   UNL     1     -46.579 -20.311  16.178 -0.05 +0.00    +0.001 A  
DOCKED: ATOM     20  C   UNL     1     -45.252 -20.304  16.611 -0.04 +0.00    +0.029 A  
DOCKED: ATOM     21  C   UNL     1     -44.251 -19.801  15.782 -0.03 +0.00    +0.140 A  
DOCKED: ATOM     22  C   UNL     1     -44.574 -19.304  14.520 -0.08 +0.00    +0.029 A  
DOCKED: ATOM     23  F   UNL     1     -42.977 -19.797  16.196 -0.00 -0.00    -0.204 F  
DOCKED: ATOM     24  C   UNL     1     -45.901 -19.309  14.086 -0.12 +0.00    +0.001 A  
DOCKED: ENDBRANCH   2  18
DOCKED: TORSDOF 5
DOCKED: TER
DOCKED: ENDMDL
________________________________________________________________________________


    FINAL DOCKED STATE:
    ________________________


Run:   130 / 512
Time taken for this run:   0.002s

DOCKED: MODEL        130
DOCKED: USER    Run = 130
DOCKED: USER
DOCKED: USER    Estimated Free Energy of Binding    =  -3.79 kcal/mol  [=(1)+(2)+(3)-(4)]
DOCKED: USER
DOCKED: USER    (1) Final Intermolecular Energy     =  -5.29 kcal/mol
DOCKED: USER        vdW + Hbond + desolv Energy     =  -5.29 kcal/mol
DOCKED: USER        Electrostatic Energy            =  +0.00 kcal/mol
DOCKED: USER        Moving Ligand-Fixed Receptor    =  -5.29 kcal/mol
DOCKED: USER        Moving Ligand-Moving Receptor   =  +0.00 kcal/mol
DOCKED: USER    (2) Final Total Internal Energy     =  -1.01 kcal/mol
DOCKED: USER    (3) Torsional Free Energy           =  +1.49 kcal/mol
DOCKED: USER    (4) Unbound System's Energy         =  -1.01 kcal/mol
DOCKED: USER
DOCKED: USER
DOCKED: REMARK  5 active torsions:
DOCKED: REMARK  status: ('A' for Active; 'I' for Inactive)
DOCKED: REMARK    1  A    between atoms: C_2  and  C_19 
DOCKED: REMARK    2  A    between atoms: C_2  and  C_11 
DOCKED: REMARK    3  A    between atoms: C_19  and  C_20 
DOCKED: REMARK    4  A    between atoms: C_20  and  C_21 
DOCKED: REMARK    5  A    between atoms: C_21  and  N_22 
DOCKED: USER                              x       y       z     vdW  Elec       q    Type
DOCKED: USER                           _______ _______ _______ _____ _____    ______ ____
DOCKED: ROOT
DOCKED: ATOM      1  O   UNL     1     -42.398 -19.563   8.680 -0.00 -0.00    -0.346 OA 
DOCKED: ATOM      2  C   UNL     1     -42.080 -20.382   7.510 -0.09 +0.00    +0.130 C  
DOCKED: ATOM      3  C   UNL     1     -42.191 -21.791   8.017 -0.16 +0.00    +0.004 A  
DOCKED: ATOM      4  C   UNL     1     -42.640 -21.781   9.330 -0.22 +0.00    +0.006 A  
DOCKED: ATOM      5  C   UNL     1     -42.867 -20.387   9.772 -0.13 +0.00    +0.169 C  
DOCKED: ATOM      6  C   UNL     1     -41.926 -22.986   7.364 -0.15 -0.00    -0.001 A  
DOCKED: ATOM      7  C   UNL     1     -42.835 -22.957  10.033 -0.10 +0.00    +0.008 A  
DOCKED: ATOM      8  C   UNL     1     -42.114 -24.181   8.062 -0.26 +0.00    +0.010 A  
DOCKED: ATOM      9  C   UNL     1     -42.566 -24.166   9.390 -0.32 +0.00    +0.068 A  
DOCKED: ATOM     10  N   UNL     1     -42.908 -26.401  10.654 -2.43 -0.00    -0.191 NA 
DOCKED: ATOM     11  C   UNL     1     -42.754 -25.398  10.087 -0.37 +0.00    +0.101 C  
DOCKED: ENDROOT
DOCKED: BRANCH   2  12
DOCKED: ATOM     12  C   UNL     1     -43.089 -20.066   6.411 -0.19 +0.00    +0.038 C  
DOCKED: BRANCH  12  13
DOCKED: ATOM     13  C   UNL     1     -43.883 -18.801   6.732 -0.18 +0.00    +0.038 C  
DOCKED: BRANCH  13  14
DOCKED: ATOM     14  C   UNL     1     -43.896 -17.844   5.542 -0.13 +0.00    +0.251 C  
DOCKED: BRANCH  14  15
DOCKED: ATOM     15  N   UNL     1     -45.162 -17.122   5.486 -0.21 +0.00    +0.141 N  
DOCKED: ATOM     16  C   UNL     1     -45.670 -16.866   6.834 -0.15 +0.00    +0.285 C  
DOCKED: ATOM     17  C   UNL     1     -45.005 -15.863   4.755 -0.14 +0.00    +0.285 C  
DOCKED: ENDBRANCH  14  15
DOCKED: ENDBRANCH  13  14
DOCKED: ENDBRANCH  12  13
DOCKED: ENDBRANCH   2  12
DOCKED: BRANCH   2  18
DOCKED: ATOM     18  C   UNL     1     -40.695 -20.022   7.088 -0.03 +0.00    +0.006 A  
DOCKED: ATOM     19  C   UNL     1     -39.951 -19.114   7.841 -0.01 +0.00    +0.001 A  
DOCKED: ATOM     20  C   UNL     1     -38.656 -18.779   7.446 -0.00 +0.00    +0.029 A  
DOCKED: ATOM     21  C   UNL     1     -38.106 -19.352   6.300 -0.00 +0.00    +0.140 A  
DOCKED: ATOM     22  C   UNL     1     -38.850 -20.260   5.548 -0.00 +0.00    +0.029 A  
DOCKED: ATOM     23  F   UNL     1     -36.862 -19.031   5.922 +0.00 -0.00    -0.204 F  
DOCKED: ATOM     24  C   UNL     1     -40.146 -20.596   5.942 -0.03 +0.00    +0.001 A  
DOCKED: ENDBRANCH   2  18
DOCKED: TORSDOF 5
DOCKED: TER
DOCKED: ENDMDL
________________________________________________________________________________


    FINAL DOCKED STATE:
    ________________________


Run:   131 / 512
Time taken for this run:   0.002s

DOCKED: MODEL        131
DOCKED: USER    Run = 131
DOCKED: USER
DOCKED: USER    Estimated Free Energy of Binding    =  -4.85 kcal/mol  [=(1)+(2)+(3)-(4)]
DOCKED: USER
DOCKED: USER    (1) Final Intermolecular Energy     =  -6.34 kcal/mol
DOCKED: USER        vdW + Hbond + desolv Energy     =  -6.34 kcal/mol
DOCKED: USER        Electrostatic Energy            =  +0.00 kcal/mol
DOCKED: USER        Moving Ligand-Fixed Receptor    =  -6.34 kcal/mol
DOCKED: USER        Moving Ligand-Moving Receptor   =  +0.00 kcal/mol
DOCKED: USER    (2) Final Total Internal Energy     =  -1.27 kcal/mol
DOCKED: USER    (3) Torsional Free Energy           =  +1.49 kcal/mol
DOCKED: USER    (4) Unbound System's Energy         =  -1.27 kcal/mol
DOCKED: USER
DOCKED: USER
DOCKED: REMARK  5 active torsions:
DOCKED: REMARK  status: ('A' for Active; 'I' for Inactive)
DOCKED: REMARK    1  A    between atoms: C_2  and  C_19 
DOCKED: REMARK    2  A    between atoms: C_2  and  C_11 
DOCKED: REMARK    3  A    between atoms: C_19  and  C_20 
DOCKED: REMARK    4  A    between atoms: C_20  and  C_21 
DOCKED: REMARK    5  A    between atoms: C_21  and  N_22 
DOCKED: USER                              x       y       z     vdW  Elec       q    Type
DOCKED: USER                           _______ _______ _______ _____ _____    ______ ____
DOCKED: ROOT
DOCKED: ATOM      1  O   UNL     1     -51.820 -23.083  15.262 -0.00 -0.00    -0.346 OA 
DOCKED: ATOM      2  C   UNL     1     -50.481 -22.553  15.002 -0.10 +0.00    +0.130 C  
DOCKED: ATOM      3  C   UNL     1     -50.261 -22.831  13.543 -0.23 +0.00    +0.004 A  
DOCKED: ATOM      4  C   UNL     1     -51.414 -23.371  12.992 -0.27 +0.00    +0.006 A  
DOCKED: ATOM      5  C   UNL     1     -52.466 -23.475  14.028 -0.16 +0.00    +0.169 C  
DOCKED: ATOM      6  C   UNL     1     -49.134 -22.613  12.764 -0.35 -0.00    -0.001 A  
DOCKED: ATOM      7  C   UNL     1     -51.479 -23.714  11.652 -0.32 +0.00    +0.008 A  
DOCKED: ATOM      8  C   UNL     1     -49.183 -22.958  11.413 -0.29 +0.00    +0.010 A  
DOCKED: ATOM      9  C   UNL     1     -50.350 -23.505  10.859 -0.32 +0.00    +0.068 A  
DOCKED: ATOM     10  N   UNL     1     -50.409 -24.129   8.345 -3.04 -0.00    -0.191 NA 
DOCKED: ATOM     11  C   UNL     1     -50.382 -23.850   9.473 -0.26 +0.00    +0.101 C  
DOCKED: ENDROOT
DOCKED: BRANCH   2  12
DOCKED: ATOM     12  C   UNL     1     -50.479 -21.065  15.329 -0.10 +0.00    +0.038 C  
DOCKED: BRANCH  12  13
DOCKED: ATOM     13  C   UNL     1     -51.123 -20.792  16.687 -0.04 +0.00    +0.038 C  
DOCKED: BRANCH  13  14
DOCKED: ATOM     14  C   UNL     1     -50.089 -20.296  17.696 -0.00 +0.00    +0.251 C  
DOCKED: BRANCH  14  15
DOCKED: ATOM     15  N   UNL     1     -50.231 -21.008  18.960 -0.00 +0.00    +0.141 N  
DOCKED: ATOM     16  C   UNL     1     -49.122 -21.943  19.153 -0.00 +0.00    +0.285 C  
DOCKED: ATOM     17  C   UNL     1     -50.302 -20.066  20.078 +0.00 +0.00    +0.285 C  
DOCKED: ENDBRANCH  14  15
DOCKED: ENDBRANCH  13  14
DOCKED: ENDBRANCH  12  13
DOCKED: ENDBRANCH   2  12
DOCKED: BRANCH   2  18
DOCKED: ATOM     18  C   UNL     1     -49.538 -23.300  15.886 -0.13 +0.00    +0.006 A  
DOCKED: ATOM     19  C   UNL     1     -50.026 -24.256  16.775 -0.17 +0.00    +0.001 A  
DOCKED: ATOM     20  C   UNL     1     -49.143 -24.953  17.601 -0.15 +0.00    +0.029 A  
DOCKED: ATOM     21  C   UNL     1     -47.774 -24.694  17.535 -0.13 +0.00    +0.140 A  
DOCKED: ATOM     22  C   UNL     1     -47.287 -23.737  16.645 -0.05 +0.00    +0.029 A  
DOCKED: ATOM     23  F   UNL     1     -46.927 -25.364  18.326 -0.06 -0.00    -0.204 F  
DOCKED: ATOM     24  C   UNL     1     -48.170 -23.039  15.819 -0.15 +0.00    +0.001 A  
DOCKED: ENDBRANCH   2  18
DOCKED: TORSDOF 5
DOCKED: TER
DOCKED: ENDMDL
________________________________________________________________________________


    FINAL DOCKED STATE:
    ________________________


Run:   132 / 512
Time taken for this run:   0.002s

DOCKED: MODEL        132
DOCKED: USER    Run = 132
DOCKED: USER
DOCKED: USER    Estimated Free Energy of Binding    =  -4.44 kcal/mol  [=(1)+(2)+(3)-(4)]
DOCKED: USER
DOCKED: USER    (1) Final Intermolecular Energy     =  -5.93 kcal/mol
DOCKED: USER        vdW + Hbond + desolv Energy     =  -5.93 kcal/mol
DOCKED: USER        Electrostatic Energy            =  +0.00 kcal/mol
DOCKED: USER        Moving Ligand-Fixed Receptor    =  -5.93 kcal/mol
DOCKED: USER        Moving Ligand-Moving Receptor   =  +0.00 kcal/mol
DOCKED: USER    (2) Final Total Internal Energy     =  -1.40 kcal/mol
DOCKED: USER    (3) Torsional Free Energy           =  +1.49 kcal/mol
DOCKED: USER    (4) Unbound System's Energy         =  -1.40 kcal/mol
DOCKED: USER
DOCKED: USER
DOCKED: REMARK  5 active torsions:
DOCKED: REMARK  status: ('A' for Active; 'I' for Inactive)
DOCKED: REMARK    1  A    between atoms: C_2  and  C_19 
DOCKED: REMARK    2  A    between atoms: C_2  and  C_11 
DOCKED: REMARK    3  A    between atoms: C_19  and  C_20 
DOCKED: REMARK    4  A    between atoms: C_20  and  C_21 
DOCKED: REMARK    5  A    between atoms: C_21  and  N_22 
DOCKED: USER                              x       y       z     vdW  Elec       q    Type
DOCKED: USER                           _______ _______ _______ _____ _____    ______ ____
DOCKED: ROOT
DOCKED: ATOM      1  O   UNL     1     -45.579 -21.345  15.344 -0.07 -0.00    -0.346 OA 
DOCKED: ATOM      2  C   UNL     1     -46.573 -20.520  14.657 -0.13 +0.00    +0.130 C  
DOCKED: ATOM      3  C   UNL     1     -47.465 -21.520  13.981 -0.22 +0.00    +0.004 A  
DOCKED: ATOM      4  C   UNL     1     -47.083 -22.805  14.339 -0.24 +0.00    +0.006 A  
DOCKED: ATOM      5  C   UNL     1     -45.936 -22.745  15.274 -0.17 +0.00    +0.169 C  
DOCKED: ATOM      6  C   UNL     1     -48.537 -21.310  13.126 -0.29 -0.00    -0.001 A  
DOCKED: ATOM      7  C   UNL     1     -47.750 -23.917  13.856 -0.35 +0.00    +0.008 A  
DOCKED: ATOM      8  C   UNL     1     -49.218 -22.421  12.626 -0.34 +0.00    +0.010 A  
DOCKED: ATOM      9  C   UNL     1     -48.826 -23.718  12.990 -0.32 +0.00    +0.068 A  
DOCKED: ATOM     10  N   UNL     1     -50.115 -25.760  12.049 -2.57 -0.00    -0.191 NA 
DOCKED: ATOM     11  C   UNL     1     -49.536 -24.844  12.470 -0.27 +0.00    +0.101 C  
DOCKED: ENDROOT
DOCKED: BRANCH   2  12
DOCKED: ATOM     12  C   UNL     1     -47.305 -19.679  15.697 -0.06 +0.00    +0.038 C  
DOCKED: BRANCH  12  13
DOCKED: ATOM     13  C   UNL     1     -48.662 -20.286  16.048 -0.05 +0.00    +0.038 C  
DOCKED: BRANCH  13  14
DOCKED: ATOM     14  C   UNL     1     -48.568 -21.155  17.301 -0.01 +0.00    +0.251 C  
DOCKED: BRANCH  14  15
DOCKED: ATOM     15  N   UNL     1     -48.811 -22.553  16.967 -0.05 +0.00    +0.141 N  
DOCKED: ATOM     16  C   UNL     1     -47.976 -23.432  17.788 -0.07 +0.00    +0.285 C  
DOCKED: ATOM     17  C   UNL     1     -50.225 -22.887  17.144 -0.02 +0.00    +0.285 C  
DOCKED: ENDBRANCH  14  15
DOCKED: ENDBRANCH  13  14
DOCKED: ENDBRANCH  12  13
DOCKED: ENDBRANCH   2  12
DOCKED: BRANCH   2  18
DOCKED: ATOM     18  C   UNL     1     -45.832 -19.656  13.692 -0.14 +0.00    +0.006 A  
DOCKED: ATOM     19  C   UNL     1     -46.527 -18.755  12.887 -0.16 +0.00    +0.001 A  
DOCKED: ATOM     20  C   UNL     1     -45.832 -17.948  11.985 -0.12 +0.00    +0.029 A  
DOCKED: ATOM     21  C   UNL     1     -44.445 -18.043  11.889 -0.07 +0.00    +0.140 A  
DOCKED: ATOM     22  C   UNL     1     -43.750 -18.945  12.695 -0.09 +0.00    +0.029 A  
DOCKED: ATOM     23  F   UNL     1     -43.778 -17.267  11.025 -0.00 -0.00    -0.204 F  
DOCKED: ATOM     24  C   UNL     1     -44.444 -19.753  13.597 -0.11 +0.00    +0.001 A  
DOCKED: ENDBRANCH   2  18
DOCKED: TORSDOF 5
DOCKED: TER
DOCKED: ENDMDL
________________________________________________________________________________


    FINAL DOCKED STATE:
    ________________________


Run:   133 / 512
Time taken for this run:   0.002s

DOCKED: MODEL        133
DOCKED: USER    Run = 133
DOCKED: USER
DOCKED: USER    Estimated Free Energy of Binding    =  -4.48 kcal/mol  [=(1)+(2)+(3)-(4)]
DOCKED: USER
DOCKED: USER    (1) Final Intermolecular Energy     =  -5.97 kcal/mol
DOCKED: USER        vdW + Hbond + desolv Energy     =  -5.97 kcal/mol
DOCKED: USER        Electrostatic Energy            =  +0.00 kcal/mol
DOCKED: USER        Moving Ligand-Fixed Receptor    =  -5.97 kcal/mol
DOCKED: USER        Moving Ligand-Moving Receptor   =  +0.00 kcal/mol
DOCKED: USER    (2) Final Total Internal Energy     =  -1.48 kcal/mol
DOCKED: USER    (3) Torsional Free Energy           =  +1.49 kcal/mol
DOCKED: USER    (4) Unbound System's Energy         =  -1.48 kcal/mol
DOCKED: USER
DOCKED: USER
DOCKED: REMARK  5 active torsions:
DOCKED: REMARK  status: ('A' for Active; 'I' for Inactive)
DOCKED: REMARK    1  A    between atoms: C_2  and  C_19 
DOCKED: REMARK    2  A    between atoms: C_2  and  C_11 
DOCKED: REMARK    3  A    between atoms: C_19  and  C_20 
DOCKED: REMARK    4  A    between atoms: C_20  and  C_21 
DOCKED: REMARK    5  A    between atoms: C_21  and  N_22 
DOCKED: USER                              x       y       z     vdW  Elec       q    Type
DOCKED: USER                           _______ _______ _______ _____ _____    ______ ____
DOCKED: ROOT
DOCKED: ATOM      1  O   UNL     1     -47.966 -19.383  14.368 -0.04 -0.00    -0.346 OA 
DOCKED: ATOM      2  C   UNL     1     -49.423 -19.446  14.486 -0.13 +0.00    +0.130 C  
DOCKED: ATOM      3  C   UNL     1     -49.770 -20.798  13.934 -0.21 +0.00    +0.004 A  
DOCKED: ATOM      4  C   UNL     1     -48.607 -21.491  13.630 -0.26 +0.00    +0.006 A  
DOCKED: ATOM      5  C   UNL     1     -47.427 -20.664  13.967 -0.18 +0.00    +0.169 C  
DOCKED: ATOM      6  C   UNL     1     -51.016 -21.373  13.728 -0.22 -0.00    -0.001 A  
DOCKED: ATOM      7  C   UNL     1     -48.647 -22.773  13.109 -0.33 +0.00    +0.008 A  
DOCKED: ATOM      8  C   UNL     1     -51.073 -22.664  13.199 -0.24 +0.00    +0.010 A  
DOCKED: ATOM      9  C   UNL     1     -49.895 -23.360  12.892 -0.27 +0.00    +0.068 A  
DOCKED: ATOM     10  N   UNL     1     -50.037 -25.756  11.916 -2.50 -0.00    -0.191 NA 
DOCKED: ATOM     11  C   UNL     1     -49.973 -24.681  12.353 -0.37 +0.00    +0.101 C  
DOCKED: ENDROOT
DOCKED: BRANCH   2  12
DOCKED: ATOM     12  C   UNL     1     -49.796 -19.291  15.956 -0.04 +0.00    +0.038 C  
DOCKED: BRANCH  12  13
DOCKED: ATOM     13  C   UNL     1     -48.966 -20.219  16.841 -0.03 +0.00    +0.038 C  
DOCKED: BRANCH  13  14
DOCKED: ATOM     14  C   UNL     1     -49.761 -21.465  17.227 -0.01 +0.00    +0.251 C  
DOCKED: BRANCH  14  15
DOCKED: ATOM     15  N   UNL     1     -49.099 -22.664  16.726 -0.05 +0.00    +0.141 N  
DOCKED: ATOM     16  C   UNL     1     -47.756 -22.788  17.295 -0.05 +0.00    +0.285 C  
DOCKED: ATOM     17  C   UNL     1     -49.891 -23.857  17.032 -0.07 +0.00    +0.285 C  
DOCKED: ENDBRANCH  14  15
DOCKED: ENDBRANCH  13  14
DOCKED: ENDBRANCH  12  13
DOCKED: ENDBRANCH   2  12
DOCKED: BRANCH   2  18
DOCKED: ATOM     18  C   UNL     1     -49.976 -18.325  13.670 -0.19 +0.00    +0.006 A  
DOCKED: ATOM     19  C   UNL     1     -51.338 -18.032  13.721 -0.20 +0.00    +0.001 A  
DOCKED: ATOM     20  C   UNL     1     -51.853 -16.984  12.957 -0.17 +0.00    +0.029 A  
DOCKED: ATOM     21  C   UNL     1     -51.006 -16.231  12.144 -0.08 +0.00    +0.140 A  
DOCKED: ATOM     22  C   UNL     1     -49.644 -16.525  12.094 -0.14 +0.00    +0.029 A  
DOCKED: ATOM     23  F   UNL     1     -51.501 -15.224  11.413 -0.03 -0.00    -0.204 F  
DOCKED: ATOM     24  C   UNL     1     -49.128 -17.574  12.857 -0.15 +0.00    +0.001 A  
DOCKED: ENDBRANCH   2  18
DOCKED: TORSDOF 5
DOCKED: TER
DOCKED: ENDMDL
________________________________________________________________________________


    FINAL DOCKED STATE:
    ________________________


Run:   134 / 512
Time taken for this run:   0.002s

DOCKED: MODEL        134
DOCKED: USER    Run = 134
DOCKED: USER
DOCKED: USER    Estimated Free Energy of Binding    =  -4.10 kcal/mol  [=(1)+(2)+(3)-(4)]
DOCKED: USER
DOCKED: USER    (1) Final Intermolecular Energy     =  -5.60 kcal/mol
DOCKED: USER        vdW + Hbond + desolv Energy     =  -5.60 kcal/mol
DOCKED: USER        Electrostatic Energy            =  +0.00 kcal/mol
DOCKED: USER        Moving Ligand-Fixed Receptor    =  -5.60 kcal/mol
DOCKED: USER        Moving Ligand-Moving Receptor   =  +0.00 kcal/mol
DOCKED: USER    (2) Final Total Internal Energy     =  -1.26 kcal/mol
DOCKED: USER    (3) Torsional Free Energy           =  +1.49 kcal/mol
DOCKED: USER    (4) Unbound System's Energy         =  -1.26 kcal/mol
DOCKED: USER
DOCKED: USER
DOCKED: REMARK  5 active torsions:
DOCKED: REMARK  status: ('A' for Active; 'I' for Inactive)
DOCKED: REMARK    1  A    between atoms: C_2  and  C_19 
DOCKED: REMARK    2  A    between atoms: C_2  and  C_11 
DOCKED: REMARK    3  A    between atoms: C_19  and  C_20 
DOCKED: REMARK    4  A    between atoms: C_20  and  C_21 
DOCKED: REMARK    5  A    between atoms: C_21  and  N_22 
DOCKED: USER                              x       y       z     vdW  Elec       q    Type
DOCKED: USER                           _______ _______ _______ _____ _____    ______ ____
DOCKED: ROOT
DOCKED: ATOM      1  O   UNL     1     -43.751 -18.251   9.095 -0.01 -0.00    -0.346 OA 
DOCKED: ATOM      2  C   UNL     1     -44.218 -19.248   8.131 -0.18 +0.00    +0.130 C  
DOCKED: ATOM      3  C   UNL     1     -43.682 -20.544   8.665 -0.24 +0.00    +0.004 A  
DOCKED: ATOM      4  C   UNL     1     -43.058 -20.324   9.885 -0.15 +0.00    +0.006 A  
DOCKED: ATOM      5  C   UNL     1     -43.147 -18.891  10.244 -0.08 +0.00    +0.169 C  
DOCKED: ATOM      6  C   UNL     1     -43.751 -21.819   8.121 -0.30 -0.00    -0.001 A  
DOCKED: ATOM      7  C   UNL     1     -42.480 -21.362  10.597 -0.14 +0.00    +0.008 A  
DOCKED: ATOM      8  C   UNL     1     -43.169 -22.875   8.825 -0.32 +0.00    +0.010 A  
DOCKED: ATOM      9  C   UNL     1     -42.538 -22.647  10.057 -0.18 +0.00    +0.068 A  
DOCKED: ATOM     10  N   UNL     1     -41.474 -24.631  11.339 -1.86 -0.00    -0.191 NA 
DOCKED: ATOM     11  C   UNL     1     -41.950 -23.741  10.764 -0.24 +0.00    +0.101 C  
DOCKED: ENDROOT
DOCKED: BRANCH   2  12
DOCKED: ATOM     12  C   UNL     1     -45.741 -19.206   8.094 -0.28 +0.00    +0.038 C  
DOCKED: BRANCH  12  13
DOCKED: ATOM     13  C   UNL     1     -46.248 -17.887   7.516 -0.25 +0.00    +0.038 C  
DOCKED: BRANCH  13  14
DOCKED: ATOM     14  C   UNL     1     -46.270 -16.793   8.582 -0.12 +0.00    +0.251 C  
DOCKED: BRANCH  14  15
DOCKED: ATOM     15  N   UNL     1     -46.177 -15.477   7.960 -0.17 +0.00    +0.141 N  
DOCKED: ATOM     16  C   UNL     1     -45.846 -15.599   6.540 -0.18 +0.00    +0.285 C  
DOCKED: ATOM     17  C   UNL     1     -47.430 -14.739   8.127 -0.21 +0.00    +0.285 C  
DOCKED: ENDBRANCH  14  15
DOCKED: ENDBRANCH  13  14
DOCKED: ENDBRANCH  12  13
DOCKED: ENDBRANCH   2  12
DOCKED: BRANCH   2  18
DOCKED: ATOM     18  C   UNL     1     -43.637 -18.880   6.807 -0.16 +0.00    +0.006 A  
DOCKED: ATOM     19  C   UNL     1     -42.990 -17.656   6.646 -0.06 +0.00    +0.001 A  
DOCKED: ATOM     20  C   UNL     1     -42.447 -17.313   5.407 -0.04 +0.00    +0.029 A  
DOCKED: ATOM     21  C   UNL     1     -42.552 -18.194   4.332 -0.07 +0.00    +0.140 A  
DOCKED: ATOM     22  C   UNL     1     -43.199 -19.418   4.493 -0.20 +0.00    +0.029 A  
DOCKED: ATOM     23  F   UNL     1     -42.029 -17.865   3.143 -0.00 -0.00    -0.204 F  
DOCKED: ATOM     24  C   UNL     1     -43.743 -19.762   5.732 -0.15 +0.00    +0.001 A  
DOCKED: ENDBRANCH   2  18
DOCKED: TORSDOF 5
DOCKED: TER
DOCKED: ENDMDL
________________________________________________________________________________


    FINAL DOCKED STATE:
    ________________________


Run:   135 / 512
Time taken for this run:   0.002s

DOCKED: MODEL        135
DOCKED: USER    Run = 135
DOCKED: USER
DOCKED: USER    Estimated Free Energy of Binding    =  -3.85 kcal/mol  [=(1)+(2)+(3)-(4)]
DOCKED: USER
DOCKED: USER    (1) Final Intermolecular Energy     =  -5.34 kcal/mol
DOCKED: USER        vdW + Hbond + desolv Energy     =  -5.34 kcal/mol
DOCKED: USER        Electrostatic Energy            =  +0.00 kcal/mol
DOCKED: USER        Moving Ligand-Fixed Receptor    =  -5.34 kcal/mol
DOCKED: USER        Moving Ligand-Moving Receptor   =  +0.00 kcal/mol
DOCKED: USER    (2) Final Total Internal Energy     =  -1.16 kcal/mol
DOCKED: USER    (3) Torsional Free Energy           =  +1.49 kcal/mol
DOCKED: USER    (4) Unbound System's Energy         =  -1.16 kcal/mol
DOCKED: USER
DOCKED: USER
DOCKED: REMARK  5 active torsions:
DOCKED: REMARK  status: ('A' for Active; 'I' for Inactive)
DOCKED: REMARK    1  A    between atoms: C_2  and  C_19 
DOCKED: REMARK    2  A    between atoms: C_2  and  C_11 
DOCKED: REMARK    3  A    between atoms: C_19  and  C_20 
DOCKED: REMARK    4  A    between atoms: C_20  and  C_21 
DOCKED: REMARK    5  A    between atoms: C_21  and  N_22 
DOCKED: USER                              x       y       z     vdW  Elec       q    Type
DOCKED: USER                           _______ _______ _______ _____ _____    ______ ____
DOCKED: ROOT
DOCKED: ATOM      1  O   UNL     1     -48.470 -19.795  15.432 -0.01 -0.00    -0.346 OA 
DOCKED: ATOM      2  C   UNL     1     -49.870 -19.694  15.016 -0.09 +0.00    +0.130 C  
DOCKED: ATOM      3  C   UNL     1     -50.113 -20.969  14.261 -0.18 +0.00    +0.004 A  
DOCKED: ATOM      4  C   UNL     1     -48.987 -21.776  14.333 -0.18 +0.00    +0.006 A  
DOCKED: ATOM      5  C   UNL     1     -47.941 -21.109  15.139 -0.10 +0.00    +0.169 C  
DOCKED: ATOM      6  C   UNL     1     -51.245 -21.385  13.576 -0.22 -0.00    -0.001 A  
DOCKED: ATOM      7  C   UNL     1     -48.951 -23.018  13.722 -0.28 +0.00    +0.008 A  
DOCKED: ATOM      8  C   UNL     1     -51.223 -22.633  12.951 -0.24 +0.00    +0.010 A  
DOCKED: ATOM      9  C   UNL     1     -50.082 -23.446  13.024 -0.25 +0.00    +0.068 A  
DOCKED: ATOM     10  N   UNL     1     -50.075 -25.759  11.858 -2.47 -0.00    -0.191 NA 
DOCKED: ATOM     11  C   UNL     1     -50.078 -24.721  12.380 -0.35 +0.00    +0.101 C  
DOCKED: ENDROOT
DOCKED: BRANCH   2  12
DOCKED: ATOM     12  C   UNL     1     -50.736 -19.569  16.264 -0.04 +0.00    +0.038 C  
DOCKED: BRANCH  12  13
DOCKED: ATOM     13  C   UNL     1     -50.069 -18.687  17.318 -0.01 +0.00    +0.038 C  
DOCKED: BRANCH  13  14
DOCKED: ATOM     14  C   UNL     1     -50.123 -19.343  18.697 +0.00 +0.00    +0.251 C  
DOCKED: BRANCH  14  15
DOCKED: ATOM     15  N   UNL     1     -49.005 -18.891  19.517 +0.00 +0.00    +0.141 N  
DOCKED: ATOM     16  C   UNL     1     -47.865 -19.799  19.380 +0.00 +0.00    +0.285 C  
DOCKED: ATOM     17  C   UNL     1     -48.616 -17.528  19.153 +0.00 +0.00    +0.285 C  
DOCKED: ENDBRANCH  14  15
DOCKED: ENDBRANCH  13  14
DOCKED: ENDBRANCH  12  13
DOCKED: ENDBRANCH   2  12
DOCKED: BRANCH   2  18
DOCKED: ATOM     18  C   UNL     1     -49.984 -18.479  14.158 -0.16 +0.00    +0.006 A  
DOCKED: ATOM     19  C   UNL     1     -48.851 -17.717  13.875 -0.12 +0.00    +0.001 A  
DOCKED: ATOM     20  C   UNL     1     -48.959 -16.580  13.072 -0.12 +0.00    +0.029 A  
DOCKED: ATOM     21  C   UNL     1     -50.199 -16.208  12.554 -0.13 +0.00    +0.140 A  
DOCKED: ATOM     22  C   UNL     1     -51.331 -16.971  12.837 -0.17 +0.00    +0.029 A  
DOCKED: ATOM     23  F   UNL     1     -50.302 -15.119  11.782 -0.02 -0.00    -0.204 F  
DOCKED: ATOM     24  C   UNL     1     -51.224 -18.108  13.640 -0.21 +0.00    +0.001 A  
DOCKED: ENDBRANCH   2  18
DOCKED: TORSDOF 5
DOCKED: TER
DOCKED: ENDMDL
________________________________________________________________________________


    FINAL DOCKED STATE:
    ________________________


Run:   136 / 512
Time taken for this run:   0.002s

DOCKED: MODEL        136
DOCKED: USER    Run = 136
DOCKED: USER
DOCKED: USER    Estimated Free Energy of Binding    =  -5.64 kcal/mol  [=(1)+(2)+(3)-(4)]
DOCKED: USER
DOCKED: USER    (1) Final Intermolecular Energy     =  -7.13 kcal/mol
DOCKED: USER        vdW + Hbond + desolv Energy     =  -7.13 kcal/mol
DOCKED: USER        Electrostatic Energy            =  +0.00 kcal/mol
DOCKED: USER        Moving Ligand-Fixed Receptor    =  -7.13 kcal/mol
DOCKED: USER        Moving Ligand-Moving Receptor   =  +0.00 kcal/mol
DOCKED: USER    (2) Final Total Internal Energy     =  -1.04 kcal/mol
DOCKED: USER    (3) Torsional Free Energy           =  +1.49 kcal/mol
DOCKED: USER    (4) Unbound System's Energy         =  -1.04 kcal/mol
DOCKED: USER
DOCKED: USER
DOCKED: REMARK  5 active torsions:
DOCKED: REMARK  status: ('A' for Active; 'I' for Inactive)
DOCKED: REMARK    1  A    between atoms: C_2  and  C_19 
DOCKED: REMARK    2  A    between atoms: C_2  and  C_11 
DOCKED: REMARK    3  A    between atoms: C_19  and  C_20 
DOCKED: REMARK    4  A    between atoms: C_20  and  C_21 
DOCKED: REMARK    5  A    between atoms: C_21  and  N_22 
DOCKED: USER                              x       y       z     vdW  Elec       q    Type
DOCKED: USER                           _______ _______ _______ _____ _____    ______ ____
DOCKED: ROOT
DOCKED: ATOM      1  O   UNL     1     -48.767 -21.655  14.933 -0.03 -0.00    -0.346 OA 
DOCKED: ATOM      2  C   UNL     1     -48.510 -23.094  14.877 -0.18 +0.00    +0.130 C  
DOCKED: ATOM      3  C   UNL     1     -48.897 -23.474  13.477 -0.32 +0.00    +0.004 A  
DOCKED: ATOM      4  C   UNL     1     -49.240 -22.336  12.762 -0.33 +0.00    +0.006 A  
DOCKED: ATOM      5  C   UNL     1     -49.093 -21.140  13.621 -0.21 +0.00    +0.169 C  
DOCKED: ATOM      6  C   UNL     1     -48.932 -24.727  12.881 -0.20 -0.00    -0.001 A  
DOCKED: ATOM      7  C   UNL     1     -49.632 -22.408  11.436 +0.25 +0.00    +0.008 A  
DOCKED: ATOM      8  C   UNL     1     -49.329 -24.817  11.546 -0.50 +0.00    +0.010 A  
DOCKED: ATOM      9  C   UNL     1     -49.677 -23.663  10.827 -0.42 +0.00    +0.068 A  
DOCKED: ATOM     10  N   UNL     1     -50.404 -23.866   8.349 -3.15 -0.00    -0.191 NA 
DOCKED: ATOM     11  C   UNL     1     -50.079 -23.775   9.461 -0.43 +0.00    +0.101 C  
DOCKED: ENDROOT
DOCKED: BRANCH   2  12
DOCKED: ATOM     12  C   UNL     1     -47.033 -23.332  15.170 -0.24 +0.00    +0.038 C  
DOCKED: BRANCH  12  13
DOCKED: ATOM     13  C   UNL     1     -46.195 -22.098  14.845 -0.19 +0.00    +0.038 C  
DOCKED: BRANCH  13  14
DOCKED: ATOM     14  C   UNL     1     -45.426 -21.616  16.074 -0.08 +0.00    +0.251 C  
DOCKED: BRANCH  14  15
DOCKED: ATOM     15  N   UNL     1     -44.122 -22.265  16.143 -0.10 +0.00    +0.141 N  
DOCKED: ATOM     16  C   UNL     1     -44.077 -23.215  17.256 -0.05 +0.00    +0.285 C  
DOCKED: ATOM     17  C   UNL     1     -43.817 -22.944  14.883 -0.06 +0.00    +0.285 C  
DOCKED: ENDBRANCH  14  15
DOCKED: ENDBRANCH  13  14
DOCKED: ENDBRANCH  12  13
DOCKED: ENDBRANCH   2  12
DOCKED: BRANCH   2  18
DOCKED: ATOM     18  C   UNL     1     -49.373 -23.732  15.913 -0.17 +0.00    +0.006 A  
DOCKED: ATOM     19  C   UNL     1     -50.750 -23.823  15.713 -0.16 +0.00    +0.001 A  
DOCKED: ATOM     20  C   UNL     1     -51.557 -24.420  16.683 -0.14 +0.00    +0.029 A  
DOCKED: ATOM     21  C   UNL     1     -50.986 -24.925  17.850 -0.07 +0.00    +0.140 A  
DOCKED: ATOM     22  C   UNL     1     -49.609 -24.833  18.050 -0.13 +0.00    +0.029 A  
DOCKED: ATOM     23  F   UNL     1     -51.760 -25.499  18.780 -0.03 -0.00    -0.204 F  
DOCKED: ATOM     24  C   UNL     1     -48.801 -24.236  17.081 -0.20 +0.00    +0.001 A  
DOCKED: ENDBRANCH   2  18
DOCKED: TORSDOF 5
DOCKED: TER
DOCKED: ENDMDL
________________________________________________________________________________


    FINAL DOCKED STATE:
    ________________________


Run:   137 / 512
Time taken for this run:   0.002s

DOCKED: MODEL        137
DOCKED: USER    Run = 137
DOCKED: USER
DOCKED: USER    Estimated Free Energy of Binding    =  -4.26 kcal/mol  [=(1)+(2)+(3)-(4)]
DOCKED: USER
DOCKED: USER    (1) Final Intermolecular Energy     =  -5.75 kcal/mol
DOCKED: USER        vdW + Hbond + desolv Energy     =  -5.75 kcal/mol
DOCKED: USER        Electrostatic Energy            =  +0.00 kcal/mol
DOCKED: USER        Moving Ligand-Fixed Receptor    =  -5.75 kcal/mol
DOCKED: USER        Moving Ligand-Moving Receptor   =  +0.00 kcal/mol
DOCKED: USER    (2) Final Total Internal Energy     =  -1.25 kcal/mol
DOCKED: USER    (3) Torsional Free Energy           =  +1.49 kcal/mol
DOCKED: USER    (4) Unbound System's Energy         =  -1.25 kcal/mol
DOCKED: USER
DOCKED: USER
DOCKED: REMARK  5 active torsions:
DOCKED: REMARK  status: ('A' for Active; 'I' for Inactive)
DOCKED: REMARK    1  A    between atoms: C_2  and  C_19 
DOCKED: REMARK    2  A    between atoms: C_2  and  C_11 
DOCKED: REMARK    3  A    between atoms: C_19  and  C_20 
DOCKED: REMARK    4  A    between atoms: C_20  and  C_21 
DOCKED: REMARK    5  A    between atoms: C_21  and  N_22 
DOCKED: USER                              x       y       z     vdW  Elec       q    Type
DOCKED: USER                           _______ _______ _______ _____ _____    ______ ____
DOCKED: ROOT
DOCKED: ATOM      1  O   UNL     1     -43.882 -15.327   6.367 -0.03 -0.00    -0.346 OA 
DOCKED: ATOM      2  C   UNL     1     -43.042 -15.347   5.169 -0.06 +0.00    +0.130 C  
DOCKED: ATOM      3  C   UNL     1     -43.865 -14.627   4.140 -0.15 +0.00    +0.004 A  
DOCKED: ATOM      4  C   UNL     1     -45.025 -14.141   4.728 -0.25 +0.00    +0.006 A  
DOCKED: ATOM      5  C   UNL     1     -45.044 -14.490   6.166 -0.16 +0.00    +0.169 C  
DOCKED: ATOM      6  C   UNL     1     -43.604 -14.409   2.796 -0.14 -0.00    -0.001 A  
DOCKED: ATOM      7  C   UNL     1     -45.960 -13.429   3.996 -0.35 +0.00    +0.008 A  
DOCKED: ATOM      8  C   UNL     1     -44.539 -13.697   2.043 -0.23 +0.00    +0.010 A  
DOCKED: ATOM      9  C   UNL     1     -45.711 -13.209   2.640 -0.26 +0.00    +0.068 A  
DOCKED: ATOM     10  N   UNL     1     -47.423 -11.886   1.215 -2.55 -0.00    -0.191 NA 
DOCKED: ATOM     11  C   UNL     1     -46.655 -12.480   1.854 -0.35 +0.00    +0.101 C  
DOCKED: ENDROOT
DOCKED: BRANCH   2  12
DOCKED: ATOM     12  C   UNL     1     -41.732 -14.635   5.485 -0.04 +0.00    +0.038 C  
DOCKED: BRANCH  12  13
DOCKED: ATOM     13  C   UNL     1     -41.789 -13.161   5.086 -0.07 +0.00    +0.038 C  
DOCKED: BRANCH  13  14
DOCKED: ATOM     14  C   UNL     1     -41.429 -12.259   6.264 -0.08 +0.00    +0.251 C  
DOCKED: BRANCH  14  15
DOCKED: ATOM     15  N   UNL     1     -42.349 -11.129   6.338 -0.13 +0.00    +0.141 N  
DOCKED: ATOM     16  C   UNL     1     -41.646  -9.919   6.766 -0.08 +0.00    +0.285 C  
DOCKED: ATOM     17  C   UNL     1     -42.998 -10.909   5.044 -0.14 +0.00    +0.285 C  
DOCKED: ENDBRANCH  14  15
DOCKED: ENDBRANCH  13  14
DOCKED: ENDBRANCH  12  13
DOCKED: ENDBRANCH   2  12
DOCKED: BRANCH   2  18
DOCKED: ATOM     18  C   UNL     1     -42.806 -16.780   4.825 -0.06 +0.00    +0.006 A  
DOCKED: ATOM     19  C   UNL     1     -43.700 -17.757   5.260 -0.16 +0.00    +0.001 A  
DOCKED: ATOM     20  C   UNL     1     -43.477 -19.097   4.939 -0.20 +0.00    +0.029 A  
DOCKED: ATOM     21  C   UNL     1     -42.363 -19.457   4.182 -0.12 +0.00    +0.140 A  
DOCKED: ATOM     22  C   UNL     1     -41.470 -18.479   3.747 -0.03 +0.00    +0.029 A  
DOCKED: ATOM     23  F   UNL     1     -42.151 -20.742   3.872 -0.07 -0.00    -0.204 F  
DOCKED: ATOM     24  C   UNL     1     -41.691 -17.138   4.068 -0.02 +0.00    +0.001 A  
DOCKED: ENDBRANCH   2  18
DOCKED: TORSDOF 5
DOCKED: TER
DOCKED: ENDMDL
________________________________________________________________________________


    FINAL DOCKED STATE:
    ________________________


Run:   138 / 512
Time taken for this run:   0.002s

DOCKED: MODEL        138
DOCKED: USER    Run = 138
DOCKED: USER
DOCKED: USER    Estimated Free Energy of Binding    =  -4.20 kcal/mol  [=(1)+(2)+(3)-(4)]
DOCKED: USER
DOCKED: USER    (1) Final Intermolecular Energy     =  -5.69 kcal/mol
DOCKED: USER        vdW + Hbond + desolv Energy     =  -5.69 kcal/mol
DOCKED: USER        Electrostatic Energy            =  +0.00 kcal/mol
DOCKED: USER        Moving Ligand-Fixed Receptor    =  -5.69 kcal/mol
DOCKED: USER        Moving Ligand-Moving Receptor   =  +0.00 kcal/mol
DOCKED: USER    (2) Final Total Internal Energy     =  -1.42 kcal/mol
DOCKED: USER    (3) Torsional Free Energy           =  +1.49 kcal/mol
DOCKED: USER    (4) Unbound System's Energy         =  -1.42 kcal/mol
DOCKED: USER
DOCKED: USER
DOCKED: REMARK  5 active torsions:
DOCKED: REMARK  status: ('A' for Active; 'I' for Inactive)
DOCKED: REMARK    1  A    between atoms: C_2  and  C_19 
DOCKED: REMARK    2  A    between atoms: C_2  and  C_11 
DOCKED: REMARK    3  A    between atoms: C_19  and  C_20 
DOCKED: REMARK    4  A    between atoms: C_20  and  C_21 
DOCKED: REMARK    5  A    between atoms: C_21  and  N_22 
DOCKED: USER                              x       y       z     vdW  Elec       q    Type
DOCKED: USER                           _______ _______ _______ _____ _____    ______ ____
DOCKED: ROOT
DOCKED: ATOM      1  O   UNL     1     -47.668 -19.011  13.738 -0.06 -0.00    -0.346 OA 
DOCKED: ATOM      2  C   UNL     1     -48.924 -19.152  14.476 -0.11 +0.00    +0.130 C  
DOCKED: ATOM      3  C   UNL     1     -49.437 -20.500  14.059 -0.20 +0.00    +0.004 A  
DOCKED: ATOM      4  C   UNL     1     -48.505 -21.122  13.241 -0.28 +0.00    +0.006 A  
DOCKED: ATOM      5  C   UNL     1     -47.322 -20.248  13.073 -0.12 +0.00    +0.169 C  
DOCKED: ATOM      6  C   UNL     1     -50.629 -21.130  14.387 -0.16 -0.00    -0.001 A  
DOCKED: ATOM      7  C   UNL     1     -48.731 -22.385  12.721 -0.33 +0.00    +0.008 A  
DOCKED: ATOM      8  C   UNL     1     -50.874 -22.402  13.867 -0.20 +0.00    +0.010 A  
DOCKED: ATOM      9  C   UNL     1     -49.929 -23.026  13.039 -0.25 +0.00    +0.068 A  
DOCKED: ATOM     10  N   UNL     1     -50.412 -25.390  12.095 -2.56 -0.00    -0.191 NA 
DOCKED: ATOM     11  C   UNL     1     -50.196 -24.330  12.517 -0.36 +0.00    +0.101 C  
DOCKED: ENDROOT
DOCKED: BRANCH   2  12
DOCKED: ATOM     12  C   UNL     1     -48.618 -19.069  15.967 -0.04 +0.00    +0.038 C  
DOCKED: BRANCH  12  13
DOCKED: ATOM     13  C   UNL     1     -48.193 -20.426  16.525 -0.04 +0.00    +0.038 C  
DOCKED: BRANCH  13  14
DOCKED: ATOM     14  C   UNL     1     -46.675 -20.591  16.469 -0.03 +0.00    +0.251 C  
DOCKED: BRANCH  14  15
DOCKED: ATOM     15  N   UNL     1     -46.318 -21.690  15.580 -0.11 +0.00    +0.141 N  
DOCKED: ATOM     16  C   UNL     1     -44.868 -21.890  15.564 -0.10 +0.00    +0.285 C  
DOCKED: ATOM     17  C   UNL     1     -46.996 -22.923  15.985 -0.09 +0.00    +0.285 C  
DOCKED: ENDBRANCH  14  15
DOCKED: ENDBRANCH  13  14
DOCKED: ENDBRANCH  12  13
DOCKED: ENDBRANCH   2  12
DOCKED: BRANCH   2  18
DOCKED: ATOM     18  C   UNL     1     -49.812 -18.033  14.046 -0.15 +0.00    +0.006 A  
DOCKED: ATOM     19  C   UNL     1     -49.699 -17.510  12.758 -0.16 +0.00    +0.001 A  
DOCKED: ATOM     20  C   UNL     1     -50.529 -16.463  12.357 -0.14 +0.00    +0.029 A  
DOCKED: ATOM     21  C   UNL     1     -51.471 -15.941  13.242 -0.09 +0.00    +0.140 A  
DOCKED: ATOM     22  C   UNL     1     -51.584 -16.465  14.530 -0.06 +0.00    +0.029 A  
DOCKED: ATOM     23  F   UNL     1     -52.270 -14.937  12.856 +0.00 -0.00    -0.204 F  
DOCKED: ATOM     24  C   UNL     1     -50.753 -17.512  14.932 -0.07 +0.00    +0.001 A  
DOCKED: ENDBRANCH   2  18
DOCKED: TORSDOF 5
DOCKED: TER
DOCKED: ENDMDL
________________________________________________________________________________


    FINAL DOCKED STATE:
    ________________________


Run:   139 / 512
Time taken for this run:   0.002s

DOCKED: MODEL        139
DOCKED: USER    Run = 139
DOCKED: USER
DOCKED: USER    Estimated Free Energy of Binding    =  -5.23 kcal/mol  [=(1)+(2)+(3)-(4)]
DOCKED: USER
DOCKED: USER    (1) Final Intermolecular Energy     =  -6.72 kcal/mol
DOCKED: USER        vdW + Hbond + desolv Energy     =  -6.72 kcal/mol
DOCKED: USER        Electrostatic Energy            =  +0.00 kcal/mol
DOCKED: USER        Moving Ligand-Fixed Receptor    =  -6.72 kcal/mol
DOCKED: USER        Moving Ligand-Moving Receptor   =  +0.00 kcal/mol
DOCKED: USER    (2) Final Total Internal Energy     =  -1.16 kcal/mol
DOCKED: USER    (3) Torsional Free Energy           =  +1.49 kcal/mol
DOCKED: USER    (4) Unbound System's Energy         =  -1.16 kcal/mol
DOCKED: USER
DOCKED: USER
DOCKED: REMARK  5 active torsions:
DOCKED: REMARK  status: ('A' for Active; 'I' for Inactive)
DOCKED: REMARK    1  A    between atoms: C_2  and  C_19 
DOCKED: REMARK    2  A    between atoms: C_2  and  C_11 
DOCKED: REMARK    3  A    between atoms: C_19  and  C_20 
DOCKED: REMARK    4  A    between atoms: C_20  and  C_21 
DOCKED: REMARK    5  A    between atoms: C_21  and  N_22 
DOCKED: USER                              x       y       z     vdW  Elec       q    Type
DOCKED: USER                           _______ _______ _______ _____ _____    ______ ____
DOCKED: ROOT
DOCKED: ATOM      1  O   UNL     1     -48.135 -22.973  14.568 -0.08 -0.00    -0.346 OA 
DOCKED: ATOM      2  C   UNL     1     -49.585 -23.150  14.655 -0.15 +0.00    +0.130 C  
DOCKED: ATOM      3  C   UNL     1     -50.003 -23.404  13.235 -0.28 +0.00    +0.004 A  
DOCKED: ATOM      4  C   UNL     1     -48.879 -23.475  12.424 -0.39 +0.00    +0.006 A  
DOCKED: ATOM      5  C   UNL     1     -47.658 -23.290  13.240 -0.14 +0.00    +0.169 C  
DOCKED: ATOM      6  C   UNL     1     -51.274 -23.569  12.706 -0.30 -0.00    -0.001 A  
DOCKED: ATOM      7  C   UNL     1     -48.986 -23.708  11.064 -0.16 +0.00    +0.008 A  
DOCKED: ATOM      8  C   UNL     1     -51.399 -23.800  11.335 -0.27 +0.00    +0.010 A  
DOCKED: ATOM      9  C   UNL     1     -50.261 -23.870  10.518 -0.40 +0.00    +0.068 A  
DOCKED: ATOM     10  N   UNL     1     -50.528 -24.306   7.978 -3.09 -0.00    -0.191 NA 
DOCKED: ATOM     11  C   UNL     1     -50.408 -24.110   9.118 -0.28 +0.00    +0.101 C  
DOCKED: ENDROOT
DOCKED: BRANCH   2  12
DOCKED: ATOM     12  C   UNL     1     -49.873 -24.329  15.577 -0.24 +0.00    +0.038 C  
DOCKED: BRANCH  12  13
DOCKED: ATOM     13  C   UNL     1     -49.380 -24.059  16.998 -0.19 +0.00    +0.038 C  
DOCKED: BRANCH  13  14
DOCKED: ATOM     14  C   UNL     1     -47.870 -24.260  17.103 -0.11 +0.00    +0.251 C  
DOCKED: BRANCH  14  15
DOCKED: ATOM     15  N   UNL     1     -47.424 -24.048  18.475 -0.12 +0.00    +0.141 N  
DOCKED: ATOM     16  C   UNL     1     -46.944 -25.300  19.061 -0.12 +0.00    +0.285 C  
DOCKED: ATOM     17  C   UNL     1     -46.374 -23.029  18.524 -0.05 +0.00    +0.285 C  
DOCKED: ENDBRANCH  14  15
DOCKED: ENDBRANCH  13  14
DOCKED: ENDBRANCH  12  13
DOCKED: ENDBRANCH   2  12
DOCKED: BRANCH   2  18
DOCKED: ATOM     18  C   UNL     1     -50.148 -21.884  15.210 -0.10 +0.00    +0.006 A  
DOCKED: ATOM     19  C   UNL     1     -49.321 -20.776  15.392 -0.08 +0.00    +0.001 A  
DOCKED: ATOM     20  C   UNL     1     -49.848 -19.593  15.911 -0.04 +0.00    +0.029 A  
DOCKED: ATOM     21  C   UNL     1     -51.199 -19.519  16.246 -0.02 +0.00    +0.140 A  
DOCKED: ATOM     22  C   UNL     1     -52.025 -20.627  16.062 -0.05 +0.00    +0.029 A  
DOCKED: ATOM     23  F   UNL     1     -51.705 -18.382  16.742 +0.00 -0.00    -0.204 F  
DOCKED: ATOM     24  C   UNL     1     -51.499 -21.812  15.544 -0.08 +0.00    +0.001 A  
DOCKED: ENDBRANCH   2  18
DOCKED: TORSDOF 5
DOCKED: TER
DOCKED: ENDMDL
________________________________________________________________________________


    FINAL DOCKED STATE:
    ________________________


Run:   140 / 512
Time taken for this run:   0.002s

DOCKED: MODEL        140
DOCKED: USER    Run = 140
DOCKED: USER
DOCKED: USER    Estimated Free Energy of Binding    =  -4.05 kcal/mol  [=(1)+(2)+(3)-(4)]
DOCKED: USER
DOCKED: USER    (1) Final Intermolecular Energy     =  -5.54 kcal/mol
DOCKED: USER        vdW + Hbond + desolv Energy     =  -5.54 kcal/mol
DOCKED: USER        Electrostatic Energy            =  +0.00 kcal/mol
DOCKED: USER        Moving Ligand-Fixed Receptor    =  -5.54 kcal/mol
DOCKED: USER        Moving Ligand-Moving Receptor   =  +0.00 kcal/mol
DOCKED: USER    (2) Final Total Internal Energy     =  -0.98 kcal/mol
DOCKED: USER    (3) Torsional Free Energy           =  +1.49 kcal/mol
DOCKED: USER    (4) Unbound System's Energy         =  -0.98 kcal/mol
DOCKED: USER
DOCKED: USER
DOCKED: REMARK  5 active torsions:
DOCKED: REMARK  status: ('A' for Active; 'I' for Inactive)
DOCKED: REMARK    1  A    between atoms: C_2  and  C_19 
DOCKED: REMARK    2  A    between atoms: C_2  and  C_11 
DOCKED: REMARK    3  A    between atoms: C_19  and  C_20 
DOCKED: REMARK    4  A    between atoms: C_20  and  C_21 
DOCKED: REMARK    5  A    between atoms: C_21  and  N_22 
DOCKED: USER                              x       y       z     vdW  Elec       q    Type
DOCKED: USER                           _______ _______ _______ _____ _____    ______ ____
DOCKED: ROOT
DOCKED: ATOM      1  O   UNL     1     -46.316 -20.146  14.575 -0.06 -0.00    -0.346 OA 
DOCKED: ATOM      2  C   UNL     1     -45.965 -21.368  15.301 -0.13 +0.00    +0.130 C  
DOCKED: ATOM      3  C   UNL     1     -46.891 -22.403  14.731 -0.22 +0.00    +0.004 A  
DOCKED: ATOM      4  C   UNL     1     -47.629 -21.849  13.694 -0.21 +0.00    +0.006 A  
DOCKED: ATOM      5  C   UNL     1     -47.240 -20.435  13.500 -0.16 +0.00    +0.169 C  
DOCKED: ATOM      6  C   UNL     1     -47.059 -23.732  15.093 -0.12 -0.00    -0.001 A  
DOCKED: ATOM      7  C   UNL     1     -48.558 -22.597  12.991 -0.33 +0.00    +0.008 A  
DOCKED: ATOM      8  C   UNL     1     -47.995 -24.498  14.396 -0.34 +0.00    +0.010 A  
DOCKED: ATOM      9  C   UNL     1     -48.740 -23.934  13.350 -0.31 +0.00    +0.068 A  
DOCKED: ATOM     10  N   UNL     1     -50.465 -25.386  12.073 -2.51 -0.00    -0.191 NA 
DOCKED: ATOM     11  C   UNL     1     -49.692 -24.734  12.646 -0.23 +0.00    +0.101 C  
DOCKED: ENDROOT
DOCKED: BRANCH   2  12
DOCKED: ATOM     12  C   UNL     1     -44.496 -21.679  15.041 -0.15 +0.00    +0.038 C  
DOCKED: BRANCH  12  13
DOCKED: ATOM     13  C   UNL     1     -44.106 -23.041  15.611 -0.17 +0.00    +0.038 C  
DOCKED: BRANCH  13  14
DOCKED: ATOM     14  C   UNL     1     -43.134 -23.767  14.682 -0.12 +0.00    +0.251 C  
DOCKED: BRANCH  14  15
DOCKED: ATOM     15  N   UNL     1     -42.106 -24.451  15.458 -0.18 +0.00    +0.141 N  
DOCKED: ATOM     16  C   UNL     1     -40.804 -23.810  15.270 -0.05 +0.00    +0.285 C  
DOCKED: ATOM     17  C   UNL     1     -42.461 -24.472  16.878 -0.10 +0.00    +0.285 C  
DOCKED: ENDBRANCH  14  15
DOCKED: ENDBRANCH  13  14
DOCKED: ENDBRANCH  12  13
DOCKED: ENDBRANCH   2  12
DOCKED: BRANCH   2  18
DOCKED: ATOM     18  C   UNL     1     -46.211 -21.102  16.748 -0.06 +0.00    +0.006 A  
DOCKED: ATOM     19  C   UNL     1     -45.209 -20.530  17.531 -0.02 +0.00    +0.001 A  
DOCKED: ATOM     20  C   UNL     1     -45.441 -20.282  18.885 -0.01 +0.00    +0.029 A  
DOCKED: ATOM     21  C   UNL     1     -46.672 -20.605  19.453 -0.00 +0.00    +0.140 A  
DOCKED: ATOM     22  C   UNL     1     -47.674 -21.176  18.669 -0.01 +0.00    +0.029 A  
DOCKED: ATOM     23  F   UNL     1     -46.894 -20.365  20.752 -0.00 -0.00    -0.204 F  
DOCKED: ATOM     24  C   UNL     1     -47.443 -21.426  17.315 -0.04 +0.00    +0.001 A  
DOCKED: ENDBRANCH   2  18
DOCKED: TORSDOF 5
DOCKED: TER
DOCKED: ENDMDL
________________________________________________________________________________


    FINAL DOCKED STATE:
    ________________________


Run:   141 / 512
Time taken for this run:   0.002s

DOCKED: MODEL        141
DOCKED: USER    Run = 141
DOCKED: USER
DOCKED: USER    Estimated Free Energy of Binding    =  -4.25 kcal/mol  [=(1)+(2)+(3)-(4)]
DOCKED: USER
DOCKED: USER    (1) Final Intermolecular Energy     =  -5.74 kcal/mol
DOCKED: USER        vdW + Hbond + desolv Energy     =  -5.74 kcal/mol
DOCKED: USER        Electrostatic Energy            =  +0.00 kcal/mol
DOCKED: USER        Moving Ligand-Fixed Receptor    =  -5.74 kcal/mol
DOCKED: USER        Moving Ligand-Moving Receptor   =  +0.00 kcal/mol
DOCKED: USER    (2) Final Total Internal Energy     =  -1.34 kcal/mol
DOCKED: USER    (3) Torsional Free Energy           =  +1.49 kcal/mol
DOCKED: USER    (4) Unbound System's Energy         =  -1.34 kcal/mol
DOCKED: USER
DOCKED: USER
DOCKED: REMARK  5 active torsions:
DOCKED: REMARK  status: ('A' for Active; 'I' for Inactive)
DOCKED: REMARK    1  A    between atoms: C_2  and  C_19 
DOCKED: REMARK    2  A    between atoms: C_2  and  C_11 
DOCKED: REMARK    3  A    between atoms: C_19  and  C_20 
DOCKED: REMARK    4  A    between atoms: C_20  and  C_21 
DOCKED: REMARK    5  A    between atoms: C_21  and  N_22 
DOCKED: USER                              x       y       z     vdW  Elec       q    Type
DOCKED: USER                           _______ _______ _______ _____ _____    ______ ____
DOCKED: ROOT
DOCKED: ATOM      1  O   UNL     1     -46.089 -20.506  14.863 -0.06 -0.00    -0.346 OA 
DOCKED: ATOM      2  C   UNL     1     -47.343 -19.912  14.400 -0.13 +0.00    +0.130 C  
DOCKED: ATOM      3  C   UNL     1     -48.098 -21.073  13.820 -0.23 +0.00    +0.004 A  
DOCKED: ATOM      4  C   UNL     1     -47.387 -22.245  14.032 -0.23 +0.00    +0.006 A  
DOCKED: ATOM      5  C   UNL     1     -46.137 -21.949  14.767 -0.12 +0.00    +0.169 C  
DOCKED: ATOM      6  C   UNL     1     -49.322 -21.091  13.167 -0.26 -0.00    -0.001 A  
DOCKED: ATOM      7  C   UNL     1     -47.868 -23.469  13.598 -0.33 +0.00    +0.008 A  
DOCKED: ATOM      8  C   UNL     1     -49.819 -22.317  12.719 -0.28 +0.00    +0.010 A  
DOCKED: ATOM      9  C   UNL     1     -49.096 -23.499  12.935 -0.31 +0.00    +0.068 A  
DOCKED: ATOM     10  N   UNL     1     -50.049 -25.758  12.096 -2.62 -0.00    -0.191 NA 
DOCKED: ATOM     11  C   UNL     1     -49.621 -24.745  12.472 -0.32 +0.00    +0.101 C  
DOCKED: ENDROOT
DOCKED: BRANCH   2  12
DOCKED: ATOM     12  C   UNL     1     -48.049 -19.282  15.595 -0.05 +0.00    +0.038 C  
DOCKED: BRANCH  12  13
DOCKED: ATOM     13  C   UNL     1     -47.452 -19.768  16.914 -0.02 +0.00    +0.038 C  
DOCKED: BRANCH  13  14
DOCKED: ATOM     14  C   UNL     1     -48.546 -20.043  17.944 -0.00 +0.00    +0.251 C  
DOCKED: BRANCH  14  15
DOCKED: ATOM     15  N   UNL     1     -48.621 -21.470  18.235 -0.01 +0.00    +0.141 N  
DOCKED: ATOM     16  C   UNL     1     -49.701 -22.097  17.470 -0.01 +0.00    +0.285 C  
DOCKED: ATOM     17  C   UNL     1     -47.345 -22.124  17.940 -0.03 +0.00    +0.285 C  
DOCKED: ENDBRANCH  14  15
DOCKED: ENDBRANCH  13  14
DOCKED: ENDBRANCH  12  13
DOCKED: ENDBRANCH   2  12
DOCKED: BRANCH   2  18
DOCKED: ATOM     18  C   UNL     1     -46.988 -18.882  13.380 -0.16 +0.00    +0.006 A  
DOCKED: ATOM     19  C   UNL     1     -45.963 -19.129  12.467 -0.14 +0.00    +0.001 A  
DOCKED: ATOM     20  C   UNL     1     -45.632 -18.165  11.515 -0.12 +0.00    +0.029 A  
DOCKED: ATOM     21  C   UNL     1     -46.325 -16.956  11.476 -0.07 +0.00    +0.140 A  
DOCKED: ATOM     22  C   UNL     1     -47.350 -16.709  12.389 -0.10 +0.00    +0.029 A  
DOCKED: ATOM     23  F   UNL     1     -46.008 -16.031  10.560 -0.02 -0.00    -0.204 F  
DOCKED: ATOM     24  C   UNL     1     -47.682 -17.673  13.343 -0.12 +0.00    +0.001 A  
DOCKED: ENDBRANCH   2  18
DOCKED: TORSDOF 5
DOCKED: TER
DOCKED: ENDMDL
________________________________________________________________________________


    FINAL DOCKED STATE:
    ________________________


Run:   142 / 512
Time taken for this run:   0.002s

DOCKED: MODEL        142
DOCKED: USER    Run = 142
DOCKED: USER
DOCKED: USER    Estimated Free Energy of Binding    =  -4.14 kcal/mol  [=(1)+(2)+(3)-(4)]
DOCKED: USER
DOCKED: USER    (1) Final Intermolecular Energy     =  -5.63 kcal/mol
DOCKED: USER        vdW + Hbond + desolv Energy     =  -5.63 kcal/mol
DOCKED: USER        Electrostatic Energy            =  +0.00 kcal/mol
DOCKED: USER        Moving Ligand-Fixed Receptor    =  -5.63 kcal/mol
DOCKED: USER        Moving Ligand-Moving Receptor   =  +0.00 kcal/mol
DOCKED: USER    (2) Final Total Internal Energy     =  -0.97 kcal/mol
DOCKED: USER    (3) Torsional Free Energy           =  +1.49 kcal/mol
DOCKED: USER    (4) Unbound System's Energy         =  -0.97 kcal/mol
DOCKED: USER
DOCKED: USER
DOCKED: REMARK  5 active torsions:
DOCKED: REMARK  status: ('A' for Active; 'I' for Inactive)
DOCKED: REMARK    1  A    between atoms: C_2  and  C_19 
DOCKED: REMARK    2  A    between atoms: C_2  and  C_11 
DOCKED: REMARK    3  A    between atoms: C_19  and  C_20 
DOCKED: REMARK    4  A    between atoms: C_20  and  C_21 
DOCKED: REMARK    5  A    between atoms: C_21  and  N_22 
DOCKED: USER                              x       y       z     vdW  Elec       q    Type
DOCKED: USER                           _______ _______ _______ _____ _____    ______ ____
DOCKED: ROOT
DOCKED: ATOM      1  O   UNL     1     -44.471 -15.237   7.431 -0.05 -0.00    -0.346 OA 
DOCKED: ATOM      2  C   UNL     1     -45.791 -15.445   6.834 -0.23 +0.00    +0.130 C  
DOCKED: ATOM      3  C   UNL     1     -45.832 -14.460   5.702 -0.27 +0.00    +0.004 A  
DOCKED: ATOM      4  C   UNL     1     -44.604 -13.823   5.592 -0.06 +0.00    +0.006 A  
DOCKED: ATOM      5  C   UNL     1     -43.674 -14.343   6.619 -0.13 +0.00    +0.169 C  
DOCKED: ATOM      6  C   UNL     1     -46.870 -14.159   4.831 -0.26 -0.00    -0.001 A  
DOCKED: ATOM      7  C   UNL     1     -44.373 -12.867   4.618 -0.19 +0.00    +0.008 A  
DOCKED: ATOM      8  C   UNL     1     -46.654 -13.194   3.847 -0.42 +0.00    +0.010 A  
DOCKED: ATOM      9  C   UNL     1     -45.411 -12.551   3.740 -0.30 +0.00    +0.068 A  
DOCKED: ATOM     10  N   UNL     1     -45.042 -10.768   1.897 -0.86 -0.00    -0.191 NA 
DOCKED: ATOM     11  C   UNL     1     -45.208 -11.567   2.724 -0.34 +0.00    +0.101 C  
DOCKED: ENDROOT
DOCKED: BRANCH   2  12
DOCKED: ATOM     12  C   UNL     1     -45.886 -16.892   6.365 -0.18 +0.00    +0.038 C  
DOCKED: BRANCH  12  13
DOCKED: ATOM     13  C   UNL     1     -45.524 -17.865   7.485 -0.23 +0.00    +0.038 C  
DOCKED: BRANCH  13  14
DOCKED: ATOM     14  C   UNL     1     -44.241 -18.627   7.158 -0.13 +0.00    +0.251 C  
DOCKED: BRANCH  14  15
DOCKED: ATOM     15  N   UNL     1     -44.210 -19.898   7.871 -0.21 +0.00    +0.141 N  
DOCKED: ATOM     16  C   UNL     1     -45.553 -20.473   7.960 -0.20 +0.00    +0.285 C  
DOCKED: ATOM     17  C   UNL     1     -43.299 -20.837   7.214 -0.14 +0.00    +0.285 C  
DOCKED: ENDBRANCH  14  15
DOCKED: ENDBRANCH  13  14
DOCKED: ENDBRANCH  12  13
DOCKED: ENDBRANCH   2  12
DOCKED: BRANCH   2  18
DOCKED: ATOM     18  C   UNL     1     -46.800 -15.155   7.894 -0.28 +0.00    +0.006 A  
DOCKED: ATOM     19  C   UNL     1     -47.906 -15.990   8.050 -0.27 +0.00    +0.001 A  
DOCKED: ATOM     20  C   UNL     1     -48.849 -15.718   9.042 -0.26 +0.00    +0.029 A  
DOCKED: ATOM     21  C   UNL     1     -48.685 -14.613   9.875 -0.16 +0.00    +0.140 A  
DOCKED: ATOM     22  C   UNL     1     -47.579 -13.778   9.719 -0.24 +0.00    +0.029 A  
DOCKED: ATOM     23  F   UNL     1     -49.589 -14.353  10.828 -0.01 -0.00    -0.204 F  
DOCKED: ATOM     24  C   UNL     1     -46.635 -14.049   8.727 -0.21 +0.00    +0.001 A  
DOCKED: ENDBRANCH   2  18
DOCKED: TORSDOF 5
DOCKED: TER
DOCKED: ENDMDL
________________________________________________________________________________


    FINAL DOCKED STATE:
    ________________________


Run:   143 / 512
Time taken for this run:   0.002s

DOCKED: MODEL        143
DOCKED: USER    Run = 143
DOCKED: USER
DOCKED: USER    Estimated Free Energy of Binding    =  -4.65 kcal/mol  [=(1)+(2)+(3)-(4)]
DOCKED: USER
DOCKED: USER    (1) Final Intermolecular Energy     =  -6.14 kcal/mol
DOCKED: USER        vdW + Hbond + desolv Energy     =  -6.14 kcal/mol
DOCKED: USER        Electrostatic Energy            =  +0.00 kcal/mol
DOCKED: USER        Moving Ligand-Fixed Receptor    =  -6.14 kcal/mol
DOCKED: USER        Moving Ligand-Moving Receptor   =  +0.00 kcal/mol
DOCKED: USER    (2) Final Total Internal Energy     =  -1.03 kcal/mol
DOCKED: USER    (3) Torsional Free Energy           =  +1.49 kcal/mol
DOCKED: USER    (4) Unbound System's Energy         =  -1.03 kcal/mol
DOCKED: USER
DOCKED: USER
DOCKED: REMARK  5 active torsions:
DOCKED: REMARK  status: ('A' for Active; 'I' for Inactive)
DOCKED: REMARK    1  A    between atoms: C_2  and  C_19 
DOCKED: REMARK    2  A    between atoms: C_2  and  C_11 
DOCKED: REMARK    3  A    between atoms: C_19  and  C_20 
DOCKED: REMARK    4  A    between atoms: C_20  and  C_21 
DOCKED: REMARK    5  A    between atoms: C_21  and  N_22 
DOCKED: USER                              x       y       z     vdW  Elec       q    Type
DOCKED: USER                           _______ _______ _______ _____ _____    ______ ____
DOCKED: ROOT
DOCKED: ATOM      1  O   UNL     1     -45.807 -21.042  15.266 -0.06 -0.00    -0.346 OA 
DOCKED: ATOM      2  C   UNL     1     -46.942 -20.301  14.716 -0.12 +0.00    +0.130 C  
DOCKED: ATOM      3  C   UNL     1     -47.762 -21.355  14.031 -0.22 +0.00    +0.004 A  
DOCKED: ATOM      4  C   UNL     1     -47.205 -22.605  14.264 -0.22 +0.00    +0.006 A  
DOCKED: ATOM      5  C   UNL     1     -46.003 -22.468  15.116 -0.17 +0.00    +0.169 C  
DOCKED: ATOM      6  C   UNL     1     -48.916 -21.221  13.273 -0.28 -0.00    -0.001 A  
DOCKED: ATOM      7  C   UNL     1     -47.775 -23.756  13.747 -0.34 +0.00    +0.008 A  
DOCKED: ATOM      8  C   UNL     1     -49.500 -22.372  12.741 -0.32 +0.00    +0.010 A  
DOCKED: ATOM      9  C   UNL     1     -48.933 -23.633  12.977 -0.32 +0.00    +0.068 A  
DOCKED: ATOM     10  N   UNL     1     -50.045 -25.749  11.979 -2.54 -0.00    -0.191 NA 
DOCKED: ATOM     11  C   UNL     1     -49.546 -24.800  12.426 -0.31 +0.00    +0.101 C  
DOCKED: ENDROOT
DOCKED: BRANCH   2  12
DOCKED: ATOM     12  C   UNL     1     -47.681 -19.627  15.865 -0.05 +0.00    +0.038 C  
DOCKED: BRANCH  12  13
DOCKED: ATOM     13  C   UNL     1     -49.194 -19.775  15.717 -0.06 +0.00    +0.038 C  
DOCKED: BRANCH  13  14
DOCKED: ATOM     14  C   UNL     1     -49.831 -18.468  15.248 -0.04 +0.00    +0.251 C  
DOCKED: BRANCH  14  15
DOCKED: ATOM     15  N   UNL     1     -50.450 -18.647  13.940 -0.16 +0.00    +0.141 N  
DOCKED: ATOM     16  C   UNL     1     -51.825 -19.128  14.081 -0.13 +0.00    +0.285 C  
DOCKED: ATOM     17  C   UNL     1     -50.425 -17.395  13.182 -0.14 +0.00    +0.285 C  
DOCKED: ENDBRANCH  14  15
DOCKED: ENDBRANCH  13  14
DOCKED: ENDBRANCH  12  13
DOCKED: ENDBRANCH   2  12
DOCKED: BRANCH   2  18
DOCKED: ATOM     18  C   UNL     1     -46.385 -19.291  13.768 -0.14 +0.00    +0.006 A  
DOCKED: ATOM     19  C   UNL     1     -47.236 -18.382  13.140 -0.14 +0.00    +0.001 A  
DOCKED: ATOM     20  C   UNL     1     -46.714 -17.439  12.254 -0.09 +0.00    +0.029 A  
DOCKED: ATOM     21  C   UNL     1     -45.344 -17.405  11.998 -0.07 +0.00    +0.140 A  
DOCKED: ATOM     22  C   UNL     1     -44.494 -18.315  12.627 -0.09 +0.00    +0.029 A  
DOCKED: ATOM     23  F   UNL     1     -44.843 -16.499  11.149 -0.00 -0.00    -0.204 F  
DOCKED: ATOM     24  C   UNL     1     -45.015 -19.259  13.513 -0.12 +0.00    +0.001 A  
DOCKED: ENDBRANCH   2  18
DOCKED: TORSDOF 5
DOCKED: TER
DOCKED: ENDMDL
________________________________________________________________________________


    FINAL DOCKED STATE:
    ________________________


Run:   144 / 512
Time taken for this run:   0.002s

DOCKED: MODEL        144
DOCKED: USER    Run = 144
DOCKED: USER
DOCKED: USER    Estimated Free Energy of Binding    =  -4.63 kcal/mol  [=(1)+(2)+(3)-(4)]
DOCKED: USER
DOCKED: USER    (1) Final Intermolecular Energy     =  -6.12 kcal/mol
DOCKED: USER        vdW + Hbond + desolv Energy     =  -6.12 kcal/mol
DOCKED: USER        Electrostatic Energy            =  +0.00 kcal/mol
DOCKED: USER        Moving Ligand-Fixed Receptor    =  -6.12 kcal/mol
DOCKED: USER        Moving Ligand-Moving Receptor   =  +0.00 kcal/mol
DOCKED: USER    (2) Final Total Internal Energy     =  -1.11 kcal/mol
DOCKED: USER    (3) Torsional Free Energy           =  +1.49 kcal/mol
DOCKED: USER    (4) Unbound System's Energy         =  -1.11 kcal/mol
DOCKED: USER
DOCKED: USER
DOCKED: REMARK  5 active torsions:
DOCKED: REMARK  status: ('A' for Active; 'I' for Inactive)
DOCKED: REMARK    1  A    between atoms: C_2  and  C_19 
DOCKED: REMARK    2  A    between atoms: C_2  and  C_11 
DOCKED: REMARK    3  A    between atoms: C_19  and  C_20 
DOCKED: REMARK    4  A    between atoms: C_20  and  C_21 
DOCKED: REMARK    5  A    between atoms: C_21  and  N_22 
DOCKED: USER                              x       y       z     vdW  Elec       q    Type
DOCKED: USER                           _______ _______ _______ _____ _____    ______ ____
DOCKED: ROOT
DOCKED: ATOM      1  O   UNL     1     -47.715 -23.128  14.991 -0.08 -0.00    -0.346 OA 
DOCKED: ATOM      2  C   UNL     1     -49.141 -23.387  15.196 -0.15 +0.00    +0.130 C  
DOCKED: ATOM      3  C   UNL     1     -49.671 -23.602  13.808 -0.25 +0.00    +0.004 A  
DOCKED: ATOM      4  C   UNL     1     -48.622 -23.579  12.899 -0.37 +0.00    +0.006 A  
DOCKED: ATOM      5  C   UNL     1     -47.344 -23.363  13.613 -0.11 +0.00    +0.169 C  
DOCKED: ATOM      6  C   UNL     1     -50.975 -23.813  13.385 -0.26 -0.00    -0.001 A  
DOCKED: ATOM      7  C   UNL     1     -48.839 -23.761  11.544 -0.19 +0.00    +0.008 A  
DOCKED: ATOM      8  C   UNL     1     -51.211 -23.994  12.021 -0.35 +0.00    +0.010 A  
DOCKED: ATOM      9  C   UNL     1     -50.148 -23.968  11.105 -0.41 +0.00    +0.068 A  
DOCKED: ATOM     10  N   UNL     1     -50.620 -24.311   8.581 -2.70 -0.00    -0.191 NA 
DOCKED: ATOM     11  C   UNL     1     -50.408 -24.157   9.713 -0.31 +0.00    +0.101 C  
DOCKED: ENDROOT
DOCKED: BRANCH   2  12
DOCKED: ATOM     12  C   UNL     1     -49.285 -24.617  16.084 -0.27 +0.00    +0.038 C  
DOCKED: BRANCH  12  13
DOCKED: ATOM     13  C   UNL     1     -48.318 -24.568  17.265 -0.25 +0.00    +0.038 C  
DOCKED: BRANCH  13  14
DOCKED: ATOM     14  C   UNL     1     -48.537 -25.752  18.205 +0.11 +0.00    +0.251 C  
DOCKED: BRANCH  14  15
DOCKED: ATOM     15  N   UNL     1     -49.166 -25.307  19.443 -0.15 +0.00    +0.141 N  
DOCKED: ATOM     16  C   UNL     1     -48.256 -25.482  20.576 -0.09 +0.00    +0.285 C  
DOCKED: ATOM     17  C   UNL     1     -49.581 -23.907  19.337 -0.04 +0.00    +0.285 C  
DOCKED: ENDBRANCH  14  15
DOCKED: ENDBRANCH  13  14
DOCKED: ENDBRANCH  12  13
DOCKED: ENDBRANCH   2  12
DOCKED: BRANCH   2  18
DOCKED: ATOM     18  C   UNL     1     -49.713 -22.177  15.856 -0.08 +0.00    +0.006 A  
DOCKED: ATOM     19  C   UNL     1     -51.027 -22.193  16.323 -0.06 +0.00    +0.001 A  
DOCKED: ATOM     20  C   UNL     1     -51.561 -21.061  16.939 -0.03 +0.00    +0.029 A  
DOCKED: ATOM     21  C   UNL     1     -50.782 -19.915  17.087 -0.01 +0.00    +0.140 A  
DOCKED: ATOM     22  C   UNL     1     -49.468 -19.899  16.620 -0.02 +0.00    +0.029 A  
DOCKED: ATOM     23  F   UNL     1     -51.294 -18.829  17.681 +0.00 -0.00    -0.204 F  
DOCKED: ATOM     24  C   UNL     1     -48.933 -21.031  16.003 -0.06 +0.00    +0.001 A  
DOCKED: ENDBRANCH   2  18
DOCKED: TORSDOF 5
DOCKED: TER
DOCKED: ENDMDL
________________________________________________________________________________


    FINAL DOCKED STATE:
    ________________________


Run:   145 / 512
Time taken for this run:   0.002s

DOCKED: MODEL        145
DOCKED: USER    Run = 145
DOCKED: USER
DOCKED: USER    Estimated Free Energy of Binding    =  -6.45 kcal/mol  [=(1)+(2)+(3)-(4)]
DOCKED: USER
DOCKED: USER    (1) Final Intermolecular Energy     =  -7.94 kcal/mol
DOCKED: USER        vdW + Hbond + desolv Energy     =  -7.94 kcal/mol
DOCKED: USER        Electrostatic Energy            =  +0.00 kcal/mol
DOCKED: USER        Moving Ligand-Fixed Receptor    =  -7.94 kcal/mol
DOCKED: USER        Moving Ligand-Moving Receptor   =  +0.00 kcal/mol
DOCKED: USER    (2) Final Total Internal Energy     =  -0.95 kcal/mol
DOCKED: USER    (3) Torsional Free Energy           =  +1.49 kcal/mol
DOCKED: USER    (4) Unbound System's Energy         =  -0.95 kcal/mol
DOCKED: USER
DOCKED: USER
DOCKED: REMARK  5 active torsions:
DOCKED: REMARK  status: ('A' for Active; 'I' for Inactive)
DOCKED: REMARK    1  A    between atoms: C_2  and  C_19 
DOCKED: REMARK    2  A    between atoms: C_2  and  C_11 
DOCKED: REMARK    3  A    between atoms: C_19  and  C_20 
DOCKED: REMARK    4  A    between atoms: C_20  and  C_21 
DOCKED: REMARK    5  A    between atoms: C_21  and  N_22 
DOCKED: USER                              x       y       z     vdW  Elec       q    Type
DOCKED: USER                           _______ _______ _______ _____ _____    ______ ____
DOCKED: ROOT
DOCKED: ATOM      1  O   UNL     1     -47.253 -25.047  14.267 -0.31 -0.00    -0.346 OA 
DOCKED: ATOM      2  C   UNL     1     -48.049 -23.822  14.360 -0.29 +0.00    +0.130 C  
DOCKED: ATOM      3  C   UNL     1     -48.714 -23.723  13.018 -0.37 +0.00    +0.004 A  
DOCKED: ATOM      4  C   UNL     1     -48.414 -24.848  12.263 -0.36 +0.00    +0.006 A  
DOCKED: ATOM      5  C   UNL     1     -47.553 -25.763  13.046 -0.12 +0.00    +0.169 C  
DOCKED: ATOM      6  C   UNL     1     -49.530 -22.722  12.509 -0.35 -0.00    -0.001 A  
DOCKED: ATOM      7  C   UNL     1     -48.911 -25.010  10.982 -0.37 +0.00    +0.008 A  
DOCKED: ATOM      8  C   UNL     1     -50.035 -22.869  11.216 +0.10 +0.00    +0.010 A  
DOCKED: ATOM      9  C   UNL     1     -49.728 -24.008  10.457 -0.46 +0.00    +0.068 A  
DOCKED: ATOM     10  N   UNL     1     -50.687 -24.251   8.062 -3.21 -0.00    -0.191 NA 
DOCKED: ATOM     11  C   UNL     1     -50.256 -24.141   9.136 -0.24 +0.00    +0.101 C  
DOCKED: ENDROOT
DOCKED: BRANCH   2  12
DOCKED: ATOM     12  C   UNL     1     -49.042 -23.978  15.505 -0.24 +0.00    +0.038 C  
DOCKED: BRANCH  12  13
DOCKED: ATOM     13  C   UNL     1     -48.331 -24.282  16.822 -0.23 +0.00    +0.038 C  
DOCKED: BRANCH  13  14
DOCKED: ATOM     14  C   UNL     1     -49.324 -24.734  17.891 -0.11 +0.00    +0.251 C  
DOCKED: BRANCH  14  15
DOCKED: ATOM     15  N   UNL     1     -48.653 -25.558  18.890 -0.19 +0.00    +0.141 N  
DOCKED: ATOM     16  C   UNL     1     -47.203 -25.376  18.819 -0.14 +0.00    +0.285 C  
DOCKED: ATOM     17  C   UNL     1     -49.140 -25.238  20.233 -0.09 +0.00    +0.285 C  
DOCKED: ENDBRANCH  14  15
DOCKED: ENDBRANCH  13  14
DOCKED: ENDBRANCH  12  13
DOCKED: ENDBRANCH   2  12
DOCKED: BRANCH   2  18
DOCKED: ATOM     18  C   UNL     1     -47.098 -22.702  14.621 -0.24 +0.00    +0.006 A  
DOCKED: ATOM     19  C   UNL     1     -47.497 -21.384  14.405 -0.19 +0.00    +0.001 A  
DOCKED: ATOM     20  C   UNL     1     -46.606 -20.338  14.650 -0.13 +0.00    +0.029 A  
DOCKED: ATOM     21  C   UNL     1     -45.319 -20.611  15.110 -0.09 +0.00    +0.140 A  
DOCKED: ATOM     22  C   UNL     1     -44.920 -21.930  15.326 -0.15 +0.00    +0.029 A  
DOCKED: ATOM     23  F   UNL     1     -44.465 -19.607  15.346 -0.01 -0.00    -0.204 F  
DOCKED: ATOM     24  C   UNL     1     -45.810 -22.977  15.081 -0.17 +0.00    +0.001 A  
DOCKED: ENDBRANCH   2  18
DOCKED: TORSDOF 5
DOCKED: TER
DOCKED: ENDMDL
________________________________________________________________________________


    FINAL DOCKED STATE:
    ________________________


Run:   146 / 512
Time taken for this run:   0.002s

DOCKED: MODEL        146
DOCKED: USER    Run = 146
DOCKED: USER
DOCKED: USER    Estimated Free Energy of Binding    =  -4.23 kcal/mol  [=(1)+(2)+(3)-(4)]
DOCKED: USER
DOCKED: USER    (1) Final Intermolecular Energy     =  -5.72 kcal/mol
DOCKED: USER        vdW + Hbond + desolv Energy     =  -5.72 kcal/mol
DOCKED: USER        Electrostatic Energy            =  +0.00 kcal/mol
DOCKED: USER        Moving Ligand-Fixed Receptor    =  -5.72 kcal/mol
DOCKED: USER        Moving Ligand-Moving Receptor   =  +0.00 kcal/mol
DOCKED: USER    (2) Final Total Internal Energy     =  -1.50 kcal/mol
DOCKED: USER    (3) Torsional Free Energy           =  +1.49 kcal/mol
DOCKED: USER    (4) Unbound System's Energy         =  -1.50 kcal/mol
DOCKED: USER
DOCKED: USER
DOCKED: REMARK  5 active torsions:
DOCKED: REMARK  status: ('A' for Active; 'I' for Inactive)
DOCKED: REMARK    1  A    between atoms: C_2  and  C_19 
DOCKED: REMARK    2  A    between atoms: C_2  and  C_11 
DOCKED: REMARK    3  A    between atoms: C_19  and  C_20 
DOCKED: REMARK    4  A    between atoms: C_20  and  C_21 
DOCKED: REMARK    5  A    between atoms: C_21  and  N_22 
DOCKED: USER                              x       y       z     vdW  Elec       q    Type
DOCKED: USER                           _______ _______ _______ _____ _____    ______ ____
DOCKED: ROOT
DOCKED: ATOM      1  O   UNL     1     -45.616 -21.230  15.146 -0.08 -0.00    -0.346 OA 
DOCKED: ATOM      2  C   UNL     1     -46.653 -20.383  14.554 -0.13 +0.00    +0.130 C  
DOCKED: ATOM      3  C   UNL     1     -47.600 -21.362  13.923 -0.22 +0.00    +0.004 A  
DOCKED: ATOM      4  C   UNL     1     -47.200 -22.657  14.222 -0.22 +0.00    +0.006 A  
DOCKED: ATOM      5  C   UNL     1     -45.988 -22.626  15.070 -0.17 +0.00    +0.169 C  
DOCKED: ATOM      6  C   UNL     1     -48.731 -21.126  13.155 -0.27 -0.00    -0.001 A  
DOCKED: ATOM      7  C   UNL     1     -47.910 -23.754  13.764 -0.34 +0.00    +0.008 A  
DOCKED: ATOM      8  C   UNL     1     -49.454 -22.222  12.682 -0.31 +0.00    +0.010 A  
DOCKED: ATOM      9  C   UNL     1     -49.046 -23.529  12.985 -0.31 +0.00    +0.068 A  
DOCKED: ATOM     10  N   UNL     1     -50.415 -25.541  12.094 -2.56 -0.00    -0.191 NA 
DOCKED: ATOM     11  C   UNL     1     -49.800 -24.638  12.493 -0.37 +0.00    +0.101 C  
DOCKED: ENDROOT
DOCKED: BRANCH   2  12
DOCKED: ATOM     12  C   UNL     1     -47.300 -19.564  15.665 -0.06 +0.00    +0.038 C  
DOCKED: BRANCH  12  13
DOCKED: ATOM     13  C   UNL     1     -46.317 -19.295  16.803 -0.02 +0.00    +0.038 C  
DOCKED: BRANCH  13  14
DOCKED: ATOM     14  C   UNL     1     -45.886 -17.830  16.822 -0.00 +0.00    +0.251 C  
DOCKED: BRANCH  14  15
DOCKED: ATOM     15  N   UNL     1     -44.433 -17.728  16.742 -0.00 +0.00    +0.141 N  
DOCKED: ATOM     16  C   UNL     1     -43.828 -19.056  16.640 -0.01 +0.00    +0.285 C  
DOCKED: ATOM     17  C   UNL     1     -44.037 -16.900  15.602 -0.00 +0.00    +0.285 C  
DOCKED: ENDBRANCH  14  15
DOCKED: ENDBRANCH  13  14
DOCKED: ENDBRANCH  12  13
DOCKED: ENDBRANCH   2  12
DOCKED: BRANCH   2  18
DOCKED: ATOM     18  C   UNL     1     -45.979 -19.500  13.558 -0.15 +0.00    +0.006 A  
DOCKED: ATOM     19  C   UNL     1     -44.644 -19.721  13.222 -0.07 +0.00    +0.001 A  
DOCKED: ATOM     20  C   UNL     1     -44.015 -18.895  12.290 -0.11 +0.00    +0.029 A  
DOCKED: ATOM     21  C   UNL     1     -44.721 -17.851  11.695 -0.08 +0.00    +0.140 A  
DOCKED: ATOM     22  C   UNL     1     -46.056 -17.630  12.031 -0.11 +0.00    +0.029 A  
DOCKED: ATOM     23  F   UNL     1     -44.117 -17.059  10.799 -0.00 -0.00    -0.204 F  
DOCKED: ATOM     24  C   UNL     1     -46.687 -18.456  12.964 -0.14 +0.00    +0.001 A  
DOCKED: ENDBRANCH   2  18
DOCKED: TORSDOF 5
DOCKED: TER
DOCKED: ENDMDL
________________________________________________________________________________


    FINAL DOCKED STATE:
    ________________________


Run:   147 / 512
Time taken for this run:   0.002s

DOCKED: MODEL        147
DOCKED: USER    Run = 147
DOCKED: USER
DOCKED: USER    Estimated Free Energy of Binding    =  -3.55 kcal/mol  [=(1)+(2)+(3)-(4)]
DOCKED: USER
DOCKED: USER    (1) Final Intermolecular Energy     =  -5.04 kcal/mol
DOCKED: USER        vdW + Hbond + desolv Energy     =  -5.04 kcal/mol
DOCKED: USER        Electrostatic Energy            =  +0.00 kcal/mol
DOCKED: USER        Moving Ligand-Fixed Receptor    =  -5.04 kcal/mol
DOCKED: USER        Moving Ligand-Moving Receptor   =  +0.00 kcal/mol
DOCKED: USER    (2) Final Total Internal Energy     =  -1.39 kcal/mol
DOCKED: USER    (3) Torsional Free Energy           =  +1.49 kcal/mol
DOCKED: USER    (4) Unbound System's Energy         =  -1.39 kcal/mol
DOCKED: USER
DOCKED: USER
DOCKED: REMARK  5 active torsions:
DOCKED: REMARK  status: ('A' for Active; 'I' for Inactive)
DOCKED: REMARK    1  A    between atoms: C_2  and  C_19 
DOCKED: REMARK    2  A    between atoms: C_2  and  C_11 
DOCKED: REMARK    3  A    between atoms: C_19  and  C_20 
DOCKED: REMARK    4  A    between atoms: C_20  and  C_21 
DOCKED: REMARK    5  A    between atoms: C_21  and  N_22 
DOCKED: USER                              x       y       z     vdW  Elec       q    Type
DOCKED: USER                           _______ _______ _______ _____ _____    ______ ____
DOCKED: ROOT
DOCKED: ATOM      1  O   UNL     1     -44.159 -19.818   8.344 -0.06 -0.00    -0.346 OA 
DOCKED: ATOM      2  C   UNL     1     -43.225 -19.742   9.468 -0.12 +0.00    +0.130 C  
DOCKED: ATOM      3  C   UNL     1     -42.952 -21.179   9.806 -0.18 +0.00    +0.004 A  
DOCKED: ATOM      4  C   UNL     1     -43.585 -22.004   8.887 -0.27 +0.00    +0.006 A  
DOCKED: ATOM      5  C   UNL     1     -44.300 -21.183   7.885 -0.27 +0.00    +0.169 C  
DOCKED: ATOM      6  C   UNL     1     -42.194 -21.714  10.838 -0.15 -0.00    -0.001 A  
DOCKED: ATOM      7  C   UNL     1     -43.488 -23.382   8.969 -0.26 +0.00    +0.008 A  
DOCKED: ATOM      8  C   UNL     1     -42.090 -23.103  10.936 -0.17 +0.00    +0.010 A  
DOCKED: ATOM      9  C   UNL     1     -42.733 -23.932  10.006 -0.13 +0.00    +0.068 A  
DOCKED: ATOM     10  N   UNL     1     -42.515 -26.506  10.214 -2.11 -0.00    -0.191 NA 
DOCKED: ATOM     11  C   UNL     1     -42.614 -25.351  10.121 -0.39 +0.00    +0.101 C  
DOCKED: ENDROOT
DOCKED: BRANCH   2  12
DOCKED: ATOM     12  C   UNL     1     -41.979 -18.993   9.011 -0.04 +0.00    +0.038 C  
DOCKED: BRANCH  12  13
DOCKED: ATOM     13  C   UNL     1     -42.260 -17.502   8.833 -0.02 +0.00    +0.038 C  
DOCKED: BRANCH  13  14
DOCKED: ATOM     14  C   UNL     1     -42.332 -17.130   7.353 -0.01 +0.00    +0.251 C  
DOCKED: BRANCH  14  15
DOCKED: ATOM     15  N   UNL     1     -43.106 -18.123   6.617 -0.06 +0.00    +0.141 N  
DOCKED: ATOM     16  C   UNL     1     -44.443 -17.613   6.313 -0.12 +0.00    +0.285 C  
DOCKED: ATOM     17  C   UNL     1     -42.415 -18.505   5.384 -0.05 +0.00    +0.285 C  
DOCKED: ENDBRANCH  14  15
DOCKED: ENDBRANCH  13  14
DOCKED: ENDBRANCH  12  13
DOCKED: ENDBRANCH   2  12
DOCKED: BRANCH   2  18
DOCKED: ATOM     18  C   UNL     1     -43.922 -19.009  10.565 -0.13 +0.00    +0.006 A  
DOCKED: ATOM     19  C   UNL     1     -45.175 -18.442  10.338 -0.15 +0.00    +0.001 A  
DOCKED: ATOM     20  C   UNL     1     -45.826 -17.756  11.365 -0.10 +0.00    +0.029 A  
DOCKED: ATOM     21  C   UNL     1     -45.223 -17.639  12.616 -0.06 +0.00    +0.140 A  
DOCKED: ATOM     22  C   UNL     1     -43.970 -18.208  12.843 -0.07 +0.00    +0.029 A  
DOCKED: ATOM     23  F   UNL     1     -45.848 -16.983  13.602 -0.00 -0.00    -0.204 F  
DOCKED: ATOM     24  C   UNL     1     -43.318 -18.893  11.817 -0.10 +0.00    +0.001 A  
DOCKED: ENDBRANCH   2  18
DOCKED: TORSDOF 5
DOCKED: TER
DOCKED: ENDMDL
________________________________________________________________________________


    FINAL DOCKED STATE:
    ________________________


Run:   148 / 512
Time taken for this run:   0.002s

DOCKED: MODEL        148
DOCKED: USER    Run = 148
DOCKED: USER
DOCKED: USER    Estimated Free Energy of Binding    =  -3.57 kcal/mol  [=(1)+(2)+(3)-(4)]
DOCKED: USER
DOCKED: USER    (1) Final Intermolecular Energy     =  -5.06 kcal/mol
DOCKED: USER        vdW + Hbond + desolv Energy     =  -5.06 kcal/mol
DOCKED: USER        Electrostatic Energy            =  +0.00 kcal/mol
DOCKED: USER        Moving Ligand-Fixed Receptor    =  -5.06 kcal/mol
DOCKED: USER        Moving Ligand-Moving Receptor   =  +0.00 kcal/mol
DOCKED: USER    (2) Final Total Internal Energy     =  -1.38 kcal/mol
DOCKED: USER    (3) Torsional Free Energy           =  +1.49 kcal/mol
DOCKED: USER    (4) Unbound System's Energy         =  -1.38 kcal/mol
DOCKED: USER
DOCKED: USER
DOCKED: REMARK  5 active torsions:
DOCKED: REMARK  status: ('A' for Active; 'I' for Inactive)
DOCKED: REMARK    1  A    between atoms: C_2  and  C_19 
DOCKED: REMARK    2  A    between atoms: C_2  and  C_11 
DOCKED: REMARK    3  A    between atoms: C_19  and  C_20 
DOCKED: REMARK    4  A    between atoms: C_20  and  C_21 
DOCKED: REMARK    5  A    between atoms: C_21  and  N_22 
DOCKED: USER                              x       y       z     vdW  Elec       q    Type
DOCKED: USER                           _______ _______ _______ _____ _____    ______ ____
DOCKED: ROOT
DOCKED: ATOM      1  O   UNL     1     -46.756 -23.171  17.527 -0.05 -0.00    -0.346 OA 
DOCKED: ATOM      2  C   UNL     1     -46.491 -22.258  16.414 -0.11 +0.00    +0.130 C  
DOCKED: ATOM      3  C   UNL     1     -47.323 -22.808  15.292 -0.20 +0.00    +0.004 A  
DOCKED: ATOM      4  C   UNL     1     -48.083 -23.874  15.752 -0.21 +0.00    +0.006 A  
DOCKED: ATOM      5  C   UNL     1     -47.819 -24.094  17.192 -0.15 +0.00    +0.169 C  
DOCKED: ATOM      6  C   UNL     1     -47.410 -22.390  13.972 -0.24 -0.00    -0.001 A  
DOCKED: ATOM      7  C   UNL     1     -48.946 -24.559  14.915 -0.28 +0.00    +0.008 A  
DOCKED: ATOM      8  C   UNL     1     -48.274 -23.074  13.113 -0.32 +0.00    +0.010 A  
DOCKED: ATOM      9  C   UNL     1     -49.038 -24.152  13.583 -0.28 +0.00    +0.068 A  
DOCKED: ATOM     10  N   UNL     1     -50.634 -25.395  11.964 -2.30 -0.00    -0.191 NA 
DOCKED: ATOM     11  C   UNL     1     -49.918 -24.838  12.690 -0.14 +0.00    +0.101 C  
DOCKED: ENDROOT
DOCKED: BRANCH   2  12
DOCKED: ATOM     12  C   UNL     1     -46.911 -20.854  16.831 -0.05 +0.00    +0.038 C  
DOCKED: BRANCH  12  13
DOCKED: ATOM     13  C   UNL     1     -46.411 -20.518  18.235 -0.01 +0.00    +0.038 C  
DOCKED: BRANCH  13  14
DOCKED: ATOM     14  C   UNL     1     -47.399 -20.995  19.298 -0.00 +0.00    +0.251 C  
DOCKED: BRANCH  14  15
DOCKED: ATOM     15  N   UNL     1     -46.805 -22.059  20.100 -0.01 +0.00    +0.141 N  
DOCKED: ATOM     16  C   UNL     1     -45.354 -21.888  20.192 -0.01 +0.00    +0.285 C  
DOCKED: ATOM     17  C   UNL     1     -47.399 -22.088  21.438 -0.00 +0.00    +0.285 C  
DOCKED: ENDBRANCH  14  15
DOCKED: ENDBRANCH  13  14
DOCKED: ENDBRANCH  12  13
DOCKED: ENDBRANCH   2  12
DOCKED: BRANCH   2  18
DOCKED: ATOM     18  C   UNL     1     -45.026 -22.322  16.137 -0.15 +0.00    +0.006 A  
DOCKED: ATOM     19  C   UNL     1     -44.482 -21.577  15.091 -0.14 +0.00    +0.001 A  
DOCKED: ATOM     20  C   UNL     1     -43.112 -21.638  14.833 -0.12 +0.00    +0.029 A  
DOCKED: ATOM     21  C   UNL     1     -42.289 -22.443  15.620 -0.07 +0.00    +0.140 A  
DOCKED: ATOM     22  C   UNL     1     -42.834 -23.188  16.665 -0.11 +0.00    +0.029 A  
DOCKED: ATOM     23  F   UNL     1     -40.974 -22.500  15.373 +0.00 -0.00    -0.204 F  
DOCKED: ATOM     24  C   UNL     1     -44.204 -23.128  16.924 -0.10 +0.00    +0.001 A  
DOCKED: ENDBRANCH   2  18
DOCKED: TORSDOF 5
DOCKED: TER
DOCKED: ENDMDL
________________________________________________________________________________


    FINAL DOCKED STATE:
    ________________________


Run:   149 / 512
Time taken for this run:   0.002s

DOCKED: MODEL        149
DOCKED: USER    Run = 149
DOCKED: USER
DOCKED: USER    Estimated Free Energy of Binding    =  -5.43 kcal/mol  [=(1)+(2)+(3)-(4)]
DOCKED: USER
DOCKED: USER    (1) Final Intermolecular Energy     =  -6.93 kcal/mol
DOCKED: USER        vdW + Hbond + desolv Energy     =  -6.93 kcal/mol
DOCKED: USER        Electrostatic Energy            =  +0.00 kcal/mol
DOCKED: USER        Moving Ligand-Fixed Receptor    =  -6.93 kcal/mol
DOCKED: USER        Moving Ligand-Moving Receptor   =  +0.00 kcal/mol
DOCKED: USER    (2) Final Total Internal Energy     =  -1.08 kcal/mol
DOCKED: USER    (3) Torsional Free Energy           =  +1.49 kcal/mol
DOCKED: USER    (4) Unbound System's Energy         =  -1.08 kcal/mol
DOCKED: USER
DOCKED: USER
DOCKED: REMARK  5 active torsions:
DOCKED: REMARK  status: ('A' for Active; 'I' for Inactive)
DOCKED: REMARK    1  A    between atoms: C_2  and  C_19 
DOCKED: REMARK    2  A    between atoms: C_2  and  C_11 
DOCKED: REMARK    3  A    between atoms: C_19  and  C_20 
DOCKED: REMARK    4  A    between atoms: C_20  and  C_21 
DOCKED: REMARK    5  A    between atoms: C_21  and  N_22 
DOCKED: USER                              x       y       z     vdW  Elec       q    Type
DOCKED: USER                           _______ _______ _______ _____ _____    ______ ____
DOCKED: ROOT
DOCKED: ATOM      1  O   UNL     1     -47.809 -21.540  14.940 -0.05 -0.00    -0.346 OA 
DOCKED: ATOM      2  C   UNL     1     -47.441 -22.954  14.848 -0.22 +0.00    +0.130 C  
DOCKED: ATOM      3  C   UNL     1     -48.044 -23.398  13.547 -0.33 +0.00    +0.004 A  
DOCKED: ATOM      4  C   UNL     1     -48.610 -22.310  12.899 -0.33 +0.00    +0.006 A  
DOCKED: ATOM      5  C   UNL     1     -48.414 -21.086  13.707 -0.21 +0.00    +0.169 C  
DOCKED: ATOM      6  C   UNL     1     -48.077 -24.663  12.977 -0.41 -0.00    -0.001 A  
DOCKED: ATOM      7  C   UNL     1     -49.231 -22.447  11.669 -0.23 +0.00    +0.008 A  
DOCKED: ATOM      8  C   UNL     1     -48.703 -24.818  11.739 -0.36 +0.00    +0.010 A  
DOCKED: ATOM      9  C   UNL     1     -49.276 -23.715  11.088 -0.37 +0.00    +0.068 A  
DOCKED: ATOM     10  N   UNL     1     -50.426 -24.037   8.789 -2.45 -0.00    -0.191 NA 
DOCKED: ATOM     11  C   UNL     1     -49.911 -23.893   9.821 -0.49 +0.00    +0.101 C  
DOCKED: ENDROOT
DOCKED: BRANCH   2  12
DOCKED: ATOM     12  C   UNL     1     -45.920 -23.058  14.865 -0.14 +0.00    +0.038 C  
DOCKED: BRANCH  12  13
DOCKED: ATOM     13  C   UNL     1     -45.283 -21.816  15.484 -0.17 +0.00    +0.038 C  
DOCKED: BRANCH  13  14
DOCKED: ATOM     14  C   UNL     1     -44.919 -20.792  14.410 +0.00 +0.00    +0.251 C  
DOCKED: BRANCH  14  15
DOCKED: ATOM     15  N   UNL     1     -43.543 -20.989  13.968 -0.07 +0.00    +0.141 N  
DOCKED: ATOM     16  C   UNL     1     -43.169 -19.976  12.980 -0.06 +0.00    +0.285 C  
DOCKED: ATOM     17  C   UNL     1     -42.625 -20.950  15.107 -0.05 +0.00    +0.285 C  
DOCKED: ENDBRANCH  14  15
DOCKED: ENDBRANCH  13  14
DOCKED: ENDBRANCH  12  13
DOCKED: ENDBRANCH   2  12
DOCKED: BRANCH   2  18
DOCKED: ATOM     18  C   UNL     1     -48.040 -23.638  16.031 -0.18 +0.00    +0.006 A  
DOCKED: ATOM     19  C   UNL     1     -49.380 -24.025  16.007 -0.19 +0.00    +0.001 A  
DOCKED: ATOM     20  C   UNL     1     -49.939 -24.664  17.114 -0.15 +0.00    +0.029 A  
DOCKED: ATOM     21  C   UNL     1     -49.159 -24.917  18.242 -0.13 +0.00    +0.140 A  
DOCKED: ATOM     22  C   UNL     1     -47.819 -24.531  18.264 -0.20 +0.00    +0.029 A  
DOCKED: ATOM     23  F   UNL     1     -49.696 -25.533  19.303 -0.04 -0.00    -0.204 F  
DOCKED: ATOM     24  C   UNL     1     -47.259 -23.890  17.158 -0.09 +0.00    +0.001 A  
DOCKED: ENDBRANCH   2  18
DOCKED: TORSDOF 5
DOCKED: TER
DOCKED: ENDMDL
________________________________________________________________________________


    FINAL DOCKED STATE:
    ________________________


Run:   150 / 512
Time taken for this run:   0.002s

DOCKED: MODEL        150
DOCKED: USER    Run = 150
DOCKED: USER
DOCKED: USER    Estimated Free Energy of Binding    =  -3.61 kcal/mol  [=(1)+(2)+(3)-(4)]
DOCKED: USER
DOCKED: USER    (1) Final Intermolecular Energy     =  -5.10 kcal/mol
DOCKED: USER        vdW + Hbond + desolv Energy     =  -5.10 kcal/mol
DOCKED: USER        Electrostatic Energy            =  +0.00 kcal/mol
DOCKED: USER        Moving Ligand-Fixed Receptor    =  -5.10 kcal/mol
DOCKED: USER        Moving Ligand-Moving Receptor   =  +0.00 kcal/mol
DOCKED: USER    (2) Final Total Internal Energy     =  -1.25 kcal/mol
DOCKED: USER    (3) Torsional Free Energy           =  +1.49 kcal/mol
DOCKED: USER    (4) Unbound System's Energy         =  -1.25 kcal/mol
DOCKED: USER
DOCKED: USER
DOCKED: REMARK  5 active torsions:
DOCKED: REMARK  status: ('A' for Active; 'I' for Inactive)
DOCKED: REMARK    1  A    between atoms: C_2  and  C_19 
DOCKED: REMARK    2  A    between atoms: C_2  and  C_11 
DOCKED: REMARK    3  A    between atoms: C_19  and  C_20 
DOCKED: REMARK    4  A    between atoms: C_20  and  C_21 
DOCKED: REMARK    5  A    between atoms: C_21  and  N_22 
DOCKED: USER                              x       y       z     vdW  Elec       q    Type
DOCKED: USER                           _______ _______ _______ _____ _____    ______ ____
DOCKED: ROOT
DOCKED: ATOM      1  O   UNL     1     -47.818  -4.707   5.730 -0.61 -0.00    -0.346 OA 
DOCKED: ATOM      2  C   UNL     1     -47.300  -5.685   6.688 -0.19 +0.00    +0.130 C  
DOCKED: ATOM      3  C   UNL     1     -48.531  -6.201   7.376 -0.23 +0.00    +0.004 A  
DOCKED: ATOM      4  C   UNL     1     -49.660  -5.649   6.789 -0.18 +0.00    +0.006 A  
DOCKED: ATOM      5  C   UNL     1     -49.263  -4.754   5.679 -0.01 +0.00    +0.169 C  
DOCKED: ATOM      6  C   UNL     1     -48.641  -7.095   8.430 -0.14 -0.00    -0.001 A  
DOCKED: ATOM      7  C   UNL     1     -50.932  -5.967   7.234 -0.22 +0.00    +0.008 A  
DOCKED: ATOM      8  C   UNL     1     -49.917  -7.422   8.894 -0.22 +0.00    +0.010 A  
DOCKED: ATOM      9  C   UNL     1     -51.056  -6.861   8.298 -0.17 +0.00    +0.068 A  
DOCKED: ATOM     10  N   UNL     1     -53.409  -7.494   9.179 -1.53 -0.00    -0.191 NA 
DOCKED: ATOM     11  C   UNL     1     -52.354  -7.210   8.784 -0.11 +0.00    +0.101 C  
DOCKED: ENDROOT
DOCKED: BRANCH   2  12
DOCKED: ATOM     12  C   UNL     1     -46.554  -6.767   5.916 -0.39 +0.00    +0.038 C  
DOCKED: BRANCH  12  13
DOCKED: ATOM     13  C   UNL     1     -45.336  -6.195   5.193 -0.25 +0.00    +0.038 C  
DOCKED: BRANCH  13  14
DOCKED: ATOM     14  C   UNL     1     -44.039  -6.634   5.871 -0.11 +0.00    +0.251 C  
DOCKED: BRANCH  14  15
DOCKED: ATOM     15  N   UNL     1     -44.259  -7.845   6.653 -0.22 +0.00    +0.141 N  
DOCKED: ATOM     16  C   UNL     1     -43.991  -9.036   5.845 -0.20 +0.00    +0.285 C  
DOCKED: ATOM     17  C   UNL     1     -43.419  -7.845   7.852 -0.07 +0.00    +0.285 C  
DOCKED: ENDBRANCH  14  15
DOCKED: ENDBRANCH  13  14
DOCKED: ENDBRANCH  12  13
DOCKED: ENDBRANCH   2  12
DOCKED: BRANCH   2  18
DOCKED: ATOM     18  C   UNL     1     -46.383  -4.950   7.608 -0.08 +0.00    +0.006 A  
DOCKED: ATOM     19  C   UNL     1     -45.877  -5.586   8.741 -0.09 +0.00    +0.001 A  
DOCKED: ATOM     20  C   UNL     1     -45.021  -4.898   9.601 -0.03 +0.00    +0.029 A  
DOCKED: ATOM     21  C   UNL     1     -44.671  -3.577   9.327 -0.00 +0.00    +0.140 A  
DOCKED: ATOM     22  C   UNL     1     -45.177  -2.941   8.194 -0.01 +0.00    +0.029 A  
DOCKED: ATOM     23  F   UNL     1     -43.847  -2.917  10.152 +0.00 -0.00    -0.204 F  
DOCKED: ATOM     24  C   UNL     1     -46.035  -3.628   7.333 -0.03 +0.00    +0.001 A  
DOCKED: ENDBRANCH   2  18
DOCKED: TORSDOF 5
DOCKED: TER
DOCKED: ENDMDL
________________________________________________________________________________


    FINAL DOCKED STATE:
    ________________________


Run:   151 / 512
Time taken for this run:   0.002s

DOCKED: MODEL        151
DOCKED: USER    Run = 151
DOCKED: USER
DOCKED: USER    Estimated Free Energy of Binding    =  -4.37 kcal/mol  [=(1)+(2)+(3)-(4)]
DOCKED: USER
DOCKED: USER    (1) Final Intermolecular Energy     =  -5.86 kcal/mol
DOCKED: USER        vdW + Hbond + desolv Energy     =  -5.86 kcal/mol
DOCKED: USER        Electrostatic Energy            =  +0.00 kcal/mol
DOCKED: USER        Moving Ligand-Fixed Receptor    =  -5.86 kcal/mol
DOCKED: USER        Moving Ligand-Moving Receptor   =  +0.00 kcal/mol
DOCKED: USER    (2) Final Total Internal Energy     =  -0.91 kcal/mol
DOCKED: USER    (3) Torsional Free Energy           =  +1.49 kcal/mol
DOCKED: USER    (4) Unbound System's Energy         =  -0.91 kcal/mol
DOCKED: USER
DOCKED: USER
DOCKED: REMARK  5 active torsions:
DOCKED: REMARK  status: ('A' for Active; 'I' for Inactive)
DOCKED: REMARK    1  A    between atoms: C_2  and  C_19 
DOCKED: REMARK    2  A    between atoms: C_2  and  C_11 
DOCKED: REMARK    3  A    between atoms: C_19  and  C_20 
DOCKED: REMARK    4  A    between atoms: C_20  and  C_21 
DOCKED: REMARK    5  A    between atoms: C_21  and  N_22 
DOCKED: USER                              x       y       z     vdW  Elec       q    Type
DOCKED: USER                           _______ _______ _______ _____ _____    ______ ____
DOCKED: ROOT
DOCKED: ATOM      1  O   UNL     1     -47.202 -15.067   8.634 -0.11 -0.00    -0.346 OA 
DOCKED: ATOM      2  C   UNL     1     -45.893 -15.217   7.998 -0.20 +0.00    +0.130 C  
DOCKED: ATOM      3  C   UNL     1     -46.107 -14.691   6.608 -0.25 +0.00    +0.004 A  
DOCKED: ATOM      4  C   UNL     1     -47.393 -14.184   6.493 -0.05 +0.00    +0.006 A  
DOCKED: ATOM      5  C   UNL     1     -48.105 -14.324   7.783 -0.20 +0.00    +0.169 C  
DOCKED: ATOM      6  C   UNL     1     -45.229 -14.655   5.534 -0.25 -0.00    -0.001 A  
DOCKED: ATOM      7  C   UNL     1     -47.847 -13.630   5.308 +0.22 +0.00    +0.008 A  
DOCKED: ATOM      8  C   UNL     1     -45.673 -14.103   4.331 -0.29 +0.00    +0.010 A  
DOCKED: ATOM      9  C   UNL     1     -46.975 -13.593   4.219 -0.32 +0.00    +0.068 A  
DOCKED: ATOM     10  N   UNL     1     -47.764 -12.571   1.973 -2.47 -0.00    -0.191 NA 
DOCKED: ATOM     11  C   UNL     1     -47.410 -13.030   2.980 -0.28 +0.00    +0.101 C  
DOCKED: ENDROOT
DOCKED: BRANCH   2  12
DOCKED: ATOM     12  C   UNL     1     -44.876 -14.404   8.790 -0.17 +0.00    +0.038 C  
DOCKED: BRANCH  12  13
DOCKED: ATOM     13  C   UNL     1     -43.499 -15.065   8.772 -0.11 +0.00    +0.038 C  
DOCKED: BRANCH  13  14
DOCKED: ATOM     14  C   UNL     1     -42.804 -14.851   7.429 -0.07 +0.00    +0.251 C  
DOCKED: BRANCH  14  15
DOCKED: ATOM     15  N   UNL     1     -41.887 -13.720   7.507 -0.09 +0.00    +0.141 N  
DOCKED: ATOM     16  C   UNL     1     -41.581 -13.399   8.902 -0.06 +0.00    +0.285 C  
DOCKED: ATOM     17  C   UNL     1     -40.655 -14.004   6.769 -0.02 +0.00    +0.285 C  
DOCKED: ENDBRANCH  14  15
DOCKED: ENDBRANCH  13  14
DOCKED: ENDBRANCH  12  13
DOCKED: ENDBRANCH   2  12
DOCKED: BRANCH   2  18
DOCKED: ATOM     18  C   UNL     1     -45.559 -16.671   8.025 -0.16 +0.00    +0.006 A  
DOCKED: ATOM     19  C   UNL     1     -45.122 -17.307   6.863 -0.19 +0.00    +0.001 A  
DOCKED: ATOM     20  C   UNL     1     -44.810 -18.667   6.890 -0.17 +0.00    +0.029 A  
DOCKED: ATOM     21  C   UNL     1     -44.934 -19.388   8.077 -0.22 +0.00    +0.140 A  
DOCKED: ATOM     22  C   UNL     1     -45.371 -18.750   9.238 -0.15 +0.00    +0.029 A  
DOCKED: ATOM     23  F   UNL     1     -44.633 -20.692   8.102 -0.13 -0.00    -0.204 F  
DOCKED: ATOM     24  C   UNL     1     -45.684 -17.390   9.212 -0.12 +0.00    +0.001 A  
DOCKED: ENDBRANCH   2  18
DOCKED: TORSDOF 5
DOCKED: TER
DOCKED: ENDMDL
________________________________________________________________________________


    FINAL DOCKED STATE:
    ________________________


Run:   152 / 512
Time taken for this run:   0.002s

DOCKED: MODEL        152
DOCKED: USER    Run = 152
DOCKED: USER
DOCKED: USER    Estimated Free Energy of Binding    =  -5.04 kcal/mol  [=(1)+(2)+(3)-(4)]
DOCKED: USER
DOCKED: USER    (1) Final Intermolecular Energy     =  -6.53 kcal/mol
DOCKED: USER        vdW + Hbond + desolv Energy     =  -6.53 kcal/mol
DOCKED: USER        Electrostatic Energy            =  +0.00 kcal/mol
DOCKED: USER        Moving Ligand-Fixed Receptor    =  -6.53 kcal/mol
DOCKED: USER        Moving Ligand-Moving Receptor   =  +0.00 kcal/mol
DOCKED: USER    (2) Final Total Internal Energy     =  -1.13 kcal/mol
DOCKED: USER    (3) Torsional Free Energy           =  +1.49 kcal/mol
DOCKED: USER    (4) Unbound System's Energy         =  -1.13 kcal/mol
DOCKED: USER
DOCKED: USER
DOCKED: REMARK  5 active torsions:
DOCKED: REMARK  status: ('A' for Active; 'I' for Inactive)
DOCKED: REMARK    1  A    between atoms: C_2  and  C_19 
DOCKED: REMARK    2  A    between atoms: C_2  and  C_11 
DOCKED: REMARK    3  A    between atoms: C_19  and  C_20 
DOCKED: REMARK    4  A    between atoms: C_20  and  C_21 
DOCKED: REMARK    5  A    between atoms: C_21  and  N_22 
DOCKED: USER                              x       y       z     vdW  Elec       q    Type
DOCKED: USER                           _______ _______ _______ _____ _____    ______ ____
DOCKED: ROOT
DOCKED: ATOM      1  O   UNL     1     -47.605 -24.122  15.332 -0.10 -0.00    -0.346 OA 
DOCKED: ATOM      2  C   UNL     1     -47.816 -22.750  14.867 -0.20 +0.00    +0.130 C  
DOCKED: ATOM      3  C   UNL     1     -48.389 -22.923  13.490 -0.31 +0.00    +0.004 A  
DOCKED: ATOM      4  C   UNL     1     -48.591 -24.271  13.233 -0.39 +0.00    +0.006 A  
DOCKED: ATOM      5  C   UNL     1     -48.184 -25.073  14.409 -0.20 +0.00    +0.169 C  
DOCKED: ATOM      6  C   UNL     1     -48.716 -21.962  12.544 -0.30 -0.00    -0.001 A  
DOCKED: ATOM      7  C   UNL     1     -49.119 -24.705  12.029 -0.47 +0.00    +0.008 A  
DOCKED: ATOM      8  C   UNL     1     -49.246 -22.383  11.323 +0.00 +0.00    +0.010 A  
DOCKED: ATOM      9  C   UNL     1     -49.446 -23.748  11.067 -0.40 +0.00    +0.068 A  
DOCKED: ATOM     10  N   UNL     1     -50.436 -24.496   8.793 -2.35 -0.00    -0.191 NA 
DOCKED: ATOM     11  C   UNL     1     -49.992 -24.160   9.813 -0.50 +0.00    +0.101 C  
DOCKED: ENDROOT
DOCKED: BRANCH   2  12
DOCKED: ATOM     12  C   UNL     1     -48.776 -22.058  15.826 -0.10 +0.00    +0.038 C  
DOCKED: BRANCH  12  13
DOCKED: ATOM     13  C   UNL     1     -49.156 -22.971  16.991 -0.10 +0.00    +0.038 C  
DOCKED: BRANCH  13  14
DOCKED: ATOM     14  C   UNL     1     -48.035 -23.035  18.026 -0.05 +0.00    +0.251 C  
DOCKED: BRANCH  14  15
DOCKED: ATOM     15  N   UNL     1     -48.492 -23.724  19.227 -0.06 +0.00    +0.141 N  
DOCKED: ATOM     16  C   UNL     1     -47.705 -24.936  19.459 -0.12 +0.00    +0.285 C  
DOCKED: ATOM     17  C   UNL     1     -48.415 -22.838  20.390 -0.00 +0.00    +0.285 C  
DOCKED: ENDBRANCH  14  15
DOCKED: ENDBRANCH  13  14
DOCKED: ENDBRANCH  12  13
DOCKED: ENDBRANCH   2  12
DOCKED: BRANCH   2  18
DOCKED: ATOM     18  C   UNL     1     -46.483 -22.080  14.862 -0.19 +0.00    +0.006 A  
DOCKED: ATOM     19  C   UNL     1     -46.354 -20.788  14.354 -0.14 +0.00    +0.001 A  
DOCKED: ATOM     20  C   UNL     1     -45.107 -20.163  14.350 -0.11 +0.00    +0.029 A  
DOCKED: ATOM     21  C   UNL     1     -43.991 -20.830  14.854 -0.09 +0.00    +0.140 A  
DOCKED: ATOM     22  C   UNL     1     -44.121 -22.122  15.362 -0.15 +0.00    +0.029 A  
DOCKED: ATOM     23  F   UNL     1     -42.794 -20.229  14.852 -0.01 -0.00    -0.204 F  
DOCKED: ATOM     24  C   UNL     1     -45.368 -22.749  15.366 -0.19 +0.00    +0.001 A  
DOCKED: ENDBRANCH   2  18
DOCKED: TORSDOF 5
DOCKED: TER
DOCKED: ENDMDL
________________________________________________________________________________


    FINAL DOCKED STATE:
    ________________________


Run:   153 / 512
Time taken for this run:   0.002s

DOCKED: MODEL        153
DOCKED: USER    Run = 153
DOCKED: USER
DOCKED: USER    Estimated Free Energy of Binding    =  -5.17 kcal/mol  [=(1)+(2)+(3)-(4)]
DOCKED: USER
DOCKED: USER    (1) Final Intermolecular Energy     =  -6.66 kcal/mol
DOCKED: USER        vdW + Hbond + desolv Energy     =  -6.66 kcal/mol
DOCKED: USER        Electrostatic Energy            =  +0.00 kcal/mol
DOCKED: USER        Moving Ligand-Fixed Receptor    =  -6.66 kcal/mol
DOCKED: USER        Moving Ligand-Moving Receptor   =  +0.00 kcal/mol
DOCKED: USER    (2) Final Total Internal Energy     =  -1.28 kcal/mol
DOCKED: USER    (3) Torsional Free Energy           =  +1.49 kcal/mol
DOCKED: USER    (4) Unbound System's Energy         =  -1.28 kcal/mol
DOCKED: USER
DOCKED: USER
DOCKED: REMARK  5 active torsions:
DOCKED: REMARK  status: ('A' for Active; 'I' for Inactive)
DOCKED: REMARK    1  A    between atoms: C_2  and  C_19 
DOCKED: REMARK    2  A    between atoms: C_2  and  C_11 
DOCKED: REMARK    3  A    between atoms: C_19  and  C_20 
DOCKED: REMARK    4  A    between atoms: C_20  and  C_21 
DOCKED: REMARK    5  A    between atoms: C_21  and  N_22 
DOCKED: USER                              x       y       z     vdW  Elec       q    Type
DOCKED: USER                           _______ _______ _______ _____ _____    ______ ____
DOCKED: ROOT
DOCKED: ATOM      1  O   UNL     1     -49.909 -24.306  15.494 -0.10 -0.00    -0.346 OA 
DOCKED: ATOM      2  C   UNL     1     -49.352 -23.022  15.064 -0.13 +0.00    +0.130 C  
DOCKED: ATOM      3  C   UNL     1     -49.478 -23.059  13.568 -0.27 +0.00    +0.004 A  
DOCKED: ATOM      4  C   UNL     1     -50.149 -24.211  13.184 -0.30 +0.00    +0.006 A  
DOCKED: ATOM      5  C   UNL     1     -50.519 -25.000  14.380 -0.10 +0.00    +0.169 C  
DOCKED: ATOM      6  C   UNL     1     -49.044 -22.139  12.624 -0.33 -0.00    -0.001 A  
DOCKED: ATOM      7  C   UNL     1     -50.404 -24.486  11.851 -0.42 +0.00    +0.008 A  
DOCKED: ATOM      8  C   UNL     1     -49.290 -22.404  11.276 +0.02 +0.00    +0.010 A  
DOCKED: ATOM      9  C   UNL     1     -49.967 -23.571  10.892 -0.39 +0.00    +0.068 A  
DOCKED: ATOM     10  N   UNL     1     -50.411 -24.030   8.381 -3.04 -0.00    -0.191 NA 
DOCKED: ATOM     11  C   UNL     1     -50.211 -23.825   9.507 -0.37 +0.00    +0.101 C  
DOCKED: ENDROOT
DOCKED: BRANCH   2  12
DOCKED: ATOM     12  C   UNL     1     -50.168 -21.904  15.702 -0.09 +0.00    +0.038 C  
DOCKED: BRANCH  12  13
DOCKED: ATOM     13  C   UNL     1     -49.813 -20.545  15.103 -0.11 +0.00    +0.038 C  
DOCKED: BRANCH  13  14
DOCKED: ATOM     14  C   UNL     1     -48.812 -19.801  15.985 -0.02 +0.00    +0.251 C  
DOCKED: BRANCH  14  15
DOCKED: ATOM     15  N   UNL     1     -47.864 -19.059  15.162 -0.04 +0.00    +0.141 N  
DOCKED: ATOM     16  C   UNL     1     -46.507 -19.580  15.342 -0.04 +0.00    +0.285 C  
DOCKED: ATOM     17  C   UNL     1     -48.248 -19.120  13.751 -0.12 +0.00    +0.285 C  
DOCKED: ENDBRANCH  14  15
DOCKED: ENDBRANCH  13  14
DOCKED: ENDBRANCH  12  13
DOCKED: ENDBRANCH   2  12
DOCKED: BRANCH   2  18
DOCKED: ATOM     18  C   UNL     1     -47.934 -22.986  15.527 -0.17 +0.00    +0.006 A  
DOCKED: ATOM     19  C   UNL     1     -47.646 -22.992  16.892 -0.12 +0.00    +0.001 A  
DOCKED: ATOM     20  C   UNL     1     -46.320 -22.957  17.323 -0.10 +0.00    +0.029 A  
DOCKED: ATOM     21  C   UNL     1     -45.284 -22.916  16.391 -0.03 +0.00    +0.140 A  
DOCKED: ATOM     22  C   UNL     1     -45.572 -22.910  15.027 -0.12 +0.00    +0.029 A  
DOCKED: ATOM     23  F   UNL     1     -44.011 -22.885  16.806 -0.02 -0.00    -0.204 F  
DOCKED: ATOM     24  C   UNL     1     -46.899 -22.945  14.594 -0.24 +0.00    +0.001 A  
DOCKED: ENDBRANCH   2  18
DOCKED: TORSDOF 5
DOCKED: TER
DOCKED: ENDMDL
________________________________________________________________________________


    FINAL DOCKED STATE:
    ________________________


Run:   154 / 512
Time taken for this run:   0.002s

DOCKED: MODEL        154
DOCKED: USER    Run = 154
DOCKED: USER
DOCKED: USER    Estimated Free Energy of Binding    =  -4.09 kcal/mol  [=(1)+(2)+(3)-(4)]
DOCKED: USER
DOCKED: USER    (1) Final Intermolecular Energy     =  -5.58 kcal/mol
DOCKED: USER        vdW + Hbond + desolv Energy     =  -5.58 kcal/mol
DOCKED: USER        Electrostatic Energy            =  +0.00 kcal/mol
DOCKED: USER        Moving Ligand-Fixed Receptor    =  -5.58 kcal/mol
DOCKED: USER        Moving Ligand-Moving Receptor   =  +0.00 kcal/mol
DOCKED: USER    (2) Final Total Internal Energy     =  -1.05 kcal/mol
DOCKED: USER    (3) Torsional Free Energy           =  +1.49 kcal/mol
DOCKED: USER    (4) Unbound System's Energy         =  -1.05 kcal/mol
DOCKED: USER
DOCKED: USER
DOCKED: REMARK  5 active torsions:
DOCKED: REMARK  status: ('A' for Active; 'I' for Inactive)
DOCKED: REMARK    1  A    between atoms: C_2  and  C_19 
DOCKED: REMARK    2  A    between atoms: C_2  and  C_11 
DOCKED: REMARK    3  A    between atoms: C_19  and  C_20 
DOCKED: REMARK    4  A    between atoms: C_20  and  C_21 
DOCKED: REMARK    5  A    between atoms: C_21  and  N_22 
DOCKED: USER                              x       y       z     vdW  Elec       q    Type
DOCKED: USER                           _______ _______ _______ _____ _____    ______ ____
DOCKED: ROOT
DOCKED: ATOM      1  O   UNL     1     -47.858 -19.200  13.835 -0.06 -0.00    -0.346 OA 
DOCKED: ATOM      2  C   UNL     1     -49.132 -19.416  14.522 -0.12 +0.00    +0.130 C  
DOCKED: ATOM      3  C   UNL     1     -49.546 -20.792  14.087 -0.20 +0.00    +0.004 A  
DOCKED: ATOM      4  C   UNL     1     -48.546 -21.357  13.309 -0.28 +0.00    +0.006 A  
DOCKED: ATOM      5  C   UNL     1     -47.411 -20.414  13.188 -0.16 +0.00    +0.169 C  
DOCKED: ATOM      6  C   UNL     1     -50.711 -21.492  14.367 -0.16 -0.00    -0.001 A  
DOCKED: ATOM      7  C   UNL     1     -48.675 -22.631  12.784 -0.34 +0.00    +0.008 A  
DOCKED: ATOM      8  C   UNL     1     -50.858 -22.776  13.840 -0.20 +0.00    +0.010 A  
DOCKED: ATOM      9  C   UNL     1     -49.845 -23.343  13.053 -0.26 +0.00    +0.068 A  
DOCKED: ATOM     10  N   UNL     1     -50.147 -25.732  12.096 -2.59 -0.00    -0.191 NA 
DOCKED: ATOM     11  C   UNL     1     -50.012 -24.660  12.525 -0.35 +0.00    +0.101 C  
DOCKED: ENDROOT
DOCKED: BRANCH   2  12
DOCKED: ATOM     12  C   UNL     1     -48.894 -19.315  16.024 -0.04 +0.00    +0.038 C  
DOCKED: BRANCH  12  13
DOCKED: ATOM     13  C   UNL     1     -48.307 -17.957  16.404 -0.02 +0.00    +0.038 C  
DOCKED: BRANCH  13  14
DOCKED: ATOM     14  C   UNL     1     -48.474 -17.686  17.898 +0.00 +0.00    +0.251 C  
DOCKED: BRANCH  14  15
DOCKED: ATOM     15  N   UNL     1     -47.815 -16.438  18.264 +0.00 +0.00    +0.141 N  
DOCKED: ATOM     16  C   UNL     1     -46.581 -16.262  17.496 +0.00 +0.00    +0.285 C  
DOCKED: ATOM     17  C   UNL     1     -48.711 -15.300  18.052 +0.00 +0.00    +0.285 C  
DOCKED: ENDBRANCH  14  15
DOCKED: ENDBRANCH  13  14
DOCKED: ENDBRANCH  12  13
DOCKED: ENDBRANCH   2  12
DOCKED: BRANCH   2  18
DOCKED: ATOM     18  C   UNL     1     -50.066 -18.351  14.052 -0.17 +0.00    +0.006 A  
DOCKED: ATOM     19  C   UNL     1     -49.768 -17.620  12.903 -0.18 +0.00    +0.001 A  
DOCKED: ATOM     20  C   UNL     1     -50.643 -16.624  12.465 -0.15 +0.00    +0.029 A  
DOCKED: ATOM     21  C   UNL     1     -51.813 -16.363  13.176 -0.11 +0.00    +0.140 A  
DOCKED: ATOM     22  C   UNL     1     -52.111 -17.095  14.325 -0.10 +0.00    +0.029 A  
DOCKED: ATOM     23  F   UNL     1     -52.653 -15.408  12.754 -0.01 -0.00    -0.204 F  
DOCKED: ATOM     24  C   UNL     1     -51.237 -18.090  14.764 -0.10 +0.00    +0.001 A  
DOCKED: ENDBRANCH   2  18
DOCKED: TORSDOF 5
DOCKED: TER
DOCKED: ENDMDL
________________________________________________________________________________


    FINAL DOCKED STATE:
    ________________________


Run:   155 / 512
Time taken for this run:   0.002s

DOCKED: MODEL        155
DOCKED: USER    Run = 155
DOCKED: USER
DOCKED: USER    Estimated Free Energy of Binding    =  -3.78 kcal/mol  [=(1)+(2)+(3)-(4)]
DOCKED: USER
DOCKED: USER    (1) Final Intermolecular Energy     =  -5.27 kcal/mol
DOCKED: USER        vdW + Hbond + desolv Energy     =  -5.27 kcal/mol
DOCKED: USER        Electrostatic Energy            =  +0.00 kcal/mol
DOCKED: USER        Moving Ligand-Fixed Receptor    =  -5.27 kcal/mol
DOCKED: USER        Moving Ligand-Moving Receptor   =  +0.00 kcal/mol
DOCKED: USER    (2) Final Total Internal Energy     =  -1.54 kcal/mol
DOCKED: USER    (3) Torsional Free Energy           =  +1.49 kcal/mol
DOCKED: USER    (4) Unbound System's Energy         =  -1.54 kcal/mol
DOCKED: USER
DOCKED: USER
DOCKED: REMARK  5 active torsions:
DOCKED: REMARK  status: ('A' for Active; 'I' for Inactive)
DOCKED: REMARK    1  A    between atoms: C_2  and  C_19 
DOCKED: REMARK    2  A    between atoms: C_2  and  C_11 
DOCKED: REMARK    3  A    between atoms: C_19  and  C_20 
DOCKED: REMARK    4  A    between atoms: C_20  and  C_21 
DOCKED: REMARK    5  A    between atoms: C_21  and  N_22 
DOCKED: USER                              x       y       z     vdW  Elec       q    Type
DOCKED: USER                           _______ _______ _______ _____ _____    ______ ____
DOCKED: ROOT
DOCKED: ATOM      1  O   UNL     1     -44.082 -15.333   7.139 -0.04 -0.00    -0.346 OA 
DOCKED: ATOM      2  C   UNL     1     -45.466 -15.492   6.690 -0.21 +0.00    +0.130 C  
DOCKED: ATOM      3  C   UNL     1     -45.602 -14.487   5.583 -0.27 +0.00    +0.004 A  
DOCKED: ATOM      4  C   UNL     1     -44.375 -13.886   5.344 -0.17 +0.00    +0.006 A  
DOCKED: ATOM      5  C   UNL     1     -43.353 -14.450   6.254 -0.11 +0.00    +0.169 C  
DOCKED: ATOM      6  C   UNL     1     -46.721 -14.142   4.838 -0.31 -0.00    -0.001 A  
DOCKED: ATOM      7  C   UNL     1     -44.224 -12.921   4.362 -0.20 +0.00    +0.008 A  
DOCKED: ATOM      8  C   UNL     1     -46.586 -13.168   3.847 -0.42 +0.00    +0.010 A  
DOCKED: ATOM      9  C   UNL     1     -45.344 -12.561   3.611 -0.30 +0.00    +0.068 A  
DOCKED: ATOM     10  N   UNL     1     -45.126 -10.760   1.761 -0.83 -0.00    -0.191 NA 
DOCKED: ATOM     11  C   UNL     1     -45.224 -11.567   2.591 -0.34 +0.00    +0.101 C  
DOCKED: ENDROOT
DOCKED: BRANCH   2  12
DOCKED: ATOM     12  C   UNL     1     -45.658 -16.927   6.217 -0.19 +0.00    +0.038 C  
DOCKED: BRANCH  12  13
DOCKED: ATOM     13  C   UNL     1     -44.770 -17.895   6.997 -0.19 +0.00    +0.038 C  
DOCKED: BRANCH  13  14
DOCKED: ATOM     14  C   UNL     1     -45.530 -18.515   8.168 -0.17 +0.00    +0.251 C  
DOCKED: BRANCH  14  15
DOCKED: ATOM     15  N   UNL     1     -44.753 -18.395   9.396 -0.11 +0.00    +0.141 N  
DOCKED: ATOM     16  C   UNL     1     -43.511 -17.661   9.152 -0.03 +0.00    +0.285 C  
DOCKED: ATOM     17  C   UNL     1     -45.538 -17.733  10.440 -0.06 +0.00    +0.285 C  
DOCKED: ENDBRANCH  14  15
DOCKED: ENDBRANCH  13  14
DOCKED: ENDBRANCH  12  13
DOCKED: ENDBRANCH   2  12
DOCKED: BRANCH   2  18
DOCKED: ATOM     18  C   UNL     1     -46.341 -15.189   7.861 -0.25 +0.00    +0.006 A  
DOCKED: ATOM     19  C   UNL     1     -45.844 -14.441   8.927 -0.21 +0.00    +0.001 A  
DOCKED: ATOM     20  C   UNL     1     -46.664 -14.159  10.021 -0.20 +0.00    +0.029 A  
DOCKED: ATOM     21  C   UNL     1     -47.977 -14.625  10.047 -0.14 +0.00    +0.140 A  
DOCKED: ATOM     22  C   UNL     1     -48.473 -15.373   8.979 -0.26 +0.00    +0.029 A  
DOCKED: ATOM     23  F   UNL     1     -48.764 -14.353  11.096 -0.01 -0.00    -0.204 F  
DOCKED: ATOM     24  C   UNL     1     -47.655 -15.656   7.885 -0.27 +0.00    +0.001 A  
DOCKED: ENDBRANCH   2  18
DOCKED: TORSDOF 5
DOCKED: TER
DOCKED: ENDMDL
________________________________________________________________________________


    FINAL DOCKED STATE:
    ________________________


Run:   156 / 512
Time taken for this run:   0.002s

DOCKED: MODEL        156
DOCKED: USER    Run = 156
DOCKED: USER
DOCKED: USER    Estimated Free Energy of Binding    =  -3.90 kcal/mol  [=(1)+(2)+(3)-(4)]
DOCKED: USER
DOCKED: USER    (1) Final Intermolecular Energy     =  -5.39 kcal/mol
DOCKED: USER        vdW + Hbond + desolv Energy     =  -5.39 kcal/mol
DOCKED: USER        Electrostatic Energy            =  +0.00 kcal/mol
DOCKED: USER        Moving Ligand-Fixed Receptor    =  -5.39 kcal/mol
DOCKED: USER        Moving Ligand-Moving Receptor   =  +0.00 kcal/mol
DOCKED: USER    (2) Final Total Internal Energy     =  -1.45 kcal/mol
DOCKED: USER    (3) Torsional Free Energy           =  +1.49 kcal/mol
DOCKED: USER    (4) Unbound System's Energy         =  -1.45 kcal/mol
DOCKED: USER
DOCKED: USER
DOCKED: REMARK  5 active torsions:
DOCKED: REMARK  status: ('A' for Active; 'I' for Inactive)
DOCKED: REMARK    1  A    between atoms: C_2  and  C_19 
DOCKED: REMARK    2  A    between atoms: C_2  and  C_11 
DOCKED: REMARK    3  A    between atoms: C_19  and  C_20 
DOCKED: REMARK    4  A    between atoms: C_20  and  C_21 
DOCKED: REMARK    5  A    between atoms: C_21  and  N_22 
DOCKED: USER                              x       y       z     vdW  Elec       q    Type
DOCKED: USER                           _______ _______ _______ _____ _____    ______ ____
DOCKED: ROOT
DOCKED: ATOM      1  O   UNL     1     -39.813 -22.712   5.132 +0.00 -0.00    -0.346 OA 
DOCKED: ATOM      2  C   UNL     1     -40.616 -21.734   5.866 -0.07 +0.00    +0.130 C  
DOCKED: ATOM      3  C   UNL     1     -41.243 -22.538   6.968 -0.12 +0.00    +0.004 A  
DOCKED: ATOM      4  C   UNL     1     -40.754 -23.836   6.936 -0.12 +0.00    +0.006 A  
DOCKED: ATOM      5  C   UNL     1     -39.776 -23.977   5.834 -0.05 +0.00    +0.169 C  
DOCKED: ATOM      6  C   UNL     1     -42.163 -22.148   7.931 -0.18 -0.00    -0.001 A  
DOCKED: ATOM      7  C   UNL     1     -41.168 -24.785   7.854 -0.20 +0.00    +0.008 A  
DOCKED: ATOM      8  C   UNL     1     -42.594 -23.095   8.861 -0.29 +0.00    +0.010 A  
DOCKED: ATOM      9  C   UNL     1     -42.099 -24.407   8.823 -0.28 +0.00    +0.068 A  
DOCKED: ATOM     10  N   UNL     1     -42.915 -26.139  10.569 -2.52 -0.00    -0.191 NA 
DOCKED: ATOM     11  C   UNL     1     -42.549 -25.362   9.786 -0.43 +0.00    +0.101 C  
DOCKED: ENDROOT
DOCKED: BRANCH   2  12
DOCKED: ATOM     12  C   UNL     1     -39.691 -20.639   6.382 -0.02 +0.00    +0.038 C  
DOCKED: BRANCH  12  13
DOCKED: ATOM     13  C   UNL     1     -38.341 -20.667   5.667 -0.00 +0.00    +0.038 C  
DOCKED: BRANCH  13  14
DOCKED: ATOM     14  C   UNL     1     -38.468 -20.155   4.234 +0.00 +0.00    +0.251 C  
DOCKED: BRANCH  14  15
DOCKED: ATOM     15  N   UNL     1     -39.383 -19.021   4.179 -0.00 +0.00    +0.141 N  
DOCKED: ATOM     16  C   UNL     1     -38.702 -17.790   4.584 +0.00 +0.00    +0.285 C  
DOCKED: ATOM     17  C   UNL     1     -39.942 -18.873   2.834 +0.00 +0.00    +0.285 C  
DOCKED: ENDBRANCH  14  15
DOCKED: ENDBRANCH  13  14
DOCKED: ENDBRANCH  12  13
DOCKED: ENDBRANCH   2  12
DOCKED: BRANCH   2  18
DOCKED: ATOM     18  C   UNL     1     -41.618 -21.184   4.906 -0.13 +0.00    +0.006 A  
DOCKED: ATOM     19  C   UNL     1     -42.379 -20.069   5.255 -0.15 +0.00    +0.001 A  
DOCKED: ATOM     20  C   UNL     1     -43.315 -19.556   4.357 -0.21 +0.00    +0.029 A  
DOCKED: ATOM     21  C   UNL     1     -43.489 -20.158   3.111 -0.19 +0.00    +0.140 A  
DOCKED: ATOM     22  C   UNL     1     -42.727 -21.273   2.762 -0.16 +0.00    +0.029 A  
DOCKED: ATOM     23  F   UNL     1     -44.386 -19.664   2.248 -0.15 -0.00    -0.204 F  
DOCKED: ATOM     24  C   UNL     1     -41.790 -21.787   3.661 -0.13 +0.00    +0.001 A  
DOCKED: ENDBRANCH   2  18
DOCKED: TORSDOF 5
DOCKED: TER
DOCKED: ENDMDL
________________________________________________________________________________


    FINAL DOCKED STATE:
    ________________________


Run:   157 / 512
Time taken for this run:   0.002s

DOCKED: MODEL        157
DOCKED: USER    Run = 157
DOCKED: USER
DOCKED: USER    Estimated Free Energy of Binding    =  -3.25 kcal/mol  [=(1)+(2)+(3)-(4)]
DOCKED: USER
DOCKED: USER    (1) Final Intermolecular Energy     =  -4.74 kcal/mol
DOCKED: USER        vdW + Hbond + desolv Energy     =  -4.74 kcal/mol
DOCKED: USER        Electrostatic Energy            =  +0.00 kcal/mol
DOCKED: USER        Moving Ligand-Fixed Receptor    =  -4.74 kcal/mol
DOCKED: USER        Moving Ligand-Moving Receptor   =  +0.00 kcal/mol
DOCKED: USER    (2) Final Total Internal Energy     =  -1.51 kcal/mol
DOCKED: USER    (3) Torsional Free Energy           =  +1.49 kcal/mol
DOCKED: USER    (4) Unbound System's Energy         =  -1.51 kcal/mol
DOCKED: USER
DOCKED: USER
DOCKED: REMARK  5 active torsions:
DOCKED: REMARK  status: ('A' for Active; 'I' for Inactive)
DOCKED: REMARK    1  A    between atoms: C_2  and  C_19 
DOCKED: REMARK    2  A    between atoms: C_2  and  C_11 
DOCKED: REMARK    3  A    between atoms: C_19  and  C_20 
DOCKED: REMARK    4  A    between atoms: C_20  and  C_21 
DOCKED: REMARK    5  A    between atoms: C_21  and  N_22 
DOCKED: USER                              x       y       z     vdW  Elec       q    Type
DOCKED: USER                           _______ _______ _______ _____ _____    ______ ____
DOCKED: ROOT
DOCKED: ATOM      1  O   UNL     1     -41.322 -10.657   4.229 -0.01 -0.00    -0.346 OA 
DOCKED: ATOM      2  C   UNL     1     -41.343 -10.509   2.773 -0.09 +0.00    +0.130 C  
DOCKED: ATOM      3  C   UNL     1     -42.721 -10.963   2.385 -0.11 +0.00    +0.004 A  
DOCKED: ATOM      4  C   UNL     1     -43.460 -11.239   3.527 -0.13 +0.00    +0.006 A  
DOCKED: ATOM      5  C   UNL     1     -42.640 -10.980   4.731 -0.15 +0.00    +0.169 C  
DOCKED: ATOM      6  C   UNL     1     -43.279 -11.108   1.124 -0.17 -0.00    -0.001 A  
DOCKED: ATOM      7  C   UNL     1     -44.772 -11.672   3.448 -0.31 +0.00    +0.008 A  
DOCKED: ATOM      8  C   UNL     1     -44.600 -11.547   1.027 -0.21 +0.00    +0.010 A  
DOCKED: ATOM      9  C   UNL     1     -45.343 -11.828   2.184 -0.34 +0.00    +0.068 A  
DOCKED: ATOM     10  N   UNL     1     -47.795 -12.637   1.970 -2.52 -0.00    -0.191 NA 
DOCKED: ATOM     11  C   UNL     1     -46.695 -12.275   2.066 -0.42 +0.00    +0.101 C  
DOCKED: ENDROOT
DOCKED: BRANCH   2  12
DOCKED: ATOM     12  C   UNL     1     -41.082  -9.047   2.432 -0.07 +0.00    +0.038 C  
DOCKED: BRANCH  12  13
DOCKED: ATOM     13  C   UNL     1     -41.186  -8.159   3.670 -0.12 +0.00    +0.038 C  
DOCKED: BRANCH  13  14
DOCKED: ATOM     14  C   UNL     1     -39.803  -7.818   4.221 -0.01 +0.00    +0.251 C  
DOCKED: BRANCH  14  15
DOCKED: ATOM     15  N   UNL     1     -38.898  -8.950   4.055 -0.01 +0.00    +0.141 N  
DOCKED: ATOM     16  C   UNL     1     -37.567  -8.492   3.652 +0.00 +0.00    +0.285 C  
DOCKED: ATOM     17  C   UNL     1     -38.814  -9.728   5.291 +0.00 +0.00    +0.285 C  
DOCKED: ENDBRANCH  14  15
DOCKED: ENDBRANCH  13  14
DOCKED: ENDBRANCH  12  13
DOCKED: ENDBRANCH   2  12
DOCKED: BRANCH   2  18
DOCKED: ATOM     18  C   UNL     1     -40.267 -11.389   2.230 -0.04 +0.00    +0.006 A  
DOCKED: ATOM     19  C   UNL     1     -39.330 -10.873   1.336 -0.03 +0.00    +0.001 A  
DOCKED: ATOM     20  C   UNL     1     -38.324 -11.697   0.829 -0.01 +0.00    +0.029 A  
DOCKED: ATOM     21  C   UNL     1     -38.257 -13.034   1.216 +0.00 +0.00    +0.140 A  
DOCKED: ATOM     22  C   UNL     1     -39.195 -13.550   2.110 -0.00 +0.00    +0.029 A  
DOCKED: ATOM     23  F   UNL     1     -37.291 -13.824   0.731 +0.00 -0.00    -0.204 F  
DOCKED: ATOM     24  C   UNL     1     -40.201 -12.727   2.618 -0.02 +0.00    +0.001 A  
DOCKED: ENDBRANCH   2  18
DOCKED: TORSDOF 5
DOCKED: TER
DOCKED: ENDMDL
________________________________________________________________________________


    FINAL DOCKED STATE:
    ________________________


Run:   158 / 512
Time taken for this run:   0.002s

DOCKED: MODEL        158
DOCKED: USER    Run = 158
DOCKED: USER
DOCKED: USER    Estimated Free Energy of Binding    =  -3.52 kcal/mol  [=(1)+(2)+(3)-(4)]
DOCKED: USER
DOCKED: USER    (1) Final Intermolecular Energy     =  -5.02 kcal/mol
DOCKED: USER        vdW + Hbond + desolv Energy     =  -5.02 kcal/mol
DOCKED: USER        Electrostatic Energy            =  +0.00 kcal/mol
DOCKED: USER        Moving Ligand-Fixed Receptor    =  -5.02 kcal/mol
DOCKED: USER        Moving Ligand-Moving Receptor   =  +0.00 kcal/mol
DOCKED: USER    (2) Final Total Internal Energy     =  -1.35 kcal/mol
DOCKED: USER    (3) Torsional Free Energy           =  +1.49 kcal/mol
DOCKED: USER    (4) Unbound System's Energy         =  -1.35 kcal/mol
DOCKED: USER
DOCKED: USER
DOCKED: REMARK  5 active torsions:
DOCKED: REMARK  status: ('A' for Active; 'I' for Inactive)
DOCKED: REMARK    1  A    between atoms: C_2  and  C_19 
DOCKED: REMARK    2  A    between atoms: C_2  and  C_11 
DOCKED: REMARK    3  A    between atoms: C_19  and  C_20 
DOCKED: REMARK    4  A    between atoms: C_20  and  C_21 
DOCKED: REMARK    5  A    between atoms: C_21  and  N_22 
DOCKED: USER                              x       y       z     vdW  Elec       q    Type
DOCKED: USER                           _______ _______ _______ _____ _____    ______ ____
DOCKED: ROOT
DOCKED: ATOM      1  O   UNL     1     -41.664 -10.551   4.966 -0.02 -0.00    -0.346 OA 
DOCKED: ATOM      2  C   UNL     1     -41.470 -10.535   3.516 -0.08 +0.00    +0.130 C  
DOCKED: ATOM      3  C   UNL     1     -42.789 -11.002   2.971 -0.10 +0.00    +0.004 A  
DOCKED: ATOM      4  C   UNL     1     -43.693 -11.163   4.012 -0.21 +0.00    +0.006 A  
DOCKED: ATOM      5  C   UNL     1     -43.049 -10.808   5.296 -0.18 +0.00    +0.169 C  
DOCKED: ATOM      6  C   UNL     1     -43.163 -11.253   1.659 -0.19 -0.00    -0.001 A  
DOCKED: ATOM      7  C   UNL     1     -44.992 -11.582   3.780 -0.32 +0.00    +0.008 A  
DOCKED: ATOM      8  C   UNL     1     -44.468 -11.680   1.409 -0.28 +0.00    +0.010 A  
DOCKED: ATOM      9  C   UNL     1     -45.378 -11.844   2.464 -0.35 +0.00    +0.068 A  
DOCKED: ATOM     10  N   UNL     1     -47.795 -12.633   1.965 -2.52 -0.00    -0.191 NA 
DOCKED: ATOM     11  C   UNL     1     -46.710 -12.280   2.189 -0.42 +0.00    +0.101 C  
DOCKED: ENDROOT
DOCKED: BRANCH   2  12
DOCKED: ATOM     12  C   UNL     1     -41.122  -9.114   3.090 -0.12 +0.00    +0.038 C  
DOCKED: BRANCH  12  13
DOCKED: ATOM     13  C   UNL     1     -41.000  -8.186   4.297 -0.08 +0.00    +0.038 C  
DOCKED: BRANCH  13  14
DOCKED: ATOM     14  C   UNL     1     -39.631  -8.326   4.961 -0.00 +0.00    +0.251 C  
DOCKED: BRANCH  14  15
DOCKED: ATOM     15  N   UNL     1     -39.785  -8.669   6.370 -0.02 +0.00    +0.141 N  
DOCKED: ATOM     16  C   UNL     1     -38.720  -8.060   7.168 -0.00 +0.00    +0.285 C  
DOCKED: ATOM     17  C   UNL     1     -41.096  -8.244   6.864 -0.04 +0.00    +0.285 C  
DOCKED: ENDBRANCH  14  15
DOCKED: ENDBRANCH  13  14
DOCKED: ENDBRANCH  12  13
DOCKED: ENDBRANCH   2  12
DOCKED: BRANCH   2  18
DOCKED: ATOM     18  C   UNL     1     -40.352 -11.476   3.215 -0.03 +0.00    +0.006 A  
DOCKED: ATOM     19  C   UNL     1     -39.649 -12.078   4.258 -0.01 +0.00    +0.001 A  
DOCKED: ATOM     20  C   UNL     1     -38.603 -12.958   3.976 -0.00 +0.00    +0.029 A  
DOCKED: ATOM     21  C   UNL     1     -38.262 -13.234   2.653 +0.00 +0.00    +0.140 A  
DOCKED: ATOM     22  C   UNL     1     -38.965 -12.632   1.610 -0.01 +0.00    +0.029 A  
DOCKED: ATOM     23  F   UNL     1     -37.259 -14.080   2.382 +0.00 -0.00    -0.204 F  
DOCKED: ATOM     24  C   UNL     1     -40.012 -11.752   1.891 -0.03 +0.00    +0.001 A  
DOCKED: ENDBRANCH   2  18
DOCKED: TORSDOF 5
DOCKED: TER
DOCKED: ENDMDL
________________________________________________________________________________


    FINAL DOCKED STATE:
    ________________________


Run:   159 / 512
Time taken for this run:   0.002s

DOCKED: MODEL        159
DOCKED: USER    Run = 159
DOCKED: USER
DOCKED: USER    Estimated Free Energy of Binding    =  -3.79 kcal/mol  [=(1)+(2)+(3)-(4)]
DOCKED: USER
DOCKED: USER    (1) Final Intermolecular Energy     =  -5.29 kcal/mol
DOCKED: USER        vdW + Hbond + desolv Energy     =  -5.29 kcal/mol
DOCKED: USER        Electrostatic Energy            =  +0.00 kcal/mol
DOCKED: USER        Moving Ligand-Fixed Receptor    =  -5.29 kcal/mol
DOCKED: USER        Moving Ligand-Moving Receptor   =  +0.00 kcal/mol
DOCKED: USER    (2) Final Total Internal Energy     =  -1.38 kcal/mol
DOCKED: USER    (3) Torsional Free Energy           =  +1.49 kcal/mol
DOCKED: USER    (4) Unbound System's Energy         =  -1.38 kcal/mol
DOCKED: USER
DOCKED: USER
DOCKED: REMARK  5 active torsions:
DOCKED: REMARK  status: ('A' for Active; 'I' for Inactive)
DOCKED: REMARK    1  A    between atoms: C_2  and  C_19 
DOCKED: REMARK    2  A    between atoms: C_2  and  C_11 
DOCKED: REMARK    3  A    between atoms: C_19  and  C_20 
DOCKED: REMARK    4  A    between atoms: C_20  and  C_21 
DOCKED: REMARK    5  A    between atoms: C_21  and  N_22 
DOCKED: USER                              x       y       z     vdW  Elec       q    Type
DOCKED: USER                           _______ _______ _______ _____ _____    ______ ____
DOCKED: ROOT
DOCKED: ATOM      1  O   UNL     1     -42.602 -19.084   9.819 -0.02 -0.00    -0.346 OA 
DOCKED: ATOM      2  C   UNL     1     -43.521 -19.664   8.838 -0.14 +0.00    +0.130 C  
DOCKED: ATOM      3  C   UNL     1     -43.380 -21.144   9.045 -0.23 +0.00    +0.004 A  
DOCKED: ATOM      4  C   UNL     1     -42.540 -21.387  10.123 -0.17 +0.00    +0.006 A  
DOCKED: ATOM      5  C   UNL     1     -42.084 -20.104  10.703 -0.09 +0.00    +0.169 C  
DOCKED: ATOM      6  C   UNL     1     -43.958 -22.192   8.343 -0.32 -0.00    -0.001 A  
DOCKED: ATOM      7  C   UNL     1     -42.247 -22.677  10.532 -0.18 +0.00    +0.008 A  
DOCKED: ATOM      8  C   UNL     1     -43.669 -23.498   8.740 -0.20 +0.00    +0.010 A  
DOCKED: ATOM      9  C   UNL     1     -42.818 -23.739   9.829 -0.20 +0.00    +0.068 A  
DOCKED: ATOM     10  N   UNL     1     -42.306 -26.177  10.543 -1.91 -0.00    -0.191 NA 
DOCKED: ATOM     11  C   UNL     1     -42.535 -25.084  10.223 -0.39 +0.00    +0.101 C  
DOCKED: ENDROOT
DOCKED: BRANCH   2  12
DOCKED: ATOM     12  C   UNL     1     -44.926 -19.154   9.132 -0.22 +0.00    +0.038 C  
DOCKED: BRANCH  12  13
DOCKED: ATOM     13  C   UNL     1     -44.956 -17.631   9.239 -0.13 +0.00    +0.038 C  
DOCKED: BRANCH  13  14
DOCKED: ATOM     14  C   UNL     1     -45.737 -17.014   8.080 -0.13 +0.00    +0.251 C  
DOCKED: BRANCH  14  15
DOCKED: ATOM     15  N   UNL     1     -44.846 -16.242   7.222 -0.10 +0.00    +0.141 N  
DOCKED: ATOM     16  C   UNL     1     -45.388 -16.149   5.866 -0.14 +0.00    +0.285 C  
DOCKED: ATOM     17  C   UNL     1     -44.630 -14.903   7.775 -0.12 +0.00    +0.285 C  
DOCKED: ENDBRANCH  14  15
DOCKED: ENDBRANCH  13  14
DOCKED: ENDBRANCH  12  13
DOCKED: ENDBRANCH   2  12
DOCKED: BRANCH   2  18
DOCKED: ATOM     18  C   UNL     1     -43.058 -19.219   7.491 -0.11 +0.00    +0.006 A  
DOCKED: ATOM     19  C   UNL     1     -42.033 -18.280   7.381 -0.03 +0.00    +0.001 A  
DOCKED: ATOM     20  C   UNL     1     -41.601 -17.864   6.121 -0.02 +0.00    +0.029 A  
DOCKED: ATOM     21  C   UNL     1     -42.194 -18.388   4.973 -0.05 +0.00    +0.140 A  
DOCKED: ATOM     22  C   UNL     1     -43.220 -19.327   5.083 -0.19 +0.00    +0.029 A  
DOCKED: ATOM     23  F   UNL     1     -41.779 -17.990   3.764 +0.00 -0.00    -0.204 F  
DOCKED: ATOM     24  C   UNL     1     -43.652 -19.743   6.344 -0.20 +0.00    +0.001 A  
DOCKED: ENDBRANCH   2  18
DOCKED: TORSDOF 5
DOCKED: TER
DOCKED: ENDMDL
________________________________________________________________________________


    FINAL DOCKED STATE:
    ________________________


Run:   160 / 512
Time taken for this run:   0.002s

DOCKED: MODEL        160
DOCKED: USER    Run = 160
DOCKED: USER
DOCKED: USER    Estimated Free Energy of Binding    =  -3.93 kcal/mol  [=(1)+(2)+(3)-(4)]
DOCKED: USER
DOCKED: USER    (1) Final Intermolecular Energy     =  -5.43 kcal/mol
DOCKED: USER        vdW + Hbond + desolv Energy     =  -5.43 kcal/mol
DOCKED: USER        Electrostatic Energy            =  +0.00 kcal/mol
DOCKED: USER        Moving Ligand-Fixed Receptor    =  -5.43 kcal/mol
DOCKED: USER        Moving Ligand-Moving Receptor   =  +0.00 kcal/mol
DOCKED: USER    (2) Final Total Internal Energy     =  -1.55 kcal/mol
DOCKED: USER    (3) Torsional Free Energy           =  +1.49 kcal/mol
DOCKED: USER    (4) Unbound System's Energy         =  -1.55 kcal/mol
DOCKED: USER
DOCKED: USER
DOCKED: REMARK  5 active torsions:
DOCKED: REMARK  status: ('A' for Active; 'I' for Inactive)
DOCKED: REMARK    1  A    between atoms: C_2  and  C_19 
DOCKED: REMARK    2  A    between atoms: C_2  and  C_11 
DOCKED: REMARK    3  A    between atoms: C_19  and  C_20 
DOCKED: REMARK    4  A    between atoms: C_20  and  C_21 
DOCKED: REMARK    5  A    between atoms: C_21  and  N_22 
DOCKED: USER                              x       y       z     vdW  Elec       q    Type
DOCKED: USER                           _______ _______ _______ _____ _____    ______ ____
DOCKED: ROOT
DOCKED: ATOM      1  O   UNL     1     -39.964 -20.817   6.951 +0.01 -0.00    -0.346 OA 
DOCKED: ATOM      2  C   UNL     1     -41.377 -20.490   7.143 -0.06 +0.00    +0.130 C  
DOCKED: ATOM      3  C   UNL     1     -41.916 -21.663   7.910 -0.13 +0.00    +0.004 A  
DOCKED: ATOM      4  C   UNL     1     -40.881 -22.531   8.225 -0.09 +0.00    +0.006 A  
DOCKED: ATOM      5  C   UNL     1     -39.601 -21.995   7.708 -0.02 +0.00    +0.169 C  
DOCKED: ATOM      6  C   UNL     1     -43.218 -21.934   8.307 -0.29 -0.00    -0.001 A  
DOCKED: ATOM      7  C   UNL     1     -41.108 -23.695   8.939 -0.16 +0.00    +0.008 A  
DOCKED: ATOM      8  C   UNL     1     -43.464 -23.106   9.024 -0.29 +0.00    +0.010 A  
DOCKED: ATOM      9  C   UNL     1     -42.414 -23.982   9.338 -0.29 +0.00    +0.068 A  
DOCKED: ATOM     10  N   UNL     1     -42.904 -26.147  10.675 -2.57 -0.00    -0.191 NA 
DOCKED: ATOM     11  C   UNL     1     -42.684 -25.176  10.075 -0.36 +0.00    +0.101 C  
DOCKED: ENDROOT
DOCKED: BRANCH   2  12
DOCKED: ATOM     12  C   UNL     1     -41.469 -19.181   7.919 -0.03 +0.00    +0.038 C  
DOCKED: BRANCH  12  13
DOCKED: ATOM     13  C   UNL     1     -40.190 -18.359   7.777 -0.00 +0.00    +0.038 C  
DOCKED: BRANCH  13  14
DOCKED: ATOM     14  C   UNL     1     -40.318 -17.335   6.650 -0.00 +0.00    +0.251 C  
DOCKED: BRANCH  14  15
DOCKED: ATOM     15  N   UNL     1     -39.215 -17.478   5.707 -0.00 +0.00    +0.141 N  
DOCKED: ATOM     16  C   UNL     1     -38.203 -18.396   6.232 +0.00 +0.00    +0.285 C  
DOCKED: ATOM     17  C   UNL     1     -39.704 -17.949   4.410 +0.00 +0.00    +0.285 C  
DOCKED: ENDBRANCH  14  15
DOCKED: ENDBRANCH  13  14
DOCKED: ENDBRANCH  12  13
DOCKED: ENDBRANCH   2  12
DOCKED: BRANCH   2  18
DOCKED: ATOM     18  C   UNL     1     -41.982 -20.355   5.786 -0.12 +0.00    +0.006 A  
DOCKED: ATOM     19  C   UNL     1     -43.081 -19.518   5.593 -0.18 +0.00    +0.001 A  
DOCKED: ATOM     20  C   UNL     1     -43.646 -19.392   4.323 -0.22 +0.00    +0.029 A  
DOCKED: ATOM     21  C   UNL     1     -43.112 -20.103   3.249 -0.21 +0.00    +0.140 A  
DOCKED: ATOM     22  C   UNL     1     -42.013 -20.940   3.443 -0.17 +0.00    +0.029 A  
DOCKED: ATOM     23  F   UNL     1     -43.653 -19.981   2.030 -0.12 -0.00    -0.204 F  
DOCKED: ATOM     24  C   UNL     1     -41.448 -21.066   4.713 -0.12 +0.00    +0.001 A  
DOCKED: ENDBRANCH   2  18
DOCKED: TORSDOF 5
DOCKED: TER
DOCKED: ENDMDL
________________________________________________________________________________


    FINAL DOCKED STATE:
    ________________________


Run:   161 / 512
Time taken for this run:   0.002s

DOCKED: MODEL        161
DOCKED: USER    Run = 161
DOCKED: USER
DOCKED: USER    Estimated Free Energy of Binding    =  -4.81 kcal/mol  [=(1)+(2)+(3)-(4)]
DOCKED: USER
DOCKED: USER    (1) Final Intermolecular Energy     =  -6.30 kcal/mol
DOCKED: USER        vdW + Hbond + desolv Energy     =  -6.30 kcal/mol
DOCKED: USER        Electrostatic Energy            =  +0.00 kcal/mol
DOCKED: USER        Moving Ligand-Fixed Receptor    =  -6.30 kcal/mol
DOCKED: USER        Moving Ligand-Moving Receptor   =  +0.00 kcal/mol
DOCKED: USER    (2) Final Total Internal Energy     =  -1.34 kcal/mol
DOCKED: USER    (3) Torsional Free Energy           =  +1.49 kcal/mol
DOCKED: USER    (4) Unbound System's Energy         =  -1.34 kcal/mol
DOCKED: USER
DOCKED: USER
DOCKED: REMARK  5 active torsions:
DOCKED: REMARK  status: ('A' for Active; 'I' for Inactive)
DOCKED: REMARK    1  A    between atoms: C_2  and  C_19 
DOCKED: REMARK    2  A    between atoms: C_2  and  C_11 
DOCKED: REMARK    3  A    between atoms: C_19  and  C_20 
DOCKED: REMARK    4  A    between atoms: C_20  and  C_21 
DOCKED: REMARK    5  A    between atoms: C_21  and  N_22 
DOCKED: USER                              x       y       z     vdW  Elec       q    Type
DOCKED: USER                           _______ _______ _______ _____ _____    ______ ____
DOCKED: ROOT
DOCKED: ATOM      1  O   UNL     1     -51.398 -21.921  14.860 -0.01 -0.00    -0.346 OA 
DOCKED: ATOM      2  C   UNL     1     -49.978 -22.243  14.705 -0.12 +0.00    +0.130 C  
DOCKED: ATOM      3  C   UNL     1     -49.895 -22.846  13.333 -0.27 +0.00    +0.004 A  
DOCKED: ATOM      4  C   UNL     1     -51.134 -22.774  12.714 -0.24 +0.00    +0.006 A  
DOCKED: ATOM      5  C   UNL     1     -52.108 -22.116  13.615 -0.18 +0.00    +0.169 C  
DOCKED: ATOM      6  C   UNL     1     -48.805 -23.404  12.680 -0.37 -0.00    -0.001 A  
DOCKED: ATOM      7  C   UNL     1     -51.329 -23.257  11.431 -0.01 +0.00    +0.008 A  
DOCKED: ATOM      8  C   UNL     1     -48.986 -23.899  11.387 -0.34 +0.00    +0.010 A  
DOCKED: ATOM      9  C   UNL     1     -50.242 -23.825  10.766 -0.40 +0.00    +0.068 A  
DOCKED: ATOM     10  N   UNL     1     -50.543 -24.750   8.365 -2.52 -0.00    -0.191 NA 
DOCKED: ATOM     11  C   UNL     1     -50.408 -24.336   9.442 -0.31 +0.00    +0.101 C  
DOCKED: ENDROOT
DOCKED: BRANCH   2  12
DOCKED: ATOM     12  C   UNL     1     -49.174 -20.955  14.838 -0.13 +0.00    +0.038 C  
DOCKED: BRANCH  12  13
DOCKED: ATOM     13  C   UNL     1     -49.696 -20.088  15.981 -0.05 +0.00    +0.038 C  
DOCKED: BRANCH  13  14
DOCKED: ATOM     14  C   UNL     1     -50.657 -19.019  15.465 -0.03 +0.00    +0.251 C  
DOCKED: BRANCH  14  15
DOCKED: ATOM     15  N   UNL     1     -50.453 -18.799  14.038 -0.15 +0.00    +0.141 N  
DOCKED: ATOM     16  C   UNL     1     -51.734 -18.773  13.331 -0.15 +0.00    +0.285 C  
DOCKED: ATOM     17  C   UNL     1     -49.721 -17.552  13.809 -0.11 +0.00    +0.285 C  
DOCKED: ENDBRANCH  14  15
DOCKED: ENDBRANCH  13  14
DOCKED: ENDBRANCH  12  13
DOCKED: ENDBRANCH   2  12
DOCKED: BRANCH   2  18
DOCKED: ATOM     18  C   UNL     1     -49.630 -23.210  15.787 -0.13 +0.00    +0.006 A  
DOCKED: ATOM     19  C   UNL     1     -50.636 -23.758  16.582 -0.13 +0.00    +0.001 A  
DOCKED: ATOM     20  C   UNL     1     -50.309 -24.662  17.594 -0.13 +0.00    +0.029 A  
DOCKED: ATOM     21  C   UNL     1     -48.978 -25.015  17.809 -0.12 +0.00    +0.140 A  
DOCKED: ATOM     22  C   UNL     1     -47.972 -24.466  17.014 -0.17 +0.00    +0.029 A  
DOCKED: ATOM     23  F   UNL     1     -48.664 -25.884  18.779 -0.06 -0.00    -0.204 F  
DOCKED: ATOM     24  C   UNL     1     -48.298 -23.562  16.002 -0.18 +0.00    +0.001 A  
DOCKED: ENDBRANCH   2  18
DOCKED: TORSDOF 5
DOCKED: TER
DOCKED: ENDMDL
________________________________________________________________________________


    FINAL DOCKED STATE:
    ________________________


Run:   162 / 512
Time taken for this run:   0.002s

DOCKED: MODEL        162
DOCKED: USER    Run = 162
DOCKED: USER
DOCKED: USER    Estimated Free Energy of Binding    =  -5.52 kcal/mol  [=(1)+(2)+(3)-(4)]
DOCKED: USER
DOCKED: USER    (1) Final Intermolecular Energy     =  -7.01 kcal/mol
DOCKED: USER        vdW + Hbond + desolv Energy     =  -7.01 kcal/mol
DOCKED: USER        Electrostatic Energy            =  +0.00 kcal/mol
DOCKED: USER        Moving Ligand-Fixed Receptor    =  -7.01 kcal/mol
DOCKED: USER        Moving Ligand-Moving Receptor   =  +0.00 kcal/mol
DOCKED: USER    (2) Final Total Internal Energy     =  -1.46 kcal/mol
DOCKED: USER    (3) Torsional Free Energy           =  +1.49 kcal/mol
DOCKED: USER    (4) Unbound System's Energy         =  -1.46 kcal/mol
DOCKED: USER
DOCKED: USER
DOCKED: REMARK  5 active torsions:
DOCKED: REMARK  status: ('A' for Active; 'I' for Inactive)
DOCKED: REMARK    1  A    between atoms: C_2  and  C_19 
DOCKED: REMARK    2  A    between atoms: C_2  and  C_11 
DOCKED: REMARK    3  A    between atoms: C_19  and  C_20 
DOCKED: REMARK    4  A    between atoms: C_20  and  C_21 
DOCKED: REMARK    5  A    between atoms: C_21  and  N_22 
DOCKED: USER                              x       y       z     vdW  Elec       q    Type
DOCKED: USER                           _______ _______ _______ _____ _____    ______ ____
DOCKED: ROOT
DOCKED: ATOM      1  O   UNL     1     -48.031 -21.357  14.500 -0.06 -0.00    -0.346 OA 
DOCKED: ATOM      2  C   UNL     1     -47.910 -22.811  14.619 -0.22 +0.00    +0.130 C  
DOCKED: ATOM      3  C   UNL     1     -48.460 -23.325  13.321 -0.34 +0.00    +0.004 A  
DOCKED: ATOM      4  C   UNL     1     -48.765 -22.258  12.487 -0.32 +0.00    +0.006 A  
DOCKED: ATOM      5  C   UNL     1     -48.432 -20.983  13.161 -0.23 +0.00    +0.169 C  
DOCKED: ATOM      6  C   UNL     1     -48.663 -24.633  12.905 -0.40 -0.00    -0.001 A  
DOCKED: ATOM      7  C   UNL     1     -49.285 -22.459  11.220 +0.01 +0.00    +0.008 A  
DOCKED: ATOM      8  C   UNL     1     -49.190 -24.852  11.631 -0.49 +0.00    +0.010 A  
DOCKED: ATOM      9  C   UNL     1     -49.499 -23.771  10.793 -0.41 +0.00    +0.068 A  
DOCKED: ATOM     10  N   UNL     1     -50.472 -24.213   8.433 -2.90 -0.00    -0.191 NA 
DOCKED: ATOM     11  C   UNL     1     -50.036 -24.014   9.492 -0.45 +0.00    +0.101 C  
DOCKED: ENDROOT
DOCKED: BRANCH   2  12
DOCKED: ATOM     12  C   UNL     1     -46.440 -23.158  14.821 -0.23 +0.00    +0.038 C  
DOCKED: BRANCH  12  13
DOCKED: ATOM     13  C   UNL     1     -45.568 -21.904  14.833 -0.11 +0.00    +0.038 C  
DOCKED: BRANCH  13  14
DOCKED: ATOM     14  C   UNL     1     -45.253 -21.468  16.263 -0.07 +0.00    +0.251 C  
DOCKED: BRANCH  14  15
DOCKED: ATOM     15  N   UNL     1     -46.139 -20.384  16.670 -0.03 +0.00    +0.141 N  
DOCKED: ATOM     16  C   UNL     1     -47.088 -20.846  17.684 -0.01 +0.00    +0.285 C  
DOCKED: ATOM     17  C   UNL     1     -45.366 -19.249  17.177 -0.00 +0.00    +0.285 C  
DOCKED: ENDBRANCH  14  15
DOCKED: ENDBRANCH  13  14
DOCKED: ENDBRANCH  12  13
DOCKED: ENDBRANCH   2  12
DOCKED: BRANCH   2  18
DOCKED: ATOM     18  C   UNL     1     -48.727 -23.221  15.800 -0.15 +0.00    +0.006 A  
DOCKED: ATOM     19  C   UNL     1     -48.354 -24.335  16.551 -0.22 +0.00    +0.001 A  
DOCKED: ATOM     20  C   UNL     1     -49.118 -24.717  17.654 -0.18 +0.00    +0.029 A  
DOCKED: ATOM     21  C   UNL     1     -50.253 -23.986  18.004 -0.08 +0.00    +0.140 A  
DOCKED: ATOM     22  C   UNL     1     -50.625 -22.873  17.252 -0.06 +0.00    +0.029 A  
DOCKED: ATOM     23  F   UNL     1     -50.985 -24.353  19.064 -0.01 -0.00    -0.204 F  
DOCKED: ATOM     24  C   UNL     1     -49.861 -22.489  16.148 -0.08 +0.00    +0.001 A  
DOCKED: ENDBRANCH   2  18
DOCKED: TORSDOF 5
DOCKED: TER
DOCKED: ENDMDL
________________________________________________________________________________


    FINAL DOCKED STATE:
    ________________________


Run:   163 / 512
Time taken for this run:   0.002s

DOCKED: MODEL        163
DOCKED: USER    Run = 163
DOCKED: USER
DOCKED: USER    Estimated Free Energy of Binding    =  -4.36 kcal/mol  [=(1)+(2)+(3)-(4)]
DOCKED: USER
DOCKED: USER    (1) Final Intermolecular Energy     =  -5.86 kcal/mol
DOCKED: USER        vdW + Hbond + desolv Energy     =  -5.86 kcal/mol
DOCKED: USER        Electrostatic Energy            =  +0.00 kcal/mol
DOCKED: USER        Moving Ligand-Fixed Receptor    =  -5.86 kcal/mol
DOCKED: USER        Moving Ligand-Moving Receptor   =  +0.00 kcal/mol
DOCKED: USER    (2) Final Total Internal Energy     =  -1.28 kcal/mol
DOCKED: USER    (3) Torsional Free Energy           =  +1.49 kcal/mol
DOCKED: USER    (4) Unbound System's Energy         =  -1.28 kcal/mol
DOCKED: USER
DOCKED: USER
DOCKED: REMARK  5 active torsions:
DOCKED: REMARK  status: ('A' for Active; 'I' for Inactive)
DOCKED: REMARK    1  A    between atoms: C_2  and  C_19 
DOCKED: REMARK    2  A    between atoms: C_2  and  C_11 
DOCKED: REMARK    3  A    between atoms: C_19  and  C_20 
DOCKED: REMARK    4  A    between atoms: C_20  and  C_21 
DOCKED: REMARK    5  A    between atoms: C_21  and  N_22 
DOCKED: USER                              x       y       z     vdW  Elec       q    Type
DOCKED: USER                           _______ _______ _______ _____ _____    ______ ____
DOCKED: ROOT
DOCKED: ATOM      1  O   UNL     1     -46.325 -20.515  15.347 -0.04 -0.00    -0.346 OA 
DOCKED: ATOM      2  C   UNL     1     -47.427 -19.876  14.626 -0.11 +0.00    +0.130 C  
DOCKED: ATOM      3  C   UNL     1     -48.135 -21.021  13.962 -0.22 +0.00    +0.004 A  
DOCKED: ATOM      4  C   UNL     1     -47.557 -22.219  14.356 -0.23 +0.00    +0.006 A  
DOCKED: ATOM      5  C   UNL     1     -46.451 -21.956  15.304 -0.15 +0.00    +0.169 C  
DOCKED: ATOM      6  C   UNL     1     -49.211 -21.004  13.087 -0.24 -0.00    -0.001 A  
DOCKED: ATOM      7  C   UNL     1     -48.028 -23.434  13.889 -0.32 +0.00    +0.008 A  
DOCKED: ATOM      8  C   UNL     1     -49.696 -22.221  12.604 -0.28 +0.00    +0.010 A  
DOCKED: ATOM      9  C   UNL     1     -49.107 -23.430  13.004 -0.30 +0.00    +0.068 A  
DOCKED: ATOM     10  N   UNL     1     -50.034 -25.671  12.093 -2.57 -0.00    -0.191 NA 
DOCKED: ATOM     11  C   UNL     1     -49.617 -24.666  12.501 -0.36 +0.00    +0.101 C  
DOCKED: ENDROOT
DOCKED: BRANCH   2  12
DOCKED: ATOM     12  C   UNL     1     -48.303 -19.143  15.636 -0.05 +0.00    +0.038 C  
DOCKED: BRANCH  12  13
DOCKED: ATOM     13  C   UNL     1     -49.601 -19.901  15.901 -0.05 +0.00    +0.038 C  
DOCKED: BRANCH  13  14
DOCKED: ATOM     14  C   UNL     1     -50.789 -19.206  15.239 -0.05 +0.00    +0.251 C  
DOCKED: BRANCH  14  15
DOCKED: ATOM     15  N   UNL     1     -50.359 -17.971  14.594 -0.07 +0.00    +0.141 N  
DOCKED: ATOM     16  C   UNL     1     -50.800 -17.936  13.199 -0.15 +0.00    +0.285 C  
DOCKED: ATOM     17  C   UNL     1     -50.871 -16.806  15.317 -0.01 +0.00    +0.285 C  
DOCKED: ENDBRANCH  14  15
DOCKED: ENDBRANCH  13  14
DOCKED: ENDBRANCH  12  13
DOCKED: ENDBRANCH   2  12
DOCKED: BRANCH   2  18
DOCKED: ATOM     18  C   UNL     1     -46.817 -18.924  13.652 -0.14 +0.00    +0.006 A  
DOCKED: ATOM     19  C   UNL     1     -45.852 -19.373  12.751 -0.14 +0.00    +0.001 A  
DOCKED: ATOM     20  C   UNL     1     -45.282 -18.482  11.841 -0.14 +0.00    +0.029 A  
DOCKED: ATOM     21  C   UNL     1     -45.678 -17.145  11.832 -0.07 +0.00    +0.140 A  
DOCKED: ATOM     22  C   UNL     1     -46.644 -16.698  12.733 -0.07 +0.00    +0.029 A  
DOCKED: ATOM     23  F   UNL     1     -45.133 -16.291  10.956 -0.01 -0.00    -0.204 F  
DOCKED: ATOM     24  C   UNL     1     -47.214 -17.588  13.644 -0.09 +0.00    +0.001 A  
DOCKED: ENDBRANCH   2  18
DOCKED: TORSDOF 5
DOCKED: TER
DOCKED: ENDMDL
________________________________________________________________________________


    FINAL DOCKED STATE:
    ________________________


Run:   164 / 512
Time taken for this run:   0.002s

DOCKED: MODEL        164
DOCKED: USER    Run = 164
DOCKED: USER
DOCKED: USER    Estimated Free Energy of Binding    =  -3.82 kcal/mol  [=(1)+(2)+(3)-(4)]
DOCKED: USER
DOCKED: USER    (1) Final Intermolecular Energy     =  -5.31 kcal/mol
DOCKED: USER        vdW + Hbond + desolv Energy     =  -5.31 kcal/mol
DOCKED: USER        Electrostatic Energy            =  +0.00 kcal/mol
DOCKED: USER        Moving Ligand-Fixed Receptor    =  -5.31 kcal/mol
DOCKED: USER        Moving Ligand-Moving Receptor   =  +0.00 kcal/mol
DOCKED: USER    (2) Final Total Internal Energy     =  -1.22 kcal/mol
DOCKED: USER    (3) Torsional Free Energy           =  +1.49 kcal/mol
DOCKED: USER    (4) Unbound System's Energy         =  -1.22 kcal/mol
DOCKED: USER
DOCKED: USER
DOCKED: REMARK  5 active torsions:
DOCKED: REMARK  status: ('A' for Active; 'I' for Inactive)
DOCKED: REMARK    1  A    between atoms: C_2  and  C_19 
DOCKED: REMARK    2  A    between atoms: C_2  and  C_11 
DOCKED: REMARK    3  A    between atoms: C_19  and  C_20 
DOCKED: REMARK    4  A    between atoms: C_20  and  C_21 
DOCKED: REMARK    5  A    between atoms: C_21  and  N_22 
DOCKED: USER                              x       y       z     vdW  Elec       q    Type
DOCKED: USER                           _______ _______ _______ _____ _____    ______ ____
DOCKED: ROOT
DOCKED: ATOM      1  O   UNL     1     -48.066 -19.150  13.747 -0.07 -0.00    -0.346 OA 
DOCKED: ATOM      2  C   UNL     1     -49.028 -19.579  14.763 -0.10 +0.00    +0.130 C  
DOCKED: ATOM      3  C   UNL     1     -49.427 -20.957  14.320 -0.17 +0.00    +0.004 A  
DOCKED: ATOM      4  C   UNL     1     -48.678 -21.327  13.212 -0.28 +0.00    +0.006 A  
DOCKED: ATOM      5  C   UNL     1     -47.736 -20.242  12.857 -0.11 +0.00    +0.169 C  
DOCKED: ATOM      6  C   UNL     1     -50.369 -21.819  14.862 -0.12 -0.00    -0.001 A  
DOCKED: ATOM      7  C   UNL     1     -48.846 -22.561  12.608 -0.34 +0.00    +0.008 A  
DOCKED: ATOM      8  C   UNL     1     -50.554 -23.066  14.261 -0.17 +0.00    +0.010 A  
DOCKED: ATOM      9  C   UNL     1     -49.796 -23.435  13.140 -0.25 +0.00    +0.068 A  
DOCKED: ATOM     10  N   UNL     1     -50.160 -25.758  12.052 -2.57 -0.00    -0.191 NA 
DOCKED: ATOM     11  C   UNL     1     -49.997 -24.716  12.540 -0.32 +0.00    +0.101 C  
DOCKED: ENDROOT
DOCKED: BRANCH   2  12
DOCKED: ATOM     12  C   UNL     1     -48.333 -19.570  16.120 -0.04 +0.00    +0.038 C  
DOCKED: BRANCH  12  13
DOCKED: ATOM     13  C   UNL     1     -46.860 -19.188  15.988 -0.04 +0.00    +0.038 C  
DOCKED: BRANCH  13  14
DOCKED: ATOM     14  C   UNL     1     -45.982 -20.429  15.839 -0.05 +0.00    +0.251 C  
DOCKED: BRANCH  14  15
DOCKED: ATOM     15  N   UNL     1     -44.647 -20.054  15.388 -0.05 +0.00    +0.141 N  
DOCKED: ATOM     16  C   UNL     1     -44.654 -19.743  13.957 -0.08 +0.00    +0.285 C  
DOCKED: ATOM     17  C   UNL     1     -44.146 -18.911  16.153 -0.01 +0.00    +0.285 C  
DOCKED: ENDBRANCH  14  15
DOCKED: ENDBRANCH  13  14
DOCKED: ENDBRANCH  12  13
DOCKED: ENDBRANCH   2  12
DOCKED: BRANCH   2  18
DOCKED: ATOM     18  C   UNL     1     -50.160 -18.608  14.731 -0.10 +0.00    +0.006 A  
DOCKED: ATOM     19  C   UNL     1     -50.251 -17.678  13.695 -0.17 +0.00    +0.001 A  
DOCKED: ATOM     20  C   UNL     1     -51.310 -16.770  13.667 -0.13 +0.00    +0.029 A  
DOCKED: ATOM     21  C   UNL     1     -52.275 -16.792  14.672 -0.04 +0.00    +0.140 A  
DOCKED: ATOM     22  C   UNL     1     -52.183 -17.722  15.707 -0.04 +0.00    +0.029 A  
DOCKED: ATOM     23  F   UNL     1     -53.293 -15.922  14.643 +0.01 -0.00    -0.204 F  
DOCKED: ATOM     24  C   UNL     1     -51.124 -18.631  15.737 -0.05 +0.00    +0.001 A  
DOCKED: ENDBRANCH   2  18
DOCKED: TORSDOF 5
DOCKED: TER
DOCKED: ENDMDL
________________________________________________________________________________


    FINAL DOCKED STATE:
    ________________________


Run:   165 / 512
Time taken for this run:   0.002s

DOCKED: MODEL        165
DOCKED: USER    Run = 165
DOCKED: USER
DOCKED: USER    Estimated Free Energy of Binding    =  -5.07 kcal/mol  [=(1)+(2)+(3)-(4)]
DOCKED: USER
DOCKED: USER    (1) Final Intermolecular Energy     =  -6.56 kcal/mol
DOCKED: USER        vdW + Hbond + desolv Energy     =  -6.56 kcal/mol
DOCKED: USER        Electrostatic Energy            =  +0.00 kcal/mol
DOCKED: USER        Moving Ligand-Fixed Receptor    =  -6.56 kcal/mol
DOCKED: USER        Moving Ligand-Moving Receptor   =  +0.00 kcal/mol
DOCKED: USER    (2) Final Total Internal Energy     =  -1.31 kcal/mol
DOCKED: USER    (3) Torsional Free Energy           =  +1.49 kcal/mol
DOCKED: USER    (4) Unbound System's Energy         =  -1.31 kcal/mol
DOCKED: USER
DOCKED: USER
DOCKED: REMARK  5 active torsions:
DOCKED: REMARK  status: ('A' for Active; 'I' for Inactive)
DOCKED: REMARK    1  A    between atoms: C_2  and  C_19 
DOCKED: REMARK    2  A    between atoms: C_2  and  C_11 
DOCKED: REMARK    3  A    between atoms: C_19  and  C_20 
DOCKED: REMARK    4  A    between atoms: C_20  and  C_21 
DOCKED: REMARK    5  A    between atoms: C_21  and  N_22 
DOCKED: USER                              x       y       z     vdW  Elec       q    Type
DOCKED: USER                           _______ _______ _______ _____ _____    ______ ____
DOCKED: ROOT
DOCKED: ATOM      1  O   UNL     1     -48.893 -21.448  14.876 -0.03 -0.00    -0.346 OA 
DOCKED: ATOM      2  C   UNL     1     -48.169 -22.719  14.846 -0.19 +0.00    +0.130 C  
DOCKED: ATOM      3  C   UNL     1     -48.568 -23.329  13.533 -0.33 +0.00    +0.004 A  
DOCKED: ATOM      4  C   UNL     1     -49.361 -22.437  12.825 -0.33 +0.00    +0.006 A  
DOCKED: ATOM      5  C   UNL     1     -49.530 -21.189  13.603 -0.21 +0.00    +0.169 C  
DOCKED: ATOM      6  C   UNL     1     -48.244 -24.570  13.002 -0.42 -0.00    -0.001 A  
DOCKED: ATOM      7  C   UNL     1     -49.860 -22.753  11.573 -0.13 +0.00    +0.008 A  
DOCKED: ATOM      8  C   UNL     1     -48.743 -24.905  11.743 -0.39 +0.00    +0.010 A  
DOCKED: ATOM      9  C   UNL     1     -49.547 -24.001  11.032 -0.43 +0.00    +0.068 A  
DOCKED: ATOM     10  N   UNL     1     -50.452 -24.653   8.693 -2.35 -0.00    -0.191 NA 
DOCKED: ATOM     11  C   UNL     1     -50.046 -24.360   9.742 -0.48 +0.00    +0.101 C  
DOCKED: ENDROOT
DOCKED: BRANCH   2  12
DOCKED: ATOM     12  C   UNL     1     -46.676 -22.426  14.935 -0.23 +0.00    +0.038 C  
DOCKED: BRANCH  12  13
DOCKED: ATOM     13  C   UNL     1     -46.416 -20.988  15.378 -0.13 +0.00    +0.038 C  
DOCKED: BRANCH  13  14
DOCKED: ATOM     14  C   UNL     1     -45.913 -20.939  16.819 -0.03 +0.00    +0.251 C  
DOCKED: BRANCH  14  15
DOCKED: ATOM     15  N   UNL     1     -45.371 -22.235  17.211 -0.07 +0.00    +0.141 N  
DOCKED: ATOM     16  C   UNL     1     -43.925 -22.146  17.422 -0.04 +0.00    +0.285 C  
DOCKED: ATOM     17  C   UNL     1     -46.031 -22.725  18.422 -0.05 +0.00    +0.285 C  
DOCKED: ENDBRANCH  14  15
DOCKED: ENDBRANCH  13  14
DOCKED: ENDBRANCH  12  13
DOCKED: ENDBRANCH   2  12
DOCKED: BRANCH   2  18
DOCKED: ATOM     18  C   UNL     1     -48.633 -23.514  16.021 -0.17 +0.00    +0.006 A  
DOCKED: ATOM     19  C   UNL     1     -49.797 -23.145  16.695 -0.10 +0.00    +0.001 A  
DOCKED: ATOM     20  C   UNL     1     -50.229 -23.889  17.794 -0.11 +0.00    +0.029 A  
DOCKED: ATOM     21  C   UNL     1     -49.499 -24.999  18.216 -0.09 +0.00    +0.140 A  
DOCKED: ATOM     22  C   UNL     1     -48.335 -25.366  17.541 -0.18 +0.00    +0.029 A  
DOCKED: ATOM     23  F   UNL     1     -49.915 -25.713  19.270 -0.04 -0.00    -0.204 F  
DOCKED: ATOM     24  C   UNL     1     -47.901 -24.623  16.442 -0.06 +0.00    +0.001 A  
DOCKED: ENDBRANCH   2  18
DOCKED: TORSDOF 5
DOCKED: TER
DOCKED: ENDMDL
________________________________________________________________________________


    FINAL DOCKED STATE:
    ________________________


Run:   166 / 512
Time taken for this run:   0.002s

DOCKED: MODEL        166
DOCKED: USER    Run = 166
DOCKED: USER
DOCKED: USER    Estimated Free Energy of Binding    =  -4.17 kcal/mol  [=(1)+(2)+(3)-(4)]
DOCKED: USER
DOCKED: USER    (1) Final Intermolecular Energy     =  -5.66 kcal/mol
DOCKED: USER        vdW + Hbond + desolv Energy     =  -5.66 kcal/mol
DOCKED: USER        Electrostatic Energy            =  +0.00 kcal/mol
DOCKED: USER        Moving Ligand-Fixed Receptor    =  -5.66 kcal/mol
DOCKED: USER        Moving Ligand-Moving Receptor   =  +0.00 kcal/mol
DOCKED: USER    (2) Final Total Internal Energy     =  -1.45 kcal/mol
DOCKED: USER    (3) Torsional Free Energy           =  +1.49 kcal/mol
DOCKED: USER    (4) Unbound System's Energy         =  -1.45 kcal/mol
DOCKED: USER
DOCKED: USER
DOCKED: REMARK  5 active torsions:
DOCKED: REMARK  status: ('A' for Active; 'I' for Inactive)
DOCKED: REMARK    1  A    between atoms: C_2  and  C_19 
DOCKED: REMARK    2  A    between atoms: C_2  and  C_11 
DOCKED: REMARK    3  A    between atoms: C_19  and  C_20 
DOCKED: REMARK    4  A    between atoms: C_20  and  C_21 
DOCKED: REMARK    5  A    between atoms: C_21  and  N_22 
DOCKED: USER                              x       y       z     vdW  Elec       q    Type
DOCKED: USER                           _______ _______ _______ _____ _____    ______ ____
DOCKED: ROOT
DOCKED: ATOM      1  O   UNL     1     -46.531 -20.315  15.082 -0.04 -0.00    -0.346 OA 
DOCKED: ATOM      2  C   UNL     1     -47.794 -19.790  14.561 -0.12 +0.00    +0.130 C  
DOCKED: ATOM      3  C   UNL     1     -48.450 -20.986  13.935 -0.22 +0.00    +0.004 A  
DOCKED: ATOM      4  C   UNL     1     -47.683 -22.118  14.174 -0.23 +0.00    +0.006 A  
DOCKED: ATOM      5  C   UNL     1     -46.491 -21.757  14.974 -0.15 +0.00    +0.169 C  
DOCKED: ATOM      6  C   UNL     1     -49.636 -21.069  13.221 -0.26 -0.00    -0.001 A  
DOCKED: ATOM      7  C   UNL     1     -48.070 -23.362  13.708 -0.32 +0.00    +0.008 A  
DOCKED: ATOM      8  C   UNL     1     -50.038 -22.316  12.740 -0.26 +0.00    +0.010 A  
DOCKED: ATOM      9  C   UNL     1     -49.259 -23.457  12.983 -0.30 +0.00    +0.068 A  
DOCKED: ATOM     10  N   UNL     1     -50.036 -25.758  12.081 -2.61 -0.00    -0.191 NA 
DOCKED: ATOM     11  C   UNL     1     -49.687 -24.726  12.485 -0.32 +0.00    +0.101 C  
DOCKED: ENDROOT
DOCKED: BRANCH   2  12
DOCKED: ATOM     12  C   UNL     1     -48.594 -19.214  15.723 -0.05 +0.00    +0.038 C  
DOCKED: BRANCH  12  13
DOCKED: ATOM     13  C   UNL     1     -47.806 -19.283  17.030 -0.02 +0.00    +0.038 C  
DOCKED: BRANCH  13  14
DOCKED: ATOM     14  C   UNL     1     -46.716 -18.213  17.071 -0.00 +0.00    +0.251 C  
DOCKED: BRANCH  14  15
DOCKED: ATOM     15  N   UNL     1     -47.197 -16.975  16.469 -0.00 +0.00    +0.141 N  
DOCKED: ATOM     16  C   UNL     1     -47.896 -16.157  17.461 +0.00 +0.00    +0.285 C  
DOCKED: ATOM     17  C   UNL     1     -46.088 -16.223  15.881 -0.00 +0.00    +0.285 C  
DOCKED: ENDBRANCH  14  15
DOCKED: ENDBRANCH  13  14
DOCKED: ENDBRANCH  12  13
DOCKED: ENDBRANCH   2  12
DOCKED: BRANCH   2  18
DOCKED: ATOM     18  C   UNL     1     -47.448 -18.730  13.568 -0.15 +0.00    +0.006 A  
DOCKED: ATOM     19  C   UNL     1     -46.265 -18.820  12.837 -0.16 +0.00    +0.001 A  
DOCKED: ATOM     20  C   UNL     1     -45.943 -17.828  11.909 -0.12 +0.00    +0.029 A  
DOCKED: ATOM     21  C   UNL     1     -46.804 -16.750  11.713 -0.07 +0.00    +0.140 A  
DOCKED: ATOM     22  C   UNL     1     -47.989 -16.661  12.445 -0.12 +0.00    +0.029 A  
DOCKED: ATOM     23  F   UNL     1     -46.496 -15.800  10.821 -0.02 -0.00    -0.204 F  
DOCKED: ATOM     24  C   UNL     1     -48.311 -17.652  13.374 -0.13 +0.00    +0.001 A  
DOCKED: ENDBRANCH   2  18
DOCKED: TORSDOF 5
DOCKED: TER
DOCKED: ENDMDL
________________________________________________________________________________


    FINAL DOCKED STATE:
    ________________________


Run:   167 / 512
Time taken for this run:   0.002s

DOCKED: MODEL        167
DOCKED: USER    Run = 167
DOCKED: USER
DOCKED: USER    Estimated Free Energy of Binding    =  -4.03 kcal/mol  [=(1)+(2)+(3)-(4)]
DOCKED: USER
DOCKED: USER    (1) Final Intermolecular Energy     =  -5.52 kcal/mol
DOCKED: USER        vdW + Hbond + desolv Energy     =  -5.52 kcal/mol
DOCKED: USER        Electrostatic Energy            =  +0.00 kcal/mol
DOCKED: USER        Moving Ligand-Fixed Receptor    =  -5.52 kcal/mol
DOCKED: USER        Moving Ligand-Moving Receptor   =  +0.00 kcal/mol
DOCKED: USER    (2) Final Total Internal Energy     =  -1.34 kcal/mol
DOCKED: USER    (3) Torsional Free Energy           =  +1.49 kcal/mol
DOCKED: USER    (4) Unbound System's Energy         =  -1.34 kcal/mol
DOCKED: USER
DOCKED: USER
DOCKED: REMARK  5 active torsions:
DOCKED: REMARK  status: ('A' for Active; 'I' for Inactive)
DOCKED: REMARK    1  A    between atoms: C_2  and  C_19 
DOCKED: REMARK    2  A    between atoms: C_2  and  C_11 
DOCKED: REMARK    3  A    between atoms: C_19  and  C_20 
DOCKED: REMARK    4  A    between atoms: C_20  and  C_21 
DOCKED: REMARK    5  A    between atoms: C_21  and  N_22 
DOCKED: USER                              x       y       z     vdW  Elec       q    Type
DOCKED: USER                           _______ _______ _______ _____ _____    ______ ____
DOCKED: ROOT
DOCKED: ATOM      1  O   UNL     1     -46.830 -20.258  15.118 -0.03 -0.00    -0.346 OA 
DOCKED: ATOM      2  C   UNL     1     -48.150 -19.802  14.680 -0.11 +0.00    +0.130 C  
DOCKED: ATOM      3  C   UNL     1     -48.738 -21.004  14.000 -0.22 +0.00    +0.004 A  
DOCKED: ATOM      4  C   UNL     1     -47.877 -22.084  14.133 -0.24 +0.00    +0.006 A  
DOCKED: ATOM      5  C   UNL     1     -46.683 -21.682  14.911 -0.15 +0.00    +0.169 C  
DOCKED: ATOM      6  C   UNL     1     -49.943 -21.135  13.326 -0.24 -0.00    -0.001 A  
DOCKED: ATOM      7  C   UNL     1     -48.186 -23.323  13.598 -0.32 +0.00    +0.008 A  
DOCKED: ATOM      8  C   UNL     1     -50.268 -22.376  12.777 -0.24 +0.00    +0.010 A  
DOCKED: ATOM      9  C   UNL     1     -49.394 -23.465  12.913 -0.30 +0.00    +0.068 A  
DOCKED: ATOM     10  N   UNL     1     -50.029 -25.758  11.887 -2.48 -0.00    -0.191 NA 
DOCKED: ATOM     11  C   UNL     1     -49.743 -24.729  12.347 -0.36 +0.00    +0.101 C  
DOCKED: ENDROOT
DOCKED: BRANCH   2  12
DOCKED: ATOM     12  C   UNL     1     -48.942 -19.368  15.908 -0.04 +0.00    +0.038 C  
DOCKED: BRANCH  12  13
DOCKED: ATOM     13  C   UNL     1     -48.045 -18.680  16.935 -0.01 +0.00    +0.038 C  
DOCKED: BRANCH  13  14
DOCKED: ATOM     14  C   UNL     1     -48.083 -17.162  16.767 -0.00 +0.00    +0.251 C  
DOCKED: BRANCH  14  15
DOCKED: ATOM     15  N   UNL     1     -46.804 -16.577  17.153 -0.00 +0.00    +0.141 N  
DOCKED: ATOM     16  C   UNL     1     -45.935 -16.420  15.985 -0.00 +0.00    +0.285 C  
DOCKED: ATOM     17  C   UNL     1     -47.006 -15.286  17.812 +0.00 +0.00    +0.285 C  
DOCKED: ENDBRANCH  14  15
DOCKED: ENDBRANCH  13  14
DOCKED: ENDBRANCH  12  13
DOCKED: ENDBRANCH   2  12
DOCKED: BRANCH   2  18
DOCKED: ATOM     18  C   UNL     1     -47.929 -18.657  13.749 -0.14 +0.00    +0.006 A  
DOCKED: ATOM     19  C   UNL     1     -46.686 -18.481  13.142 -0.14 +0.00    +0.001 A  
DOCKED: ATOM     20  C   UNL     1     -46.481 -17.410  12.272 -0.10 +0.00    +0.029 A  
DOCKED: ATOM     21  C   UNL     1     -47.519 -16.516  12.010 -0.08 +0.00    +0.140 A  
DOCKED: ATOM     22  C   UNL     1     -48.762 -16.692  12.617 -0.13 +0.00    +0.029 A  
DOCKED: ATOM     23  F   UNL     1     -47.322 -15.489  11.174 -0.02 -0.00    -0.204 F  
DOCKED: ATOM     24  C   UNL     1     -48.968 -17.764  13.488 -0.15 +0.00    +0.001 A  
DOCKED: ENDBRANCH   2  18
DOCKED: TORSDOF 5
DOCKED: TER
DOCKED: ENDMDL
________________________________________________________________________________


    FINAL DOCKED STATE:
    ________________________


Run:   168 / 512
Time taken for this run:   0.002s

DOCKED: MODEL        168
DOCKED: USER    Run = 168
DOCKED: USER
DOCKED: USER    Estimated Free Energy of Binding    =  -4.19 kcal/mol  [=(1)+(2)+(3)-(4)]
DOCKED: USER
DOCKED: USER    (1) Final Intermolecular Energy     =  -5.68 kcal/mol
DOCKED: USER        vdW + Hbond + desolv Energy     =  -5.68 kcal/mol
DOCKED: USER        Electrostatic Energy            =  +0.00 kcal/mol
DOCKED: USER        Moving Ligand-Fixed Receptor    =  -5.68 kcal/mol
DOCKED: USER        Moving Ligand-Moving Receptor   =  +0.00 kcal/mol
DOCKED: USER    (2) Final Total Internal Energy     =  -1.21 kcal/mol
DOCKED: USER    (3) Torsional Free Energy           =  +1.49 kcal/mol
DOCKED: USER    (4) Unbound System's Energy         =  -1.21 kcal/mol
DOCKED: USER
DOCKED: USER
DOCKED: REMARK  5 active torsions:
DOCKED: REMARK  status: ('A' for Active; 'I' for Inactive)
DOCKED: REMARK    1  A    between atoms: C_2  and  C_19 
DOCKED: REMARK    2  A    between atoms: C_2  and  C_11 
DOCKED: REMARK    3  A    between atoms: C_19  and  C_20 
DOCKED: REMARK    4  A    between atoms: C_20  and  C_21 
DOCKED: REMARK    5  A    between atoms: C_21  and  N_22 
DOCKED: USER                              x       y       z     vdW  Elec       q    Type
DOCKED: USER                           _______ _______ _______ _____ _____    ______ ____
DOCKED: ROOT
DOCKED: ATOM      1  O   UNL     1     -46.250 -20.428  14.804 -0.06 -0.00    -0.346 OA 
DOCKED: ATOM      2  C   UNL     1     -47.535 -19.860  14.396 -0.13 +0.00    +0.130 C  
DOCKED: ATOM      3  C   UNL     1     -48.281 -21.031  13.824 -0.23 +0.00    +0.004 A  
DOCKED: ATOM      4  C   UNL     1     -47.533 -22.188  13.992 -0.24 +0.00    +0.006 A  
DOCKED: ATOM      5  C   UNL     1     -46.265 -21.870  14.686 -0.11 +0.00    +0.169 C  
DOCKED: ATOM      6  C   UNL     1     -49.527 -21.071  13.215 -0.26 -0.00    -0.001 A  
DOCKED: ATOM      7  C   UNL     1     -47.998 -23.416  13.555 -0.32 +0.00    +0.008 A  
DOCKED: ATOM      8  C   UNL     1     -50.008 -22.302  12.766 -0.26 +0.00    +0.010 A  
DOCKED: ATOM      9  C   UNL     1     -49.248 -23.469  12.936 -0.30 +0.00    +0.068 A  
DOCKED: ATOM     10  N   UNL     1     -50.173 -25.738  12.095 -2.59 -0.00    -0.191 NA 
DOCKED: ATOM     11  C   UNL     1     -49.758 -24.720  12.472 -0.33 +0.00    +0.101 C  
DOCKED: ENDROOT
DOCKED: BRANCH   2  12
DOCKED: ATOM     12  C   UNL     1     -48.213 -19.267  15.625 -0.05 +0.00    +0.038 C  
DOCKED: BRANCH  12  13
DOCKED: ATOM     13  C   UNL     1     -47.578 -19.784  16.915 -0.02 +0.00    +0.038 C  
DOCKED: BRANCH  13  14
DOCKED: ATOM     14  C   UNL     1     -48.362 -20.968  17.478 -0.01 +0.00    +0.251 C  
DOCKED: BRANCH  14  15
DOCKED: ATOM     15  N   UNL     1     -49.651 -20.522  17.994 -0.00 +0.00    +0.141 N  
DOCKED: ATOM     16  C   UNL     1     -50.727 -20.868  17.064 -0.00 +0.00    +0.285 C  
DOCKED: ATOM     17  C   UNL     1     -49.910 -21.109  19.310 -0.00 +0.00    +0.285 C  
DOCKED: ENDBRANCH  14  15
DOCKED: ENDBRANCH  13  14
DOCKED: ENDBRANCH  12  13
DOCKED: ENDBRANCH   2  12
DOCKED: BRANCH   2  18
DOCKED: ATOM     18  C   UNL     1     -47.243 -18.805  13.381 -0.16 +0.00    +0.006 A  
DOCKED: ATOM     19  C   UNL     1     -46.088 -18.885  12.605 -0.16 +0.00    +0.001 A  
DOCKED: ATOM     20  C   UNL     1     -45.816 -17.898  11.657 -0.12 +0.00    +0.029 A  
DOCKED: ATOM     21  C   UNL     1     -46.700 -16.834  11.486 -0.05 +0.00    +0.140 A  
DOCKED: ATOM     22  C   UNL     1     -47.856 -16.754  12.262 -0.11 +0.00    +0.029 A  
DOCKED: ATOM     23  F   UNL     1     -46.440 -15.887  10.574 -0.02 -0.00    -0.204 F  
DOCKED: ATOM     24  C   UNL     1     -48.128 -17.741  13.211 -0.14 +0.00    +0.001 A  
DOCKED: ENDBRANCH   2  18
DOCKED: TORSDOF 5
DOCKED: TER
DOCKED: ENDMDL
________________________________________________________________________________


    FINAL DOCKED STATE:
    ________________________


Run:   169 / 512
Time taken for this run:   0.002s

DOCKED: MODEL        169
DOCKED: USER    Run = 169
DOCKED: USER
DOCKED: USER    Estimated Free Energy of Binding    =  -5.34 kcal/mol  [=(1)+(2)+(3)-(4)]
DOCKED: USER
DOCKED: USER    (1) Final Intermolecular Energy     =  -6.83 kcal/mol
DOCKED: USER        vdW + Hbond + desolv Energy     =  -6.83 kcal/mol
DOCKED: USER        Electrostatic Energy            =  +0.00 kcal/mol
DOCKED: USER        Moving Ligand-Fixed Receptor    =  -6.83 kcal/mol
DOCKED: USER        Moving Ligand-Moving Receptor   =  +0.00 kcal/mol
DOCKED: USER    (2) Final Total Internal Energy     =  -1.24 kcal/mol
DOCKED: USER    (3) Torsional Free Energy           =  +1.49 kcal/mol
DOCKED: USER    (4) Unbound System's Energy         =  -1.24 kcal/mol
DOCKED: USER
DOCKED: USER
DOCKED: REMARK  5 active torsions:
DOCKED: REMARK  status: ('A' for Active; 'I' for Inactive)
DOCKED: REMARK    1  A    between atoms: C_2  and  C_19 
DOCKED: REMARK    2  A    between atoms: C_2  and  C_11 
DOCKED: REMARK    3  A    between atoms: C_19  and  C_20 
DOCKED: REMARK    4  A    between atoms: C_20  and  C_21 
DOCKED: REMARK    5  A    between atoms: C_21  and  N_22 
DOCKED: USER                              x       y       z     vdW  Elec       q    Type
DOCKED: USER                           _______ _______ _______ _____ _____    ______ ____
DOCKED: ROOT
DOCKED: ATOM      1  O   UNL     1     -48.878 -21.413  14.840 -0.03 -0.00    -0.346 OA 
DOCKED: ATOM      2  C   UNL     1     -48.096 -22.648  14.765 -0.19 +0.00    +0.130 C  
DOCKED: ATOM      3  C   UNL     1     -48.535 -23.275  13.473 -0.33 +0.00    +0.004 A  
DOCKED: ATOM      4  C   UNL     1     -49.408 -22.421  12.814 -0.33 +0.00    +0.006 A  
DOCKED: ATOM      5  C   UNL     1     -49.594 -21.184  13.604 -0.20 +0.00    +0.169 C  
DOCKED: ATOM      6  C   UNL     1     -48.182 -24.497  12.921 -0.42 -0.00    -0.001 A  
DOCKED: ATOM      7  C   UNL     1     -49.959 -22.759  11.589 -0.09 +0.00    +0.008 A  
DOCKED: ATOM      8  C   UNL     1     -48.732 -24.854  11.689 -0.36 +0.00    +0.010 A  
DOCKED: ATOM      9  C   UNL     1     -49.616 -23.989  11.026 -0.43 +0.00    +0.068 A  
DOCKED: ATOM     10  N   UNL     1     -50.615 -24.680   8.738 -2.31 -0.00    -0.191 NA 
DOCKED: ATOM     11  C   UNL     1     -50.167 -24.370   9.764 -0.44 +0.00    +0.101 C  
DOCKED: ENDROOT
DOCKED: BRANCH   2  12
DOCKED: ATOM     12  C   UNL     1     -46.616 -22.284  14.774 -0.23 +0.00    +0.038 C  
DOCKED: BRANCH  12  13
DOCKED: ATOM     13  C   UNL     1     -46.413 -20.781  14.954 -0.14 +0.00    +0.038 C  
DOCKED: BRANCH  13  14
DOCKED: ATOM     14  C   UNL     1     -46.237 -20.085  13.605 -0.09 +0.00    +0.251 C  
DOCKED: BRANCH  14  15
DOCKED: ATOM     15  N   UNL     1     -46.440 -18.648  13.745 -0.09 +0.00    +0.141 N  
DOCKED: ATOM     16  C   UNL     1     -46.181 -17.964  12.477 -0.09 +0.00    +0.285 C  
DOCKED: ATOM     17  C   UNL     1     -47.799 -18.362  14.208 -0.07 +0.00    +0.285 C  
DOCKED: ENDBRANCH  14  15
DOCKED: ENDBRANCH  13  14
DOCKED: ENDBRANCH  12  13
DOCKED: ENDBRANCH   2  12
DOCKED: BRANCH   2  18
DOCKED: ATOM     18  C   UNL     1     -48.456 -23.466  15.960 -0.17 +0.00    +0.006 A  
DOCKED: ATOM     19  C   UNL     1     -47.468 -23.849  16.866 -0.13 +0.00    +0.001 A  
DOCKED: ATOM     20  C   UNL     1     -47.807 -24.614  17.983 -0.21 +0.00    +0.029 A  
DOCKED: ATOM     21  C   UNL     1     -49.132 -24.993  18.193 -0.13 +0.00    +0.140 A  
DOCKED: ATOM     22  C   UNL     1     -50.120 -24.609  17.287 -0.15 +0.00    +0.029 A  
DOCKED: ATOM     23  F   UNL     1     -49.457 -25.725  19.266 -0.04 -0.00    -0.204 F  
DOCKED: ATOM     24  C   UNL     1     -49.782 -23.844  16.169 -0.16 +0.00    +0.001 A  
DOCKED: ENDBRANCH   2  18
DOCKED: TORSDOF 5
DOCKED: TER
DOCKED: ENDMDL
________________________________________________________________________________


    FINAL DOCKED STATE:
    ________________________


Run:   170 / 512
Time taken for this run:   0.002s

DOCKED: MODEL        170
DOCKED: USER    Run = 170
DOCKED: USER
DOCKED: USER    Estimated Free Energy of Binding    =  -4.61 kcal/mol  [=(1)+(2)+(3)-(4)]
DOCKED: USER
DOCKED: USER    (1) Final Intermolecular Energy     =  -6.10 kcal/mol
DOCKED: USER        vdW + Hbond + desolv Energy     =  -6.10 kcal/mol
DOCKED: USER        Electrostatic Energy            =  +0.00 kcal/mol
DOCKED: USER        Moving Ligand-Fixed Receptor    =  -6.10 kcal/mol
DOCKED: USER        Moving Ligand-Moving Receptor   =  +0.00 kcal/mol
DOCKED: USER    (2) Final Total Internal Energy     =  -1.30 kcal/mol
DOCKED: USER    (3) Torsional Free Energy           =  +1.49 kcal/mol
DOCKED: USER    (4) Unbound System's Energy         =  -1.30 kcal/mol
DOCKED: USER
DOCKED: USER
DOCKED: REMARK  5 active torsions:
DOCKED: REMARK  status: ('A' for Active; 'I' for Inactive)
DOCKED: REMARK    1  A    between atoms: C_2  and  C_19 
DOCKED: REMARK    2  A    between atoms: C_2  and  C_11 
DOCKED: REMARK    3  A    between atoms: C_19  and  C_20 
DOCKED: REMARK    4  A    between atoms: C_20  and  C_21 
DOCKED: REMARK    5  A    between atoms: C_21  and  N_22 
DOCKED: USER                              x       y       z     vdW  Elec       q    Type
DOCKED: USER                           _______ _______ _______ _____ _____    ______ ____
DOCKED: ROOT
DOCKED: ATOM      1  O   UNL     1     -45.957 -21.536  16.034 -0.05 -0.00    -0.346 OA 
DOCKED: ATOM      2  C   UNL     1     -46.530 -20.661  15.012 -0.12 +0.00    +0.130 C  
DOCKED: ATOM      3  C   UNL     1     -47.429 -21.569  14.223 -0.21 +0.00    +0.004 A  
DOCKED: ATOM      4  C   UNL     1     -47.453 -22.826  14.810 -0.24 +0.00    +0.006 A  
DOCKED: ATOM      5  C   UNL     1     -46.596 -22.834  16.016 -0.13 +0.00    +0.169 C  
DOCKED: ATOM      6  C   UNL     1     -48.175 -21.301  13.085 -0.27 -0.00    -0.001 A  
DOCKED: ATOM      7  C   UNL     1     -48.215 -23.854  14.281 -0.31 +0.00    +0.008 A  
DOCKED: ATOM      8  C   UNL     1     -48.945 -22.328  12.536 -0.34 +0.00    +0.010 A  
DOCKED: ATOM      9  C   UNL     1     -48.965 -23.598  13.132 -0.31 +0.00    +0.068 A  
DOCKED: ATOM     10  N   UNL     1     -50.408 -25.481  12.091 -2.56 -0.00    -0.191 NA 
DOCKED: ATOM     11  C   UNL     1     -49.760 -24.637  12.558 -0.36 +0.00    +0.101 C  
DOCKED: ENDROOT
DOCKED: BRANCH   2  12
DOCKED: ATOM     12  C   UNL     1     -47.287 -19.536  15.709 -0.05 +0.00    +0.038 C  
DOCKED: BRANCH  12  13
DOCKED: ATOM     13  C   UNL     1     -48.747 -19.914  15.952 -0.05 +0.00    +0.038 C  
DOCKED: BRANCH  13  14
DOCKED: ATOM     14  C   UNL     1     -49.690 -18.842  15.410 -0.03 +0.00    +0.251 C  
DOCKED: BRANCH  14  15
DOCKED: ATOM     15  N   UNL     1     -49.874 -19.008  13.973 -0.15 +0.00    +0.141 N  
DOCKED: ATOM     16  C   UNL     1     -51.295 -19.127  13.645 -0.16 +0.00    +0.285 C  
DOCKED: ATOM     17  C   UNL     1     -49.276 -17.888  13.243 -0.13 +0.00    +0.285 C  
DOCKED: ENDBRANCH  14  15
DOCKED: ENDBRANCH  13  14
DOCKED: ENDBRANCH  12  13
DOCKED: ENDBRANCH   2  12
DOCKED: BRANCH   2  18
DOCKED: ATOM     18  C   UNL     1     -45.393 -20.126  14.207 -0.11 +0.00    +0.006 A  
DOCKED: ATOM     19  C   UNL     1     -44.092 -20.550  14.473 -0.11 +0.00    +0.001 A  
DOCKED: ATOM     20  C   UNL     1     -43.029 -20.049  13.720 -0.09 +0.00    +0.029 A  
DOCKED: ATOM     21  C   UNL     1     -43.269 -19.127  12.702 -0.07 +0.00    +0.140 A  
DOCKED: ATOM     22  C   UNL     1     -44.571 -18.704  12.436 -0.11 +0.00    +0.029 A  
DOCKED: ATOM     23  F   UNL     1     -42.249 -18.648  11.978 -0.01 -0.00    -0.204 F  
DOCKED: ATOM     24  C   UNL     1     -45.635 -19.204  13.189 -0.14 +0.00    +0.001 A  
DOCKED: ENDBRANCH   2  18
DOCKED: TORSDOF 5
DOCKED: TER
DOCKED: ENDMDL
________________________________________________________________________________


    FINAL DOCKED STATE:
    ________________________


Run:   171 / 512
Time taken for this run:   0.002s

DOCKED: MODEL        171
DOCKED: USER    Run = 171
DOCKED: USER
DOCKED: USER    Estimated Free Energy of Binding    =  -3.76 kcal/mol  [=(1)+(2)+(3)-(4)]
DOCKED: USER
DOCKED: USER    (1) Final Intermolecular Energy     =  -5.26 kcal/mol
DOCKED: USER        vdW + Hbond + desolv Energy     =  -5.26 kcal/mol
DOCKED: USER        Electrostatic Energy            =  +0.00 kcal/mol
DOCKED: USER        Moving Ligand-Fixed Receptor    =  -5.26 kcal/mol
DOCKED: USER        Moving Ligand-Moving Receptor   =  +0.00 kcal/mol
DOCKED: USER    (2) Final Total Internal Energy     =  -1.28 kcal/mol
DOCKED: USER    (3) Torsional Free Energy           =  +1.49 kcal/mol
DOCKED: USER    (4) Unbound System's Energy         =  -1.28 kcal/mol
DOCKED: USER
DOCKED: USER
DOCKED: REMARK  5 active torsions:
DOCKED: REMARK  status: ('A' for Active; 'I' for Inactive)
DOCKED: REMARK    1  A    between atoms: C_2  and  C_19 
DOCKED: REMARK    2  A    between atoms: C_2  and  C_11 
DOCKED: REMARK    3  A    between atoms: C_19  and  C_20 
DOCKED: REMARK    4  A    between atoms: C_20  and  C_21 
DOCKED: REMARK    5  A    between atoms: C_21  and  N_22 
DOCKED: USER                              x       y       z     vdW  Elec       q    Type
DOCKED: USER                           _______ _______ _______ _____ _____    ______ ____
DOCKED: ROOT
DOCKED: ATOM      1  O   UNL     1     -40.680 -11.543   2.187 +0.00 -0.00    -0.346 OA 
DOCKED: ATOM      2  C   UNL     1     -41.262 -11.452   3.527 -0.05 +0.00    +0.130 C  
DOCKED: ATOM      3  C   UNL     1     -42.737 -11.590   3.289 -0.14 +0.00    +0.004 A  
DOCKED: ATOM      4  C   UNL     1     -42.971 -11.850   1.946 -0.16 +0.00    +0.006 A  
DOCKED: ATOM      5  C   UNL     1     -41.686 -11.913   1.215 -0.06 +0.00    +0.169 C  
DOCKED: ATOM      6  C   UNL     1     -43.788 -11.505   4.190 -0.24 -0.00    -0.001 A  
DOCKED: ATOM      7  C   UNL     1     -44.255 -12.028   1.459 -0.27 +0.00    +0.008 A  
DOCKED: ATOM      8  C   UNL     1     -45.089 -11.678   3.715 -0.33 +0.00    +0.010 A  
DOCKED: ATOM      9  C   UNL     1     -45.321 -11.939   2.356 -0.35 +0.00    +0.068 A  
DOCKED: ATOM     10  N   UNL     1     -47.748 -12.259   1.506 -2.56 -0.00    -0.191 NA 
DOCKED: ATOM     11  C   UNL     1     -46.659 -12.115   1.887 -0.36 +0.00    +0.101 C  
DOCKED: ENDROOT
DOCKED: BRANCH   2  12
DOCKED: ATOM     12  C   UNL     1     -40.690 -12.578   4.379 -0.03 +0.00    +0.038 C  
DOCKED: BRANCH  12  13
DOCKED: ATOM     13  C   UNL     1     -41.314 -12.594   5.773 -0.08 +0.00    +0.038 C  
DOCKED: BRANCH  13  14
DOCKED: ATOM     14  C   UNL     1     -41.878 -13.974   6.107 -0.05 +0.00    +0.251 C  
DOCKED: BRANCH  14  15
DOCKED: ATOM     15  N   UNL     1     -43.222 -14.118   5.562 -0.09 +0.00    +0.141 N  
DOCKED: ATOM     16  C   UNL     1     -43.233 -15.082   4.462 -0.05 +0.00    +0.285 C  
DOCKED: ATOM     17  C   UNL     1     -44.161 -14.530   6.608 -0.11 +0.00    +0.285 C  
DOCKED: ENDBRANCH  14  15
DOCKED: ENDBRANCH  13  14
DOCKED: ENDBRANCH  12  13
DOCKED: ENDBRANCH   2  12
DOCKED: BRANCH   2  18
DOCKED: ATOM     18  C   UNL     1     -40.884 -10.116   4.075 -0.06 +0.00    +0.006 A  
DOCKED: ATOM     19  C   UNL     1     -41.736  -9.026   3.901 -0.13 +0.00    +0.001 A  
DOCKED: ATOM     20  C   UNL     1     -41.381  -7.777   4.414 -0.08 +0.00    +0.029 A  
DOCKED: ATOM     21  C   UNL     1     -40.178  -7.621   5.101 -0.01 +0.00    +0.140 A  
DOCKED: ATOM     22  C   UNL     1     -39.327  -8.713   5.275 -0.01 +0.00    +0.029 A  
DOCKED: ATOM     23  F   UNL     1     -39.839  -6.423   5.595 +0.01 -0.00    -0.204 F  
DOCKED: ATOM     24  C   UNL     1     -39.680  -9.962   4.761 -0.02 +0.00    +0.001 A  
DOCKED: ENDBRANCH   2  18
DOCKED: TORSDOF 5
DOCKED: TER
DOCKED: ENDMDL
________________________________________________________________________________


    FINAL DOCKED STATE:
    ________________________


Run:   172 / 512
Time taken for this run:   0.002s

DOCKED: MODEL        172
DOCKED: USER    Run = 172
DOCKED: USER
DOCKED: USER    Estimated Free Energy of Binding    =  -4.56 kcal/mol  [=(1)+(2)+(3)-(4)]
DOCKED: USER
DOCKED: USER    (1) Final Intermolecular Energy     =  -6.05 kcal/mol
DOCKED: USER        vdW + Hbond + desolv Energy     =  -6.05 kcal/mol
DOCKED: USER        Electrostatic Energy            =  +0.00 kcal/mol
DOCKED: USER        Moving Ligand-Fixed Receptor    =  -6.05 kcal/mol
DOCKED: USER        Moving Ligand-Moving Receptor   =  +0.00 kcal/mol
DOCKED: USER    (2) Final Total Internal Energy     =  -1.10 kcal/mol
DOCKED: USER    (3) Torsional Free Energy           =  +1.49 kcal/mol
DOCKED: USER    (4) Unbound System's Energy         =  -1.10 kcal/mol
DOCKED: USER
DOCKED: USER
DOCKED: REMARK  5 active torsions:
DOCKED: REMARK  status: ('A' for Active; 'I' for Inactive)
DOCKED: REMARK    1  A    between atoms: C_2  and  C_19 
DOCKED: REMARK    2  A    between atoms: C_2  and  C_11 
DOCKED: REMARK    3  A    between atoms: C_19  and  C_20 
DOCKED: REMARK    4  A    between atoms: C_20  and  C_21 
DOCKED: REMARK    5  A    between atoms: C_21  and  N_22 
DOCKED: USER                              x       y       z     vdW  Elec       q    Type
DOCKED: USER                           _______ _______ _______ _____ _____    ______ ____
DOCKED: ROOT
DOCKED: ATOM      1  O   UNL     1     -50.323 -21.573  14.929 -0.01 -0.00    -0.346 OA 
DOCKED: ATOM      2  C   UNL     1     -49.024 -22.201  14.684 -0.14 +0.00    +0.130 C  
DOCKED: ATOM      3  C   UNL     1     -49.206 -22.905  13.371 -0.30 +0.00    +0.004 A  
DOCKED: ATOM      4  C   UNL     1     -50.461 -22.614  12.855 -0.27 +0.00    +0.006 A  
DOCKED: ATOM      5  C   UNL     1     -51.181 -21.701  13.771 -0.17 +0.00    +0.169 C  
DOCKED: ATOM      6  C   UNL     1     -48.328 -23.728  12.682 -0.34 -0.00    -0.001 A  
DOCKED: ATOM      7  C   UNL     1     -50.881 -23.135  11.643 -0.12 +0.00    +0.008 A  
DOCKED: ATOM      8  C   UNL     1     -48.738 -24.265  11.460 -0.09 +0.00    +0.010 A  
DOCKED: ATOM      9  C   UNL     1     -50.008 -23.969  10.944 -0.42 +0.00    +0.068 A  
DOCKED: ATOM     10  N   UNL     1     -50.737 -24.978   8.671 -2.09 -0.00    -0.191 NA 
DOCKED: ATOM     11  C   UNL     1     -50.410 -24.526   9.691 -0.38 +0.00    +0.101 C  
DOCKED: ENDROOT
DOCKED: BRANCH   2  12
DOCKED: ATOM     12  C   UNL     1     -47.962 -21.110  14.630 -0.18 +0.00    +0.038 C  
DOCKED: BRANCH  12  13
DOCKED: ATOM     13  C   UNL     1     -48.450 -19.897  13.840 -0.21 +0.00    +0.038 C  
DOCKED: BRANCH  13  14
DOCKED: ATOM     14  C   UNL     1     -48.837 -18.752  14.775 -0.06 +0.00    +0.251 C  
DOCKED: BRANCH  14  15
DOCKED: ATOM     15  N   UNL     1     -49.614 -17.750  14.056 -0.09 +0.00    +0.141 N  
DOCKED: ATOM     16  C   UNL     1     -50.712 -18.379  13.320 -0.16 +0.00    +0.285 C  
DOCKED: ATOM     17  C   UNL     1     -50.134 -16.740  14.979 -0.02 +0.00    +0.285 C  
DOCKED: ENDBRANCH  14  15
DOCKED: ENDBRANCH  13  14
DOCKED: ENDBRANCH  12  13
DOCKED: ENDBRANCH   2  12
DOCKED: BRANCH   2  18
DOCKED: ATOM     18  C   UNL     1     -48.773 -23.140  15.817 -0.14 +0.00    +0.006 A  
DOCKED: ATOM     19  C   UNL     1     -48.769 -24.516  15.594 -0.27 +0.00    +0.001 A  
DOCKED: ATOM     20  C   UNL     1     -48.535 -25.393  16.654 -0.14 +0.00    +0.029 A  
DOCKED: ATOM     21  C   UNL     1     -48.305 -24.892  17.935 -0.18 +0.00    +0.140 A  
DOCKED: ATOM     22  C   UNL     1     -48.309 -23.516  18.157 -0.11 +0.00    +0.029 A  
DOCKED: ATOM     23  F   UNL     1     -48.079 -25.734  18.952 -0.08 -0.00    -0.204 F  
DOCKED: ATOM     24  C   UNL     1     -48.544 -22.638  17.098 -0.08 +0.00    +0.001 A  
DOCKED: ENDBRANCH   2  18
DOCKED: TORSDOF 5
DOCKED: TER
DOCKED: ENDMDL
________________________________________________________________________________


    FINAL DOCKED STATE:
    ________________________


Run:   173 / 512
Time taken for this run:   0.002s

DOCKED: MODEL        173
DOCKED: USER    Run = 173
DOCKED: USER
DOCKED: USER    Estimated Free Energy of Binding    =  -4.03 kcal/mol  [=(1)+(2)+(3)-(4)]
DOCKED: USER
DOCKED: USER    (1) Final Intermolecular Energy     =  -5.52 kcal/mol
DOCKED: USER        vdW + Hbond + desolv Energy     =  -5.52 kcal/mol
DOCKED: USER        Electrostatic Energy            =  +0.00 kcal/mol
DOCKED: USER        Moving Ligand-Fixed Receptor    =  -5.52 kcal/mol
DOCKED: USER        Moving Ligand-Moving Receptor   =  +0.00 kcal/mol
DOCKED: USER    (2) Final Total Internal Energy     =  -1.02 kcal/mol
DOCKED: USER    (3) Torsional Free Energy           =  +1.49 kcal/mol
DOCKED: USER    (4) Unbound System's Energy         =  -1.02 kcal/mol
DOCKED: USER
DOCKED: USER
DOCKED: REMARK  5 active torsions:
DOCKED: REMARK  status: ('A' for Active; 'I' for Inactive)
DOCKED: REMARK    1  A    between atoms: C_2  and  C_19 
DOCKED: REMARK    2  A    between atoms: C_2  and  C_11 
DOCKED: REMARK    3  A    between atoms: C_19  and  C_20 
DOCKED: REMARK    4  A    between atoms: C_20  and  C_21 
DOCKED: REMARK    5  A    between atoms: C_21  and  N_22 
DOCKED: USER                              x       y       z     vdW  Elec       q    Type
DOCKED: USER                           _______ _______ _______ _____ _____    ______ ____
DOCKED: ROOT
DOCKED: ATOM      1  O   UNL     1     -46.867 -19.683  14.522 -0.04 -0.00    -0.346 OA 
DOCKED: ATOM      2  C   UNL     1     -46.139 -20.873  14.964 -0.12 +0.00    +0.130 C  
DOCKED: ATOM      3  C   UNL     1     -46.958 -22.013  14.432 -0.19 +0.00    +0.004 A  
DOCKED: ATOM      4  C   UNL     1     -48.001 -21.520  13.661 -0.26 +0.00    +0.006 A  
DOCKED: ATOM      5  C   UNL     1     -47.938 -20.042  13.618 -0.19 +0.00    +0.169 C  
DOCKED: ATOM      6  C   UNL     1     -46.787 -23.379  14.608 -0.23 -0.00    -0.001 A  
DOCKED: ATOM      7  C   UNL     1     -48.906 -22.368  13.046 -0.32 +0.00    +0.008 A  
DOCKED: ATOM      8  C   UNL     1     -47.694 -24.247  13.997 -0.37 +0.00    +0.010 A  
DOCKED: ATOM      9  C   UNL     1     -48.748 -23.743  13.220 -0.31 +0.00    +0.068 A  
DOCKED: ATOM     10  N   UNL     1     -50.411 -25.382  12.097 -2.56 -0.00    -0.191 NA 
DOCKED: ATOM     11  C   UNL     1     -49.666 -24.647  12.601 -0.34 +0.00    +0.101 C  
DOCKED: ENDROOT
DOCKED: BRANCH   2  12
DOCKED: ATOM     12  C   UNL     1     -44.734 -20.826  14.374 -0.03 +0.00    +0.038 C  
DOCKED: BRANCH  12  13
DOCKED: ATOM     13  C   UNL     1     -44.566 -19.637  13.430 -0.11 +0.00    +0.038 C  
DOCKED: BRANCH  13  14
DOCKED: ATOM     14  C   UNL     1     -43.115 -19.501  12.971 -0.07 +0.00    +0.251 C  
DOCKED: BRANCH  14  15
DOCKED: ATOM     15  N   UNL     1     -43.058 -19.271  11.532 -0.08 +0.00    +0.141 N  
DOCKED: ATOM     16  C   UNL     1     -44.396 -19.008  10.998 -0.10 +0.00    +0.285 C  
DOCKED: ATOM     17  C   UNL     1     -42.161 -18.157  11.223 -0.02 +0.00    +0.285 C  
DOCKED: ENDBRANCH  14  15
DOCKED: ENDBRANCH  13  14
DOCKED: ENDBRANCH  12  13
DOCKED: ENDBRANCH   2  12
DOCKED: BRANCH   2  18
DOCKED: ATOM     18  C   UNL     1     -46.098 -20.832  16.455 -0.06 +0.00    +0.006 A  
DOCKED: ATOM     19  C   UNL     1     -47.064 -20.113  17.158 -0.02 +0.00    +0.001 A  
DOCKED: ATOM     20  C   UNL     1     -47.024 -20.074  18.553 -0.01 +0.00    +0.029 A  
DOCKED: ATOM     21  C   UNL     1     -46.021 -20.755  19.241 -0.00 +0.00    +0.140 A  
DOCKED: ATOM     22  C   UNL     1     -45.056 -21.474  18.537 -0.03 +0.00    +0.029 A  
DOCKED: ATOM     23  F   UNL     1     -45.985 -20.720  20.579 +0.00 -0.00    -0.204 F  
DOCKED: ATOM     24  C   UNL     1     -45.094 -21.512  17.142 -0.06 +0.00    +0.001 A  
DOCKED: ENDBRANCH   2  18
DOCKED: TORSDOF 5
DOCKED: TER
DOCKED: ENDMDL
________________________________________________________________________________


    FINAL DOCKED STATE:
    ________________________


Run:   174 / 512
Time taken for this run:   0.002s

DOCKED: MODEL        174
DOCKED: USER    Run = 174
DOCKED: USER
DOCKED: USER    Estimated Free Energy of Binding    =  -4.37 kcal/mol  [=(1)+(2)+(3)-(4)]
DOCKED: USER
DOCKED: USER    (1) Final Intermolecular Energy     =  -5.86 kcal/mol
DOCKED: USER        vdW + Hbond + desolv Energy     =  -5.86 kcal/mol
DOCKED: USER        Electrostatic Energy            =  +0.00 kcal/mol
DOCKED: USER        Moving Ligand-Fixed Receptor    =  -5.86 kcal/mol
DOCKED: USER        Moving Ligand-Moving Receptor   =  +0.00 kcal/mol
DOCKED: USER    (2) Final Total Internal Energy     =  -1.32 kcal/mol
DOCKED: USER    (3) Torsional Free Energy           =  +1.49 kcal/mol
DOCKED: USER    (4) Unbound System's Energy         =  -1.32 kcal/mol
DOCKED: USER
DOCKED: USER
DOCKED: REMARK  5 active torsions:
DOCKED: REMARK  status: ('A' for Active; 'I' for Inactive)
DOCKED: REMARK    1  A    between atoms: C_2  and  C_19 
DOCKED: REMARK    2  A    between atoms: C_2  and  C_11 
DOCKED: REMARK    3  A    between atoms: C_19  and  C_20 
DOCKED: REMARK    4  A    between atoms: C_20  and  C_21 
DOCKED: REMARK    5  A    between atoms: C_21  and  N_22 
DOCKED: USER                              x       y       z     vdW  Elec       q    Type
DOCKED: USER                           _______ _______ _______ _____ _____    ______ ____
DOCKED: ROOT
DOCKED: ATOM      1  O   UNL     1     -44.058 -15.334   6.532 -0.03 -0.00    -0.346 OA 
DOCKED: ATOM      2  C   UNL     1     -43.166 -15.352   5.371 -0.07 +0.00    +0.130 C  
DOCKED: ATOM      3  C   UNL     1     -43.952 -14.647   4.304 -0.16 +0.00    +0.004 A  
DOCKED: ATOM      4  C   UNL     1     -45.141 -14.171   4.836 -0.26 +0.00    +0.006 A  
DOCKED: ATOM      5  C   UNL     1     -45.219 -14.510   6.275 -0.16 +0.00    +0.169 C  
DOCKED: ATOM      6  C   UNL     1     -43.634 -14.435   2.970 -0.14 -0.00    -0.001 A  
DOCKED: ATOM      7  C   UNL     1     -46.051 -13.474   4.059 -0.35 +0.00    +0.008 A  
DOCKED: ATOM      8  C   UNL     1     -44.543 -13.737   2.172 -0.23 +0.00    +0.010 A  
DOCKED: ATOM      9  C   UNL     1     -45.745 -13.259   2.715 -0.25 +0.00    +0.068 A  
DOCKED: ATOM     10  N   UNL     1     -47.408 -11.965   1.207 -2.55 -0.00    -0.191 NA 
DOCKED: ATOM     11  C   UNL     1     -46.662 -12.546   1.883 -0.34 +0.00    +0.101 C  
DOCKED: ENDROOT
DOCKED: BRANCH   2  12
DOCKED: ATOM     12  C   UNL     1     -41.879 -14.622   5.740 -0.05 +0.00    +0.038 C  
DOCKED: BRANCH  12  13
DOCKED: ATOM     13  C   UNL     1     -41.924 -13.159   5.304 -0.09 +0.00    +0.038 C  
DOCKED: BRANCH  13  14
DOCKED: ATOM     14  C   UNL     1     -42.300 -12.249   6.471 -0.09 +0.00    +0.251 C  
DOCKED: BRANCH  14  15
DOCKED: ATOM     15  N   UNL     1     -42.706 -10.937   5.981 -0.16 +0.00    +0.141 N  
DOCKED: ATOM     16  C   UNL     1     -41.561 -10.026   5.936 -0.08 +0.00    +0.285 C  
DOCKED: ATOM     17  C   UNL     1     -43.318 -11.049   4.656 -0.14 +0.00    +0.285 C  
DOCKED: ENDBRANCH  14  15
DOCKED: ENDBRANCH  13  14
DOCKED: ENDBRANCH  12  13
DOCKED: ENDBRANCH   2  12
DOCKED: BRANCH   2  18
DOCKED: ATOM     18  C   UNL     1     -42.899 -16.784   5.048 -0.06 +0.00    +0.006 A  
DOCKED: ATOM     19  C   UNL     1     -41.678 -17.360   5.394 -0.02 +0.00    +0.001 A  
DOCKED: ATOM     20  C   UNL     1     -41.430 -18.700   5.091 -0.03 +0.00    +0.029 A  
DOCKED: ATOM     21  C   UNL     1     -42.402 -19.460   4.443 -0.12 +0.00    +0.140 A  
DOCKED: ATOM     22  C   UNL     1     -43.624 -18.882   4.097 -0.23 +0.00    +0.029 A  
DOCKED: ATOM     23  F   UNL     1     -42.165 -20.746   4.153 -0.07 -0.00    -0.204 F  
DOCKED: ATOM     24  C   UNL     1     -43.873 -17.542   4.400 -0.19 +0.00    +0.001 A  
DOCKED: ENDBRANCH   2  18
DOCKED: TORSDOF 5
DOCKED: TER
DOCKED: ENDMDL
________________________________________________________________________________


    FINAL DOCKED STATE:
    ________________________


Run:   175 / 512
Time taken for this run:   0.002s

DOCKED: MODEL        175
DOCKED: USER    Run = 175
DOCKED: USER
DOCKED: USER    Estimated Free Energy of Binding    =  -5.85 kcal/mol  [=(1)+(2)+(3)-(4)]
DOCKED: USER
DOCKED: USER    (1) Final Intermolecular Energy     =  -7.34 kcal/mol
DOCKED: USER        vdW + Hbond + desolv Energy     =  -7.34 kcal/mol
DOCKED: USER        Electrostatic Energy            =  +0.00 kcal/mol
DOCKED: USER        Moving Ligand-Fixed Receptor    =  -7.34 kcal/mol
DOCKED: USER        Moving Ligand-Moving Receptor   =  +0.00 kcal/mol
DOCKED: USER    (2) Final Total Internal Energy     =  -1.52 kcal/mol
DOCKED: USER    (3) Torsional Free Energy           =  +1.49 kcal/mol
DOCKED: USER    (4) Unbound System's Energy         =  -1.52 kcal/mol
DOCKED: USER
DOCKED: USER
DOCKED: REMARK  5 active torsions:
DOCKED: REMARK  status: ('A' for Active; 'I' for Inactive)
DOCKED: REMARK    1  A    between atoms: C_2  and  C_19 
DOCKED: REMARK    2  A    between atoms: C_2  and  C_11 
DOCKED: REMARK    3  A    between atoms: C_19  and  C_20 
DOCKED: REMARK    4  A    between atoms: C_20  and  C_21 
DOCKED: REMARK    5  A    between atoms: C_21  and  N_22 
DOCKED: USER                              x       y       z     vdW  Elec       q    Type
DOCKED: USER                           _______ _______ _______ _____ _____    ______ ____
DOCKED: ROOT
DOCKED: ATOM      1  O   UNL     1     -48.175 -21.597  14.627 -0.05 -0.00    -0.346 OA 
DOCKED: ATOM      2  C   UNL     1     -47.847 -23.023  14.606 -0.23 +0.00    +0.130 C  
DOCKED: ATOM      3  C   UNL     1     -48.383 -23.496  13.286 -0.34 +0.00    +0.004 A  
DOCKED: ATOM      4  C   UNL     1     -48.875 -22.416  12.567 -0.34 +0.00    +0.006 A  
DOCKED: ATOM      5  C   UNL     1     -48.689 -21.169  13.344 -0.24 +0.00    +0.169 C  
DOCKED: ATOM      6  C   UNL     1     -48.422 -24.779  12.758 -0.38 -0.00    -0.001 A  
DOCKED: ATOM      7  C   UNL     1     -49.423 -22.578  11.306 -0.05 +0.00    +0.008 A  
DOCKED: ATOM      8  C   UNL     1     -48.976 -24.959  11.490 -0.45 +0.00    +0.010 A  
DOCKED: ATOM      9  C   UNL     1     -49.473 -23.864  10.767 -0.42 +0.00    +0.068 A  
DOCKED: ATOM     10  N   UNL     1     -50.490 -24.234   8.413 -2.92 -0.00    -0.191 NA 
DOCKED: ATOM     11  C   UNL     1     -50.035 -24.068   9.469 -0.44 +0.00    +0.101 C  
DOCKED: ENDROOT
DOCKED: BRANCH   2  12
DOCKED: ATOM     12  C   UNL     1     -46.334 -23.172  14.720 -0.21 +0.00    +0.038 C  
DOCKED: BRANCH  12  13
DOCKED: ATOM     13  C   UNL     1     -45.665 -21.835  15.030 -0.17 +0.00    +0.038 C  
DOCKED: BRANCH  13  14
DOCKED: ATOM     14  C   UNL     1     -45.496 -21.641  16.536 -0.06 +0.00    +0.251 C  
DOCKED: BRANCH  14  15
DOCKED: ATOM     15  N   UNL     1     -46.154 -20.413  16.965 -0.02 +0.00    +0.141 N  
DOCKED: ATOM     16  C   UNL     1     -46.311 -19.490  15.840 -0.02 +0.00    +0.285 C  
DOCKED: ATOM     17  C   UNL     1     -47.456 -20.708  17.565 -0.01 +0.00    +0.285 C  
DOCKED: ENDBRANCH  14  15
DOCKED: ENDBRANCH  13  14
DOCKED: ENDBRANCH  12  13
DOCKED: ENDBRANCH   2  12
DOCKED: BRANCH   2  18
DOCKED: ATOM     18  C   UNL     1     -48.539 -23.647  15.772 -0.19 +0.00    +0.006 A  
DOCKED: ATOM     19  C   UNL     1     -49.924 -23.802  15.758 -0.17 +0.00    +0.001 A  
DOCKED: ATOM     20  C   UNL     1     -50.570 -24.385  16.849 -0.15 +0.00    +0.029 A  
DOCKED: ATOM     21  C   UNL     1     -49.831 -24.812  17.951 -0.07 +0.00    +0.140 A  
DOCKED: ATOM     22  C   UNL     1     -48.445 -24.657  17.964 -0.21 +0.00    +0.029 A  
DOCKED: ATOM     23  F   UNL     1     -50.451 -25.373  18.997 -0.04 -0.00    -0.204 F  
DOCKED: ATOM     24  C   UNL     1     -47.798 -24.073  16.873 -0.17 +0.00    +0.001 A  
DOCKED: ENDBRANCH   2  18
DOCKED: TORSDOF 5
DOCKED: TER
DOCKED: ENDMDL
________________________________________________________________________________


    FINAL DOCKED STATE:
    ________________________


Run:   176 / 512
Time taken for this run:   0.002s

DOCKED: MODEL        176
DOCKED: USER    Run = 176
DOCKED: USER
DOCKED: USER    Estimated Free Energy of Binding    =  -4.05 kcal/mol  [=(1)+(2)+(3)-(4)]
DOCKED: USER
DOCKED: USER    (1) Final Intermolecular Energy     =  -5.54 kcal/mol
DOCKED: USER        vdW + Hbond + desolv Energy     =  -5.54 kcal/mol
DOCKED: USER        Electrostatic Energy            =  +0.00 kcal/mol
DOCKED: USER        Moving Ligand-Fixed Receptor    =  -5.54 kcal/mol
DOCKED: USER        Moving Ligand-Moving Receptor   =  +0.00 kcal/mol
DOCKED: USER    (2) Final Total Internal Energy     =  -1.38 kcal/mol
DOCKED: USER    (3) Torsional Free Energy           =  +1.49 kcal/mol
DOCKED: USER    (4) Unbound System's Energy         =  -1.38 kcal/mol
DOCKED: USER
DOCKED: USER
DOCKED: REMARK  5 active torsions:
DOCKED: REMARK  status: ('A' for Active; 'I' for Inactive)
DOCKED: REMARK    1  A    between atoms: C_2  and  C_19 
DOCKED: REMARK    2  A    between atoms: C_2  and  C_11 
DOCKED: REMARK    3  A    between atoms: C_19  and  C_20 
DOCKED: REMARK    4  A    between atoms: C_20  and  C_21 
DOCKED: REMARK    5  A    between atoms: C_21  and  N_22 
DOCKED: USER                              x       y       z     vdW  Elec       q    Type
DOCKED: USER                           _______ _______ _______ _____ _____    ______ ____
DOCKED: ROOT
DOCKED: ATOM      1  O   UNL     1     -48.095 -19.073  13.642 -0.07 -0.00    -0.346 OA 
DOCKED: ATOM      2  C   UNL     1     -49.165 -19.441  14.571 -0.11 +0.00    +0.130 C  
DOCKED: ATOM      3  C   UNL     1     -49.530 -20.839  14.163 -0.19 +0.00    +0.004 A  
DOCKED: ATOM      4  C   UNL     1     -48.670 -21.273  13.164 -0.28 +0.00    +0.006 A  
DOCKED: ATOM      5  C   UNL     1     -47.684 -20.215  12.854 -0.11 +0.00    +0.169 C  
DOCKED: ATOM      6  C   UNL     1     -50.535 -21.664  14.646 -0.14 -0.00    -0.001 A  
DOCKED: ATOM      7  C   UNL     1     -48.787 -22.538  12.613 -0.34 +0.00    +0.008 A  
DOCKED: ATOM      8  C   UNL     1     -50.668 -22.941  14.098 -0.18 +0.00    +0.010 A  
DOCKED: ATOM      9  C   UNL     1     -49.798 -23.376  13.087 -0.26 +0.00    +0.068 A  
DOCKED: ATOM     10  N   UNL     1     -50.070 -25.753  12.094 -2.61 -0.00    -0.191 NA 
DOCKED: ATOM     11  C   UNL     1     -49.948 -24.687  12.539 -0.33 +0.00    +0.101 C  
DOCKED: ENDROOT
DOCKED: BRANCH   2  12
DOCKED: ATOM     12  C   UNL     1     -48.620 -19.360  15.992 -0.04 +0.00    +0.038 C  
DOCKED: BRANCH  12  13
DOCKED: ATOM     13  C   UNL     1     -47.726 -18.135  16.176 -0.02 +0.00    +0.038 C  
DOCKED: BRANCH  13  14
DOCKED: ATOM     14  C   UNL     1     -46.256 -18.539  16.281 -0.01 +0.00    +0.251 C  
DOCKED: BRANCH  14  15
DOCKED: ATOM     15  N   UNL     1     -46.010 -19.761  15.524 -0.04 +0.00    +0.141 N  
DOCKED: ATOM     16  C   UNL     1     -44.896 -19.575  14.593 -0.06 +0.00    +0.285 C  
DOCKED: ATOM     17  C   UNL     1     -45.737 -20.881  16.426 -0.04 +0.00    +0.285 C  
DOCKED: ENDBRANCH  14  15
DOCKED: ENDBRANCH  13  14
DOCKED: ENDBRANCH  12  13
DOCKED: ENDBRANCH   2  12
DOCKED: BRANCH   2  18
DOCKED: ATOM     18  C   UNL     1     -50.276 -18.466  14.364 -0.14 +0.00    +0.006 A  
DOCKED: ATOM     19  C   UNL     1     -50.326 -17.704  13.197 -0.20 +0.00    +0.001 A  
DOCKED: ATOM     20  C   UNL     1     -51.365 -16.793  13.005 -0.17 +0.00    +0.029 A  
DOCKED: ATOM     21  C   UNL     1     -52.352 -16.645  13.978 -0.08 +0.00    +0.140 A  
DOCKED: ATOM     22  C   UNL     1     -52.301 -17.408  15.145 -0.06 +0.00    +0.029 A  
DOCKED: ATOM     23  F   UNL     1     -53.350 -15.772  13.793 +0.01 -0.00    -0.204 F  
DOCKED: ATOM     24  C   UNL     1     -51.262 -18.319  15.338 -0.06 +0.00    +0.001 A  
DOCKED: ENDBRANCH   2  18
DOCKED: TORSDOF 5
DOCKED: TER
DOCKED: ENDMDL
________________________________________________________________________________


    FINAL DOCKED STATE:
    ________________________


Run:   177 / 512
Time taken for this run:   0.002s

DOCKED: MODEL        177
DOCKED: USER    Run = 177
DOCKED: USER
DOCKED: USER    Estimated Free Energy of Binding    =  -5.57 kcal/mol  [=(1)+(2)+(3)-(4)]
DOCKED: USER
DOCKED: USER    (1) Final Intermolecular Energy     =  -7.06 kcal/mol
DOCKED: USER        vdW + Hbond + desolv Energy     =  -7.06 kcal/mol
DOCKED: USER        Electrostatic Energy            =  +0.00 kcal/mol
DOCKED: USER        Moving Ligand-Fixed Receptor    =  -7.06 kcal/mol
DOCKED: USER        Moving Ligand-Moving Receptor   =  +0.00 kcal/mol
DOCKED: USER    (2) Final Total Internal Energy     =  -1.07 kcal/mol
DOCKED: USER    (3) Torsional Free Energy           =  +1.49 kcal/mol
DOCKED: USER    (4) Unbound System's Energy         =  -1.07 kcal/mol
DOCKED: USER
DOCKED: USER
DOCKED: REMARK  5 active torsions:
DOCKED: REMARK  status: ('A' for Active; 'I' for Inactive)
DOCKED: REMARK    1  A    between atoms: C_2  and  C_19 
DOCKED: REMARK    2  A    between atoms: C_2  and  C_11 
DOCKED: REMARK    3  A    between atoms: C_19  and  C_20 
DOCKED: REMARK    4  A    between atoms: C_20  and  C_21 
DOCKED: REMARK    5  A    between atoms: C_21  and  N_22 
DOCKED: USER                              x       y       z     vdW  Elec       q    Type
DOCKED: USER                           _______ _______ _______ _____ _____    ______ ____
DOCKED: ROOT
DOCKED: ATOM      1  O   UNL     1     -51.865 -22.555  14.881 -0.01 -0.00    -0.346 OA 
DOCKED: ATOM      2  C   UNL     1     -50.420 -22.433  14.685 -0.12 +0.00    +0.130 C  
DOCKED: ATOM      3  C   UNL     1     -50.211 -22.883  13.268 -0.26 +0.00    +0.004 A  
DOCKED: ATOM      4  C   UNL     1     -51.439 -23.134  12.671 -0.28 +0.00    +0.006 A  
DOCKED: ATOM      5  C   UNL     1     -52.530 -22.860  13.633 -0.18 +0.00    +0.169 C  
DOCKED: ATOM      6  C   UNL     1     -49.030 -23.045  12.559 -0.37 -0.00    -0.001 A  
DOCKED: ATOM      7  C   UNL     1     -51.528 -23.558  11.357 -0.23 +0.00    +0.008 A  
DOCKED: ATOM      8  C   UNL     1     -49.102 -23.476  11.234 -0.27 +0.00    +0.010 A  
DOCKED: ATOM      9  C   UNL     1     -50.346 -23.731  10.635 -0.36 +0.00    +0.068 A  
DOCKED: ATOM     10  N   UNL     1     -50.446 -24.526   8.171 -2.76 -0.00    -0.191 NA 
DOCKED: ATOM     11  C   UNL     1     -50.401 -24.170   9.277 -0.28 +0.00    +0.101 C  
DOCKED: ENDROOT
DOCKED: BRANCH   2  12
DOCKED: ATOM     12  C   UNL     1     -50.024 -20.979  14.910 -0.13 +0.00    +0.038 C  
DOCKED: BRANCH  12  13
DOCKED: ATOM     13  C   UNL     1     -50.367 -20.113  13.699 -0.25 +0.00    +0.038 C  
DOCKED: BRANCH  13  14
DOCKED: ATOM     14  C   UNL     1     -50.517 -18.646  14.097 -0.14 +0.00    +0.251 C  
DOCKED: BRANCH  14  15
DOCKED: ATOM     15  N   UNL     1     -51.862 -18.173  13.791 -0.17 +0.00    +0.141 N  
DOCKED: ATOM     16  C   UNL     1     -52.803 -19.293  13.735 -0.14 +0.00    +0.285 C  
DOCKED: ATOM     17  C   UNL     1     -52.301 -17.191  14.784 -0.03 +0.00    +0.285 C  
DOCKED: ENDBRANCH  14  15
DOCKED: ENDBRANCH  13  14
DOCKED: ENDBRANCH  12  13
DOCKED: ENDBRANCH   2  12
DOCKED: BRANCH   2  18
DOCKED: ATOM     18  C   UNL     1     -49.767 -23.330  15.682 -0.13 +0.00    +0.006 A  
DOCKED: ATOM     19  C   UNL     1     -49.108 -24.483  15.256 -0.26 +0.00    +0.001 A  
DOCKED: ATOM     20  C   UNL     1     -48.498 -25.321  16.190 -0.21 +0.00    +0.029 A  
DOCKED: ATOM     21  C   UNL     1     -48.546 -25.006  17.547 -0.18 +0.00    +0.140 A  
DOCKED: ATOM     22  C   UNL     1     -49.204 -23.852  17.972 -0.12 +0.00    +0.029 A  
DOCKED: ATOM     23  F   UNL     1     -47.958 -25.809  18.442 -0.10 -0.00    -0.204 F  
DOCKED: ATOM     24  C   UNL     1     -49.816 -23.013  17.039 -0.08 +0.00    +0.001 A  
DOCKED: ENDBRANCH   2  18
DOCKED: TORSDOF 5
DOCKED: TER
DOCKED: ENDMDL
________________________________________________________________________________


    FINAL DOCKED STATE:
    ________________________


Run:   178 / 512
Time taken for this run:   0.002s

DOCKED: MODEL        178
DOCKED: USER    Run = 178
DOCKED: USER
DOCKED: USER    Estimated Free Energy of Binding    =  -5.90 kcal/mol  [=(1)+(2)+(3)-(4)]
DOCKED: USER
DOCKED: USER    (1) Final Intermolecular Energy     =  -7.39 kcal/mol
DOCKED: USER        vdW + Hbond + desolv Energy     =  -7.39 kcal/mol
DOCKED: USER        Electrostatic Energy            =  +0.00 kcal/mol
DOCKED: USER        Moving Ligand-Fixed Receptor    =  -7.39 kcal/mol
DOCKED: USER        Moving Ligand-Moving Receptor   =  +0.00 kcal/mol
DOCKED: USER    (2) Final Total Internal Energy     =  -1.04 kcal/mol
DOCKED: USER    (3) Torsional Free Energy           =  +1.49 kcal/mol
DOCKED: USER    (4) Unbound System's Energy         =  -1.04 kcal/mol
DOCKED: USER
DOCKED: USER
DOCKED: REMARK  5 active torsions:
DOCKED: REMARK  status: ('A' for Active; 'I' for Inactive)
DOCKED: REMARK    1  A    between atoms: C_2  and  C_19 
DOCKED: REMARK    2  A    between atoms: C_2  and  C_11 
DOCKED: REMARK    3  A    between atoms: C_19  and  C_20 
DOCKED: REMARK    4  A    between atoms: C_20  and  C_21 
DOCKED: REMARK    5  A    between atoms: C_21  and  N_22 
DOCKED: USER                              x       y       z     vdW  Elec       q    Type
DOCKED: USER                           _______ _______ _______ _____ _____    ______ ____
DOCKED: ROOT
DOCKED: ATOM      1  O   UNL     1     -48.549 -21.531  14.720 -0.04 -0.00    -0.346 OA 
DOCKED: ATOM      2  C   UNL     1     -48.050 -22.907  14.670 -0.21 +0.00    +0.130 C  
DOCKED: ATOM      3  C   UNL     1     -48.513 -23.409  13.333 -0.34 +0.00    +0.004 A  
DOCKED: ATOM      4  C   UNL     1     -49.126 -22.378  12.634 -0.34 +0.00    +0.006 A  
DOCKED: ATOM      5  C   UNL     1     -49.099 -21.138  13.442 -0.22 +0.00    +0.169 C  
DOCKED: ATOM      6  C   UNL     1     -48.392 -24.673  12.776 -0.41 -0.00    -0.001 A  
DOCKED: ATOM      7  C   UNL     1     -49.639 -22.575  11.363 +0.07 +0.00    +0.008 A  
DOCKED: ATOM      8  C   UNL     1     -48.909 -24.889  11.497 -0.44 +0.00    +0.010 A  
DOCKED: ATOM      9  C   UNL     1     -49.528 -23.845  10.795 -0.42 +0.00    +0.068 A  
DOCKED: ATOM     10  N   UNL     1     -50.471 -24.278   8.421 -2.88 -0.00    -0.191 NA 
DOCKED: ATOM     11  C   UNL     1     -50.049 -24.084   9.486 -0.44 +0.00    +0.101 C  
DOCKED: ENDROOT
DOCKED: BRANCH   2  12
DOCKED: ATOM     12  C   UNL     1     -46.532 -22.875  14.799 -0.25 +0.00    +0.038 C  
DOCKED: BRANCH  12  13
DOCKED: ATOM     13  C   UNL     1     -45.997 -21.446  14.734 -0.15 +0.00    +0.038 C  
DOCKED: BRANCH  13  14
DOCKED: ATOM     14  C   UNL     1     -44.539 -21.384  15.183 -0.10 +0.00    +0.251 C  
DOCKED: BRANCH  14  15
DOCKED: ATOM     15  N   UNL     1     -43.901 -22.684  15.016 -0.15 +0.00    +0.141 N  
DOCKED: ATOM     16  C   UNL     1     -42.640 -22.550  14.284 -0.09 +0.00    +0.285 C  
DOCKED: ATOM     17  C   UNL     1     -43.668 -23.315  16.316 -0.04 +0.00    +0.285 C  
DOCKED: ENDBRANCH  14  15
DOCKED: ENDBRANCH  13  14
DOCKED: ENDBRANCH  12  13
DOCKED: ENDBRANCH   2  12
DOCKED: BRANCH   2  18
DOCKED: ATOM     18  C   UNL     1     -48.672 -23.637  15.813 -0.18 +0.00    +0.006 A  
DOCKED: ATOM     19  C   UNL     1     -50.050 -23.853  15.836 -0.17 +0.00    +0.001 A  
DOCKED: ATOM     20  C   UNL     1     -50.630 -24.536  16.905 -0.15 +0.00    +0.029 A  
DOCKED: ATOM     21  C   UNL     1     -49.833 -25.003  17.949 -0.03 +0.00    +0.140 A  
DOCKED: ATOM     22  C   UNL     1     -48.455 -24.787  17.926 -0.22 +0.00    +0.029 A  
DOCKED: ATOM     23  F   UNL     1     -50.390 -25.660  18.975 -0.03 -0.00    -0.204 F  
DOCKED: ATOM     24  C   UNL     1     -47.874 -24.103  16.857 -0.17 +0.00    +0.001 A  
DOCKED: ENDBRANCH   2  18
DOCKED: TORSDOF 5
DOCKED: TER
DOCKED: ENDMDL
________________________________________________________________________________


    FINAL DOCKED STATE:
    ________________________


Run:   179 / 512
Time taken for this run:   0.002s

DOCKED: MODEL        179
DOCKED: USER    Run = 179
DOCKED: USER
DOCKED: USER    Estimated Free Energy of Binding    =  -5.72 kcal/mol  [=(1)+(2)+(3)-(4)]
DOCKED: USER
DOCKED: USER    (1) Final Intermolecular Energy     =  -7.21 kcal/mol
DOCKED: USER        vdW + Hbond + desolv Energy     =  -7.21 kcal/mol
DOCKED: USER        Electrostatic Energy            =  +0.00 kcal/mol
DOCKED: USER        Moving Ligand-Fixed Receptor    =  -7.21 kcal/mol
DOCKED: USER        Moving Ligand-Moving Receptor   =  +0.00 kcal/mol
DOCKED: USER    (2) Final Total Internal Energy     =  -1.35 kcal/mol
DOCKED: USER    (3) Torsional Free Energy           =  +1.49 kcal/mol
DOCKED: USER    (4) Unbound System's Energy         =  -1.35 kcal/mol
DOCKED: USER
DOCKED: USER
DOCKED: REMARK  5 active torsions:
DOCKED: REMARK  status: ('A' for Active; 'I' for Inactive)
DOCKED: REMARK    1  A    between atoms: C_2  and  C_19 
DOCKED: REMARK    2  A    between atoms: C_2  and  C_11 
DOCKED: REMARK    3  A    between atoms: C_19  and  C_20 
DOCKED: REMARK    4  A    between atoms: C_20  and  C_21 
DOCKED: REMARK    5  A    between atoms: C_21  and  N_22 
DOCKED: USER                              x       y       z     vdW  Elec       q    Type
DOCKED: USER                           _______ _______ _______ _____ _____    ______ ____
DOCKED: ROOT
DOCKED: ATOM      1  O   UNL     1     -48.741 -21.552  14.672 -0.04 -0.00    -0.346 OA 
DOCKED: ATOM      2  C   UNL     1     -48.175 -22.902  14.666 -0.21 +0.00    +0.130 C  
DOCKED: ATOM      3  C   UNL     1     -48.594 -23.462  13.338 -0.34 +0.00    +0.004 A  
DOCKED: ATOM      4  C   UNL     1     -49.245 -22.482  12.602 -0.34 +0.00    +0.006 A  
DOCKED: ATOM      5  C   UNL     1     -49.291 -21.221  13.376 -0.22 +0.00    +0.169 C  
DOCKED: ATOM      6  C   UNL     1     -48.403 -24.733  12.817 -0.39 -0.00    -0.001 A  
DOCKED: ATOM      7  C   UNL     1     -49.729 -22.737  11.331 -0.09 +0.00    +0.008 A  
DOCKED: ATOM      8  C   UNL     1     -48.889 -25.008  11.537 -0.43 +0.00    +0.010 A  
DOCKED: ATOM      9  C   UNL     1     -49.548 -24.014  10.798 -0.44 +0.00    +0.068 A  
DOCKED: ATOM     10  N   UNL     1     -50.434 -24.556   8.424 -2.63 -0.00    -0.191 NA 
DOCKED: ATOM     11  C   UNL     1     -50.038 -24.313   9.489 -0.42 +0.00    +0.101 C  
DOCKED: ENDROOT
DOCKED: BRANCH   2  12
DOCKED: ATOM     12  C   UNL     1     -46.662 -22.793  14.815 -0.26 +0.00    +0.038 C  
DOCKED: BRANCH  12  13
DOCKED: ATOM     13  C   UNL     1     -46.266 -21.517  15.555 -0.15 +0.00    +0.038 C  
DOCKED: BRANCH  13  14
DOCKED: ATOM     14  C   UNL     1     -45.334 -20.655  14.705 -0.09 +0.00    +0.251 C  
DOCKED: BRANCH  14  15
DOCKED: ATOM     15  N   UNL     1     -45.981 -19.395  14.361 -0.08 +0.00    +0.141 N  
DOCKED: ATOM     16  C   UNL     1     -46.403 -19.397  12.959 -0.12 +0.00    +0.285 C  
DOCKED: ATOM     17  C   UNL     1     -47.129 -19.149  15.236 -0.03 +0.00    +0.285 C  
DOCKED: ENDBRANCH  14  15
DOCKED: ENDBRANCH  13  14
DOCKED: ENDBRANCH  12  13
DOCKED: ENDBRANCH   2  12
DOCKED: BRANCH   2  18
DOCKED: ATOM     18  C   UNL     1     -48.778 -23.632  15.820 -0.18 +0.00    +0.006 A  
DOCKED: ATOM     19  C   UNL     1     -50.162 -23.777  15.907 -0.16 +0.00    +0.001 A  
DOCKED: ATOM     20  C   UNL     1     -50.724 -24.460  16.987 -0.14 +0.00    +0.029 A  
DOCKED: ATOM     21  C   UNL     1     -49.902 -24.996  17.977 -0.03 +0.00    +0.140 A  
DOCKED: ATOM     22  C   UNL     1     -48.518 -24.850  17.890 -0.22 +0.00    +0.029 A  
DOCKED: ATOM     23  F   UNL     1     -50.442 -25.652  19.012 -0.03 -0.00    -0.204 F  
DOCKED: ATOM     24  C   UNL     1     -47.955 -24.167  16.810 -0.18 +0.00    +0.001 A  
DOCKED: ENDBRANCH   2  18
DOCKED: TORSDOF 5
DOCKED: TER
DOCKED: ENDMDL
________________________________________________________________________________


    FINAL DOCKED STATE:
    ________________________


Run:   180 / 512
Time taken for this run:   0.002s

DOCKED: MODEL        180
DOCKED: USER    Run = 180
DOCKED: USER
DOCKED: USER    Estimated Free Energy of Binding    =  -2.84 kcal/mol  [=(1)+(2)+(3)-(4)]
DOCKED: USER
DOCKED: USER    (1) Final Intermolecular Energy     =  -4.33 kcal/mol
DOCKED: USER        vdW + Hbond + desolv Energy     =  -4.33 kcal/mol
DOCKED: USER        Electrostatic Energy            =  +0.00 kcal/mol
DOCKED: USER        Moving Ligand-Fixed Receptor    =  -4.33 kcal/mol
DOCKED: USER        Moving Ligand-Moving Receptor   =  +0.00 kcal/mol
DOCKED: USER    (2) Final Total Internal Energy     =  -1.41 kcal/mol
DOCKED: USER    (3) Torsional Free Energy           =  +1.49 kcal/mol
DOCKED: USER    (4) Unbound System's Energy         =  -1.41 kcal/mol
DOCKED: USER
DOCKED: USER
DOCKED: REMARK  5 active torsions:
DOCKED: REMARK  status: ('A' for Active; 'I' for Inactive)
DOCKED: REMARK    1  A    between atoms: C_2  and  C_19 
DOCKED: REMARK    2  A    between atoms: C_2  and  C_11 
DOCKED: REMARK    3  A    between atoms: C_19  and  C_20 
DOCKED: REMARK    4  A    between atoms: C_20  and  C_21 
DOCKED: REMARK    5  A    between atoms: C_21  and  N_22 
DOCKED: USER                              x       y       z     vdW  Elec       q    Type
DOCKED: USER                           _______ _______ _______ _____ _____    ______ ____
DOCKED: ROOT
DOCKED: ATOM      1  O   UNL     1     -41.457 -14.345   4.365 +0.01 -0.00    -0.346 OA 
DOCKED: ATOM      2  C   UNL     1     -41.570 -14.986   3.054 -0.02 +0.00    +0.130 C  
DOCKED: ATOM      3  C   UNL     1     -42.848 -14.433   2.492 -0.09 +0.00    +0.004 A  
DOCKED: ATOM      4  C   UNL     1     -43.362 -13.477   3.356 -0.12 +0.00    +0.006 A  
DOCKED: ATOM      5  C   UNL     1     -42.469 -13.324   4.526 -0.06 +0.00    +0.169 C  
DOCKED: ATOM      6  C   UNL     1     -43.496 -14.743   1.306 -0.17 -0.00    -0.001 A  
DOCKED: ATOM      7  C   UNL     1     -44.538 -12.804   3.069 -0.25 +0.00    +0.008 A  
DOCKED: ATOM      8  C   UNL     1     -44.685 -14.076   1.004 -0.14 +0.00    +0.010 A  
DOCKED: ATOM      9  C   UNL     1     -45.203 -13.111   1.881 -0.27 +0.00    +0.068 A  
DOCKED: ATOM     10  N   UNL     1     -47.409 -11.889   1.288 -2.53 -0.00    -0.191 NA 
DOCKED: ATOM     11  C   UNL     1     -46.420 -12.438   1.554 -0.32 +0.00    +0.101 C  
DOCKED: ENDROOT
DOCKED: BRANCH   2  12
DOCKED: ATOM     12  C   UNL     1     -40.347 -14.612   2.227 -0.01 +0.00    +0.038 C  
DOCKED: BRANCH  12  13
DOCKED: ATOM     13  C   UNL     1     -39.780 -13.259   2.652 -0.01 +0.00    +0.038 C  
DOCKED: BRANCH  13  14
DOCKED: ATOM     14  C   UNL     1     -38.866 -13.403   3.867 +0.00 +0.00    +0.251 C  
DOCKED: BRANCH  14  15
DOCKED: ATOM     15  N   UNL     1     -38.369 -14.770   3.968 -0.00 +0.00    +0.141 N  
DOCKED: ATOM     16  C   UNL     1     -36.959 -14.836   3.581 +0.00 +0.00    +0.285 C  
DOCKED: ATOM     17  C   UNL     1     -38.546 -15.284   5.327 +0.00 +0.00    +0.285 C  
DOCKED: ENDBRANCH  14  15
DOCKED: ENDBRANCH  13  14
DOCKED: ENDBRANCH  12  13
DOCKED: ENDBRANCH   2  12
DOCKED: BRANCH   2  18
DOCKED: ATOM     18  C   UNL     1     -41.629 -16.458   3.292 -0.02 +0.00    +0.006 A  
DOCKED: ATOM     19  C   UNL     1     -42.746 -17.020   3.910 -0.08 +0.00    +0.001 A  
DOCKED: ATOM     20  C   UNL     1     -42.800 -18.397   4.132 -0.12 +0.00    +0.029 A  
DOCKED: ATOM     21  C   UNL     1     -41.738 -19.209   3.736 -0.06 +0.00    +0.140 A  
DOCKED: ATOM     22  C   UNL     1     -40.622 -18.646   3.118 -0.01 +0.00    +0.029 A  
DOCKED: ATOM     23  F   UNL     1     -41.791 -20.530   3.948 -0.05 -0.00    -0.204 F  
DOCKED: ATOM     24  C   UNL     1     -40.567 -17.269   2.896 -0.00 +0.00    +0.001 A  
DOCKED: ENDBRANCH   2  18
DOCKED: TORSDOF 5
DOCKED: TER
DOCKED: ENDMDL
________________________________________________________________________________


    FINAL DOCKED STATE:
    ________________________


Run:   181 / 512
Time taken for this run:   0.002s

DOCKED: MODEL        181
DOCKED: USER    Run = 181
DOCKED: USER
DOCKED: USER    Estimated Free Energy of Binding    =  -4.57 kcal/mol  [=(1)+(2)+(3)-(4)]
DOCKED: USER
DOCKED: USER    (1) Final Intermolecular Energy     =  -6.06 kcal/mol
DOCKED: USER        vdW + Hbond + desolv Energy     =  -6.06 kcal/mol
DOCKED: USER        Electrostatic Energy            =  +0.00 kcal/mol
DOCKED: USER        Moving Ligand-Fixed Receptor    =  -6.06 kcal/mol
DOCKED: USER        Moving Ligand-Moving Receptor   =  +0.00 kcal/mol
DOCKED: USER    (2) Final Total Internal Energy     =  -1.20 kcal/mol
DOCKED: USER    (3) Torsional Free Energy           =  +1.49 kcal/mol
DOCKED: USER    (4) Unbound System's Energy         =  -1.20 kcal/mol
DOCKED: USER
DOCKED: USER
DOCKED: REMARK  5 active torsions:
DOCKED: REMARK  status: ('A' for Active; 'I' for Inactive)
DOCKED: REMARK    1  A    between atoms: C_2  and  C_19 
DOCKED: REMARK    2  A    between atoms: C_2  and  C_11 
DOCKED: REMARK    3  A    between atoms: C_19  and  C_20 
DOCKED: REMARK    4  A    between atoms: C_20  and  C_21 
DOCKED: REMARK    5  A    between atoms: C_21  and  N_22 
DOCKED: USER                              x       y       z     vdW  Elec       q    Type
DOCKED: USER                           _______ _______ _______ _____ _____    ______ ____
DOCKED: ROOT
DOCKED: ATOM      1  O   UNL     1     -50.313 -21.709  15.655 -0.00 -0.00    -0.346 OA 
DOCKED: ATOM      2  C   UNL     1     -49.012 -22.348  15.447 -0.10 +0.00    +0.130 C  
DOCKED: ATOM      3  C   UNL     1     -49.122 -22.949  14.075 -0.23 +0.00    +0.004 A  
DOCKED: ATOM      4  C   UNL     1     -50.336 -22.591  13.505 -0.23 +0.00    +0.006 A  
DOCKED: ATOM      5  C   UNL     1     -51.096 -21.732  14.439 -0.12 +0.00    +0.169 C  
DOCKED: ATOM      6  C   UNL     1     -48.216 -23.739  13.383 -0.36 -0.00    -0.001 A  
DOCKED: ATOM      7  C   UNL     1     -50.686 -23.011  12.233 -0.24 +0.00    +0.008 A  
DOCKED: ATOM      8  C   UNL     1     -48.556 -24.174  12.102 -0.35 +0.00    +0.010 A  
DOCKED: ATOM      9  C   UNL     1     -49.785 -23.812  11.529 -0.39 +0.00    +0.068 A  
DOCKED: ATOM     10  N   UNL     1     -50.383 -24.633   9.146 -1.96 -0.00    -0.191 NA 
DOCKED: ATOM     11  C   UNL     1     -50.115 -24.265  10.215 -0.50 +0.00    +0.101 C  
DOCKED: ENDROOT
DOCKED: BRANCH   2  12
DOCKED: ATOM     12  C   UNL     1     -47.929 -21.280  15.542 -0.11 +0.00    +0.038 C  
DOCKED: BRANCH  12  13
DOCKED: ATOM     13  C   UNL     1     -48.054 -20.258  14.414 -0.17 +0.00    +0.038 C  
DOCKED: BRANCH  13  14
DOCKED: ATOM     14  C   UNL     1     -48.654 -18.949  14.923 -0.05 +0.00    +0.251 C  
DOCKED: BRANCH  14  15
DOCKED: ATOM     15  N   UNL     1     -49.207 -18.180  13.814 -0.12 +0.00    +0.141 N  
DOCKED: ATOM     16  C   UNL     1     -50.361 -18.867  13.234 -0.14 +0.00    +0.285 C  
DOCKED: ATOM     17  C   UNL     1     -49.585 -16.837  14.256 -0.05 +0.00    +0.285 C  
DOCKED: ENDBRANCH  14  15
DOCKED: ENDBRANCH  13  14
DOCKED: ENDBRANCH  12  13
DOCKED: ENDBRANCH   2  12
DOCKED: BRANCH   2  18
DOCKED: ATOM     18  C   UNL     1     -48.854 -23.373  16.520 -0.14 +0.00    +0.006 A  
DOCKED: ATOM     19  C   UNL     1     -49.974 -24.026  17.031 -0.15 +0.00    +0.001 A  
DOCKED: ATOM     20  C   UNL     1     -49.824 -24.985  18.034 -0.09 +0.00    +0.029 A  
DOCKED: ATOM     21  C   UNL     1     -48.555 -25.289  18.524 -0.17 +0.00    +0.140 A  
DOCKED: ATOM     22  C   UNL     1     -47.434 -24.635  18.012 -0.17 +0.00    +0.029 A  
DOCKED: ATOM     23  F   UNL     1     -48.411 -26.210  19.486 -0.07 -0.00    -0.204 F  
DOCKED: ATOM     24  C   UNL     1     -47.583 -23.676  17.009 -0.15 +0.00    +0.001 A  
DOCKED: ENDBRANCH   2  18
DOCKED: TORSDOF 5
DOCKED: TER
DOCKED: ENDMDL
________________________________________________________________________________


    FINAL DOCKED STATE:
    ________________________


Run:   182 / 512
Time taken for this run:   0.002s

DOCKED: MODEL        182
DOCKED: USER    Run = 182
DOCKED: USER
DOCKED: USER    Estimated Free Energy of Binding    =  -3.84 kcal/mol  [=(1)+(2)+(3)-(4)]
DOCKED: USER
DOCKED: USER    (1) Final Intermolecular Energy     =  -5.33 kcal/mol
DOCKED: USER        vdW + Hbond + desolv Energy     =  -5.33 kcal/mol
DOCKED: USER        Electrostatic Energy            =  +0.00 kcal/mol
DOCKED: USER        Moving Ligand-Fixed Receptor    =  -5.33 kcal/mol
DOCKED: USER        Moving Ligand-Moving Receptor   =  +0.00 kcal/mol
DOCKED: USER    (2) Final Total Internal Energy     =  -1.03 kcal/mol
DOCKED: USER    (3) Torsional Free Energy           =  +1.49 kcal/mol
DOCKED: USER    (4) Unbound System's Energy         =  -1.03 kcal/mol
DOCKED: USER
DOCKED: USER
DOCKED: REMARK  5 active torsions:
DOCKED: REMARK  status: ('A' for Active; 'I' for Inactive)
DOCKED: REMARK    1  A    between atoms: C_2  and  C_19 
DOCKED: REMARK    2  A    between atoms: C_2  and  C_11 
DOCKED: REMARK    3  A    between atoms: C_19  and  C_20 
DOCKED: REMARK    4  A    between atoms: C_20  and  C_21 
DOCKED: REMARK    5  A    between atoms: C_21  and  N_22 
DOCKED: USER                              x       y       z     vdW  Elec       q    Type
DOCKED: USER                           _______ _______ _______ _____ _____    ______ ____
DOCKED: ROOT
DOCKED: ATOM      1  O   UNL     1     -47.692 -20.429  16.231 -0.01 -0.00    -0.346 OA 
DOCKED: ATOM      2  C   UNL     1     -48.444 -19.830  15.128 -0.07 +0.00    +0.130 C  
DOCKED: ATOM      3  C   UNL     1     -48.877 -21.009  14.306 -0.18 +0.00    +0.004 A  
DOCKED: ATOM      4  C   UNL     1     -48.501 -22.184  14.940 -0.15 +0.00    +0.006 A  
DOCKED: ATOM      5  C   UNL     1     -47.815 -21.870  16.214 -0.07 +0.00    +0.169 C  
DOCKED: ATOM      6  C   UNL     1     -49.559 -21.039  13.098 -0.23 -0.00    -0.001 A  
DOCKED: ATOM      7  C   UNL     1     -48.787 -23.423  14.392 -0.24 +0.00    +0.008 A  
DOCKED: ATOM      8  C   UNL     1     -49.851 -22.280  12.530 -0.25 +0.00    +0.010 A  
DOCKED: ATOM      9  C   UNL     1     -49.467 -23.466  13.175 -0.27 +0.00    +0.068 A  
DOCKED: ATOM     10  N   UNL     1     -50.030 -25.753  12.096 -2.61 -0.00    -0.191 NA 
DOCKED: ATOM     11  C   UNL     1     -49.777 -24.728  12.579 -0.28 +0.00    +0.101 C  
DOCKED: ENDROOT
DOCKED: BRANCH   2  12
DOCKED: ATOM     12  C   UNL     1     -49.617 -19.050  15.711 -0.05 +0.00    +0.038 C  
DOCKED: BRANCH  12  13
DOCKED: ATOM     13  C   UNL     1     -50.522 -18.500  14.611 -0.13 +0.00    +0.038 C  
DOCKED: BRANCH  13  14
DOCKED: ATOM     14  C   UNL     1     -50.286 -17.006  14.401 -0.06 +0.00    +0.251 C  
DOCKED: BRANCH  14  15
DOCKED: ATOM     15  N   UNL     1     -51.297 -16.453  13.507 -0.10 +0.00    +0.141 N  
DOCKED: ATOM     16  C   UNL     1     -50.679 -15.952  12.278 -0.10 +0.00    +0.285 C  
DOCKED: ATOM     17  C   UNL     1     -52.311 -17.460  13.190 -0.12 +0.00    +0.285 C  
DOCKED: ENDBRANCH  14  15
DOCKED: ENDBRANCH  13  14
DOCKED: ENDBRANCH  12  13
DOCKED: ENDBRANCH   2  12
DOCKED: BRANCH   2  18
DOCKED: ATOM     18  C   UNL     1     -47.506 -18.926  14.400 -0.10 +0.00    +0.006 A  
DOCKED: ATOM     19  C   UNL     1     -47.548 -18.853  13.008 -0.12 +0.00    +0.001 A  
DOCKED: ATOM     20  C   UNL     1     -46.670 -18.008  12.329 -0.08 +0.00    +0.029 A  
DOCKED: ATOM     21  C   UNL     1     -45.753 -17.236  13.042 -0.05 +0.00    +0.140 A  
DOCKED: ATOM     22  C   UNL     1     -45.712 -17.309  14.434 -0.03 +0.00    +0.029 A  
DOCKED: ATOM     23  F   UNL     1     -44.911 -16.424  12.389 -0.00 -0.00    -0.204 F  
DOCKED: ATOM     24  C   UNL     1     -46.589 -18.155  15.114 -0.04 +0.00    +0.001 A  
DOCKED: ENDBRANCH   2  18
DOCKED: TORSDOF 5
DOCKED: TER
DOCKED: ENDMDL
________________________________________________________________________________


    FINAL DOCKED STATE:
    ________________________


Run:   183 / 512
Time taken for this run:   0.002s

DOCKED: MODEL        183
DOCKED: USER    Run = 183
DOCKED: USER
DOCKED: USER    Estimated Free Energy of Binding    =  -4.52 kcal/mol  [=(1)+(2)+(3)-(4)]
DOCKED: USER
DOCKED: USER    (1) Final Intermolecular Energy     =  -6.01 kcal/mol
DOCKED: USER        vdW + Hbond + desolv Energy     =  -6.01 kcal/mol
DOCKED: USER        Electrostatic Energy            =  +0.00 kcal/mol
DOCKED: USER        Moving Ligand-Fixed Receptor    =  -6.01 kcal/mol
DOCKED: USER        Moving Ligand-Moving Receptor   =  +0.00 kcal/mol
DOCKED: USER    (2) Final Total Internal Energy     =  -1.10 kcal/mol
DOCKED: USER    (3) Torsional Free Energy           =  +1.49 kcal/mol
DOCKED: USER    (4) Unbound System's Energy         =  -1.10 kcal/mol
DOCKED: USER
DOCKED: USER
DOCKED: REMARK  5 active torsions:
DOCKED: REMARK  status: ('A' for Active; 'I' for Inactive)
DOCKED: REMARK    1  A    between atoms: C_2  and  C_19 
DOCKED: REMARK    2  A    between atoms: C_2  and  C_11 
DOCKED: REMARK    3  A    between atoms: C_19  and  C_20 
DOCKED: REMARK    4  A    between atoms: C_20  and  C_21 
DOCKED: REMARK    5  A    between atoms: C_21  and  N_22 
DOCKED: USER                              x       y       z     vdW  Elec       q    Type
DOCKED: USER                           _______ _______ _______ _____ _____    ______ ____
DOCKED: ROOT
DOCKED: ATOM      1  O   UNL     1     -49.071 -21.183  15.035 -0.02 -0.00    -0.346 OA 
DOCKED: ATOM      2  C   UNL     1     -48.119 -22.292  14.964 -0.16 +0.00    +0.130 C  
DOCKED: ATOM      3  C   UNL     1     -48.501 -23.015  13.705 -0.30 +0.00    +0.004 A  
DOCKED: ATOM      4  C   UNL     1     -49.510 -22.318  13.055 -0.30 +0.00    +0.006 A  
DOCKED: ATOM      5  C   UNL     1     -49.851 -21.098  13.820 -0.19 +0.00    +0.169 C  
DOCKED: ATOM      6  C   UNL     1     -47.989 -24.189  13.172 -0.38 -0.00    -0.001 A  
DOCKED: ATOM      7  C   UNL     1     -50.042 -22.769  11.859 -0.19 +0.00    +0.008 A  
DOCKED: ATOM      8  C   UNL     1     -48.519 -24.659  11.969 -0.33 +0.00    +0.010 A  
DOCKED: ATOM      9  C   UNL     1     -49.539 -23.953  11.316 -0.42 +0.00    +0.068 A  
DOCKED: ATOM     10  N   UNL     1     -50.496 -24.851   9.081 -1.82 -0.00    -0.191 NA 
DOCKED: ATOM     11  C   UNL     1     -50.067 -24.448  10.084 -0.51 +0.00    +0.101 C  
DOCKED: ENDROOT
DOCKED: BRANCH   2  12
DOCKED: ATOM     12  C   UNL     1     -46.709 -21.716  14.913 -0.19 +0.00    +0.038 C  
DOCKED: BRANCH  12  13
DOCKED: ATOM     13  C   UNL     1     -45.654 -22.805  15.103 -0.21 +0.00    +0.038 C  
DOCKED: BRANCH  13  14
DOCKED: ATOM     14  C   UNL     1     -45.102 -22.791  16.527 -0.07 +0.00    +0.251 C  
DOCKED: BRANCH  14  15
DOCKED: ATOM     15  N   UNL     1     -45.068 -21.428  17.045 -0.04 +0.00    +0.141 N  
DOCKED: ATOM     16  C   UNL     1     -44.973 -21.434  18.506 -0.01 +0.00    +0.285 C  
DOCKED: ATOM     17  C   UNL     1     -43.947 -20.685  16.467 -0.03 +0.00    +0.285 C  
DOCKED: ENDBRANCH  14  15
DOCKED: ENDBRANCH  13  14
DOCKED: ENDBRANCH  12  13
DOCKED: ENDBRANCH   2  12
DOCKED: BRANCH   2  18
DOCKED: ATOM     18  C   UNL     1     -48.318 -23.117  16.192 -0.14 +0.00    +0.006 A  
DOCKED: ATOM     19  C   UNL     1     -48.334 -24.509  16.101 -0.24 +0.00    +0.001 A  
DOCKED: ATOM     20  C   UNL     1     -48.521 -25.279  17.249 -0.15 +0.00    +0.029 A  
DOCKED: ATOM     21  C   UNL     1     -48.692 -24.657  18.486 -0.14 +0.00    +0.140 A  
DOCKED: ATOM     22  C   UNL     1     -48.675 -23.266  18.576 -0.07 +0.00    +0.029 A  
DOCKED: ATOM     23  F   UNL     1     -48.869 -25.397  19.588 -0.04 -0.00    -0.204 F  
DOCKED: ATOM     24  C   UNL     1     -48.489 -22.494  17.427 -0.07 +0.00    +0.001 A  
DOCKED: ENDBRANCH   2  18
DOCKED: TORSDOF 5
DOCKED: TER
DOCKED: ENDMDL
________________________________________________________________________________


    FINAL DOCKED STATE:
    ________________________


Run:   184 / 512
Time taken for this run:   0.002s

DOCKED: MODEL        184
DOCKED: USER    Run = 184
DOCKED: USER
DOCKED: USER    Estimated Free Energy of Binding    =  -4.08 kcal/mol  [=(1)+(2)+(3)-(4)]
DOCKED: USER
DOCKED: USER    (1) Final Intermolecular Energy     =  -5.57 kcal/mol
DOCKED: USER        vdW + Hbond + desolv Energy     =  -5.57 kcal/mol
DOCKED: USER        Electrostatic Energy            =  +0.00 kcal/mol
DOCKED: USER        Moving Ligand-Fixed Receptor    =  -5.57 kcal/mol
DOCKED: USER        Moving Ligand-Moving Receptor   =  +0.00 kcal/mol
DOCKED: USER    (2) Final Total Internal Energy     =  -1.27 kcal/mol
DOCKED: USER    (3) Torsional Free Energy           =  +1.49 kcal/mol
DOCKED: USER    (4) Unbound System's Energy         =  -1.27 kcal/mol
DOCKED: USER
DOCKED: USER
DOCKED: REMARK  5 active torsions:
DOCKED: REMARK  status: ('A' for Active; 'I' for Inactive)
DOCKED: REMARK    1  A    between atoms: C_2  and  C_19 
DOCKED: REMARK    2  A    between atoms: C_2  and  C_11 
DOCKED: REMARK    3  A    between atoms: C_19  and  C_20 
DOCKED: REMARK    4  A    between atoms: C_20  and  C_21 
DOCKED: REMARK    5  A    between atoms: C_21  and  N_22 
DOCKED: USER                              x       y       z     vdW  Elec       q    Type
DOCKED: USER                           _______ _______ _______ _____ _____    ______ ____
DOCKED: ROOT
DOCKED: ATOM      1  O   UNL     1     -50.073 -18.670  14.353 -0.05 -0.00    -0.346 OA 
DOCKED: ATOM      2  C   UNL     1     -48.711 -19.091  14.022 -0.15 +0.00    +0.130 C  
DOCKED: ATOM      3  C   UNL     1     -48.871 -20.520  13.590 -0.23 +0.00    +0.004 A  
DOCKED: ATOM      4  C   UNL     1     -50.218 -20.853  13.569 -0.23 +0.00    +0.006 A  
DOCKED: ATOM      5  C   UNL     1     -51.032 -19.682  13.967 -0.19 +0.00    +0.169 C  
DOCKED: ATOM      6  C   UNL     1     -47.903 -21.448  13.234 -0.23 -0.00    -0.001 A  
DOCKED: ATOM      7  C   UNL     1     -50.642 -22.118  13.198 -0.23 +0.00    +0.008 A  
DOCKED: ATOM      8  C   UNL     1     -48.315 -22.729  12.861 -0.30 +0.00    +0.010 A  
DOCKED: ATOM      9  C   UNL     1     -49.677 -23.061  12.843 -0.28 +0.00    +0.068 A  
DOCKED: ATOM     10  N   UNL     1     -50.407 -25.446  12.141 -2.55 -0.00    -0.191 NA 
DOCKED: ATOM     11  C   UNL     1     -50.080 -24.377  12.456 -0.37 +0.00    +0.101 C  
DOCKED: ENDROOT
DOCKED: BRANCH   2  12
DOCKED: ATOM     12  C   UNL     1     -48.183 -18.191  12.911 -0.08 +0.00    +0.038 C  
DOCKED: BRANCH  12  13
DOCKED: ATOM     13  C   UNL     1     -47.842 -16.799  13.437 -0.09 +0.00    +0.038 C  
DOCKED: BRANCH  13  14
DOCKED: ATOM     14  C   UNL     1     -48.860 -15.766  12.957 -0.06 +0.00    +0.251 C  
DOCKED: BRANCH  14  15
DOCKED: ATOM     15  N   UNL     1     -49.775 -16.365  11.993 -0.15 +0.00    +0.141 N  
DOCKED: ATOM     16  C   UNL     1     -51.135 -16.411  12.532 -0.11 +0.00    +0.285 C  
DOCKED: ATOM     17  C   UNL     1     -49.754 -15.623  10.731 -0.11 +0.00    +0.285 C  
DOCKED: ENDBRANCH  14  15
DOCKED: ENDBRANCH  13  14
DOCKED: ENDBRANCH  12  13
DOCKED: ENDBRANCH   2  12
DOCKED: BRANCH   2  18
DOCKED: ATOM     18  C   UNL     1     -47.896 -18.947  15.264 -0.06 +0.00    +0.006 A  
DOCKED: ATOM     19  C   UNL     1     -48.527 -18.752  16.492 -0.02 +0.00    +0.001 A  
DOCKED: ATOM     20  C   UNL     1     -47.764 -18.617  17.653 -0.00 +0.00    +0.029 A  
DOCKED: ATOM     21  C   UNL     1     -46.373 -18.677  17.583 -0.00 +0.00    +0.140 A  
DOCKED: ATOM     22  C   UNL     1     -45.743 -18.873  16.355 -0.02 +0.00    +0.029 A  
DOCKED: ATOM     23  F   UNL     1     -45.641 -18.550  18.698 +0.00 -0.00    -0.204 F  
DOCKED: ATOM     24  C   UNL     1     -46.505 -19.008  15.193 -0.06 +0.00    +0.001 A  
DOCKED: ENDBRANCH   2  18
DOCKED: TORSDOF 5
DOCKED: TER
DOCKED: ENDMDL
________________________________________________________________________________


    FINAL DOCKED STATE:
    ________________________


Run:   185 / 512
Time taken for this run:   0.002s

DOCKED: MODEL        185
DOCKED: USER    Run = 185
DOCKED: USER
DOCKED: USER    Estimated Free Energy of Binding    =  -5.72 kcal/mol  [=(1)+(2)+(3)-(4)]
DOCKED: USER
DOCKED: USER    (1) Final Intermolecular Energy     =  -7.21 kcal/mol
DOCKED: USER        vdW + Hbond + desolv Energy     =  -7.21 kcal/mol
DOCKED: USER        Electrostatic Energy            =  +0.00 kcal/mol
DOCKED: USER        Moving Ligand-Fixed Receptor    =  -7.21 kcal/mol
DOCKED: USER        Moving Ligand-Moving Receptor   =  +0.00 kcal/mol
DOCKED: USER    (2) Final Total Internal Energy     =  -1.20 kcal/mol
DOCKED: USER    (3) Torsional Free Energy           =  +1.49 kcal/mol
DOCKED: USER    (4) Unbound System's Energy         =  -1.20 kcal/mol
DOCKED: USER
DOCKED: USER
DOCKED: REMARK  5 active torsions:
DOCKED: REMARK  status: ('A' for Active; 'I' for Inactive)
DOCKED: REMARK    1  A    between atoms: C_2  and  C_19 
DOCKED: REMARK    2  A    between atoms: C_2  and  C_11 
DOCKED: REMARK    3  A    between atoms: C_19  and  C_20 
DOCKED: REMARK    4  A    between atoms: C_20  and  C_21 
DOCKED: REMARK    5  A    between atoms: C_21  and  N_22 
DOCKED: USER                              x       y       z     vdW  Elec       q    Type
DOCKED: USER                           _______ _______ _______ _____ _____    ______ ____
DOCKED: ROOT
DOCKED: ATOM      1  O   UNL     1     -48.346 -21.564  14.709 -0.04 -0.00    -0.346 OA 
DOCKED: ATOM      2  C   UNL     1     -47.875 -22.948  14.643 -0.22 +0.00    +0.130 C  
DOCKED: ATOM      3  C   UNL     1     -48.397 -23.443  13.326 -0.34 +0.00    +0.004 A  
DOCKED: ATOM      4  C   UNL     1     -49.017 -22.403  12.648 -0.34 +0.00    +0.006 A  
DOCKED: ATOM      5  C   UNL     1     -48.938 -21.162  13.452 -0.23 +0.00    +0.169 C  
DOCKED: ATOM      6  C   UNL     1     -48.320 -24.711  12.767 -0.40 -0.00    -0.001 A  
DOCKED: ATOM      7  C   UNL     1     -49.582 -22.592  11.399 -0.02 +0.00    +0.008 A  
DOCKED: ATOM      8  C   UNL     1     -48.888 -24.919  11.509 -0.42 +0.00    +0.010 A  
DOCKED: ATOM      9  C   UNL     1     -49.515 -23.864  10.828 -0.42 +0.00    +0.068 A  
DOCKED: ATOM     10  N   UNL     1     -50.556 -24.283   8.493 -2.81 -0.00    -0.191 NA 
DOCKED: ATOM     11  C   UNL     1     -50.090 -24.096   9.541 -0.43 +0.00    +0.101 C  
DOCKED: ENDROOT
DOCKED: BRANCH   2  12
DOCKED: ATOM     12  C   UNL     1     -46.352 -22.943  14.714 -0.22 +0.00    +0.038 C  
DOCKED: BRANCH  12  13
DOCKED: ATOM     13  C   UNL     1     -45.809 -21.533  14.941 -0.16 +0.00    +0.038 C  
DOCKED: BRANCH  13  14
DOCKED: ATOM     14  C   UNL     1     -45.812 -21.176  16.426 -0.05 +0.00    +0.251 C  
DOCKED: BRANCH  14  15
DOCKED: ATOM     15  N   UNL     1     -44.519 -21.486  17.024 -0.04 +0.00    +0.141 N  
DOCKED: ATOM     16  C   UNL     1     -44.648 -22.572  17.997 -0.05 +0.00    +0.285 C  
DOCKED: ATOM     17  C   UNL     1     -43.545 -21.842  15.992 -0.07 +0.00    +0.285 C  
DOCKED: ENDBRANCH  14  15
DOCKED: ENDBRANCH  13  14
DOCKED: ENDBRANCH  12  13
DOCKED: ENDBRANCH   2  12
DOCKED: BRANCH   2  18
DOCKED: ATOM     18  C   UNL     1     -48.466 -23.666  15.811 -0.19 +0.00    +0.006 A  
DOCKED: ATOM     19  C   UNL     1     -49.815 -24.017  15.802 -0.19 +0.00    +0.001 A  
DOCKED: ATOM     20  C   UNL     1     -50.366 -24.688  16.894 -0.13 +0.00    +0.029 A  
DOCKED: ATOM     21  C   UNL     1     -49.568 -25.007  17.992 -0.06 +0.00    +0.140 A  
DOCKED: ATOM     22  C   UNL     1     -48.219 -24.655  18.000 -0.21 +0.00    +0.029 A  
DOCKED: ATOM     23  F   UNL     1     -50.097 -25.653  19.039 -0.03 -0.00    -0.204 F  
DOCKED: ATOM     24  C   UNL     1     -47.666 -23.983  16.908 -0.14 +0.00    +0.001 A  
DOCKED: ENDBRANCH   2  18
DOCKED: TORSDOF 5
DOCKED: TER
DOCKED: ENDMDL
________________________________________________________________________________


    FINAL DOCKED STATE:
    ________________________


Run:   186 / 512
Time taken for this run:   0.002s

DOCKED: MODEL        186
DOCKED: USER    Run = 186
DOCKED: USER
DOCKED: USER    Estimated Free Energy of Binding    =  -5.28 kcal/mol  [=(1)+(2)+(3)-(4)]
DOCKED: USER
DOCKED: USER    (1) Final Intermolecular Energy     =  -6.77 kcal/mol
DOCKED: USER        vdW + Hbond + desolv Energy     =  -6.77 kcal/mol
DOCKED: USER        Electrostatic Energy            =  +0.00 kcal/mol
DOCKED: USER        Moving Ligand-Fixed Receptor    =  -6.77 kcal/mol
DOCKED: USER        Moving Ligand-Moving Receptor   =  +0.00 kcal/mol
DOCKED: USER    (2) Final Total Internal Energy     =  -1.06 kcal/mol
DOCKED: USER    (3) Torsional Free Energy           =  +1.49 kcal/mol
DOCKED: USER    (4) Unbound System's Energy         =  -1.06 kcal/mol
DOCKED: USER
DOCKED: USER
DOCKED: REMARK  5 active torsions:
DOCKED: REMARK  status: ('A' for Active; 'I' for Inactive)
DOCKED: REMARK    1  A    between atoms: C_2  and  C_19 
DOCKED: REMARK    2  A    between atoms: C_2  and  C_11 
DOCKED: REMARK    3  A    between atoms: C_19  and  C_20 
DOCKED: REMARK    4  A    between atoms: C_20  and  C_21 
DOCKED: REMARK    5  A    between atoms: C_21  and  N_22 
DOCKED: USER                              x       y       z     vdW  Elec       q    Type
DOCKED: USER                           _______ _______ _______ _____ _____    ______ ____
DOCKED: ROOT
DOCKED: ATOM      1  O   UNL     1     -48.692 -21.460  15.041 -0.02 -0.00    -0.346 OA 
DOCKED: ATOM      2  C   UNL     1     -48.014 -22.756  15.001 -0.18 +0.00    +0.130 C  
DOCKED: ATOM      3  C   UNL     1     -48.435 -23.342  13.684 -0.32 +0.00    +0.004 A  
DOCKED: ATOM      4  C   UNL     1     -49.196 -22.417  12.984 -0.32 +0.00    +0.006 A  
DOCKED: ATOM      5  C   UNL     1     -49.319 -21.169  13.770 -0.20 +0.00    +0.169 C  
DOCKED: ATOM      6  C   UNL     1     -48.156 -24.589  13.145 -0.43 -0.00    -0.001 A  
DOCKED: ATOM      7  C   UNL     1     -49.706 -22.706  11.729 -0.24 +0.00    +0.008 A  
DOCKED: ATOM      8  C   UNL     1     -48.667 -24.897  11.883 -0.38 +0.00    +0.010 A  
DOCKED: ATOM      9  C   UNL     1     -49.437 -23.960  11.179 -0.42 +0.00    +0.068 A  
DOCKED: ATOM     10  N   UNL     1     -50.365 -24.562   8.836 -2.23 -0.00    -0.191 NA 
DOCKED: ATOM     11  C   UNL     1     -49.950 -24.292   9.887 -0.51 +0.00    +0.101 C  
DOCKED: ENDROOT
DOCKED: BRANCH   2  12
DOCKED: ATOM     12  C   UNL     1     -46.512 -22.518  15.092 -0.23 +0.00    +0.038 C  
DOCKED: BRANCH  12  13
DOCKED: ATOM     13  C   UNL     1     -46.199 -21.191  15.781 -0.12 +0.00    +0.038 C  
DOCKED: BRANCH  13  14
DOCKED: ATOM     14  C   UNL     1     -44.724 -20.825  15.624 -0.07 +0.00    +0.251 C  
DOCKED: BRANCH  14  15
DOCKED: ATOM     15  N   UNL     1     -44.221 -21.285  14.336 -0.05 +0.00    +0.141 N  
DOCKED: ATOM     16  C   UNL     1     -43.734 -20.158  13.539 -0.03 +0.00    +0.285 C  
DOCKED: ATOM     17  C   UNL     1     -43.157 -22.273  14.521 -0.07 +0.00    +0.285 C  
DOCKED: ENDBRANCH  14  15
DOCKED: ENDBRANCH  13  14
DOCKED: ENDBRANCH  12  13
DOCKED: ENDBRANCH   2  12
DOCKED: BRANCH   2  18
DOCKED: ATOM     18  C   UNL     1     -48.506 -23.542  16.171 -0.17 +0.00    +0.006 A  
DOCKED: ATOM     19  C   UNL     1     -47.631 -23.878  17.202 -0.16 +0.00    +0.001 A  
DOCKED: ATOM     20  C   UNL     1     -48.092 -24.613  18.295 -0.20 +0.00    +0.029 A  
DOCKED: ATOM     21  C   UNL     1     -49.427 -25.009  18.355 -0.11 +0.00    +0.140 A  
DOCKED: ATOM     22  C   UNL     1     -50.303 -24.672  17.323 -0.13 +0.00    +0.029 A  
DOCKED: ATOM     23  F   UNL     1     -49.870 -25.713  19.405 -0.04 -0.00    -0.204 F  
DOCKED: ATOM     24  C   UNL     1     -49.842 -23.937  16.230 -0.17 +0.00    +0.001 A  
DOCKED: ENDBRANCH   2  18
DOCKED: TORSDOF 5
DOCKED: TER
DOCKED: ENDMDL
________________________________________________________________________________


    FINAL DOCKED STATE:
    ________________________


Run:   187 / 512
Time taken for this run:   0.002s

DOCKED: MODEL        187
DOCKED: USER    Run = 187
DOCKED: USER
DOCKED: USER    Estimated Free Energy of Binding    =  -3.93 kcal/mol  [=(1)+(2)+(3)-(4)]
DOCKED: USER
DOCKED: USER    (1) Final Intermolecular Energy     =  -5.42 kcal/mol
DOCKED: USER        vdW + Hbond + desolv Energy     =  -5.42 kcal/mol
DOCKED: USER        Electrostatic Energy            =  +0.00 kcal/mol
DOCKED: USER        Moving Ligand-Fixed Receptor    =  -5.42 kcal/mol
DOCKED: USER        Moving Ligand-Moving Receptor   =  +0.00 kcal/mol
DOCKED: USER    (2) Final Total Internal Energy     =  -1.37 kcal/mol
DOCKED: USER    (3) Torsional Free Energy           =  +1.49 kcal/mol
DOCKED: USER    (4) Unbound System's Energy         =  -1.37 kcal/mol
DOCKED: USER
DOCKED: USER
DOCKED: REMARK  5 active torsions:
DOCKED: REMARK  status: ('A' for Active; 'I' for Inactive)
DOCKED: REMARK    1  A    between atoms: C_2  and  C_19 
DOCKED: REMARK    2  A    between atoms: C_2  and  C_11 
DOCKED: REMARK    3  A    between atoms: C_19  and  C_20 
DOCKED: REMARK    4  A    between atoms: C_20  and  C_21 
DOCKED: REMARK    5  A    between atoms: C_21  and  N_22 
DOCKED: USER                              x       y       z     vdW  Elec       q    Type
DOCKED: USER                           _______ _______ _______ _____ _____    ______ ____
DOCKED: ROOT
DOCKED: ATOM      1  O   UNL     1     -48.102 -19.102  13.650 -0.07 -0.00    -0.346 OA 
DOCKED: ATOM      2  C   UNL     1     -49.160 -19.470  14.592 -0.11 +0.00    +0.130 C  
DOCKED: ATOM      3  C   UNL     1     -49.540 -20.863  14.179 -0.19 +0.00    +0.004 A  
DOCKED: ATOM      4  C   UNL     1     -48.699 -21.295  13.164 -0.28 +0.00    +0.006 A  
DOCKED: ATOM      5  C   UNL     1     -47.710 -20.240  12.847 -0.11 +0.00    +0.169 C  
DOCKED: ATOM      6  C   UNL     1     -50.543 -21.686  14.672 -0.14 -0.00    -0.001 A  
DOCKED: ATOM      7  C   UNL     1     -48.832 -22.555  12.605 -0.34 +0.00    +0.008 A  
DOCKED: ATOM      8  C   UNL     1     -50.692 -22.957  14.116 -0.18 +0.00    +0.010 A  
DOCKED: ATOM      9  C   UNL     1     -49.841 -23.390  13.088 -0.26 +0.00    +0.068 A  
DOCKED: ATOM     10  N   UNL     1     -50.143 -25.758  12.082 -2.59 -0.00    -0.191 NA 
DOCKED: ATOM     11  C   UNL     1     -50.008 -24.696  12.533 -0.33 +0.00    +0.101 C  
DOCKED: ENDROOT
DOCKED: BRANCH   2  12
DOCKED: ATOM     12  C   UNL     1     -48.593 -19.403  16.005 -0.04 +0.00    +0.038 C  
DOCKED: BRANCH  12  13
DOCKED: ATOM     13  C   UNL     1     -47.067 -19.456  15.995 -0.04 +0.00    +0.038 C  
DOCKED: BRANCH  13  14
DOCKED: ATOM     14  C   UNL     1     -46.472 -18.318  16.823 -0.00 +0.00    +0.251 C  
DOCKED: BRANCH  14  15
DOCKED: ATOM     15  N   UNL     1     -46.034 -17.233  15.953 -0.01 +0.00    +0.141 N  
DOCKED: ATOM     16  C   UNL     1     -45.592 -17.756  14.659 -0.02 +0.00    +0.285 C  
DOCKED: ATOM     17  C   UNL     1     -47.107 -16.256  15.766 -0.00 +0.00    +0.285 C  
DOCKED: ENDBRANCH  14  15
DOCKED: ENDBRANCH  13  14
DOCKED: ENDBRANCH  12  13
DOCKED: ENDBRANCH   2  12
DOCKED: BRANCH   2  18
DOCKED: ATOM     18  C   UNL     1     -50.268 -18.487  14.409 -0.13 +0.00    +0.006 A  
DOCKED: ATOM     19  C   UNL     1     -50.387 -17.403  15.277 -0.05 +0.00    +0.001 A  
DOCKED: ATOM     20  C   UNL     1     -51.423 -16.484  15.106 -0.04 +0.00    +0.029 A  
DOCKED: ATOM     21  C   UNL     1     -52.338 -16.651  14.067 -0.07 +0.00    +0.140 A  
DOCKED: ATOM     22  C   UNL     1     -52.218 -17.736  13.199 -0.19 +0.00    +0.029 A  
DOCKED: ATOM     23  F   UNL     1     -53.332 -15.768  13.901 +0.01 -0.00    -0.204 F  
DOCKED: ATOM     24  C   UNL     1     -51.182 -18.655  13.370 -0.23 +0.00    +0.001 A  
DOCKED: ENDBRANCH   2  18
DOCKED: TORSDOF 5
DOCKED: TER
DOCKED: ENDMDL
________________________________________________________________________________


    FINAL DOCKED STATE:
    ________________________


Run:   188 / 512
Time taken for this run:   0.002s

DOCKED: MODEL        188
DOCKED: USER    Run = 188
DOCKED: USER
DOCKED: USER    Estimated Free Energy of Binding    =  -4.39 kcal/mol  [=(1)+(2)+(3)-(4)]
DOCKED: USER
DOCKED: USER    (1) Final Intermolecular Energy     =  -5.88 kcal/mol
DOCKED: USER        vdW + Hbond + desolv Energy     =  -5.88 kcal/mol
DOCKED: USER        Electrostatic Energy            =  +0.00 kcal/mol
DOCKED: USER        Moving Ligand-Fixed Receptor    =  -5.88 kcal/mol
DOCKED: USER        Moving Ligand-Moving Receptor   =  +0.00 kcal/mol
DOCKED: USER    (2) Final Total Internal Energy     =  -1.37 kcal/mol
DOCKED: USER    (3) Torsional Free Energy           =  +1.49 kcal/mol
DOCKED: USER    (4) Unbound System's Energy         =  -1.37 kcal/mol
DOCKED: USER
DOCKED: USER
DOCKED: REMARK  5 active torsions:
DOCKED: REMARK  status: ('A' for Active; 'I' for Inactive)
DOCKED: REMARK    1  A    between atoms: C_2  and  C_19 
DOCKED: REMARK    2  A    between atoms: C_2  and  C_11 
DOCKED: REMARK    3  A    between atoms: C_19  and  C_20 
DOCKED: REMARK    4  A    between atoms: C_20  and  C_21 
DOCKED: REMARK    5  A    between atoms: C_21  and  N_22 
DOCKED: USER                              x       y       z     vdW  Elec       q    Type
DOCKED: USER                           _______ _______ _______ _____ _____    ______ ____
DOCKED: ROOT
DOCKED: ATOM      1  O   UNL     1     -45.520 -21.691  15.269 -0.09 -0.00    -0.346 OA 
DOCKED: ATOM      2  C   UNL     1     -46.552 -20.795  14.745 -0.14 +0.00    +0.130 C  
DOCKED: ATOM      3  C   UNL     1     -47.515 -21.719  14.058 -0.22 +0.00    +0.004 A  
DOCKED: ATOM      4  C   UNL     1     -47.128 -23.035  14.266 -0.24 +0.00    +0.006 A  
DOCKED: ATOM      5  C   UNL     1     -45.908 -23.074  15.103 -0.13 +0.00    +0.169 C  
DOCKED: ATOM      6  C   UNL     1     -48.649 -21.419  13.318 -0.28 -0.00    -0.001 A  
DOCKED: ATOM      7  C   UNL     1     -47.854 -24.091  13.741 -0.37 +0.00    +0.008 A  
DOCKED: ATOM      8  C   UNL     1     -49.389 -22.473  12.779 -0.33 +0.00    +0.010 A  
DOCKED: ATOM      9  C   UNL     1     -48.994 -23.802  12.990 -0.32 +0.00    +0.068 A  
DOCKED: ATOM     10  N   UNL     1     -50.393 -25.734  11.979 -2.49 -0.00    -0.191 NA 
DOCKED: ATOM     11  C   UNL     1     -49.765 -24.867  12.432 -0.28 +0.00    +0.101 C  
DOCKED: ENDROOT
DOCKED: BRANCH   2  12
DOCKED: ATOM     12  C   UNL     1     -47.180 -20.045  15.914 -0.06 +0.00    +0.038 C  
DOCKED: BRANCH  12  13
DOCKED: ATOM     13  C   UNL     1     -47.462 -20.980  17.088 -0.04 +0.00    +0.038 C  
DOCKED: BRANCH  13  14
DOCKED: ATOM     14  C   UNL     1     -48.909 -21.468  17.066 -0.02 +0.00    +0.251 C  
DOCKED: BRANCH  14  15
DOCKED: ATOM     15  N   UNL     1     -49.004 -22.803  17.646 -0.04 +0.00    +0.141 N  
DOCKED: ATOM     16  C   UNL     1     -49.514 -23.758  16.661 -0.08 +0.00    +0.285 C  
DOCKED: ATOM     17  C   UNL     1     -47.700 -23.240  18.148 -0.06 +0.00    +0.285 C  
DOCKED: ENDBRANCH  14  15
DOCKED: ENDBRANCH  13  14
DOCKED: ENDBRANCH  12  13
DOCKED: ENDBRANCH   2  12
DOCKED: BRANCH   2  18
DOCKED: ATOM     18  C   UNL     1     -45.876 -19.855  13.803 -0.13 +0.00    +0.006 A  
DOCKED: ATOM     19  C   UNL     1     -44.485 -19.750  13.803 -0.11 +0.00    +0.001 A  
DOCKED: ATOM     20  C   UNL     1     -43.855 -18.870  12.922 -0.09 +0.00    +0.029 A  
DOCKED: ATOM     21  C   UNL     1     -44.614 -18.098  12.044 -0.08 +0.00    +0.140 A  
DOCKED: ATOM     22  C   UNL     1     -46.004 -18.204  12.045 -0.12 +0.00    +0.029 A  
DOCKED: ATOM     23  F   UNL     1     -44.008 -17.255  11.197 -0.00 -0.00    -0.204 F  
DOCKED: ATOM     24  C   UNL     1     -46.637 -19.084  12.926 -0.17 +0.00    +0.001 A  
DOCKED: ENDBRANCH   2  18
DOCKED: TORSDOF 5
DOCKED: TER
DOCKED: ENDMDL
________________________________________________________________________________


    FINAL DOCKED STATE:
    ________________________


Run:   189 / 512
Time taken for this run:   0.002s

DOCKED: MODEL        189
DOCKED: USER    Run = 189
DOCKED: USER
DOCKED: USER    Estimated Free Energy of Binding    =  -4.53 kcal/mol  [=(1)+(2)+(3)-(4)]
DOCKED: USER
DOCKED: USER    (1) Final Intermolecular Energy     =  -6.03 kcal/mol
DOCKED: USER        vdW + Hbond + desolv Energy     =  -6.03 kcal/mol
DOCKED: USER        Electrostatic Energy            =  +0.00 kcal/mol
DOCKED: USER        Moving Ligand-Fixed Receptor    =  -6.03 kcal/mol
DOCKED: USER        Moving Ligand-Moving Receptor   =  +0.00 kcal/mol
DOCKED: USER    (2) Final Total Internal Energy     =  -1.14 kcal/mol
DOCKED: USER    (3) Torsional Free Energy           =  +1.49 kcal/mol
DOCKED: USER    (4) Unbound System's Energy         =  -1.14 kcal/mol
DOCKED: USER
DOCKED: USER
DOCKED: REMARK  5 active torsions:
DOCKED: REMARK  status: ('A' for Active; 'I' for Inactive)
DOCKED: REMARK    1  A    between atoms: C_2  and  C_19 
DOCKED: REMARK    2  A    between atoms: C_2  and  C_11 
DOCKED: REMARK    3  A    between atoms: C_19  and  C_20 
DOCKED: REMARK    4  A    between atoms: C_20  and  C_21 
DOCKED: REMARK    5  A    between atoms: C_21  and  N_22 
DOCKED: USER                              x       y       z     vdW  Elec       q    Type
DOCKED: USER                           _______ _______ _______ _____ _____    ______ ____
DOCKED: ROOT
DOCKED: ATOM      1  O   UNL     1     -52.432 -22.161  15.241 -0.00 -0.00    -0.346 OA 
DOCKED: ATOM      2  C   UNL     1     -50.978 -22.322  15.290 -0.08 +0.00    +0.130 C  
DOCKED: ATOM      3  C   UNL     1     -50.630 -22.859  13.932 -0.20 +0.00    +0.004 A  
DOCKED: ATOM      4  C   UNL     1     -51.768 -22.897  13.139 -0.26 +0.00    +0.006 A  
DOCKED: ATOM      5  C   UNL     1     -52.929 -22.384  13.901 -0.18 +0.00    +0.169 C  
DOCKED: ATOM      6  C   UNL     1     -49.402 -23.271  13.435 -0.29 -0.00    -0.001 A  
DOCKED: ATOM      7  C   UNL     1     -51.720 -23.348  11.831 -0.25 +0.00    +0.008 A  
DOCKED: ATOM      8  C   UNL     1     -49.338 -23.732  12.119 -0.42 +0.00    +0.010 A  
DOCKED: ATOM      9  C   UNL     1     -50.492 -23.770  11.321 -0.35 +0.00    +0.068 A  
DOCKED: ATOM     10  N   UNL     1     -50.337 -24.629   8.882 -2.14 -0.00    -0.191 NA 
DOCKED: ATOM     11  C   UNL     1     -50.406 -24.244   9.976 -0.37 +0.00    +0.101 C  
DOCKED: ENDROOT
DOCKED: BRANCH   2  12
DOCKED: ATOM     12  C   UNL     1     -50.351 -20.962  15.569 -0.08 +0.00    +0.038 C  
DOCKED: BRANCH  12  13
DOCKED: ATOM     13  C   UNL     1     -51.360 -19.832  15.373 -0.09 +0.00    +0.038 C  
DOCKED: BRANCH  13  14
DOCKED: ATOM     14  C   UNL     1     -51.263 -19.247  13.966 -0.16 +0.00    +0.251 C  
DOCKED: BRANCH  14  15
DOCKED: ATOM     15  N   UNL     1     -50.014 -18.511  13.808 -0.16 +0.00    +0.141 N  
DOCKED: ATOM     16  C   UNL     1     -48.982 -19.366  13.220 -0.11 +0.00    +0.285 C  
DOCKED: ATOM     17  C   UNL     1     -50.219 -17.320  12.980 -0.13 +0.00    +0.285 C  
DOCKED: ENDBRANCH  14  15
DOCKED: ENDBRANCH  13  14
DOCKED: ENDBRANCH  12  13
DOCKED: ENDBRANCH   2  12
DOCKED: BRANCH   2  18
DOCKED: ATOM     18  C   UNL     1     -50.684 -23.287  16.390 -0.10 +0.00    +0.006 A  
DOCKED: ATOM     19  C   UNL     1     -49.374 -23.709  16.614 -0.15 +0.00    +0.001 A  
DOCKED: ATOM     20  C   UNL     1     -49.099 -24.611  17.643 -0.19 +0.00    +0.029 A  
DOCKED: ATOM     21  C   UNL     1     -50.134 -25.089  18.445 -0.04 +0.00    +0.140 A  
DOCKED: ATOM     22  C   UNL     1     -51.444 -24.666  18.221 -0.13 +0.00    +0.029 A  
DOCKED: ATOM     23  F   UNL     1     -49.870 -25.954  19.434 -0.04 -0.00    -0.204 F  
DOCKED: ATOM     24  C   UNL     1     -51.720 -23.764  17.192 -0.10 +0.00    +0.001 A  
DOCKED: ENDBRANCH   2  18
DOCKED: TORSDOF 5
DOCKED: TER
DOCKED: ENDMDL
________________________________________________________________________________


    FINAL DOCKED STATE:
    ________________________


Run:   190 / 512
Time taken for this run:   0.002s

DOCKED: MODEL        190
DOCKED: USER    Run = 190
DOCKED: USER
DOCKED: USER    Estimated Free Energy of Binding    =  -4.56 kcal/mol  [=(1)+(2)+(3)-(4)]
DOCKED: USER
DOCKED: USER    (1) Final Intermolecular Energy     =  -6.05 kcal/mol
DOCKED: USER        vdW + Hbond + desolv Energy     =  -6.05 kcal/mol
DOCKED: USER        Electrostatic Energy            =  +0.00 kcal/mol
DOCKED: USER        Moving Ligand-Fixed Receptor    =  -6.05 kcal/mol
DOCKED: USER        Moving Ligand-Moving Receptor   =  +0.00 kcal/mol
DOCKED: USER    (2) Final Total Internal Energy     =  -1.16 kcal/mol
DOCKED: USER    (3) Torsional Free Energy           =  +1.49 kcal/mol
DOCKED: USER    (4) Unbound System's Energy         =  -1.16 kcal/mol
DOCKED: USER
DOCKED: USER
DOCKED: REMARK  5 active torsions:
DOCKED: REMARK  status: ('A' for Active; 'I' for Inactive)
DOCKED: REMARK    1  A    between atoms: C_2  and  C_19 
DOCKED: REMARK    2  A    between atoms: C_2  and  C_11 
DOCKED: REMARK    3  A    between atoms: C_19  and  C_20 
DOCKED: REMARK    4  A    between atoms: C_20  and  C_21 
DOCKED: REMARK    5  A    between atoms: C_21  and  N_22 
DOCKED: USER                              x       y       z     vdW  Elec       q    Type
DOCKED: USER                           _______ _______ _______ _____ _____    ______ ____
DOCKED: ROOT
DOCKED: ATOM      1  O   UNL     1     -49.590 -21.360  15.334 -0.01 -0.00    -0.346 OA 
DOCKED: ATOM      2  C   UNL     1     -48.560 -22.396  15.251 -0.12 +0.00    +0.130 C  
DOCKED: ATOM      3  C   UNL     1     -48.809 -23.045  13.920 -0.27 +0.00    +0.004 A  
DOCKED: ATOM      4  C   UNL     1     -49.821 -22.370  13.253 -0.27 +0.00    +0.006 A  
DOCKED: ATOM      5  C   UNL     1     -50.295 -21.235  14.077 -0.16 +0.00    +0.169 C  
DOCKED: ATOM      6  C   UNL     1     -48.183 -24.140  13.342 -0.39 -0.00    -0.001 A  
DOCKED: ATOM      7  C   UNL     1     -50.242 -22.764  11.995 -0.15 +0.00    +0.008 A  
DOCKED: ATOM      8  C   UNL     1     -48.599 -24.552  12.075 -0.40 +0.00    +0.010 A  
DOCKED: ATOM      9  C   UNL     1     -49.624 -23.867  11.405 -0.41 +0.00    +0.068 A  
DOCKED: ATOM     10  N   UNL     1     -50.370 -24.656   9.053 -2.01 -0.00    -0.191 NA 
DOCKED: ATOM     11  C   UNL     1     -50.036 -24.303  10.108 -0.52 +0.00    +0.101 C  
DOCKED: ENDROOT
DOCKED: BRANCH   2  12
DOCKED: ATOM     12  C   UNL     1     -47.194 -21.726  15.337 -0.16 +0.00    +0.038 C  
DOCKED: BRANCH  12  13
DOCKED: ATOM     13  C   UNL     1     -46.729 -21.229  13.969 -0.08 +0.00    +0.038 C  
DOCKED: BRANCH  13  14
DOCKED: ATOM     14  C   UNL     1     -47.343 -19.869  13.642 -0.15 +0.00    +0.251 C  
DOCKED: BRANCH  14  15
DOCKED: ATOM     15  N   UNL     1     -46.407 -18.799  13.968 -0.08 +0.00    +0.141 N  
DOCKED: ATOM     16  C   UNL     1     -46.233 -17.900  12.826 -0.08 +0.00    +0.285 C  
DOCKED: ATOM     17  C   UNL     1     -46.868 -18.050  15.138 -0.02 +0.00    +0.285 C  
DOCKED: ENDBRANCH  14  15
DOCKED: ENDBRANCH  13  14
DOCKED: ENDBRANCH  12  13
DOCKED: ENDBRANCH   2  12
DOCKED: BRANCH   2  18
DOCKED: ATOM     18  C   UNL     1     -48.779 -23.322  16.400 -0.14 +0.00    +0.006 A  
DOCKED: ATOM     19  C   UNL     1     -47.859 -23.363  17.447 -0.13 +0.00    +0.001 A  
DOCKED: ATOM     20  C   UNL     1     -48.064 -24.230  18.521 -0.16 +0.00    +0.029 A  
DOCKED: ATOM     21  C   UNL     1     -49.189 -25.053  18.547 -0.12 +0.00    +0.140 A  
DOCKED: ATOM     22  C   UNL     1     -50.109 -25.011  17.500 +0.01 +0.00    +0.029 A  
DOCKED: ATOM     23  F   UNL     1     -49.387 -25.883  19.579 -0.04 -0.00    -0.204 F  
DOCKED: ATOM     24  C   UNL     1     -49.904 -24.145  16.425 -0.18 +0.00    +0.001 A  
DOCKED: ENDBRANCH   2  18
DOCKED: TORSDOF 5
DOCKED: TER
DOCKED: ENDMDL
________________________________________________________________________________


    FINAL DOCKED STATE:
    ________________________


Run:   191 / 512
Time taken for this run:   0.002s

DOCKED: MODEL        191
DOCKED: USER    Run = 191
DOCKED: USER
DOCKED: USER    Estimated Free Energy of Binding    =  -3.99 kcal/mol  [=(1)+(2)+(3)-(4)]
DOCKED: USER
DOCKED: USER    (1) Final Intermolecular Energy     =  -5.48 kcal/mol
DOCKED: USER        vdW + Hbond + desolv Energy     =  -5.48 kcal/mol
DOCKED: USER        Electrostatic Energy            =  +0.00 kcal/mol
DOCKED: USER        Moving Ligand-Fixed Receptor    =  -5.48 kcal/mol
DOCKED: USER        Moving Ligand-Moving Receptor   =  +0.00 kcal/mol
DOCKED: USER    (2) Final Total Internal Energy     =  -1.26 kcal/mol
DOCKED: USER    (3) Torsional Free Energy           =  +1.49 kcal/mol
DOCKED: USER    (4) Unbound System's Energy         =  -1.26 kcal/mol
DOCKED: USER
DOCKED: USER
DOCKED: REMARK  5 active torsions:
DOCKED: REMARK  status: ('A' for Active; 'I' for Inactive)
DOCKED: REMARK    1  A    between atoms: C_2  and  C_19 
DOCKED: REMARK    2  A    between atoms: C_2  and  C_11 
DOCKED: REMARK    3  A    between atoms: C_19  and  C_20 
DOCKED: REMARK    4  A    between atoms: C_20  and  C_21 
DOCKED: REMARK    5  A    between atoms: C_21  and  N_22 
DOCKED: USER                              x       y       z     vdW  Elec       q    Type
DOCKED: USER                           _______ _______ _______ _____ _____    ______ ____
DOCKED: ROOT
DOCKED: ATOM      1  O   UNL     1     -40.877 -22.212   5.404 -0.01 -0.00    -0.346 OA 
DOCKED: ATOM      2  C   UNL     1     -41.071 -21.298   6.530 -0.08 +0.00    +0.130 C  
DOCKED: ATOM      3  C   UNL     1     -41.513 -22.197   7.649 -0.12 +0.00    +0.004 A  
DOCKED: ATOM      4  C   UNL     1     -41.468 -23.519   7.232 -0.16 +0.00    +0.006 A  
DOCKED: ATOM      5  C   UNL     1     -40.988 -23.588   5.833 -0.10 +0.00    +0.169 C  
DOCKED: ATOM      6  C   UNL     1     -41.912 -21.870   8.937 -0.15 -0.00    -0.001 A  
DOCKED: ATOM      7  C   UNL     1     -41.821 -24.555   8.080 -0.26 +0.00    +0.008 A  
DOCKED: ATOM      8  C   UNL     1     -42.275 -22.903   9.803 -0.24 +0.00    +0.010 A  
DOCKED: ATOM      9  C   UNL     1     -42.230 -24.239   9.376 -0.30 +0.00    +0.068 A  
DOCKED: ATOM     10  N   UNL     1     -42.907 -26.132  11.010 -2.68 -0.00    -0.191 NA 
DOCKED: ATOM     11  C   UNL     1     -42.604 -25.283  10.277 -0.36 +0.00    +0.101 C  
DOCKED: ENDROOT
DOCKED: BRANCH   2  12
DOCKED: ATOM     12  C   UNL     1     -39.749 -20.598   6.818 -0.02 +0.00    +0.038 C  
DOCKED: BRANCH  12  13
DOCKED: ATOM     13  C   UNL     1     -38.559 -21.504   6.507 -0.01 +0.00    +0.038 C  
DOCKED: BRANCH  13  14
DOCKED: ATOM     14  C   UNL     1     -38.170 -22.338   7.727 -0.00 +0.00    +0.251 C  
DOCKED: BRANCH  14  15
DOCKED: ATOM     15  N   UNL     1     -37.457 -23.540   7.312 -0.01 +0.00    +0.141 N  
DOCKED: ATOM     16  C   UNL     1     -38.137 -24.739   7.804 -0.02 +0.00    +0.285 C  
DOCKED: ATOM     17  C   UNL     1     -37.333 -23.590   5.855 -0.00 +0.00    +0.285 C  
DOCKED: ENDBRANCH  14  15
DOCKED: ENDBRANCH  13  14
DOCKED: ENDBRANCH  12  13
DOCKED: ENDBRANCH   2  12
DOCKED: BRANCH   2  18
DOCKED: ATOM     18  C   UNL     1     -42.121 -20.319   6.122 -0.12 +0.00    +0.006 A  
DOCKED: ATOM     19  C   UNL     1     -43.298 -20.210   6.862 -0.19 +0.00    +0.001 A  
DOCKED: ATOM     20  C   UNL     1     -44.279 -19.295   6.479 -0.17 +0.00    +0.029 A  
DOCKED: ATOM     21  C   UNL     1     -44.081 -18.490   5.358 -0.15 +0.00    +0.140 A  
DOCKED: ATOM     22  C   UNL     1     -42.904 -18.599   4.618 -0.14 +0.00    +0.029 A  
DOCKED: ATOM     23  F   UNL     1     -45.022 -17.610   4.991 -0.09 -0.00    -0.204 F  
DOCKED: ATOM     24  C   UNL     1     -41.922 -19.515   5.000 -0.10 +0.00    +0.001 A  
DOCKED: ENDBRANCH   2  18
DOCKED: TORSDOF 5
DOCKED: TER
DOCKED: ENDMDL
________________________________________________________________________________


    FINAL DOCKED STATE:
    ________________________


Run:   192 / 512
Time taken for this run:   0.002s

DOCKED: MODEL        192
DOCKED: USER    Run = 192
DOCKED: USER
DOCKED: USER    Estimated Free Energy of Binding    =  -4.11 kcal/mol  [=(1)+(2)+(3)-(4)]
DOCKED: USER
DOCKED: USER    (1) Final Intermolecular Energy     =  -5.60 kcal/mol
DOCKED: USER        vdW + Hbond + desolv Energy     =  -5.60 kcal/mol
DOCKED: USER        Electrostatic Energy            =  +0.00 kcal/mol
DOCKED: USER        Moving Ligand-Fixed Receptor    =  -5.60 kcal/mol
DOCKED: USER        Moving Ligand-Moving Receptor   =  +0.00 kcal/mol
DOCKED: USER    (2) Final Total Internal Energy     =  -1.37 kcal/mol
DOCKED: USER    (3) Torsional Free Energy           =  +1.49 kcal/mol
DOCKED: USER    (4) Unbound System's Energy         =  -1.37 kcal/mol
DOCKED: USER
DOCKED: USER
DOCKED: REMARK  5 active torsions:
DOCKED: REMARK  status: ('A' for Active; 'I' for Inactive)
DOCKED: REMARK    1  A    between atoms: C_2  and  C_19 
DOCKED: REMARK    2  A    between atoms: C_2  and  C_11 
DOCKED: REMARK    3  A    between atoms: C_19  and  C_20 
DOCKED: REMARK    4  A    between atoms: C_20  and  C_21 
DOCKED: REMARK    5  A    between atoms: C_21  and  N_22 
DOCKED: USER                              x       y       z     vdW  Elec       q    Type
DOCKED: USER                           _______ _______ _______ _____ _____    ______ ____
DOCKED: ROOT
DOCKED: ATOM      1  O   UNL     1     -46.391 -20.674  15.422 -0.04 -0.00    -0.346 OA 
DOCKED: ATOM      2  C   UNL     1     -47.530 -20.031  14.766 -0.11 +0.00    +0.130 C  
DOCKED: ATOM      3  C   UNL     1     -48.222 -21.160  14.058 -0.22 +0.00    +0.004 A  
DOCKED: ATOM      4  C   UNL     1     -47.598 -22.359  14.372 -0.24 +0.00    +0.006 A  
DOCKED: ATOM      5  C   UNL     1     -46.476 -22.113  15.304 -0.15 +0.00    +0.169 C  
DOCKED: ATOM      6  C   UNL     1     -49.322 -21.129  13.214 -0.27 -0.00    -0.001 A  
DOCKED: ATOM      7  C   UNL     1     -48.047 -23.562  13.852 -0.33 +0.00    +0.008 A  
DOCKED: ATOM      8  C   UNL     1     -49.783 -22.333  12.679 -0.29 +0.00    +0.010 A  
DOCKED: ATOM      9  C   UNL     1     -49.149 -23.543  12.997 -0.30 +0.00    +0.068 A  
DOCKED: ATOM     10  N   UNL     1     -50.034 -25.760  11.989 -2.55 -0.00    -0.191 NA 
DOCKED: ATOM     11  C   UNL     1     -49.637 -24.765  12.441 -0.32 +0.00    +0.101 C  
DOCKED: ENDROOT
DOCKED: BRANCH   2  12
DOCKED: ATOM     12  C   UNL     1     -48.399 -19.380  15.836 -0.05 +0.00    +0.038 C  
DOCKED: BRANCH  12  13
DOCKED: ATOM     13  C   UNL     1     -49.427 -20.363  16.392 -0.04 +0.00    +0.038 C  
DOCKED: BRANCH  13  14
DOCKED: ATOM     14  C   UNL     1     -49.224 -20.583  17.890 -0.00 +0.00    +0.251 C  
DOCKED: BRANCH  14  15
DOCKED: ATOM     15  N   UNL     1     -48.097 -21.477  18.123 -0.02 +0.00    +0.141 N  
DOCKED: ATOM     16  C   UNL     1     -47.179 -20.905  19.109 -0.00 +0.00    +0.285 C  
DOCKED: ATOM     17  C   UNL     1     -48.564 -22.791  18.568 -0.02 +0.00    +0.285 C  
DOCKED: ENDBRANCH  14  15
DOCKED: ENDBRANCH  13  14
DOCKED: ENDBRANCH  12  13
DOCKED: ENDBRANCH   2  12
DOCKED: BRANCH   2  18
DOCKED: ATOM     18  C   UNL     1     -46.975 -19.010  13.829 -0.14 +0.00    +0.006 A  
DOCKED: ATOM     19  C   UNL     1     -47.370 -17.677  13.938 -0.08 +0.00    +0.001 A  
DOCKED: ATOM     20  C   UNL     1     -46.851 -16.724  13.061 -0.07 +0.00    +0.029 A  
DOCKED: ATOM     21  C   UNL     1     -45.938 -17.104  12.078 -0.07 +0.00    +0.140 A  
DOCKED: ATOM     22  C   UNL     1     -45.543 -18.438  11.971 -0.14 +0.00    +0.029 A  
DOCKED: ATOM     23  F   UNL     1     -45.438 -16.189  11.238 -0.01 -0.00    -0.204 F  
DOCKED: ATOM     24  C   UNL     1     -46.062 -19.392  12.847 -0.15 +0.00    +0.001 A  
DOCKED: ENDBRANCH   2  18
DOCKED: TORSDOF 5
DOCKED: TER
DOCKED: ENDMDL
________________________________________________________________________________


    FINAL DOCKED STATE:
    ________________________


Run:   193 / 512
Time taken for this run:   0.002s

DOCKED: MODEL        193
DOCKED: USER    Run = 193
DOCKED: USER
DOCKED: USER    Estimated Free Energy of Binding    =  -3.30 kcal/mol  [=(1)+(2)+(3)-(4)]
DOCKED: USER
DOCKED: USER    (1) Final Intermolecular Energy     =  -4.79 kcal/mol
DOCKED: USER        vdW + Hbond + desolv Energy     =  -4.79 kcal/mol
DOCKED: USER        Electrostatic Energy            =  +0.00 kcal/mol
DOCKED: USER        Moving Ligand-Fixed Receptor    =  -4.79 kcal/mol
DOCKED: USER        Moving Ligand-Moving Receptor   =  +0.00 kcal/mol
DOCKED: USER    (2) Final Total Internal Energy     =  -1.40 kcal/mol
DOCKED: USER    (3) Torsional Free Energy           =  +1.49 kcal/mol
DOCKED: USER    (4) Unbound System's Energy         =  -1.40 kcal/mol
DOCKED: USER
DOCKED: USER
DOCKED: REMARK  5 active torsions:
DOCKED: REMARK  status: ('A' for Active; 'I' for Inactive)
DOCKED: REMARK    1  A    between atoms: C_2  and  C_19 
DOCKED: REMARK    2  A    between atoms: C_2  and  C_11 
DOCKED: REMARK    3  A    between atoms: C_19  and  C_20 
DOCKED: REMARK    4  A    between atoms: C_20  and  C_21 
DOCKED: REMARK    5  A    between atoms: C_21  and  N_22 
DOCKED: USER                              x       y       z     vdW  Elec       q    Type
DOCKED: USER                           _______ _______ _______ _____ _____    ______ ____
DOCKED: ROOT
DOCKED: ATOM      1  O   UNL     1     -38.887 -25.285   5.062 +0.00 -0.00    -0.346 OA 
DOCKED: ATOM      2  C   UNL     1     -39.341 -23.956   5.475 -0.04 +0.00    +0.130 C  
DOCKED: ATOM      3  C   UNL     1     -40.217 -24.229   6.663 -0.09 +0.00    +0.004 A  
DOCKED: ATOM      4  C   UNL     1     -40.178 -25.582   6.971 -0.14 +0.00    +0.006 A  
DOCKED: ATOM      5  C   UNL     1     -39.278 -26.286   6.030 -0.07 +0.00    +0.169 C  
DOCKED: ATOM      6  C   UNL     1     -40.977 -23.349   7.419 -0.12 -0.00    -0.001 A  
DOCKED: ATOM      7  C   UNL     1     -40.898 -26.100   8.034 -0.24 +0.00    +0.008 A  
DOCKED: ATOM      8  C   UNL     1     -41.712 -23.857   8.492 -0.22 +0.00    +0.010 A  
DOCKED: ATOM      9  C   UNL     1     -41.671 -25.225   8.798 -0.27 +0.00    +0.068 A  
DOCKED: ATOM     10  N   UNL     1     -43.043 -26.134  10.800 -2.50 -0.00    -0.191 NA 
DOCKED: ATOM     11  C   UNL     1     -42.428 -25.726   9.902 -0.36 +0.00    +0.101 C  
DOCKED: ENDROOT
DOCKED: BRANCH   2  12
DOCKED: ATOM     12  C   UNL     1     -38.118 -23.114   5.820 -0.01 +0.00    +0.038 C  
DOCKED: BRANCH  12  13
DOCKED: ATOM     13  C   UNL     1     -37.109 -23.909   6.646 -0.02 +0.00    +0.038 C  
DOCKED: BRANCH  13  14
DOCKED: ATOM     14  C   UNL     1     -36.790 -23.195   7.958 -0.00 +0.00    +0.251 C  
DOCKED: BRANCH  14  15
DOCKED: ATOM     15  N   UNL     1     -37.599 -23.739   9.042 -0.02 +0.00    +0.141 N  
DOCKED: ATOM     16  C   UNL     1     -37.455 -25.194   9.113 -0.05 +0.00    +0.285 C  
DOCKED: ATOM     17  C   UNL     1     -37.226 -23.130  10.320 -0.00 +0.00    +0.285 C  
DOCKED: ENDBRANCH  14  15
DOCKED: ENDBRANCH  13  14
DOCKED: ENDBRANCH  12  13
DOCKED: ENDBRANCH   2  12
DOCKED: BRANCH   2  18
DOCKED: ATOM     18  C   UNL     1     -40.089 -23.373   4.323 -0.08 +0.00    +0.006 A  
DOCKED: ATOM     19  C   UNL     1     -40.329 -24.144   3.186 -0.08 +0.00    +0.001 A  
DOCKED: ATOM     20  C   UNL     1     -41.028 -23.597   2.110 -0.06 +0.00    +0.029 A  
DOCKED: ATOM     21  C   UNL     1     -41.487 -22.282   2.171 -0.11 +0.00    +0.140 A  
DOCKED: ATOM     22  C   UNL     1     -41.247 -21.512   3.309 -0.13 +0.00    +0.029 A  
DOCKED: ATOM     23  F   UNL     1     -42.160 -21.758   1.138 -0.06 -0.00    -0.204 F  
DOCKED: ATOM     24  C   UNL     1     -40.547 -22.058   4.386 -0.10 +0.00    +0.001 A  
DOCKED: ENDBRANCH   2  18
DOCKED: TORSDOF 5
DOCKED: TER
DOCKED: ENDMDL
________________________________________________________________________________


    FINAL DOCKED STATE:
    ________________________


Run:   194 / 512
Time taken for this run:   0.002s

DOCKED: MODEL        194
DOCKED: USER    Run = 194
DOCKED: USER
DOCKED: USER    Estimated Free Energy of Binding    =  -5.31 kcal/mol  [=(1)+(2)+(3)-(4)]
DOCKED: USER
DOCKED: USER    (1) Final Intermolecular Energy     =  -6.80 kcal/mol
DOCKED: USER        vdW + Hbond + desolv Energy     =  -6.80 kcal/mol
DOCKED: USER        Electrostatic Energy            =  +0.00 kcal/mol
DOCKED: USER        Moving Ligand-Fixed Receptor    =  -6.80 kcal/mol
DOCKED: USER        Moving Ligand-Moving Receptor   =  +0.00 kcal/mol
DOCKED: USER    (2) Final Total Internal Energy     =  -1.21 kcal/mol
DOCKED: USER    (3) Torsional Free Energy           =  +1.49 kcal/mol
DOCKED: USER    (4) Unbound System's Energy         =  -1.21 kcal/mol
DOCKED: USER
DOCKED: USER
DOCKED: REMARK  5 active torsions:
DOCKED: REMARK  status: ('A' for Active; 'I' for Inactive)
DOCKED: REMARK    1  A    between atoms: C_2  and  C_19 
DOCKED: REMARK    2  A    between atoms: C_2  and  C_11 
DOCKED: REMARK    3  A    between atoms: C_19  and  C_20 
DOCKED: REMARK    4  A    between atoms: C_20  and  C_21 
DOCKED: REMARK    5  A    between atoms: C_21  and  N_22 
DOCKED: USER                              x       y       z     vdW  Elec       q    Type
DOCKED: USER                           _______ _______ _______ _____ _____    ______ ____
DOCKED: ROOT
DOCKED: ATOM      1  O   UNL     1     -49.845 -24.266  15.454 -0.10 -0.00    -0.346 OA 
DOCKED: ATOM      2  C   UNL     1     -49.308 -22.988  14.986 -0.14 +0.00    +0.130 C  
DOCKED: ATOM      3  C   UNL     1     -49.446 -23.066  13.493 -0.28 +0.00    +0.004 A  
DOCKED: ATOM      4  C   UNL     1     -50.105 -24.237  13.145 -0.31 +0.00    +0.006 A  
DOCKED: ATOM      5  C   UNL     1     -50.455 -24.997  14.365 -0.09 +0.00    +0.169 C  
DOCKED: ATOM      6  C   UNL     1     -49.031 -22.167  12.521 -0.33 -0.00    -0.001 A  
DOCKED: ATOM      7  C   UNL     1     -50.367 -24.550  11.822 -0.43 +0.00    +0.008 A  
DOCKED: ATOM      8  C   UNL     1     -49.285 -22.471  11.182 +0.03 +0.00    +0.010 A  
DOCKED: ATOM      9  C   UNL     1     -49.950 -23.657  10.835 -0.40 +0.00    +0.068 A  
DOCKED: ATOM     10  N   UNL     1     -50.409 -24.188   8.341 -3.00 -0.00    -0.191 NA 
DOCKED: ATOM     11  C   UNL     1     -50.202 -23.950   9.460 -0.36 +0.00    +0.101 C  
DOCKED: ENDROOT
DOCKED: BRANCH   2  12
DOCKED: ATOM     12  C   UNL     1     -50.132 -21.863  15.600 -0.09 +0.00    +0.038 C  
DOCKED: BRANCH  12  13
DOCKED: ATOM     13  C   UNL     1     -50.997 -21.169  14.549 -0.17 +0.00    +0.038 C  
DOCKED: BRANCH  13  14
DOCKED: ATOM     14  C   UNL     1     -50.441 -19.788  14.206 -0.14 +0.00    +0.251 C  
DOCKED: BRANCH  14  15
DOCKED: ATOM     15  N   UNL     1     -49.112 -19.619  14.782 -0.07 +0.00    +0.141 N  
DOCKED: ATOM     16  C   UNL     1     -48.130 -19.326  13.737 -0.13 +0.00    +0.285 C  
DOCKED: ATOM     17  C   UNL     1     -49.116 -18.554  15.786 -0.01 +0.00    +0.285 C  
DOCKED: ENDBRANCH  14  15
DOCKED: ENDBRANCH  13  14
DOCKED: ENDBRANCH  12  13
DOCKED: ENDBRANCH   2  12
DOCKED: BRANCH   2  18
DOCKED: ATOM     18  C   UNL     1     -47.886 -22.921  15.436 -0.18 +0.00    +0.006 A  
DOCKED: ATOM     19  C   UNL     1     -46.855 -23.134  14.521 -0.24 +0.00    +0.001 A  
DOCKED: ATOM     20  C   UNL     1     -45.527 -23.072  14.944 -0.04 +0.00    +0.029 A  
DOCKED: ATOM     21  C   UNL     1     -45.231 -22.796  16.278 -0.08 +0.00    +0.140 A  
DOCKED: ATOM     22  C   UNL     1     -46.263 -22.582  17.192 -0.10 +0.00    +0.029 A  
DOCKED: ATOM     23  F   UNL     1     -43.956 -22.734  16.682 -0.02 -0.00    -0.204 F  
DOCKED: ATOM     24  C   UNL     1     -47.592 -22.645  16.770 -0.11 +0.00    +0.001 A  
DOCKED: ENDBRANCH   2  18
DOCKED: TORSDOF 5
DOCKED: TER
DOCKED: ENDMDL
________________________________________________________________________________


    FINAL DOCKED STATE:
    ________________________


Run:   195 / 512
Time taken for this run:   0.002s

DOCKED: MODEL        195
DOCKED: USER    Run = 195
DOCKED: USER
DOCKED: USER    Estimated Free Energy of Binding    =  -3.76 kcal/mol  [=(1)+(2)+(3)-(4)]
DOCKED: USER
DOCKED: USER    (1) Final Intermolecular Energy     =  -5.25 kcal/mol
DOCKED: USER        vdW + Hbond + desolv Energy     =  -5.25 kcal/mol
DOCKED: USER        Electrostatic Energy            =  +0.00 kcal/mol
DOCKED: USER        Moving Ligand-Fixed Receptor    =  -5.25 kcal/mol
DOCKED: USER        Moving Ligand-Moving Receptor   =  +0.00 kcal/mol
DOCKED: USER    (2) Final Total Internal Energy     =  -1.48 kcal/mol
DOCKED: USER    (3) Torsional Free Energy           =  +1.49 kcal/mol
DOCKED: USER    (4) Unbound System's Energy         =  -1.48 kcal/mol
DOCKED: USER
DOCKED: USER
DOCKED: REMARK  5 active torsions:
DOCKED: REMARK  status: ('A' for Active; 'I' for Inactive)
DOCKED: REMARK    1  A    between atoms: C_2  and  C_19 
DOCKED: REMARK    2  A    between atoms: C_2  and  C_11 
DOCKED: REMARK    3  A    between atoms: C_19  and  C_20 
DOCKED: REMARK    4  A    between atoms: C_20  and  C_21 
DOCKED: REMARK    5  A    between atoms: C_21  and  N_22 
DOCKED: USER                              x       y       z     vdW  Elec       q    Type
DOCKED: USER                           _______ _______ _______ _____ _____    ______ ____
DOCKED: ROOT
DOCKED: ATOM      1  O   UNL     1     -43.144 -15.073   6.314 -0.02 -0.00    -0.346 OA 
DOCKED: ATOM      2  C   UNL     1     -42.589 -15.374   4.993 -0.04 +0.00    +0.130 C  
DOCKED: ATOM      3  C   UNL     1     -43.551 -14.722   4.042 -0.13 +0.00    +0.004 A  
DOCKED: ATOM      4  C   UNL     1     -44.509 -14.017   4.757 -0.21 +0.00    +0.006 A  
DOCKED: ATOM      5  C   UNL     1     -44.245 -14.141   6.208 -0.10 +0.00    +0.169 C  
DOCKED: ATOM      6  C   UNL     1     -43.570 -14.742   2.655 -0.15 -0.00    -0.001 A  
DOCKED: ATOM      7  C   UNL     1     -45.515 -13.316   4.116 -0.32 +0.00    +0.008 A  
DOCKED: ATOM      8  C   UNL     1     -44.581 -14.043   1.994 -0.20 +0.00    +0.010 A  
DOCKED: ATOM      9  C   UNL     1     -45.548 -13.333   2.720 -0.26 +0.00    +0.068 A  
DOCKED: ATOM     10  N   UNL     1     -47.409 -12.042   1.461 -2.48 -0.00    -0.191 NA 
DOCKED: ATOM     11  C   UNL     1     -46.575 -12.621   2.026 -0.39 +0.00    +0.101 C  
DOCKED: ENDROOT
DOCKED: BRANCH   2  12
DOCKED: ATOM     12  C   UNL     1     -41.186 -14.786   4.913 -0.02 +0.00    +0.038 C  
DOCKED: BRANCH  12  13
DOCKED: ATOM     13  C   UNL     1     -41.180 -13.305   5.290 -0.05 +0.00    +0.038 C  
DOCKED: BRANCH  13  14
DOCKED: ATOM     14  C   UNL     1     -40.932 -12.428   4.065 -0.01 +0.00    +0.251 C  
DOCKED: BRANCH  14  15
DOCKED: ATOM     15  N   UNL     1     -41.635 -11.158   4.200 -0.05 +0.00    +0.141 N  
DOCKED: ATOM     16  C   UNL     1     -42.493 -10.917   3.039 -0.06 +0.00    +0.285 C  
DOCKED: ATOM     17  C   UNL     1     -42.427 -11.135   5.430 -0.11 +0.00    +0.285 C  
DOCKED: ENDBRANCH  14  15
DOCKED: ENDBRANCH  13  14
DOCKED: ENDBRANCH  12  13
DOCKED: ENDBRANCH   2  12
DOCKED: BRANCH   2  18
DOCKED: ATOM     18  C   UNL     1     -42.558 -16.860   4.861 -0.05 +0.00    +0.006 A  
DOCKED: ATOM     19  C   UNL     1     -43.748 -17.587   4.889 -0.17 +0.00    +0.001 A  
DOCKED: ATOM     20  C   UNL     1     -43.718 -18.977   4.766 -0.21 +0.00    +0.029 A  
DOCKED: ATOM     21  C   UNL     1     -42.499 -19.637   4.615 -0.13 +0.00    +0.140 A  
DOCKED: ATOM     22  C   UNL     1     -41.310 -18.909   4.586 -0.03 +0.00    +0.029 A  
DOCKED: ATOM     23  F   UNL     1     -42.471 -20.971   4.495 -0.08 -0.00    -0.204 F  
DOCKED: ATOM     24  C   UNL     1     -41.339 -17.519   4.710 -0.01 +0.00    +0.001 A  
DOCKED: ENDBRANCH   2  18
DOCKED: TORSDOF 5
DOCKED: TER
DOCKED: ENDMDL
________________________________________________________________________________


    FINAL DOCKED STATE:
    ________________________


Run:   196 / 512
Time taken for this run:   0.002s

DOCKED: MODEL        196
DOCKED: USER    Run = 196
DOCKED: USER
DOCKED: USER    Estimated Free Energy of Binding    =  -4.05 kcal/mol  [=(1)+(2)+(3)-(4)]
DOCKED: USER
DOCKED: USER    (1) Final Intermolecular Energy     =  -5.54 kcal/mol
DOCKED: USER        vdW + Hbond + desolv Energy     =  -5.54 kcal/mol
DOCKED: USER        Electrostatic Energy            =  +0.00 kcal/mol
DOCKED: USER        Moving Ligand-Fixed Receptor    =  -5.54 kcal/mol
DOCKED: USER        Moving Ligand-Moving Receptor   =  +0.00 kcal/mol
DOCKED: USER    (2) Final Total Internal Energy     =  -1.23 kcal/mol
DOCKED: USER    (3) Torsional Free Energy           =  +1.49 kcal/mol
DOCKED: USER    (4) Unbound System's Energy         =  -1.23 kcal/mol
DOCKED: USER
DOCKED: USER
DOCKED: REMARK  5 active torsions:
DOCKED: REMARK  status: ('A' for Active; 'I' for Inactive)
DOCKED: REMARK    1  A    between atoms: C_2  and  C_19 
DOCKED: REMARK    2  A    between atoms: C_2  and  C_11 
DOCKED: REMARK    3  A    between atoms: C_19  and  C_20 
DOCKED: REMARK    4  A    between atoms: C_20  and  C_21 
DOCKED: REMARK    5  A    between atoms: C_21  and  N_22 
DOCKED: USER                              x       y       z     vdW  Elec       q    Type
DOCKED: USER                           _______ _______ _______ _____ _____    ______ ____
DOCKED: ROOT
DOCKED: ATOM      1  O   UNL     1     -47.356 -19.844  15.057 -0.02 -0.00    -0.346 OA 
DOCKED: ATOM      2  C   UNL     1     -48.719 -19.537  14.622 -0.11 +0.00    +0.130 C  
DOCKED: ATOM      3  C   UNL     1     -49.194 -20.816  13.996 -0.21 +0.00    +0.004 A  
DOCKED: ATOM      4  C   UNL     1     -48.230 -21.801  14.158 -0.22 +0.00    +0.006 A  
DOCKED: ATOM      5  C   UNL     1     -47.073 -21.254  14.902 -0.13 +0.00    +0.169 C  
DOCKED: ATOM      6  C   UNL     1     -50.388 -21.090  13.345 -0.21 -0.00    -0.001 A  
DOCKED: ATOM      7  C   UNL     1     -48.422 -23.084  13.675 -0.30 +0.00    +0.008 A  
DOCKED: ATOM      8  C   UNL     1     -50.595 -22.378  12.848 -0.23 +0.00    +0.010 A  
DOCKED: ATOM      9  C   UNL     1     -49.617 -23.370  13.013 -0.27 +0.00    +0.068 A  
DOCKED: ATOM     10  N   UNL     1     -50.035 -25.752  12.084 -2.61 -0.00    -0.191 NA 
DOCKED: ATOM     11  C   UNL     1     -49.847 -24.683  12.500 -0.34 +0.00    +0.101 C  
DOCKED: ENDROOT
DOCKED: BRANCH   2  12
DOCKED: ATOM     12  C   UNL     1     -49.537 -19.134  15.843 -0.04 +0.00    +0.038 C  
DOCKED: BRANCH  12  13
DOCKED: ATOM     13  C   UNL     1     -48.931 -19.694  17.128 -0.02 +0.00    +0.038 C  
DOCKED: BRANCH  13  14
DOCKED: ATOM     14  C   UNL     1     -50.016 -20.230  18.060 -0.00 +0.00    +0.251 C  
DOCKED: BRANCH  14  15
DOCKED: ATOM     15  N   UNL     1     -50.076 -21.685  17.983 -0.01 +0.00    +0.141 N  
DOCKED: ATOM     16  C   UNL     1     -48.790 -22.233  17.550 -0.02 +0.00    +0.285 C  
DOCKED: ATOM     17  C   UNL     1     -50.461 -22.254  19.276 -0.00 +0.00    +0.285 C  
DOCKED: ENDBRANCH  14  15
DOCKED: ENDBRANCH  13  14
DOCKED: ENDBRANCH  12  13
DOCKED: ENDBRANCH   2  12
DOCKED: BRANCH   2  18
DOCKED: ATOM     18  C   UNL     1     -48.622 -18.413  13.645 -0.16 +0.00    +0.006 A  
DOCKED: ATOM     19  C   UNL     1     -47.418 -18.164  12.987 -0.12 +0.00    +0.001 A  
DOCKED: ATOM     20  C   UNL     1     -47.328 -17.112  12.074 -0.05 +0.00    +0.029 A  
DOCKED: ATOM     21  C   UNL     1     -48.441 -16.312  11.820 -0.09 +0.00    +0.140 A  
DOCKED: ATOM     22  C   UNL     1     -49.645 -16.562  12.479 -0.16 +0.00    +0.029 A  
DOCKED: ATOM     23  F   UNL     1     -48.355 -15.304  10.943 -0.03 -0.00    -0.204 F  
DOCKED: ATOM     24  C   UNL     1     -49.736 -17.613  13.393 -0.17 +0.00    +0.001 A  
DOCKED: ENDBRANCH   2  18
DOCKED: TORSDOF 5
DOCKED: TER
DOCKED: ENDMDL
________________________________________________________________________________


    FINAL DOCKED STATE:
    ________________________


Run:   197 / 512
Time taken for this run:   0.002s

DOCKED: MODEL        197
DOCKED: USER    Run = 197
DOCKED: USER
DOCKED: USER    Estimated Free Energy of Binding    =  -5.96 kcal/mol  [=(1)+(2)+(3)-(4)]
DOCKED: USER
DOCKED: USER    (1) Final Intermolecular Energy     =  -7.45 kcal/mol
DOCKED: USER        vdW + Hbond + desolv Energy     =  -7.45 kcal/mol
DOCKED: USER        Electrostatic Energy            =  +0.00 kcal/mol
DOCKED: USER        Moving Ligand-Fixed Receptor    =  -7.45 kcal/mol
DOCKED: USER        Moving Ligand-Moving Receptor   =  +0.00 kcal/mol
DOCKED: USER    (2) Final Total Internal Energy     =  -0.99 kcal/mol
DOCKED: USER    (3) Torsional Free Energy           =  +1.49 kcal/mol
DOCKED: USER    (4) Unbound System's Energy         =  -0.99 kcal/mol
DOCKED: USER
DOCKED: USER
DOCKED: REMARK  5 active torsions:
DOCKED: REMARK  status: ('A' for Active; 'I' for Inactive)
DOCKED: REMARK    1  A    between atoms: C_2  and  C_19 
DOCKED: REMARK    2  A    between atoms: C_2  and  C_11 
DOCKED: REMARK    3  A    between atoms: C_19  and  C_20 
DOCKED: REMARK    4  A    between atoms: C_20  and  C_21 
DOCKED: REMARK    5  A    between atoms: C_21  and  N_22 
DOCKED: USER                              x       y       z     vdW  Elec       q    Type
DOCKED: USER                           _______ _______ _______ _____ _____    ______ ____
DOCKED: ROOT
DOCKED: ATOM      1  O   UNL     1     -48.280 -21.978  14.541 -0.06 -0.00    -0.346 OA 
DOCKED: ATOM      2  C   UNL     1     -48.226 -23.439  14.472 -0.25 +0.00    +0.130 C  
DOCKED: ATOM      3  C   UNL     1     -48.705 -23.752  13.084 -0.37 +0.00    +0.004 A  
DOCKED: ATOM      4  C   UNL     1     -48.909 -22.571  12.384 -0.35 +0.00    +0.006 A  
DOCKED: ATOM      5  C   UNL     1     -48.572 -21.413  13.242 -0.25 +0.00    +0.169 C  
DOCKED: ATOM      6  C   UNL     1     -48.931 -24.982  12.485 -0.27 -0.00    -0.001 A  
DOCKED: ATOM      7  C   UNL     1     -49.347 -22.579  11.071 +0.04 +0.00    +0.008 A  
DOCKED: ATOM      8  C   UNL     1     -49.377 -25.007  11.163 -0.51 +0.00    +0.010 A  
DOCKED: ATOM      9  C   UNL     1     -49.584 -23.811  10.459 -0.43 +0.00    +0.068 A  
DOCKED: ATOM     10  N   UNL     1     -50.408 -23.892   8.004 -3.15 -0.00    -0.191 NA 
DOCKED: ATOM     11  C   UNL     1     -50.039 -23.856   9.105 -0.25 +0.00    +0.101 C  
DOCKED: ENDROOT
DOCKED: BRANCH   2  12
DOCKED: ATOM     12  C   UNL     1     -46.788 -23.881  14.718 -0.09 +0.00    +0.038 C  
DOCKED: BRANCH  12  13
DOCKED: ATOM     13  C   UNL     1     -45.896 -22.697  15.084 -0.23 +0.00    +0.038 C  
DOCKED: BRANCH  13  14
DOCKED: ATOM     14  C   UNL     1     -45.440 -22.782  16.540 -0.07 +0.00    +0.251 C  
DOCKED: BRANCH  14  15
DOCKED: ATOM     15  N   UNL     1     -43.985 -22.822  16.614 -0.10 +0.00    +0.141 N  
DOCKED: ATOM     16  C   UNL     1     -43.397 -21.759  15.797 -0.07 +0.00    +0.285 C  
DOCKED: ATOM     17  C   UNL     1     -43.535 -22.704  18.002 -0.04 +0.00    +0.285 C  
DOCKED: ENDBRANCH  14  15
DOCKED: ENDBRANCH  13  14
DOCKED: ENDBRANCH  12  13
DOCKED: ENDBRANCH   2  12
DOCKED: BRANCH   2  18
DOCKED: ATOM     18  C   UNL     1     -49.138 -23.960  15.533 -0.21 +0.00    +0.006 A  
DOCKED: ATOM     19  C   UNL     1     -48.705 -24.019  16.857 -0.18 +0.00    +0.001 A  
DOCKED: ATOM     20  C   UNL     1     -49.558 -24.506  17.847 -0.16 +0.00    +0.029 A  
DOCKED: ATOM     21  C   UNL     1     -50.842 -24.933  17.513 -0.03 +0.00    +0.140 A  
DOCKED: ATOM     22  C   UNL     1     -51.275 -24.873  16.189 -0.16 +0.00    +0.029 A  
DOCKED: ATOM     23  F   UNL     1     -51.662 -25.399  18.465 -0.03 -0.00    -0.204 F  
DOCKED: ATOM     24  C   UNL     1     -50.422 -24.387  15.197 -0.22 +0.00    +0.001 A  
DOCKED: ENDBRANCH   2  18
DOCKED: TORSDOF 5
DOCKED: TER
DOCKED: ENDMDL
________________________________________________________________________________


    FINAL DOCKED STATE:
    ________________________


Run:   198 / 512
Time taken for this run:   0.002s

DOCKED: MODEL        198
DOCKED: USER    Run = 198
DOCKED: USER
DOCKED: USER    Estimated Free Energy of Binding    =  -4.25 kcal/mol  [=(1)+(2)+(3)-(4)]
DOCKED: USER
DOCKED: USER    (1) Final Intermolecular Energy     =  -5.74 kcal/mol
DOCKED: USER        vdW + Hbond + desolv Energy     =  -5.74 kcal/mol
DOCKED: USER        Electrostatic Energy            =  +0.00 kcal/mol
DOCKED: USER        Moving Ligand-Fixed Receptor    =  -5.74 kcal/mol
DOCKED: USER        Moving Ligand-Moving Receptor   =  +0.00 kcal/mol
DOCKED: USER    (2) Final Total Internal Energy     =  -1.35 kcal/mol
DOCKED: USER    (3) Torsional Free Energy           =  +1.49 kcal/mol
DOCKED: USER    (4) Unbound System's Energy         =  -1.35 kcal/mol
DOCKED: USER
DOCKED: USER
DOCKED: REMARK  5 active torsions:
DOCKED: REMARK  status: ('A' for Active; 'I' for Inactive)
DOCKED: REMARK    1  A    between atoms: C_2  and  C_19 
DOCKED: REMARK    2  A    between atoms: C_2  and  C_11 
DOCKED: REMARK    3  A    between atoms: C_19  and  C_20 
DOCKED: REMARK    4  A    between atoms: C_20  and  C_21 
DOCKED: REMARK    5  A    between atoms: C_21  and  N_22 
DOCKED: USER                              x       y       z     vdW  Elec       q    Type
DOCKED: USER                           _______ _______ _______ _____ _____    ______ ____
DOCKED: ROOT
DOCKED: ATOM      1  O   UNL     1     -48.224 -19.341  14.566 -0.03 -0.00    -0.346 OA 
DOCKED: ATOM      2  C   UNL     1     -49.686 -19.406  14.570 -0.12 +0.00    +0.130 C  
DOCKED: ATOM      3  C   UNL     1     -49.988 -20.762  14.001 -0.20 +0.00    +0.004 A  
DOCKED: ATOM      4  C   UNL     1     -48.804 -21.455  13.793 -0.24 +0.00    +0.006 A  
DOCKED: ATOM      5  C   UNL     1     -47.654 -20.624  14.216 -0.16 +0.00    +0.169 C  
DOCKED: ATOM      6  C   UNL     1     -51.213 -21.341  13.702 -0.22 -0.00    -0.001 A  
DOCKED: ATOM      7  C   UNL     1     -48.801 -22.740  13.279 -0.32 +0.00    +0.008 A  
DOCKED: ATOM      8  C   UNL     1     -51.227 -22.635  13.178 -0.24 +0.00    +0.010 A  
DOCKED: ATOM      9  C   UNL     1     -50.027 -23.331  12.968 -0.25 +0.00    +0.068 A  
DOCKED: ATOM     10  N   UNL     1     -50.090 -25.733  11.999 -2.54 -0.00    -0.191 NA 
DOCKED: ATOM     11  C   UNL     1     -50.062 -24.655  12.433 -0.37 +0.00    +0.101 C  
DOCKED: ENDROOT
DOCKED: BRANCH   2  12
DOCKED: ATOM     12  C   UNL     1     -50.172 -19.244  16.006 -0.04 +0.00    +0.038 C  
DOCKED: BRANCH  12  13
DOCKED: ATOM     13  C   UNL     1     -49.134 -18.528  16.868 -0.02 +0.00    +0.038 C  
DOCKED: BRANCH  13  14
DOCKED: ATOM     14  C   UNL     1     -48.390 -19.516  17.765 -0.00 +0.00    +0.251 C  
DOCKED: BRANCH  14  15
DOCKED: ATOM     15  N   UNL     1     -46.983 -19.149  17.865 -0.00 +0.00    +0.141 N  
DOCKED: ATOM     16  C   UNL     1     -46.128 -20.279  17.496 -0.01 +0.00    +0.285 C  
DOCKED: ATOM     17  C   UNL     1     -46.689 -17.993  17.017 -0.00 +0.00    +0.285 C  
DOCKED: ENDBRANCH  14  15
DOCKED: ENDBRANCH  13  14
DOCKED: ENDBRANCH  12  13
DOCKED: ENDBRANCH   2  12
DOCKED: BRANCH   2  18
DOCKED: ATOM     18  C   UNL     1     -50.175 -18.292  13.707 -0.19 +0.00    +0.006 A  
DOCKED: ATOM     19  C   UNL     1     -51.536 -17.989  13.664 -0.21 +0.00    +0.001 A  
DOCKED: ATOM     20  C   UNL     1     -51.991 -16.947  12.855 -0.17 +0.00    +0.029 A  
DOCKED: ATOM     21  C   UNL     1     -51.087 -16.209  12.093 -0.08 +0.00    +0.140 A  
DOCKED: ATOM     22  C   UNL     1     -49.726 -16.512  12.137 -0.14 +0.00    +0.029 A  
DOCKED: ATOM     23  F   UNL     1     -51.524 -15.207  11.319 -0.03 -0.00    -0.204 F  
DOCKED: ATOM     24  C   UNL     1     -49.270 -17.555  12.945 -0.16 +0.00    +0.001 A  
DOCKED: ENDBRANCH   2  18
DOCKED: TORSDOF 5
DOCKED: TER
DOCKED: ENDMDL
________________________________________________________________________________


    FINAL DOCKED STATE:
    ________________________


Run:   199 / 512
Time taken for this run:   0.002s

DOCKED: MODEL        199
DOCKED: USER    Run = 199
DOCKED: USER
DOCKED: USER    Estimated Free Energy of Binding    =  -3.68 kcal/mol  [=(1)+(2)+(3)-(4)]
DOCKED: USER
DOCKED: USER    (1) Final Intermolecular Energy     =  -5.17 kcal/mol
DOCKED: USER        vdW + Hbond + desolv Energy     =  -5.17 kcal/mol
DOCKED: USER        Electrostatic Energy            =  +0.00 kcal/mol
DOCKED: USER        Moving Ligand-Fixed Receptor    =  -5.17 kcal/mol
DOCKED: USER        Moving Ligand-Moving Receptor   =  +0.00 kcal/mol
DOCKED: USER    (2) Final Total Internal Energy     =  -1.57 kcal/mol
DOCKED: USER    (3) Torsional Free Energy           =  +1.49 kcal/mol
DOCKED: USER    (4) Unbound System's Energy         =  -1.57 kcal/mol
DOCKED: USER
DOCKED: USER
DOCKED: REMARK  5 active torsions:
DOCKED: REMARK  status: ('A' for Active; 'I' for Inactive)
DOCKED: REMARK    1  A    between atoms: C_2  and  C_19 
DOCKED: REMARK    2  A    between atoms: C_2  and  C_11 
DOCKED: REMARK    3  A    between atoms: C_19  and  C_20 
DOCKED: REMARK    4  A    between atoms: C_20  and  C_21 
DOCKED: REMARK    5  A    between atoms: C_21  and  N_22 
DOCKED: USER                              x       y       z     vdW  Elec       q    Type
DOCKED: USER                           _______ _______ _______ _____ _____    ______ ____
DOCKED: ROOT
DOCKED: ATOM      1  O   UNL     1     -46.491 -20.035  14.472 -0.06 -0.00    -0.346 OA 
DOCKED: ATOM      2  C   UNL     1     -46.034 -21.261  15.128 -0.14 +0.00    +0.130 C  
DOCKED: ATOM      3  C   UNL     1     -46.950 -22.320  14.588 -0.21 +0.00    +0.004 A  
DOCKED: ATOM      4  C   UNL     1     -47.784 -21.770  13.625 -0.25 +0.00    +0.006 A  
DOCKED: ATOM      5  C   UNL     1     -47.475 -20.333  13.454 -0.19 +0.00    +0.169 C  
DOCKED: ATOM      6  C   UNL     1     -47.030 -23.666  14.914 -0.19 -0.00    -0.001 A  
DOCKED: ATOM      7  C   UNL     1     -48.725 -22.539  12.962 -0.33 +0.00    +0.008 A  
DOCKED: ATOM      8  C   UNL     1     -47.977 -24.454  14.257 -0.35 +0.00    +0.010 A  
DOCKED: ATOM      9  C   UNL     1     -48.820 -23.893  13.286 -0.31 +0.00    +0.068 A  
DOCKED: ATOM     10  N   UNL     1     -50.563 -25.385  12.082 -2.45 -0.00    -0.191 NA 
DOCKED: ATOM     11  C   UNL     1     -49.781 -24.716  12.622 -0.27 +0.00    +0.101 C  
DOCKED: ENDROOT
DOCKED: BRANCH   2  12
DOCKED: ATOM     12  C   UNL     1     -44.574 -21.492  14.756 -0.10 +0.00    +0.038 C  
DOCKED: BRANCH  12  13
DOCKED: ATOM     13  C   UNL     1     -43.937 -20.226  14.186 -0.11 +0.00    +0.038 C  
DOCKED: BRANCH  13  14
DOCKED: ATOM     14  C   UNL     1     -43.054 -19.539  15.225 -0.03 +0.00    +0.251 C  
DOCKED: BRANCH  14  15
DOCKED: ATOM     15  N   UNL     1     -43.871 -18.971  16.290 -0.01 +0.00    +0.141 N  
DOCKED: ATOM     16  C   UNL     1     -43.051 -18.665  17.464 -0.00 +0.00    +0.285 C  
DOCKED: ATOM     17  C   UNL     1     -44.560 -17.766  15.824 -0.00 +0.00    +0.285 C  
DOCKED: ENDBRANCH  14  15
DOCKED: ENDBRANCH  13  14
DOCKED: ENDBRANCH  12  13
DOCKED: ENDBRANCH   2  12
DOCKED: BRANCH   2  18
DOCKED: ATOM     18  C   UNL     1     -46.188 -21.053  16.598 -0.06 +0.00    +0.006 A  
DOCKED: ATOM     19  C   UNL     1     -47.071 -20.085  17.075 -0.02 +0.00    +0.001 A  
DOCKED: ATOM     20  C   UNL     1     -47.214 -19.891  18.450 -0.00 +0.00    +0.029 A  
DOCKED: ATOM     21  C   UNL     1     -46.475 -20.665  19.344 -0.00 +0.00    +0.140 A  
DOCKED: ATOM     22  C   UNL     1     -45.593 -21.633  18.865 -0.02 +0.00    +0.029 A  
DOCKED: ATOM     23  F   UNL     1     -46.614 -20.480  20.663 -0.00 -0.00    -0.204 F  
DOCKED: ATOM     24  C   UNL     1     -45.448 -21.827  17.490 -0.07 +0.00    +0.001 A  
DOCKED: ENDBRANCH   2  18
DOCKED: TORSDOF 5
DOCKED: TER
DOCKED: ENDMDL
________________________________________________________________________________


    FINAL DOCKED STATE:
    ________________________


Run:   200 / 512
Time taken for this run:   0.002s

DOCKED: MODEL        200
DOCKED: USER    Run = 200
DOCKED: USER
DOCKED: USER    Estimated Free Energy of Binding    =  -4.44 kcal/mol  [=(1)+(2)+(3)-(4)]
DOCKED: USER
DOCKED: USER    (1) Final Intermolecular Energy     =  -5.94 kcal/mol
DOCKED: USER        vdW + Hbond + desolv Energy     =  -5.94 kcal/mol
DOCKED: USER        Electrostatic Energy            =  +0.00 kcal/mol
DOCKED: USER        Moving Ligand-Fixed Receptor    =  -5.94 kcal/mol
DOCKED: USER        Moving Ligand-Moving Receptor   =  +0.00 kcal/mol
DOCKED: USER    (2) Final Total Internal Energy     =  -1.08 kcal/mol
DOCKED: USER    (3) Torsional Free Energy           =  +1.49 kcal/mol
DOCKED: USER    (4) Unbound System's Energy         =  -1.08 kcal/mol
DOCKED: USER
DOCKED: USER
DOCKED: REMARK  5 active torsions:
DOCKED: REMARK  status: ('A' for Active; 'I' for Inactive)
DOCKED: REMARK    1  A    between atoms: C_2  and  C_19 
DOCKED: REMARK    2  A    between atoms: C_2  and  C_11 
DOCKED: REMARK    3  A    between atoms: C_19  and  C_20 
DOCKED: REMARK    4  A    between atoms: C_20  and  C_21 
DOCKED: REMARK    5  A    between atoms: C_21  and  N_22 
DOCKED: USER                              x       y       z     vdW  Elec       q    Type
DOCKED: USER                           _______ _______ _______ _____ _____    ______ ____
DOCKED: ROOT
DOCKED: ATOM      1  O   UNL     1     -47.908 -24.609  16.058 -0.11 -0.00    -0.346 OA 
DOCKED: ATOM      2  C   UNL     1     -47.880 -23.183  15.728 -0.16 +0.00    +0.130 C  
DOCKED: ATOM      3  C   UNL     1     -48.318 -23.138  14.292 -0.27 +0.00    +0.004 A  
DOCKED: ATOM      4  C   UNL     1     -48.672 -24.412  13.872 -0.32 +0.00    +0.006 A  
DOCKED: ATOM      5  C   UNL     1     -48.507 -25.373  14.986 -0.14 +0.00    +0.169 C  
DOCKED: ATOM      6  C   UNL     1     -48.407 -22.054  13.431 -0.30 -0.00    -0.001 A  
DOCKED: ATOM      7  C   UNL     1     -49.120 -24.647  12.583 -0.38 +0.00    +0.008 A  
DOCKED: ATOM      8  C   UNL     1     -48.853 -22.276  12.127 -0.27 +0.00    +0.010 A  
DOCKED: ATOM      9  C   UNL     1     -49.208 -23.566  11.706 -0.36 +0.00    +0.068 A  
DOCKED: ATOM     10  N   UNL     1     -50.038 -23.941   9.280 -1.88 -0.00    -0.191 NA 
DOCKED: ATOM     11  C   UNL     1     -49.665 -23.773  10.368 -0.50 +0.00    +0.101 C  
DOCKED: ENDROOT
DOCKED: BRANCH   2  12
DOCKED: ATOM     12  C   UNL     1     -48.835 -22.452  16.663 -0.09 +0.00    +0.038 C  
DOCKED: BRANCH  12  13
DOCKED: ATOM     13  C   UNL     1     -49.694 -23.432  17.460 -0.12 +0.00    +0.038 C  
DOCKED: BRANCH  13  14
DOCKED: ATOM     14  C   UNL     1     -49.196 -23.555  18.899 -0.04 +0.00    +0.251 C  
DOCKED: BRANCH  14  15
DOCKED: ATOM     15  N   UNL     1     -49.872 -24.654  19.578 -0.09 +0.00    +0.141 N  
DOCKED: ATOM     16  C   UNL     1     -51.105 -25.014  18.876 -0.08 +0.00    +0.285 C  
DOCKED: ATOM     17  C   UNL     1     -48.989 -25.817  19.682 -0.14 +0.00    +0.285 C  
DOCKED: ENDBRANCH  14  15
DOCKED: ENDBRANCH  13  14
DOCKED: ENDBRANCH  12  13
DOCKED: ENDBRANCH   2  12
DOCKED: BRANCH   2  18
DOCKED: ATOM     18  C   UNL     1     -46.475 -22.718  15.922 -0.17 +0.00    +0.006 A  
DOCKED: ATOM     19  C   UNL     1     -45.767 -22.173  14.851 -0.11 +0.00    +0.001 A  
DOCKED: ATOM     20  C   UNL     1     -44.454 -21.739  15.034 -0.13 +0.00    +0.029 A  
DOCKED: ATOM     21  C   UNL     1     -43.851 -21.849  16.286 -0.07 +0.00    +0.140 A  
DOCKED: ATOM     22  C   UNL     1     -44.560 -22.393  17.357 -0.08 +0.00    +0.029 A  
DOCKED: ATOM     23  F   UNL     1     -42.591 -21.430  16.461 -0.00 -0.00    -0.204 F  
DOCKED: ATOM     24  C   UNL     1     -45.873 -22.829  17.175 -0.11 +0.00    +0.001 A  
DOCKED: ENDBRANCH   2  18
DOCKED: TORSDOF 5
DOCKED: TER
DOCKED: ENDMDL
________________________________________________________________________________


    FINAL DOCKED STATE:
    ________________________


Run:   201 / 512
Time taken for this run:   0.002s

DOCKED: MODEL        201
DOCKED: USER    Run = 201
DOCKED: USER
DOCKED: USER    Estimated Free Energy of Binding    =  -2.98 kcal/mol  [=(1)+(2)+(3)-(4)]
DOCKED: USER
DOCKED: USER    (1) Final Intermolecular Energy     =  -4.47 kcal/mol
DOCKED: USER        vdW + Hbond + desolv Energy     =  -4.47 kcal/mol
DOCKED: USER        Electrostatic Energy            =  +0.00 kcal/mol
DOCKED: USER        Moving Ligand-Fixed Receptor    =  -4.47 kcal/mol
DOCKED: USER        Moving Ligand-Moving Receptor   =  +0.00 kcal/mol
DOCKED: USER    (2) Final Total Internal Energy     =  -1.47 kcal/mol
DOCKED: USER    (3) Torsional Free Energy           =  +1.49 kcal/mol
DOCKED: USER    (4) Unbound System's Energy         =  -1.47 kcal/mol
DOCKED: USER
DOCKED: USER
DOCKED: REMARK  5 active torsions:
DOCKED: REMARK  status: ('A' for Active; 'I' for Inactive)
DOCKED: REMARK    1  A    between atoms: C_2  and  C_19 
DOCKED: REMARK    2  A    between atoms: C_2  and  C_11 
DOCKED: REMARK    3  A    between atoms: C_19  and  C_20 
DOCKED: REMARK    4  A    between atoms: C_20  and  C_21 
DOCKED: REMARK    5  A    between atoms: C_21  and  N_22 
DOCKED: USER                              x       y       z     vdW  Elec       q    Type
DOCKED: USER                           _______ _______ _______ _____ _____    ______ ____
DOCKED: ROOT
DOCKED: ATOM      1  O   UNL     1     -40.935 -20.705   6.797 +0.01 -0.00    -0.346 OA 
DOCKED: ATOM      2  C   UNL     1     -40.761 -20.276   8.185 -0.03 +0.00    +0.130 C  
DOCKED: ATOM      3  C   UNL     1     -41.215 -21.461   8.988 -0.08 +0.00    +0.004 A  
DOCKED: ATOM      4  C   UNL     1     -41.516 -22.514   8.136 -0.13 +0.00    +0.006 A  
DOCKED: ATOM      5  C   UNL     1     -41.274 -22.110   6.733 -0.09 +0.00    +0.169 C  
DOCKED: ATOM      6  C   UNL     1     -41.340 -21.599  10.363 -0.12 -0.00    -0.001 A  
DOCKED: ATOM      7  C   UNL     1     -41.954 -23.733   8.625 -0.25 +0.00    +0.008 A  
DOCKED: ATOM      8  C   UNL     1     -41.785 -22.821  10.870 -0.20 +0.00    +0.010 A  
DOCKED: ATOM      9  C   UNL     1     -42.090 -23.882  10.005 -0.26 +0.00    +0.068 A  
DOCKED: ATOM     10  N   UNL     1     -42.909 -26.139  10.981 -2.68 -0.00    -0.191 NA 
DOCKED: ATOM     11  C   UNL     1     -42.542 -25.126  10.544 -0.32 +0.00    +0.101 C  
DOCKED: ENDROOT
DOCKED: BRANCH   2  12
DOCKED: ATOM     12  C   UNL     1     -39.292 -19.937   8.406 -0.01 +0.00    +0.038 C  
DOCKED: BRANCH  12  13
DOCKED: ATOM     13  C   UNL     1     -38.533 -21.117   9.012 -0.01 +0.00    +0.038 C  
DOCKED: BRANCH  13  14
DOCKED: ATOM     14  C   UNL     1     -37.924 -21.997   7.922 -0.00 +0.00    +0.251 C  
DOCKED: BRANCH  14  15
DOCKED: ATOM     15  N   UNL     1     -38.468 -23.348   7.999 -0.02 +0.00    +0.141 N  
DOCKED: ATOM     16  C   UNL     1     -38.094 -24.122   6.814 -0.01 +0.00    +0.285 C  
DOCKED: ATOM     17  C   UNL     1     -38.004 -24.022   9.212 -0.02 +0.00    +0.285 C  
DOCKED: ENDBRANCH  14  15
DOCKED: ENDBRANCH  13  14
DOCKED: ENDBRANCH  12  13
DOCKED: ENDBRANCH   2  12
DOCKED: BRANCH   2  18
DOCKED: ATOM     18  C   UNL     1     -41.626 -19.075   8.381 -0.03 +0.00    +0.006 A  
DOCKED: ATOM     19  C   UNL     1     -41.045 -17.831   8.626 -0.01 +0.00    +0.001 A  
DOCKED: ATOM     20  C   UNL     1     -41.854 -16.709   8.809 -0.01 +0.00    +0.029 A  
DOCKED: ATOM     21  C   UNL     1     -43.242 -16.833   8.748 -0.02 +0.00    +0.140 A  
DOCKED: ATOM     22  C   UNL     1     -43.821 -18.077   8.503 -0.08 +0.00    +0.029 A  
DOCKED: ATOM     23  F   UNL     1     -44.018 -15.755   8.922 -0.01 -0.00    -0.204 F  
DOCKED: ATOM     24  C   UNL     1     -43.013 -19.200   8.320 -0.09 +0.00    +0.001 A  
DOCKED: ENDBRANCH   2  18
DOCKED: TORSDOF 5
DOCKED: TER
DOCKED: ENDMDL
________________________________________________________________________________


    FINAL DOCKED STATE:
    ________________________


Run:   202 / 512
Time taken for this run:   0.002s

DOCKED: MODEL        202
DOCKED: USER    Run = 202
DOCKED: USER
DOCKED: USER    Estimated Free Energy of Binding    =  -3.50 kcal/mol  [=(1)+(2)+(3)-(4)]
DOCKED: USER
DOCKED: USER    (1) Final Intermolecular Energy     =  -4.99 kcal/mol
DOCKED: USER        vdW + Hbond + desolv Energy     =  -4.99 kcal/mol
DOCKED: USER        Electrostatic Energy            =  +0.00 kcal/mol
DOCKED: USER        Moving Ligand-Fixed Receptor    =  -4.99 kcal/mol
DOCKED: USER        Moving Ligand-Moving Receptor   =  +0.00 kcal/mol
DOCKED: USER    (2) Final Total Internal Energy     =  -1.38 kcal/mol
DOCKED: USER    (3) Torsional Free Energy           =  +1.49 kcal/mol
DOCKED: USER    (4) Unbound System's Energy         =  -1.38 kcal/mol
DOCKED: USER
DOCKED: USER
DOCKED: REMARK  5 active torsions:
DOCKED: REMARK  status: ('A' for Active; 'I' for Inactive)
DOCKED: REMARK    1  A    between atoms: C_2  and  C_19 
DOCKED: REMARK    2  A    between atoms: C_2  and  C_11 
DOCKED: REMARK    3  A    between atoms: C_19  and  C_20 
DOCKED: REMARK    4  A    between atoms: C_20  and  C_21 
DOCKED: REMARK    5  A    between atoms: C_21  and  N_22 
DOCKED: USER                              x       y       z     vdW  Elec       q    Type
DOCKED: USER                           _______ _______ _______ _____ _____    ______ ____
DOCKED: ROOT
DOCKED: ATOM      1  O   UNL     1     -45.398 -11.157   3.222 -0.71 -0.00    -0.346 OA 
DOCKED: ATOM      2  C   UNL     1     -44.058 -11.503   3.698 -0.22 +0.00    +0.130 C  
DOCKED: ATOM      3  C   UNL     1     -44.253 -12.817   4.398 -0.21 +0.00    +0.004 A  
DOCKED: ATOM      4  C   UNL     1     -45.565 -13.240   4.240 -0.31 +0.00    +0.006 A  
DOCKED: ATOM      5  C   UNL     1     -46.316 -12.257   3.427 -0.36 +0.00    +0.169 C  
DOCKED: ATOM      6  C   UNL     1     -43.339 -13.582   5.107 -0.14 -0.00    -0.001 A  
DOCKED: ATOM      7  C   UNL     1     -46.008 -14.432   4.786 -0.29 +0.00    +0.008 A  
DOCKED: ATOM      8  C   UNL     1     -43.772 -14.785   5.667 -0.13 +0.00    +0.010 A  
DOCKED: ATOM      9  C   UNL     1     -45.100 -15.208   5.507 -0.21 +0.00    +0.068 A  
DOCKED: ATOM     10  N   UNL     1     -45.869 -17.449   6.555 -0.06 -0.00    -0.191 NA 
DOCKED: ATOM     11  C   UNL     1     -45.524 -16.444   6.086 -0.21 +0.00    +0.101 C  
DOCKED: ENDROOT
DOCKED: BRANCH   2  12
DOCKED: ATOM     12  C   UNL     1     -43.130 -11.603   2.494 -0.20 +0.00    +0.038 C  
DOCKED: BRANCH  12  13
DOCKED: ATOM     13  C   UNL     1     -43.917 -11.660   1.186 -0.27 +0.00    +0.038 C  
DOCKED: BRANCH  13  14
DOCKED: ATOM     14  C   UNL     1     -44.278 -13.099   0.824 -0.17 +0.00    +0.251 C  
DOCKED: BRANCH  14  15
DOCKED: ATOM     15  N   UNL     1     -43.170 -13.994   1.139 -0.10 +0.00    +0.141 N  
DOCKED: ATOM     16  C   UNL     1     -43.670 -15.300   1.574 -0.12 +0.00    +0.285 C  
DOCKED: ATOM     17  C   UNL     1     -42.287 -14.149  -0.018 -0.03 +0.00    +0.285 C  
DOCKED: ENDBRANCH  14  15
DOCKED: ENDBRANCH  13  14
DOCKED: ENDBRANCH  12  13
DOCKED: ENDBRANCH   2  12
DOCKED: BRANCH   2  18
DOCKED: ATOM     18  C   UNL     1     -43.628 -10.411   4.620 -0.24 +0.00    +0.006 A  
DOCKED: ATOM     19  C   UNL     1     -42.323 -10.387   5.110 -0.17 +0.00    +0.001 A  
DOCKED: ATOM     20  C   UNL     1     -41.922  -9.366   5.973 -0.13 +0.00    +0.029 A  
DOCKED: ATOM     21  C   UNL     1     -42.825  -8.371   6.343 -0.14 +0.00    +0.140 A  
DOCKED: ATOM     22  C   UNL     1     -44.130  -8.396   5.853 -0.31 +0.00    +0.029 A  
DOCKED: ATOM     23  F   UNL     1     -42.439  -7.390   7.170 -0.02 -0.00    -0.204 F  
DOCKED: ATOM     24  C   UNL     1     -44.533  -9.417   4.990 -0.26 +0.00    +0.001 A  
DOCKED: ENDBRANCH   2  18
DOCKED: TORSDOF 5
DOCKED: TER
DOCKED: ENDMDL
________________________________________________________________________________


    FINAL DOCKED STATE:
    ________________________


Run:   203 / 512
Time taken for this run:   0.002s

DOCKED: MODEL        203
DOCKED: USER    Run = 203
DOCKED: USER
DOCKED: USER    Estimated Free Energy of Binding    =  -4.92 kcal/mol  [=(1)+(2)+(3)-(4)]
DOCKED: USER
DOCKED: USER    (1) Final Intermolecular Energy     =  -6.41 kcal/mol
DOCKED: USER        vdW + Hbond + desolv Energy     =  -6.41 kcal/mol
DOCKED: USER        Electrostatic Energy            =  +0.00 kcal/mol
DOCKED: USER        Moving Ligand-Fixed Receptor    =  -6.41 kcal/mol
DOCKED: USER        Moving Ligand-Moving Receptor   =  +0.00 kcal/mol
DOCKED: USER    (2) Final Total Internal Energy     =  -1.53 kcal/mol
DOCKED: USER    (3) Torsional Free Energy           =  +1.49 kcal/mol
DOCKED: USER    (4) Unbound System's Energy         =  -1.53 kcal/mol
DOCKED: USER
DOCKED: USER
DOCKED: REMARK  5 active torsions:
DOCKED: REMARK  status: ('A' for Active; 'I' for Inactive)
DOCKED: REMARK    1  A    between atoms: C_2  and  C_19 
DOCKED: REMARK    2  A    between atoms: C_2  and  C_11 
DOCKED: REMARK    3  A    between atoms: C_19  and  C_20 
DOCKED: REMARK    4  A    between atoms: C_20  and  C_21 
DOCKED: REMARK    5  A    between atoms: C_21  and  N_22 
DOCKED: USER                              x       y       z     vdW  Elec       q    Type
DOCKED: USER                           _______ _______ _______ _____ _____    ______ ____
DOCKED: ROOT
DOCKED: ATOM      1  O   UNL     1     -48.209 -21.830  14.756 -0.05 -0.00    -0.346 OA 
DOCKED: ATOM      2  C   UNL     1     -49.215 -22.871  14.968 -0.14 +0.00    +0.130 C  
DOCKED: ATOM      3  C   UNL     1     -49.634 -23.255  13.579 -0.26 +0.00    +0.004 A  
DOCKED: ATOM      4  C   UNL     1     -48.858 -22.574  12.652 -0.35 +0.00    +0.006 A  
DOCKED: ATOM      5  C   UNL     1     -47.877 -21.715  13.353 -0.19 +0.00    +0.169 C  
DOCKED: ATOM      6  C   UNL     1     -50.616 -24.145  13.168 -0.29 -0.00    -0.001 A  
DOCKED: ATOM      7  C   UNL     1     -49.037 -22.753  11.291 -0.11 +0.00    +0.008 A  
DOCKED: ATOM      8  C   UNL     1     -50.812 -24.333  11.798 -0.39 +0.00    +0.010 A  
DOCKED: ATOM      9  C   UNL     1     -50.026 -23.641  10.865 -0.39 +0.00    +0.068 A  
DOCKED: ATOM     10  N   UNL     1     -50.412 -24.018   8.331 -3.10 -0.00    -0.191 NA 
DOCKED: ATOM     11  C   UNL     1     -50.239 -23.848   9.468 -0.34 +0.00    +0.101 C  
DOCKED: ENDROOT
DOCKED: BRANCH   2  12
DOCKED: ATOM     12  C   UNL     1     -48.567 -24.020  15.732 -0.25 +0.00    +0.038 C  
DOCKED: BRANCH  12  13
DOCKED: ATOM     13  C   UNL     1     -47.335 -23.552  16.503 -0.15 +0.00    +0.038 C  
DOCKED: BRANCH  13  14
DOCKED: ATOM     14  C   UNL     1     -47.731 -22.894  17.824 -0.06 +0.00    +0.251 C  
DOCKED: BRANCH  14  15
DOCKED: ATOM     15  N   UNL     1     -46.945 -21.686  18.044 -0.02 +0.00    +0.141 N  
DOCKED: ATOM     16  C   UNL     1     -45.754 -21.683  17.194 -0.04 +0.00    +0.285 C  
DOCKED: ATOM     17  C   UNL     1     -47.753 -20.492  17.790 -0.00 +0.00    +0.285 C  
DOCKED: ENDBRANCH  14  15
DOCKED: ENDBRANCH  13  14
DOCKED: ENDBRANCH  12  13
DOCKED: ENDBRANCH   2  12
DOCKED: BRANCH   2  18
DOCKED: ATOM     18  C   UNL     1     -50.320 -22.255  15.760 -0.08 +0.00    +0.006 A  
DOCKED: ATOM     19  C   UNL     1     -50.533 -20.878  15.704 -0.06 +0.00    +0.001 A  
DOCKED: ATOM     20  C   UNL     1     -51.567 -20.303  16.444 -0.03 +0.00    +0.029 A  
DOCKED: ATOM     21  C   UNL     1     -52.385 -21.105  17.238 -0.01 +0.00    +0.140 A  
DOCKED: ATOM     22  C   UNL     1     -52.172 -22.482  17.293 -0.04 +0.00    +0.029 A  
DOCKED: ATOM     23  F   UNL     1     -53.378 -20.553  17.948 +0.01 -0.00    -0.204 F  
DOCKED: ATOM     24  C   UNL     1     -51.138 -23.058  16.553 -0.08 +0.00    +0.001 A  
DOCKED: ENDBRANCH   2  18
DOCKED: TORSDOF 5
DOCKED: TER
DOCKED: ENDMDL
________________________________________________________________________________


    FINAL DOCKED STATE:
    ________________________


Run:   204 / 512
Time taken for this run:   0.002s

DOCKED: MODEL        204
DOCKED: USER    Run = 204
DOCKED: USER
DOCKED: USER    Estimated Free Energy of Binding    =  -4.01 kcal/mol  [=(1)+(2)+(3)-(4)]
DOCKED: USER
DOCKED: USER    (1) Final Intermolecular Energy     =  -5.50 kcal/mol
DOCKED: USER        vdW + Hbond + desolv Energy     =  -5.50 kcal/mol
DOCKED: USER        Electrostatic Energy            =  +0.00 kcal/mol
DOCKED: USER        Moving Ligand-Fixed Receptor    =  -5.50 kcal/mol
DOCKED: USER        Moving Ligand-Moving Receptor   =  +0.00 kcal/mol
DOCKED: USER    (2) Final Total Internal Energy     =  -1.36 kcal/mol
DOCKED: USER    (3) Torsional Free Energy           =  +1.49 kcal/mol
DOCKED: USER    (4) Unbound System's Energy         =  -1.36 kcal/mol
DOCKED: USER
DOCKED: USER
DOCKED: REMARK  5 active torsions:
DOCKED: REMARK  status: ('A' for Active; 'I' for Inactive)
DOCKED: REMARK    1  A    between atoms: C_2  and  C_19 
DOCKED: REMARK    2  A    between atoms: C_2  and  C_11 
DOCKED: REMARK    3  A    between atoms: C_19  and  C_20 
DOCKED: REMARK    4  A    between atoms: C_20  and  C_21 
DOCKED: REMARK    5  A    between atoms: C_21  and  N_22 
DOCKED: USER                              x       y       z     vdW  Elec       q    Type
DOCKED: USER                           _______ _______ _______ _____ _____    ______ ____
DOCKED: ROOT
DOCKED: ATOM      1  O   UNL     1     -41.450 -11.347   4.671 -0.01 -0.00    -0.346 OA 
DOCKED: ATOM      2  C   UNL     1     -41.371 -11.139   3.224 -0.06 +0.00    +0.130 C  
DOCKED: ATOM      3  C   UNL     1     -42.758 -11.447   2.741 -0.15 +0.00    +0.004 A  
DOCKED: ATOM      4  C   UNL     1     -43.585 -11.701   3.826 -0.21 +0.00    +0.006 A  
DOCKED: ATOM      5  C   UNL     1     -42.818 -11.568   5.084 -0.15 +0.00    +0.169 C  
DOCKED: ATOM      6  C   UNL     1     -43.252 -11.489   1.445 -0.20 -0.00    -0.001 A  
DOCKED: ATOM      7  C   UNL     1     -44.925 -12.008   3.655 -0.32 +0.00    +0.008 A  
DOCKED: ATOM      8  C   UNL     1     -44.599 -11.801   1.256 -0.30 +0.00    +0.010 A  
DOCKED: ATOM      9  C   UNL     1     -45.431 -12.058   2.355 -0.36 +0.00    +0.068 A  
DOCKED: ATOM     10  N   UNL     1     -47.929 -12.629   1.969 -2.49 -0.00    -0.191 NA 
DOCKED: ATOM     11  C   UNL     1     -46.808 -12.374   2.142 -0.37 +0.00    +0.101 C  
DOCKED: ENDROOT
DOCKED: BRANCH   2  12
DOCKED: ATOM     12  C   UNL     1     -40.960  -9.694   2.966 -0.10 +0.00    +0.038 C  
DOCKED: BRANCH  12  13
DOCKED: ATOM     13  C   UNL     1     -42.151  -8.746   3.090 -0.15 +0.00    +0.038 C  
DOCKED: BRANCH  13  14
DOCKED: ATOM     14  C   UNL     1     -42.129  -8.007   4.427 -0.09 +0.00    +0.251 C  
DOCKED: BRANCH  14  15
DOCKED: ATOM     15  N   UNL     1     -43.069  -8.618   5.359 -0.17 +0.00    +0.141 N  
DOCKED: ATOM     16  C   UNL     1     -42.573  -8.517   6.733 -0.11 +0.00    +0.285 C  
DOCKED: ATOM     17  C   UNL     1     -44.387  -7.991   5.248 -0.21 +0.00    +0.285 C  
DOCKED: ENDBRANCH  14  15
DOCKED: ENDBRANCH  13  14
DOCKED: ENDBRANCH  12  13
DOCKED: ENDBRANCH   2  12
DOCKED: BRANCH   2  18
DOCKED: ATOM     18  C   UNL     1     -40.348 -12.091   2.702 -0.02 +0.00    +0.006 A  
DOCKED: ATOM     19  C   UNL     1     -40.357 -13.422   3.118 -0.01 +0.00    +0.001 A  
DOCKED: ATOM     20  C   UNL     1     -39.400 -14.311   2.628 -0.00 +0.00    +0.029 A  
DOCKED: ATOM     21  C   UNL     1     -38.435 -13.869   1.724 +0.00 +0.00    +0.140 A  
DOCKED: ATOM     22  C   UNL     1     -38.426 -12.538   1.308 -0.01 +0.00    +0.029 A  
DOCKED: ATOM     23  F   UNL     1     -37.517 -14.723   1.253 +0.00 -0.00    -0.204 F  
DOCKED: ATOM     24  C   UNL     1     -39.383 -11.647   1.798 -0.02 +0.00    +0.001 A  
DOCKED: ENDBRANCH   2  18
DOCKED: TORSDOF 5
DOCKED: TER
DOCKED: ENDMDL
________________________________________________________________________________


    FINAL DOCKED STATE:
    ________________________


Run:   205 / 512
Time taken for this run:   0.002s

DOCKED: MODEL        205
DOCKED: USER    Run = 205
DOCKED: USER
DOCKED: USER    Estimated Free Energy of Binding    =  -4.35 kcal/mol  [=(1)+(2)+(3)-(4)]
DOCKED: USER
DOCKED: USER    (1) Final Intermolecular Energy     =  -5.84 kcal/mol
DOCKED: USER        vdW + Hbond + desolv Energy     =  -5.84 kcal/mol
DOCKED: USER        Electrostatic Energy            =  +0.00 kcal/mol
DOCKED: USER        Moving Ligand-Fixed Receptor    =  -5.84 kcal/mol
DOCKED: USER        Moving Ligand-Moving Receptor   =  +0.00 kcal/mol
DOCKED: USER    (2) Final Total Internal Energy     =  -1.23 kcal/mol
DOCKED: USER    (3) Torsional Free Energy           =  +1.49 kcal/mol
DOCKED: USER    (4) Unbound System's Energy         =  -1.23 kcal/mol
DOCKED: USER
DOCKED: USER
DOCKED: REMARK  5 active torsions:
DOCKED: REMARK  status: ('A' for Active; 'I' for Inactive)
DOCKED: REMARK    1  A    between atoms: C_2  and  C_19 
DOCKED: REMARK    2  A    between atoms: C_2  and  C_11 
DOCKED: REMARK    3  A    between atoms: C_19  and  C_20 
DOCKED: REMARK    4  A    between atoms: C_20  and  C_21 
DOCKED: REMARK    5  A    between atoms: C_21  and  N_22 
DOCKED: USER                              x       y       z     vdW  Elec       q    Type
DOCKED: USER                           _______ _______ _______ _____ _____    ______ ____
DOCKED: ROOT
DOCKED: ATOM      1  O   UNL     1     -45.760 -21.702  15.401 -0.08 -0.00    -0.346 OA 
DOCKED: ATOM      2  C   UNL     1     -46.733 -20.806  14.774 -0.14 +0.00    +0.130 C  
DOCKED: ATOM      3  C   UNL     1     -47.649 -21.733  14.029 -0.23 +0.00    +0.004 A  
DOCKED: ATOM      4  C   UNL     1     -47.299 -23.049  14.296 -0.27 +0.00    +0.006 A  
DOCKED: ATOM      5  C   UNL     1     -46.152 -23.084  15.231 -0.13 +0.00    +0.169 C  
DOCKED: ATOM      6  C   UNL     1     -48.715 -21.436  13.192 -0.29 -0.00    -0.001 A  
DOCKED: ATOM      7  C   UNL     1     -47.993 -24.107  13.735 -0.37 +0.00    +0.008 A  
DOCKED: ATOM      8  C   UNL     1     -49.422 -22.492  12.616 -0.33 +0.00    +0.010 A  
DOCKED: ATOM      9  C   UNL     1     -49.063 -23.821  12.886 -0.33 +0.00    +0.068 A  
DOCKED: ATOM     10  N   UNL     1     -50.401 -25.758  11.803 -2.40 -0.00    -0.191 NA 
DOCKED: ATOM     11  C   UNL     1     -49.801 -24.889  12.289 -0.33 +0.00    +0.101 C  
DOCKED: ENDROOT
DOCKED: BRANCH   2  12
DOCKED: ATOM     12  C   UNL     1     -47.445 -20.023  15.872 -0.06 +0.00    +0.038 C  
DOCKED: BRANCH  12  13
DOCKED: ATOM     13  C   UNL     1     -48.269 -20.945  16.768 -0.05 +0.00    +0.038 C  
DOCKED: BRANCH  13  14
DOCKED: ATOM     14  C   UNL     1     -49.750 -20.891  16.399 -0.02 +0.00    +0.251 C  
DOCKED: BRANCH  14  15
DOCKED: ATOM     15  N   UNL     1     -50.059 -19.635  15.725 -0.03 +0.00    +0.141 N  
DOCKED: ATOM     16  C   UNL     1     -51.215 -19.794  14.842 -0.07 +0.00    +0.285 C  
DOCKED: ATOM     17  C   UNL     1     -50.309 -18.573  16.702 -0.00 +0.00    +0.285 C  
DOCKED: ENDBRANCH  14  15
DOCKED: ENDBRANCH  13  14
DOCKED: ENDBRANCH  12  13
DOCKED: ENDBRANCH   2  12
DOCKED: BRANCH   2  18
DOCKED: ATOM     18  C   UNL     1     -45.969 -19.894  13.872 -0.13 +0.00    +0.006 A  
DOCKED: ATOM     19  C   UNL     1     -44.582 -19.809  13.981 -0.11 +0.00    +0.001 A  
DOCKED: ATOM     20  C   UNL     1     -43.869 -18.956  13.138 -0.09 +0.00    +0.029 A  
DOCKED: ATOM     21  C   UNL     1     -44.543 -18.191  12.187 -0.08 +0.00    +0.140 A  
DOCKED: ATOM     22  C   UNL     1     -45.931 -18.278  12.079 -0.13 +0.00    +0.029 A  
DOCKED: ATOM     23  F   UNL     1     -43.858 -17.375  11.376 -0.00 -0.00    -0.204 F  
DOCKED: ATOM     24  C   UNL     1     -46.645 -19.130  12.922 -0.17 +0.00    +0.001 A  
DOCKED: ENDBRANCH   2  18
DOCKED: TORSDOF 5
DOCKED: TER
DOCKED: ENDMDL
________________________________________________________________________________


    FINAL DOCKED STATE:
    ________________________


Run:   206 / 512
Time taken for this run:   0.002s

DOCKED: MODEL        206
DOCKED: USER    Run = 206
DOCKED: USER
DOCKED: USER    Estimated Free Energy of Binding    =  -4.03 kcal/mol  [=(1)+(2)+(3)-(4)]
DOCKED: USER
DOCKED: USER    (1) Final Intermolecular Energy     =  -5.52 kcal/mol
DOCKED: USER        vdW + Hbond + desolv Energy     =  -5.52 kcal/mol
DOCKED: USER        Electrostatic Energy            =  +0.00 kcal/mol
DOCKED: USER        Moving Ligand-Fixed Receptor    =  -5.52 kcal/mol
DOCKED: USER        Moving Ligand-Moving Receptor   =  +0.00 kcal/mol
DOCKED: USER    (2) Final Total Internal Energy     =  -1.36 kcal/mol
DOCKED: USER    (3) Torsional Free Energy           =  +1.49 kcal/mol
DOCKED: USER    (4) Unbound System's Energy         =  -1.36 kcal/mol
DOCKED: USER
DOCKED: USER
DOCKED: REMARK  5 active torsions:
DOCKED: REMARK  status: ('A' for Active; 'I' for Inactive)
DOCKED: REMARK    1  A    between atoms: C_2  and  C_19 
DOCKED: REMARK    2  A    between atoms: C_2  and  C_11 
DOCKED: REMARK    3  A    between atoms: C_19  and  C_20 
DOCKED: REMARK    4  A    between atoms: C_20  and  C_21 
DOCKED: REMARK    5  A    between atoms: C_21  and  N_22 
DOCKED: USER                              x       y       z     vdW  Elec       q    Type
DOCKED: USER                           _______ _______ _______ _____ _____    ______ ____
DOCKED: ROOT
DOCKED: ATOM      1  O   UNL     1     -45.558 -21.518  15.524 -0.07 -0.00    -0.346 OA 
DOCKED: ATOM      2  C   UNL     1     -46.783 -20.723  15.426 -0.09 +0.00    +0.130 C  
DOCKED: ATOM      3  C   UNL     1     -47.732 -21.615  14.680 -0.18 +0.00    +0.004 A  
DOCKED: ATOM      4  C   UNL     1     -47.141 -22.852  14.467 -0.25 +0.00    +0.006 A  
DOCKED: ATOM      5  C   UNL     1     -45.785 -22.869  15.059 -0.14 +0.00    +0.169 C  
DOCKED: ATOM      6  C   UNL     1     -49.020 -21.356  14.235 -0.19 -0.00    -0.001 A  
DOCKED: ATOM      7  C   UNL     1     -47.810 -23.866  13.802 -0.35 +0.00    +0.008 A  
DOCKED: ATOM      8  C   UNL     1     -49.707 -22.367  13.559 -0.25 +0.00    +0.010 A  
DOCKED: ATOM      9  C   UNL     1     -49.104 -23.616  13.345 -0.28 +0.00    +0.068 A  
DOCKED: ATOM     10  N   UNL     1     -50.407 -25.471  12.091 -2.56 -0.00    -0.191 NA 
DOCKED: ATOM     11  C   UNL     1     -49.822 -24.639  12.653 -0.33 +0.00    +0.101 C  
DOCKED: ENDROOT
DOCKED: BRANCH   2  12
DOCKED: ATOM     12  C   UNL     1     -47.260 -20.397  16.836 -0.03 +0.00    +0.038 C  
DOCKED: BRANCH  12  13
DOCKED: ATOM     13  C   UNL     1     -48.172 -21.493  17.384 -0.04 +0.00    +0.038 C  
DOCKED: BRANCH  13  14
DOCKED: ATOM     14  C   UNL     1     -47.582 -22.119  18.646 -0.02 +0.00    +0.251 C  
DOCKED: BRANCH  14  15
DOCKED: ATOM     15  N   UNL     1     -46.596 -23.135  18.295 -0.07 +0.00    +0.141 N  
DOCKED: ATOM     16  C   UNL     1     -45.274 -22.770  18.806 -0.04 +0.00    +0.285 C  
DOCKED: ATOM     17  C   UNL     1     -46.998 -24.444  18.813 -0.11 +0.00    +0.285 C  
DOCKED: ENDBRANCH  14  15
DOCKED: ENDBRANCH  13  14
DOCKED: ENDBRANCH  12  13
DOCKED: ENDBRANCH   2  12
DOCKED: BRANCH   2  18
DOCKED: ATOM     18  C   UNL     1     -46.438 -19.482  14.673 -0.10 +0.00    +0.006 A  
DOCKED: ATOM     19  C   UNL     1     -46.303 -19.523  13.286 -0.16 +0.00    +0.001 A  
DOCKED: ATOM     20  C   UNL     1     -45.980 -18.361  12.584 -0.13 +0.00    +0.029 A  
DOCKED: ATOM     21  C   UNL     1     -45.794 -17.161  13.268 -0.04 +0.00    +0.140 A  
DOCKED: ATOM     22  C   UNL     1     -45.929 -17.121  14.656 -0.02 +0.00    +0.029 A  
DOCKED: ATOM     23  F   UNL     1     -45.486 -16.046  12.594 -0.00 -0.00    -0.204 F  
DOCKED: ATOM     24  C   UNL     1     -46.252 -18.282  15.360 -0.03 +0.00    +0.001 A  
DOCKED: ENDBRANCH   2  18
DOCKED: TORSDOF 5
DOCKED: TER
DOCKED: ENDMDL
________________________________________________________________________________


    FINAL DOCKED STATE:
    ________________________


Run:   207 / 512
Time taken for this run:   0.002s

DOCKED: MODEL        207
DOCKED: USER    Run = 207
DOCKED: USER
DOCKED: USER    Estimated Free Energy of Binding    =  -6.28 kcal/mol  [=(1)+(2)+(3)-(4)]
DOCKED: USER
DOCKED: USER    (1) Final Intermolecular Energy     =  -7.78 kcal/mol
DOCKED: USER        vdW + Hbond + desolv Energy     =  -7.78 kcal/mol
DOCKED: USER        Electrostatic Energy            =  +0.00 kcal/mol
DOCKED: USER        Moving Ligand-Fixed Receptor    =  -7.78 kcal/mol
DOCKED: USER        Moving Ligand-Moving Receptor   =  +0.00 kcal/mol
DOCKED: USER    (2) Final Total Internal Energy     =  -1.06 kcal/mol
DOCKED: USER    (3) Torsional Free Energy           =  +1.49 kcal/mol
DOCKED: USER    (4) Unbound System's Energy         =  -1.06 kcal/mol
DOCKED: USER
DOCKED: USER
DOCKED: REMARK  5 active torsions:
DOCKED: REMARK  status: ('A' for Active; 'I' for Inactive)
DOCKED: REMARK    1  A    between atoms: C_2  and  C_19 
DOCKED: REMARK    2  A    between atoms: C_2  and  C_11 
DOCKED: REMARK    3  A    between atoms: C_19  and  C_20 
DOCKED: REMARK    4  A    between atoms: C_20  and  C_21 
DOCKED: REMARK    5  A    between atoms: C_21  and  N_22 
DOCKED: USER                              x       y       z     vdW  Elec       q    Type
DOCKED: USER                           _______ _______ _______ _____ _____    ______ ____
DOCKED: ROOT
DOCKED: ATOM      1  O   UNL     1     -47.953 -24.771  14.577 -0.39 -0.00    -0.346 OA 
DOCKED: ATOM      2  C   UNL     1     -49.291 -24.188  14.689 -0.23 +0.00    +0.130 C  
DOCKED: ATOM      3  C   UNL     1     -49.758 -24.087  13.266 -0.31 +0.00    +0.004 A  
DOCKED: ATOM      4  C   UNL     1     -48.818 -24.663  12.423 -0.43 +0.00    +0.006 A  
DOCKED: ATOM      5  C   UNL     1     -47.686 -25.189  13.218 -0.30 +0.00    +0.169 C  
DOCKED: ATOM      6  C   UNL     1     -50.928 -23.539  12.759 -0.30 -0.00    -0.001 A  
DOCKED: ATOM      7  C   UNL     1     -49.010 -24.708  11.053 -0.41 +0.00    +0.008 A  
DOCKED: ATOM      8  C   UNL     1     -51.134 -23.573  11.378 -0.30 +0.00    +0.010 A  
DOCKED: ATOM      9  C   UNL     1     -50.180 -24.154  10.530 -0.43 +0.00    +0.068 A  
DOCKED: ATOM     10  N   UNL     1     -50.597 -24.205   7.973 -3.19 -0.00    -0.191 NA 
DOCKED: ATOM     11  C   UNL     1     -50.410 -24.182   9.120 -0.29 +0.00    +0.101 C  
DOCKED: ENDROOT
DOCKED: BRANCH   2  12
DOCKED: ATOM     12  C   UNL     1     -50.154 -25.118  15.533 -0.23 +0.00    +0.038 C  
DOCKED: BRANCH  12  13
DOCKED: ATOM     13  C   UNL     1     -51.638 -24.942  15.214 -0.26 +0.00    +0.038 C  
DOCKED: BRANCH  13  14
DOCKED: ATOM     14  C   UNL     1     -52.253 -23.828  16.059 -0.06 +0.00    +0.251 C  
DOCKED: BRANCH  14  15
DOCKED: ATOM     15  N   UNL     1     -52.063 -24.104  17.478 -0.08 +0.00    +0.141 N  
DOCKED: ATOM     16  C   UNL     1     -52.654 -23.041  18.293 -0.00 +0.00    +0.285 C  
DOCKED: ATOM     17  C   UNL     1     -52.645 -25.399  17.833 -0.07 +0.00    +0.285 C  
DOCKED: ENDBRANCH  14  15
DOCKED: ENDBRANCH  13  14
DOCKED: ENDBRANCH  12  13
DOCKED: ENDBRANCH   2  12
DOCKED: BRANCH   2  18
DOCKED: ATOM     18  C   UNL     1     -49.133 -22.857  15.345 -0.14 +0.00    +0.006 A  
DOCKED: ATOM     19  C   UNL     1     -49.058 -21.701  14.568 -0.16 +0.00    +0.001 A  
DOCKED: ATOM     20  C   UNL     1     -48.910 -20.457  15.183 -0.08 +0.00    +0.029 A  
DOCKED: ATOM     21  C   UNL     1     -48.839 -20.371  16.572 -0.02 +0.00    +0.140 A  
DOCKED: ATOM     22  C   UNL     1     -48.914 -21.527  17.349 -0.03 +0.00    +0.029 A  
DOCKED: ATOM     23  F   UNL     1     -48.699 -19.176  17.162 +0.00 -0.00    -0.204 F  
DOCKED: ATOM     24  C   UNL     1     -49.061 -22.771  16.735 -0.09 +0.00    +0.001 A  
DOCKED: ENDBRANCH   2  18
DOCKED: TORSDOF 5
DOCKED: TER
DOCKED: ENDMDL
________________________________________________________________________________


    FINAL DOCKED STATE:
    ________________________


Run:   208 / 512
Time taken for this run:   0.002s

DOCKED: MODEL        208
DOCKED: USER    Run = 208
DOCKED: USER
DOCKED: USER    Estimated Free Energy of Binding    =  -4.45 kcal/mol  [=(1)+(2)+(3)-(4)]
DOCKED: USER
DOCKED: USER    (1) Final Intermolecular Energy     =  -5.94 kcal/mol
DOCKED: USER        vdW + Hbond + desolv Energy     =  -5.94 kcal/mol
DOCKED: USER        Electrostatic Energy            =  +0.00 kcal/mol
DOCKED: USER        Moving Ligand-Fixed Receptor    =  -5.94 kcal/mol
DOCKED: USER        Moving Ligand-Moving Receptor   =  +0.00 kcal/mol
DOCKED: USER    (2) Final Total Internal Energy     =  -1.14 kcal/mol
DOCKED: USER    (3) Torsional Free Energy           =  +1.49 kcal/mol
DOCKED: USER    (4) Unbound System's Energy         =  -1.14 kcal/mol
DOCKED: USER
DOCKED: USER
DOCKED: REMARK  5 active torsions:
DOCKED: REMARK  status: ('A' for Active; 'I' for Inactive)
DOCKED: REMARK    1  A    between atoms: C_2  and  C_19 
DOCKED: REMARK    2  A    between atoms: C_2  and  C_11 
DOCKED: REMARK    3  A    between atoms: C_19  and  C_20 
DOCKED: REMARK    4  A    between atoms: C_20  and  C_21 
DOCKED: REMARK    5  A    between atoms: C_21  and  N_22 
DOCKED: USER                              x       y       z     vdW  Elec       q    Type
DOCKED: USER                           _______ _______ _______ _____ _____    ______ ____
DOCKED: ROOT
DOCKED: ATOM      1  O   UNL     1     -47.948 -19.083  13.464 -0.08 -0.00    -0.346 OA 
DOCKED: ATOM      2  C   UNL     1     -49.246 -19.262  14.115 -0.15 +0.00    +0.130 C  
DOCKED: ATOM      3  C   UNL     1     -49.635 -20.668  13.761 -0.22 +0.00    +0.004 A  
DOCKED: ATOM      4  C   UNL     1     -48.601 -21.277  13.064 -0.28 +0.00    +0.006 A  
DOCKED: ATOM      5  C   UNL     1     -47.468 -20.335  12.921 -0.09 +0.00    +0.169 C  
DOCKED: ATOM      6  C   UNL     1     -50.805 -21.358  14.043 -0.20 -0.00    -0.001 A  
DOCKED: ATOM      7  C   UNL     1     -48.701 -22.586  12.624 -0.33 +0.00    +0.008 A  
DOCKED: ATOM      8  C   UNL     1     -50.923 -22.677  13.603 -0.22 +0.00    +0.010 A  
DOCKED: ATOM      9  C   UNL     1     -49.876 -23.288  12.897 -0.27 +0.00    +0.068 A  
DOCKED: ATOM     10  N   UNL     1     -50.125 -25.740  12.097 -2.59 -0.00    -0.191 NA 
DOCKED: ATOM     11  C   UNL     1     -50.013 -24.640  12.455 -0.37 +0.00    +0.101 C  
DOCKED: ENDROOT
DOCKED: BRANCH   2  12
DOCKED: ATOM     12  C   UNL     1     -49.068 -19.055  15.614 -0.05 +0.00    +0.038 C  
DOCKED: BRANCH  12  13
DOCKED: ATOM     13  C   UNL     1     -50.339 -19.413  16.381 -0.03 +0.00    +0.038 C  
DOCKED: BRANCH  13  14
DOCKED: ATOM     14  C   UNL     1     -50.892 -18.199  17.125 -0.00 +0.00    +0.251 C  
DOCKED: BRANCH  14  15
DOCKED: ATOM     15  N   UNL     1     -50.244 -16.979  16.659 -0.01 +0.00    +0.141 N  
DOCKED: ATOM     16  C   UNL     1     -51.241 -15.978  16.277 -0.00 +0.00    +0.285 C  
DOCKED: ATOM     17  C   UNL     1     -49.354 -16.442  17.690 +0.00 +0.00    +0.285 C  
DOCKED: ENDBRANCH  14  15
DOCKED: ENDBRANCH  13  14
DOCKED: ENDBRANCH  12  13
DOCKED: ENDBRANCH   2  12
DOCKED: BRANCH   2  18
DOCKED: ATOM     18  C   UNL     1     -50.168 -18.241  13.536 -0.20 +0.00    +0.006 A  
DOCKED: ATOM     19  C   UNL     1     -49.656 -17.191  12.775 -0.17 +0.00    +0.001 A  
DOCKED: ATOM     20  C   UNL     1     -50.520 -16.237  12.235 -0.15 +0.00    +0.029 A  
DOCKED: ATOM     21  C   UNL     1     -51.892 -16.334  12.456 -0.10 +0.00    +0.140 A  
DOCKED: ATOM     22  C   UNL     1     -52.404 -17.385  13.217 -0.19 +0.00    +0.029 A  
DOCKED: ATOM     23  F   UNL     1     -52.721 -15.420  11.936 -0.03 -0.00    -0.204 F  
DOCKED: ATOM     24  C   UNL     1     -51.541 -18.340  13.758 -0.21 +0.00    +0.001 A  
DOCKED: ENDBRANCH   2  18
DOCKED: TORSDOF 5
DOCKED: TER
DOCKED: ENDMDL
________________________________________________________________________________


    FINAL DOCKED STATE:
    ________________________


Run:   209 / 512
Time taken for this run:   0.002s

DOCKED: MODEL        209
DOCKED: USER    Run = 209
DOCKED: USER
DOCKED: USER    Estimated Free Energy of Binding    =  -4.37 kcal/mol  [=(1)+(2)+(3)-(4)]
DOCKED: USER
DOCKED: USER    (1) Final Intermolecular Energy     =  -5.87 kcal/mol
DOCKED: USER        vdW + Hbond + desolv Energy     =  -5.87 kcal/mol
DOCKED: USER        Electrostatic Energy            =  +0.00 kcal/mol
DOCKED: USER        Moving Ligand-Fixed Receptor    =  -5.87 kcal/mol
DOCKED: USER        Moving Ligand-Moving Receptor   =  +0.00 kcal/mol
DOCKED: USER    (2) Final Total Internal Energy     =  -1.37 kcal/mol
DOCKED: USER    (3) Torsional Free Energy           =  +1.49 kcal/mol
DOCKED: USER    (4) Unbound System's Energy         =  -1.37 kcal/mol
DOCKED: USER
DOCKED: USER
DOCKED: REMARK  5 active torsions:
DOCKED: REMARK  status: ('A' for Active; 'I' for Inactive)
DOCKED: REMARK    1  A    between atoms: C_2  and  C_19 
DOCKED: REMARK    2  A    between atoms: C_2  and  C_11 
DOCKED: REMARK    3  A    between atoms: C_19  and  C_20 
DOCKED: REMARK    4  A    between atoms: C_20  and  C_21 
DOCKED: REMARK    5  A    between atoms: C_21  and  N_22 
DOCKED: USER                              x       y       z     vdW  Elec       q    Type
DOCKED: USER                           _______ _______ _______ _____ _____    ______ ____
DOCKED: ROOT
DOCKED: ATOM      1  O   UNL     1     -46.577 -15.561   8.031 -0.09 -0.00    -0.346 OA 
DOCKED: ATOM      2  C   UNL     1     -45.243 -15.264   7.507 -0.18 +0.00    +0.130 C  
DOCKED: ATOM      3  C   UNL     1     -45.515 -14.593   6.192 -0.22 +0.00    +0.004 A  
DOCKED: ATOM      4  C   UNL     1     -46.882 -14.422   6.028 -0.22 +0.00    +0.006 A  
DOCKED: ATOM      5  C   UNL     1     -47.599 -14.947   7.212 -0.05 +0.00    +0.169 C  
DOCKED: ATOM      6  C   UNL     1     -44.622 -14.159   5.222 -0.21 -0.00    -0.001 A  
DOCKED: ATOM      7  C   UNL     1     -47.403 -13.819   4.896 -0.28 +0.00    +0.008 A  
DOCKED: ATOM      8  C   UNL     1     -45.132 -13.553   4.072 -0.28 +0.00    +0.010 A  
DOCKED: ATOM      9  C   UNL     1     -46.515 -13.384   3.911 -0.35 +0.00    +0.068 A  
DOCKED: ATOM     10  N   UNL     1     -47.427 -12.250   1.767 -2.36 -0.00    -0.191 NA 
DOCKED: ATOM     11  C   UNL     1     -47.018 -12.759   2.728 -0.38 +0.00    +0.101 C  
DOCKED: ENDROOT
DOCKED: BRANCH   2  12
DOCKED: ATOM     12  C   UNL     1     -44.526 -14.356   8.499 -0.15 +0.00    +0.038 C  
DOCKED: BRANCH  12  13
DOCKED: ATOM     13  C   UNL     1     -45.505 -13.735   9.494 -0.11 +0.00    +0.038 C  
DOCKED: BRANCH  13  14
DOCKED: ATOM     14  C   UNL     1     -45.678 -14.626  10.723 -0.09 +0.00    +0.251 C  
DOCKED: BRANCH  14  15
DOCKED: ATOM     15  N   UNL     1     -46.941 -15.350  10.650 -0.09 +0.00    +0.141 N  
DOCKED: ATOM     16  C   UNL     1     -46.962 -16.449  11.617 -0.06 +0.00    +0.285 C  
DOCKED: ATOM     17  C   UNL     1     -48.068 -14.446  10.885 -0.07 +0.00    +0.285 C  
DOCKED: ENDBRANCH  14  15
DOCKED: ENDBRANCH  13  14
DOCKED: ENDBRANCH  12  13
DOCKED: ENDBRANCH   2  12
DOCKED: BRANCH   2  18
DOCKED: ATOM     18  C   UNL     1     -44.532 -16.567   7.360 -0.11 +0.00    +0.006 A  
DOCKED: ATOM     19  C   UNL     1     -43.521 -16.915   8.255 -0.05 +0.00    +0.001 A  
DOCKED: ATOM     20  C   UNL     1     -42.857 -18.134   8.116 -0.04 +0.00    +0.029 A  
DOCKED: ATOM     21  C   UNL     1     -43.204 -19.003   7.083 -0.10 +0.00    +0.140 A  
DOCKED: ATOM     22  C   UNL     1     -44.215 -18.655   6.188 -0.17 +0.00    +0.029 A  
DOCKED: ATOM     23  F   UNL     1     -42.568 -20.174   6.950 -0.03 -0.00    -0.204 F  
DOCKED: ATOM     24  C   UNL     1     -44.880 -17.436   6.326 -0.19 +0.00    +0.001 A  
DOCKED: ENDBRANCH   2  18
DOCKED: TORSDOF 5
DOCKED: TER
DOCKED: ENDMDL
________________________________________________________________________________


    FINAL DOCKED STATE:
    ________________________


Run:   210 / 512
Time taken for this run:   0.002s

DOCKED: MODEL        210
DOCKED: USER    Run = 210
DOCKED: USER
DOCKED: USER    Estimated Free Energy of Binding    =  -3.59 kcal/mol  [=(1)+(2)+(3)-(4)]
DOCKED: USER
DOCKED: USER    (1) Final Intermolecular Energy     =  -5.08 kcal/mol
DOCKED: USER        vdW + Hbond + desolv Energy     =  -5.08 kcal/mol
DOCKED: USER        Electrostatic Energy            =  +0.00 kcal/mol
DOCKED: USER        Moving Ligand-Fixed Receptor    =  -5.08 kcal/mol
DOCKED: USER        Moving Ligand-Moving Receptor   =  +0.00 kcal/mol
DOCKED: USER    (2) Final Total Internal Energy     =  -1.20 kcal/mol
DOCKED: USER    (3) Torsional Free Energy           =  +1.49 kcal/mol
DOCKED: USER    (4) Unbound System's Energy         =  -1.20 kcal/mol
DOCKED: USER
DOCKED: USER
DOCKED: REMARK  5 active torsions:
DOCKED: REMARK  status: ('A' for Active; 'I' for Inactive)
DOCKED: REMARK    1  A    between atoms: C_2  and  C_19 
DOCKED: REMARK    2  A    between atoms: C_2  and  C_11 
DOCKED: REMARK    3  A    between atoms: C_19  and  C_20 
DOCKED: REMARK    4  A    between atoms: C_20  and  C_21 
DOCKED: REMARK    5  A    between atoms: C_21  and  N_22 
DOCKED: USER                              x       y       z     vdW  Elec       q    Type
DOCKED: USER                           _______ _______ _______ _____ _____    ______ ____
DOCKED: ROOT
DOCKED: ATOM      1  O   UNL     1     -41.692 -11.225   5.174 -0.03 -0.00    -0.346 OA 
DOCKED: ATOM      2  C   UNL     1     -41.397 -11.611   3.793 -0.05 +0.00    +0.130 C  
DOCKED: ATOM      3  C   UNL     1     -42.747 -11.906   3.206 -0.12 +0.00    +0.004 A  
DOCKED: ATOM      4  C   UNL     1     -43.735 -11.610   4.134 -0.23 +0.00    +0.006 A  
DOCKED: ATOM      5  C   UNL     1     -43.119 -11.093   5.376 -0.16 +0.00    +0.169 C  
DOCKED: ATOM      6  C   UNL     1     -43.075 -12.389   1.947 -0.14 -0.00    -0.001 A  
DOCKED: ATOM      7  C   UNL     1     -45.076 -11.787   3.840 -0.33 +0.00    +0.008 A  
DOCKED: ATOM      8  C   UNL     1     -44.423 -12.577   1.637 -0.27 +0.00    +0.010 A  
DOCKED: ATOM      9  C   UNL     1     -45.418 -12.277   2.579 -0.35 +0.00    +0.068 A  
DOCKED: ATOM     10  N   UNL     1     -47.911 -12.634   1.970 -2.50 -0.00    -0.191 NA 
DOCKED: ATOM     11  C   UNL     1     -46.793 -12.475   2.244 -0.39 +0.00    +0.101 C  
DOCKED: ENDROOT
DOCKED: BRANCH   2  12
DOCKED: ATOM     12  C   UNL     1     -40.694 -10.446   3.106 -0.07 +0.00    +0.038 C  
DOCKED: BRANCH  12  13
DOCKED: ATOM     13  C   UNL     1     -41.564  -9.191   3.108 -0.15 +0.00    +0.038 C  
DOCKED: BRANCH  13  14
DOCKED: ATOM     14  C   UNL     1     -41.001  -8.133   4.055 -0.04 +0.00    +0.251 C  
DOCKED: BRANCH  14  15
DOCKED: ATOM     15  N   UNL     1     -42.084  -7.391   4.688 -0.09 +0.00    +0.141 N  
DOCKED: ATOM     16  C   UNL     1     -43.376  -8.013   4.396 -0.09 +0.00    +0.285 C  
DOCKED: ATOM     17  C   UNL     1     -41.876  -7.309   6.135 -0.03 +0.00    +0.285 C  
DOCKED: ENDBRANCH  14  15
DOCKED: ENDBRANCH  13  14
DOCKED: ENDBRANCH  12  13
DOCKED: ENDBRANCH   2  12
DOCKED: BRANCH   2  18
DOCKED: ATOM     18  C   UNL     1     -40.514 -12.812   3.855 -0.02 +0.00    +0.006 A  
DOCKED: ATOM     19  C   UNL     1     -40.392 -13.645   2.743 -0.01 +0.00    +0.001 A  
DOCKED: ATOM     20  C   UNL     1     -39.566 -14.768   2.803 -0.00 +0.00    +0.029 A  
DOCKED: ATOM     21  C   UNL     1     -38.864 -15.057   3.972 -0.00 +0.00    +0.140 A  
DOCKED: ATOM     22  C   UNL     1     -38.987 -14.223   5.084 -0.00 +0.00    +0.029 A  
DOCKED: ATOM     23  F   UNL     1     -38.070 -16.134   4.028 +0.00 -0.00    -0.204 F  
DOCKED: ATOM     24  C   UNL     1     -39.813 -13.100   5.025 -0.01 +0.00    +0.001 A  
DOCKED: ENDBRANCH   2  18
DOCKED: TORSDOF 5
DOCKED: TER
DOCKED: ENDMDL
________________________________________________________________________________


    FINAL DOCKED STATE:
    ________________________


Run:   211 / 512
Time taken for this run:   0.002s

DOCKED: MODEL        211
DOCKED: USER    Run = 211
DOCKED: USER
DOCKED: USER    Estimated Free Energy of Binding    =  -3.95 kcal/mol  [=(1)+(2)+(3)-(4)]
DOCKED: USER
DOCKED: USER    (1) Final Intermolecular Energy     =  -5.44 kcal/mol
DOCKED: USER        vdW + Hbond + desolv Energy     =  -5.44 kcal/mol
DOCKED: USER        Electrostatic Energy            =  +0.00 kcal/mol
DOCKED: USER        Moving Ligand-Fixed Receptor    =  -5.44 kcal/mol
DOCKED: USER        Moving Ligand-Moving Receptor   =  +0.00 kcal/mol
DOCKED: USER    (2) Final Total Internal Energy     =  -1.50 kcal/mol
DOCKED: USER    (3) Torsional Free Energy           =  +1.49 kcal/mol
DOCKED: USER    (4) Unbound System's Energy         =  -1.50 kcal/mol
DOCKED: USER
DOCKED: USER
DOCKED: REMARK  5 active torsions:
DOCKED: REMARK  status: ('A' for Active; 'I' for Inactive)
DOCKED: REMARK    1  A    between atoms: C_2  and  C_19 
DOCKED: REMARK    2  A    between atoms: C_2  and  C_11 
DOCKED: REMARK    3  A    between atoms: C_19  and  C_20 
DOCKED: REMARK    4  A    between atoms: C_20  and  C_21 
DOCKED: REMARK    5  A    between atoms: C_21  and  N_22 
DOCKED: USER                              x       y       z     vdW  Elec       q    Type
DOCKED: USER                           _______ _______ _______ _____ _____    ______ ____
DOCKED: ROOT
DOCKED: ATOM      1  O   UNL     1     -40.215 -20.740   6.838 +0.01 -0.00    -0.346 OA 
DOCKED: ATOM      2  C   UNL     1     -41.628 -20.446   7.083 -0.07 +0.00    +0.130 C  
DOCKED: ATOM      3  C   UNL     1     -42.114 -21.640   7.853 -0.15 +0.00    +0.004 A  
DOCKED: ATOM      4  C   UNL     1     -41.050 -22.489   8.121 -0.10 +0.00    +0.006 A  
DOCKED: ATOM      5  C   UNL     1     -39.801 -21.919   7.566 -0.02 +0.00    +0.169 C  
DOCKED: ATOM      6  C   UNL     1     -43.395 -21.944   8.292 -0.31 -0.00    -0.001 A  
DOCKED: ATOM      7  C   UNL     1     -41.227 -23.666   8.827 -0.17 +0.00    +0.008 A  
DOCKED: ATOM      8  C   UNL     1     -43.590 -23.130   9.002 -0.26 +0.00    +0.010 A  
DOCKED: ATOM      9  C   UNL     1     -42.512 -23.986   9.269 -0.30 +0.00    +0.068 A  
DOCKED: ATOM     10  N   UNL     1     -42.909 -26.177  10.594 -2.53 -0.00    -0.191 NA 
DOCKED: ATOM     11  C   UNL     1     -42.731 -25.194   9.999 -0.36 +0.00    +0.101 C  
DOCKED: ENDROOT
DOCKED: BRANCH   2  12
DOCKED: ATOM     12  C   UNL     1     -41.720 -19.149   7.878 -0.04 +0.00    +0.038 C  
DOCKED: BRANCH  12  13
DOCKED: ATOM     13  C   UNL     1     -40.334 -18.591   8.196 -0.01 +0.00    +0.038 C  
DOCKED: BRANCH  13  14
DOCKED: ATOM     14  C   UNL     1     -39.880 -17.603   7.124 +0.00 +0.00    +0.251 C  
DOCKED: BRANCH  14  15
DOCKED: ATOM     15  N   UNL     1     -39.138 -18.296   6.077 -0.00 +0.00    +0.141 N  
DOCKED: ATOM     16  C   UNL     1     -39.820 -18.164   4.788 +0.00 +0.00    +0.285 C  
DOCKED: ATOM     17  C   UNL     1     -37.772 -17.778   5.984 +0.00 +0.00    +0.285 C  
DOCKED: ENDBRANCH  14  15
DOCKED: ENDBRANCH  13  14
DOCKED: ENDBRANCH  12  13
DOCKED: ENDBRANCH   2  12
DOCKED: BRANCH   2  18
DOCKED: ATOM     18  C   UNL     1     -42.283 -20.308   5.750 -0.14 +0.00    +0.006 A  
DOCKED: ATOM     19  C   UNL     1     -41.791 -21.018   4.655 -0.14 +0.00    +0.001 A  
DOCKED: ATOM     20  C   UNL     1     -42.405 -20.887   3.408 -0.19 +0.00    +0.029 A  
DOCKED: ATOM     21  C   UNL     1     -43.508 -20.048   3.259 -0.18 +0.00    +0.140 A  
DOCKED: ATOM     22  C   UNL     1     -43.999 -19.339   4.354 -0.15 +0.00    +0.029 A  
DOCKED: ATOM     23  F   UNL     1     -44.098 -19.925   2.062 -0.14 -0.00    -0.204 F  
DOCKED: ATOM     24  C   UNL     1     -43.386 -19.468   5.601 -0.19 +0.00    +0.001 A  
DOCKED: ENDBRANCH   2  18
DOCKED: TORSDOF 5
DOCKED: TER
DOCKED: ENDMDL
________________________________________________________________________________


    FINAL DOCKED STATE:
    ________________________


Run:   212 / 512
Time taken for this run:   0.002s

DOCKED: MODEL        212
DOCKED: USER    Run = 212
DOCKED: USER
DOCKED: USER    Estimated Free Energy of Binding    =  -4.80 kcal/mol  [=(1)+(2)+(3)-(4)]
DOCKED: USER
DOCKED: USER    (1) Final Intermolecular Energy     =  -6.29 kcal/mol
DOCKED: USER        vdW + Hbond + desolv Energy     =  -6.29 kcal/mol
DOCKED: USER        Electrostatic Energy            =  +0.00 kcal/mol
DOCKED: USER        Moving Ligand-Fixed Receptor    =  -6.29 kcal/mol
DOCKED: USER        Moving Ligand-Moving Receptor   =  +0.00 kcal/mol
DOCKED: USER    (2) Final Total Internal Energy     =  -1.07 kcal/mol
DOCKED: USER    (3) Torsional Free Energy           =  +1.49 kcal/mol
DOCKED: USER    (4) Unbound System's Energy         =  -1.07 kcal/mol
DOCKED: USER
DOCKED: USER
DOCKED: REMARK  5 active torsions:
DOCKED: REMARK  status: ('A' for Active; 'I' for Inactive)
DOCKED: REMARK    1  A    between atoms: C_2  and  C_19 
DOCKED: REMARK    2  A    between atoms: C_2  and  C_11 
DOCKED: REMARK    3  A    between atoms: C_19  and  C_20 
DOCKED: REMARK    4  A    between atoms: C_20  and  C_21 
DOCKED: REMARK    5  A    between atoms: C_21  and  N_22 
DOCKED: USER                              x       y       z     vdW  Elec       q    Type
DOCKED: USER                           _______ _______ _______ _____ _____    ______ ____
DOCKED: ROOT
DOCKED: ATOM      1  O   UNL     1     -48.705 -21.568  15.774 -0.01 -0.00    -0.346 OA 
DOCKED: ATOM      2  C   UNL     1     -48.047 -22.873  15.707 -0.14 +0.00    +0.130 C  
DOCKED: ATOM      3  C   UNL     1     -48.395 -23.382  14.338 -0.27 +0.00    +0.004 A  
DOCKED: ATOM      4  C   UNL     1     -49.096 -22.408  13.642 -0.27 +0.00    +0.006 A  
DOCKED: ATOM      5  C   UNL     1     -49.248 -21.200  14.484 -0.13 +0.00    +0.169 C  
DOCKED: ATOM      6  C   UNL     1     -48.103 -24.605  13.751 -0.40 -0.00    -0.001 A  
DOCKED: ATOM      7  C   UNL     1     -49.532 -22.622  12.346 -0.33 +0.00    +0.008 A  
DOCKED: ATOM      8  C   UNL     1     -48.540 -24.838  12.446 -0.41 +0.00    +0.010 A  
DOCKED: ATOM      9  C   UNL     1     -49.251 -23.850  11.747 -0.39 +0.00    +0.068 A  
DOCKED: ATOM     10  N   UNL     1     -50.043 -24.313   9.324 -1.93 -0.00    -0.191 NA 
DOCKED: ATOM     11  C   UNL     1     -49.688 -24.105  10.411 -0.52 +0.00    +0.101 C  
DOCKED: ENDROOT
DOCKED: BRANCH   2  12
DOCKED: ATOM     12  C   UNL     1     -46.549 -22.669  15.901 -0.19 +0.00    +0.038 C  
DOCKED: BRANCH  12  13
DOCKED: ATOM     13  C   UNL     1     -45.937 -21.896  14.735 -0.14 +0.00    +0.038 C  
DOCKED: BRANCH  13  14
DOCKED: ATOM     14  C   UNL     1     -46.177 -20.395  14.884 -0.09 +0.00    +0.251 C  
DOCKED: BRANCH  14  15
DOCKED: ATOM     15  N   UNL     1     -44.947 -19.721  15.282 -0.05 +0.00    +0.141 N  
DOCKED: ATOM     16  C   UNL     1     -44.051 -19.562  14.136 -0.06 +0.00    +0.285 C  
DOCKED: ATOM     17  C   UNL     1     -45.244 -18.418  15.880 -0.01 +0.00    +0.285 C  
DOCKED: ENDBRANCH  14  15
DOCKED: ENDBRANCH  13  14
DOCKED: ENDBRANCH  12  13
DOCKED: ENDBRANCH   2  12
DOCKED: BRANCH   2  18
DOCKED: ATOM     18  C   UNL     1     -48.622 -23.709  16.802 -0.16 +0.00    +0.006 A  
DOCKED: ATOM     19  C   UNL     1     -47.829 -24.660  17.443 -0.19 +0.00    +0.001 A  
DOCKED: ATOM     20  C   UNL     1     -48.369 -25.440  18.466 -0.23 +0.00    +0.029 A  
DOCKED: ATOM     21  C   UNL     1     -49.699 -25.269  18.846 -0.09 +0.00    +0.140 A  
DOCKED: ATOM     22  C   UNL     1     -50.492 -24.318  18.204 -0.12 +0.00    +0.029 A  
DOCKED: ATOM     23  F   UNL     1     -50.217 -26.017  19.829 -0.05 -0.00    -0.204 F  
DOCKED: ATOM     24  C   UNL     1     -49.953 -23.536  17.181 -0.11 +0.00    +0.001 A  
DOCKED: ENDBRANCH   2  18
DOCKED: TORSDOF 5
DOCKED: TER
DOCKED: ENDMDL
________________________________________________________________________________


    FINAL DOCKED STATE:
    ________________________


Run:   213 / 512
Time taken for this run:   0.002s

DOCKED: MODEL        213
DOCKED: USER    Run = 213
DOCKED: USER
DOCKED: USER    Estimated Free Energy of Binding    =  -4.34 kcal/mol  [=(1)+(2)+(3)-(4)]
DOCKED: USER
DOCKED: USER    (1) Final Intermolecular Energy     =  -5.83 kcal/mol
DOCKED: USER        vdW + Hbond + desolv Energy     =  -5.83 kcal/mol
DOCKED: USER        Electrostatic Energy            =  +0.00 kcal/mol
DOCKED: USER        Moving Ligand-Fixed Receptor    =  -5.83 kcal/mol
DOCKED: USER        Moving Ligand-Moving Receptor   =  +0.00 kcal/mol
DOCKED: USER    (2) Final Total Internal Energy     =  -1.12 kcal/mol
DOCKED: USER    (3) Torsional Free Energy           =  +1.49 kcal/mol
DOCKED: USER    (4) Unbound System's Energy         =  -1.12 kcal/mol
DOCKED: USER
DOCKED: USER
DOCKED: REMARK  5 active torsions:
DOCKED: REMARK  status: ('A' for Active; 'I' for Inactive)
DOCKED: REMARK    1  A    between atoms: C_2  and  C_19 
DOCKED: REMARK    2  A    between atoms: C_2  and  C_11 
DOCKED: REMARK    3  A    between atoms: C_19  and  C_20 
DOCKED: REMARK    4  A    between atoms: C_20  and  C_21 
DOCKED: REMARK    5  A    between atoms: C_21  and  N_22 
DOCKED: USER                              x       y       z     vdW  Elec       q    Type
DOCKED: USER                           _______ _______ _______ _____ _____    ______ ____
DOCKED: ROOT
DOCKED: ATOM      1  O   UNL     1     -42.566 -13.023   6.782 -0.08 -0.00    -0.346 OA 
DOCKED: ATOM      2  C   UNL     1     -43.423 -14.210   6.794 -0.13 +0.00    +0.130 C  
DOCKED: ATOM      3  C   UNL     1     -44.410 -13.952   5.693 -0.12 +0.00    +0.004 A  
DOCKED: ATOM      4  C   UNL     1     -44.081 -12.775   5.037 -0.05 +0.00    +0.006 A  
DOCKED: ATOM      5  C   UNL     1     -42.864 -12.187   5.640 -0.13 +0.00    +0.169 C  
DOCKED: ATOM      6  C   UNL     1     -45.506 -14.705   5.297 -0.28 -0.00    -0.001 A  
DOCKED: ATOM      7  C   UNL     1     -44.832 -12.309   3.971 -0.28 +0.00    +0.008 A  
DOCKED: ATOM      8  C   UNL     1     -46.276 -14.247   4.227 -0.11 +0.00    +0.010 A  
DOCKED: ATOM      9  C   UNL     1     -45.940 -13.055   3.567 -0.34 +0.00    +0.068 A  
DOCKED: ATOM     10  N   UNL     1     -47.388 -12.236   1.581 -2.50 -0.00    -0.191 NA 
DOCKED: ATOM     11  C   UNL     1     -46.739 -12.603   2.472 -0.43 +0.00    +0.101 C  
DOCKED: ENDROOT
DOCKED: BRANCH   2  12
DOCKED: ATOM     12  C   UNL     1     -42.553 -15.435   6.537 -0.05 +0.00    +0.038 C  
DOCKED: BRANCH  12  13
DOCKED: ATOM     13  C   UNL     1     -42.432 -15.727   5.043 -0.05 +0.00    +0.038 C  
DOCKED: BRANCH  13  14
DOCKED: ATOM     14  C   UNL     1     -42.562 -17.224   4.764 -0.04 +0.00    +0.251 C  
DOCKED: BRANCH  14  15
DOCKED: ATOM     15  N   UNL     1     -43.967 -17.604   4.682 -0.17 +0.00    +0.141 N  
DOCKED: ATOM     16  C   UNL     1     -44.227 -18.360   3.456 -0.16 +0.00    +0.285 C  
DOCKED: ATOM     17  C   UNL     1     -44.358 -18.388   5.854 -0.11 +0.00    +0.285 C  
DOCKED: ENDBRANCH  14  15
DOCKED: ENDBRANCH  13  14
DOCKED: ENDBRANCH  12  13
DOCKED: ENDBRANCH   2  12
DOCKED: BRANCH   2  18
DOCKED: ATOM     18  C   UNL     1     -44.059 -14.275   8.143 -0.13 +0.00    +0.006 A  
DOCKED: ATOM     19  C   UNL     1     -45.422 -14.543   8.258 -0.18 +0.00    +0.001 A  
DOCKED: ATOM     20  C   UNL     1     -46.016 -14.604   9.519 -0.19 +0.00    +0.029 A  
DOCKED: ATOM     21  C   UNL     1     -45.246 -14.396  10.663 -0.11 +0.00    +0.140 A  
DOCKED: ATOM     22  C   UNL     1     -43.882 -14.127  10.547 -0.11 +0.00    +0.029 A  
DOCKED: ATOM     23  F   UNL     1     -45.816 -14.455  11.873 -0.01 -0.00    -0.204 F  
DOCKED: ATOM     24  C   UNL     1     -43.288 -14.066   9.286 -0.08 +0.00    +0.001 A  
DOCKED: ENDBRANCH   2  18
DOCKED: TORSDOF 5
DOCKED: TER
DOCKED: ENDMDL
________________________________________________________________________________


    FINAL DOCKED STATE:
    ________________________


Run:   214 / 512
Time taken for this run:   0.002s

DOCKED: MODEL        214
DOCKED: USER    Run = 214
DOCKED: USER
DOCKED: USER    Estimated Free Energy of Binding    =  -4.62 kcal/mol  [=(1)+(2)+(3)-(4)]
DOCKED: USER
DOCKED: USER    (1) Final Intermolecular Energy     =  -6.12 kcal/mol
DOCKED: USER        vdW + Hbond + desolv Energy     =  -6.12 kcal/mol
DOCKED: USER        Electrostatic Energy            =  +0.00 kcal/mol
DOCKED: USER        Moving Ligand-Fixed Receptor    =  -6.12 kcal/mol
DOCKED: USER        Moving Ligand-Moving Receptor   =  +0.00 kcal/mol
DOCKED: USER    (2) Final Total Internal Energy     =  -1.38 kcal/mol
DOCKED: USER    (3) Torsional Free Energy           =  +1.49 kcal/mol
DOCKED: USER    (4) Unbound System's Energy         =  -1.38 kcal/mol
DOCKED: USER
DOCKED: USER
DOCKED: REMARK  5 active torsions:
DOCKED: REMARK  status: ('A' for Active; 'I' for Inactive)
DOCKED: REMARK    1  A    between atoms: C_2  and  C_19 
DOCKED: REMARK    2  A    between atoms: C_2  and  C_11 
DOCKED: REMARK    3  A    between atoms: C_19  and  C_20 
DOCKED: REMARK    4  A    between atoms: C_20  and  C_21 
DOCKED: REMARK    5  A    between atoms: C_21  and  N_22 
DOCKED: USER                              x       y       z     vdW  Elec       q    Type
DOCKED: USER                           _______ _______ _______ _____ _____    ______ ____
DOCKED: ROOT
DOCKED: ATOM      1  O   UNL     1     -48.050 -19.072  13.454 -0.08 -0.00    -0.346 OA 
DOCKED: ATOM      2  C   UNL     1     -49.302 -19.296  14.177 -0.15 +0.00    +0.130 C  
DOCKED: ATOM      3  C   UNL     1     -49.677 -20.705  13.820 -0.22 +0.00    +0.004 A  
DOCKED: ATOM      4  C   UNL     1     -48.672 -21.275  13.051 -0.28 +0.00    +0.006 A  
DOCKED: ATOM      5  C   UNL     1     -47.573 -20.302  12.860 -0.09 +0.00    +0.169 C  
DOCKED: ATOM      6  C   UNL     1     -50.812 -21.428  14.158 -0.18 -0.00    -0.001 A  
DOCKED: ATOM      7  C   UNL     1     -48.767 -22.578  12.593 -0.34 +0.00    +0.008 A  
DOCKED: ATOM      8  C   UNL     1     -50.924 -22.742  13.699 -0.21 +0.00    +0.010 A  
DOCKED: ATOM      9  C   UNL     1     -49.906 -23.314  12.921 -0.26 +0.00    +0.068 A  
DOCKED: ATOM     10  N   UNL     1     -50.144 -25.756  12.091 -2.60 -0.00    -0.191 NA 
DOCKED: ATOM     11  C   UNL     1     -50.038 -24.661  12.462 -0.36 +0.00    +0.101 C  
DOCKED: ENDROOT
DOCKED: BRANCH   2  12
DOCKED: ATOM     12  C   UNL     1     -49.040 -19.111  15.667 -0.05 +0.00    +0.038 C  
DOCKED: BRANCH  12  13
DOCKED: ATOM     13  C   UNL     1     -47.612 -18.635  15.926 -0.03 +0.00    +0.038 C  
DOCKED: BRANCH  13  14
DOCKED: ATOM     14  C   UNL     1     -46.782 -19.728  16.597 -0.01 +0.00    +0.251 C  
DOCKED: BRANCH  14  15
DOCKED: ATOM     15  N   UNL     1     -46.708 -20.906  15.740 -0.06 +0.00    +0.141 N  
DOCKED: ATOM     16  C   UNL     1     -45.328 -21.150  15.316 -0.09 +0.00    +0.285 C  
DOCKED: ATOM     17  C   UNL     1     -47.241 -22.081  16.432 -0.05 +0.00    +0.285 C  
DOCKED: ENDBRANCH  14  15
DOCKED: ENDBRANCH  13  14
DOCKED: ENDBRANCH  12  13
DOCKED: ENDBRANCH   2  12
DOCKED: BRANCH   2  18
DOCKED: ATOM     18  C   UNL     1     -50.282 -18.288  13.674 -0.20 +0.00    +0.006 A  
DOCKED: ATOM     19  C   UNL     1     -51.632 -18.404  14.003 -0.20 +0.00    +0.001 A  
DOCKED: ATOM     20  C   UNL     1     -52.546 -17.462  13.531 -0.18 +0.00    +0.029 A  
DOCKED: ATOM     21  C   UNL     1     -52.110 -16.405  12.733 -0.12 +0.00    +0.140 A  
DOCKED: ATOM     22  C   UNL     1     -50.760 -16.289  12.405 -0.16 +0.00    +0.029 A  
DOCKED: ATOM     23  F   UNL     1     -52.988 -15.499  12.283 -0.02 -0.00    -0.204 F  
DOCKED: ATOM     24  C   UNL     1     -49.844 -17.232  12.876 -0.18 +0.00    +0.001 A  
DOCKED: ENDBRANCH   2  18
DOCKED: TORSDOF 5
DOCKED: TER
DOCKED: ENDMDL
________________________________________________________________________________


    FINAL DOCKED STATE:
    ________________________


Run:   215 / 512
Time taken for this run:   0.002s

DOCKED: MODEL        215
DOCKED: USER    Run = 215
DOCKED: USER
DOCKED: USER    Estimated Free Energy of Binding    =  -3.81 kcal/mol  [=(1)+(2)+(3)-(4)]
DOCKED: USER
DOCKED: USER    (1) Final Intermolecular Energy     =  -5.30 kcal/mol
DOCKED: USER        vdW + Hbond + desolv Energy     =  -5.30 kcal/mol
DOCKED: USER        Electrostatic Energy            =  +0.00 kcal/mol
DOCKED: USER        Moving Ligand-Fixed Receptor    =  -5.30 kcal/mol
DOCKED: USER        Moving Ligand-Moving Receptor   =  +0.00 kcal/mol
DOCKED: USER    (2) Final Total Internal Energy     =  -1.30 kcal/mol
DOCKED: USER    (3) Torsional Free Energy           =  +1.49 kcal/mol
DOCKED: USER    (4) Unbound System's Energy         =  -1.30 kcal/mol
DOCKED: USER
DOCKED: USER
DOCKED: REMARK  5 active torsions:
DOCKED: REMARK  status: ('A' for Active; 'I' for Inactive)
DOCKED: REMARK    1  A    between atoms: C_2  and  C_19 
DOCKED: REMARK    2  A    between atoms: C_2  and  C_11 
DOCKED: REMARK    3  A    between atoms: C_19  and  C_20 
DOCKED: REMARK    4  A    between atoms: C_20  and  C_21 
DOCKED: REMARK    5  A    between atoms: C_21  and  N_22 
DOCKED: USER                              x       y       z     vdW  Elec       q    Type
DOCKED: USER                           _______ _______ _______ _____ _____    ______ ____
DOCKED: ROOT
DOCKED: ATOM      1  O   UNL     1     -41.908 -12.004   5.755 -0.05 -0.00    -0.346 OA 
DOCKED: ATOM      2  C   UNL     1     -42.336 -13.388   5.549 -0.09 +0.00    +0.130 C  
DOCKED: ATOM      3  C   UNL     1     -43.499 -13.269   4.608 -0.15 +0.00    +0.004 A  
DOCKED: ATOM      4  C   UNL     1     -43.654 -11.946   4.221 -0.21 +0.00    +0.006 A  
DOCKED: ATOM      5  C   UNL     1     -42.612 -11.111   4.860 -0.14 +0.00    +0.169 C  
DOCKED: ATOM      6  C   UNL     1     -44.345 -14.256   4.123 -0.20 -0.00    -0.001 A  
DOCKED: ATOM      7  C   UNL     1     -44.656 -11.563   3.346 -0.28 +0.00    +0.008 A  
DOCKED: ATOM      8  C   UNL     1     -45.364 -13.885   3.243 -0.17 +0.00    +0.010 A  
DOCKED: ATOM      9  C   UNL     1     -45.517 -12.545   2.856 -0.35 +0.00    +0.068 A  
DOCKED: ATOM     10  N   UNL     1     -47.414 -11.891   1.217 -2.56 -0.00    -0.191 NA 
DOCKED: ATOM     11  C   UNL     1     -46.564 -12.184   1.953 -0.41 +0.00    +0.101 C  
DOCKED: ENDROOT
DOCKED: BRANCH   2  12
DOCKED: ATOM     12  C   UNL     1     -41.170 -14.171   4.957 -0.03 +0.00    +0.038 C  
DOCKED: BRANCH  12  13
DOCKED: ATOM     13  C   UNL     1     -40.393 -13.331   3.945 -0.02 +0.00    +0.038 C  
DOCKED: BRANCH  13  14
DOCKED: ATOM     14  C   UNL     1     -39.061 -12.863   4.527 +0.00 +0.00    +0.251 C  
DOCKED: BRANCH  14  15
DOCKED: ATOM     15  N   UNL     1     -39.182 -12.650   5.964 -0.01 +0.00    +0.141 N  
DOCKED: ATOM     16  C   UNL     1     -38.350 -13.605   6.699 -0.00 +0.00    +0.285 C  
DOCKED: ATOM     17  C   UNL     1     -38.811 -11.278   6.316 -0.00 +0.00    +0.285 C  
DOCKED: ENDBRANCH  14  15
DOCKED: ENDBRANCH  13  14
DOCKED: ENDBRANCH  12  13
DOCKED: ENDBRANCH   2  12
DOCKED: BRANCH   2  18
DOCKED: ATOM     18  C   UNL     1     -42.722 -13.929   6.886 -0.13 +0.00    +0.006 A  
DOCKED: ATOM     19  C   UNL     1     -43.706 -14.912   6.982 -0.13 +0.00    +0.001 A  
DOCKED: ATOM     20  C   UNL     1     -44.067 -15.416   8.232 -0.11 +0.00    +0.029 A  
DOCKED: ATOM     21  C   UNL     1     -43.444 -14.937   9.383 -0.08 +0.00    +0.140 A  
DOCKED: ATOM     22  C   UNL     1     -42.460 -13.953   9.286 -0.09 +0.00    +0.029 A  
DOCKED: ATOM     23  F   UNL     1     -43.789 -15.422  10.583 -0.01 -0.00    -0.204 F  
DOCKED: ATOM     24  C   UNL     1     -42.099 -13.448   8.036 -0.10 +0.00    +0.001 A  
DOCKED: ENDBRANCH   2  18
DOCKED: TORSDOF 5
DOCKED: TER
DOCKED: ENDMDL
________________________________________________________________________________


    FINAL DOCKED STATE:
    ________________________


Run:   216 / 512
Time taken for this run:   0.002s

DOCKED: MODEL        216
DOCKED: USER    Run = 216
DOCKED: USER
DOCKED: USER    Estimated Free Energy of Binding    =  -3.94 kcal/mol  [=(1)+(2)+(3)-(4)]
DOCKED: USER
DOCKED: USER    (1) Final Intermolecular Energy     =  -5.43 kcal/mol
DOCKED: USER        vdW + Hbond + desolv Energy     =  -5.43 kcal/mol
DOCKED: USER        Electrostatic Energy            =  +0.00 kcal/mol
DOCKED: USER        Moving Ligand-Fixed Receptor    =  -5.43 kcal/mol
DOCKED: USER        Moving Ligand-Moving Receptor   =  +0.00 kcal/mol
DOCKED: USER    (2) Final Total Internal Energy     =  -1.16 kcal/mol
DOCKED: USER    (3) Torsional Free Energy           =  +1.49 kcal/mol
DOCKED: USER    (4) Unbound System's Energy         =  -1.16 kcal/mol
DOCKED: USER
DOCKED: USER
DOCKED: REMARK  5 active torsions:
DOCKED: REMARK  status: ('A' for Active; 'I' for Inactive)
DOCKED: REMARK    1  A    between atoms: C_2  and  C_19 
DOCKED: REMARK    2  A    between atoms: C_2  and  C_11 
DOCKED: REMARK    3  A    between atoms: C_19  and  C_20 
DOCKED: REMARK    4  A    between atoms: C_20  and  C_21 
DOCKED: REMARK    5  A    between atoms: C_21  and  N_22 
DOCKED: USER                              x       y       z     vdW  Elec       q    Type
DOCKED: USER                           _______ _______ _______ _____ _____    ______ ____
DOCKED: ROOT
DOCKED: ATOM      1  O   UNL     1     -42.144 -19.358   7.338 +0.01 -0.00    -0.346 OA 
DOCKED: ATOM      2  C   UNL     1     -42.961 -20.481   6.875 -0.16 +0.00    +0.130 C  
DOCKED: ATOM      3  C   UNL     1     -42.733 -21.542   7.912 -0.21 +0.00    +0.004 A  
DOCKED: ATOM      4  C   UNL     1     -41.945 -21.034   8.935 -0.11 +0.00    +0.006 A  
DOCKED: ATOM      5  C   UNL     1     -41.612 -19.619   8.657 -0.03 +0.00    +0.169 C  
DOCKED: ATOM      6  C   UNL     1     -43.197 -22.849   7.953 -0.23 -0.00    -0.001 A  
DOCKED: ATOM      7  C   UNL     1     -41.591 -21.811  10.025 -0.14 +0.00    +0.008 A  
DOCKED: ATOM      8  C   UNL     1     -42.844 -23.646   9.043 -0.34 +0.00    +0.010 A  
DOCKED: ATOM      9  C   UNL     1     -42.046 -23.129  10.074 -0.21 +0.00    +0.068 A  
DOCKED: ATOM     10  N   UNL     1     -41.414 -24.634  12.086 -1.96 -0.00    -0.191 NA 
DOCKED: ATOM     11  C   UNL     1     -41.697 -23.959  11.184 -0.22 +0.00    +0.101 C  
DOCKED: ENDROOT
DOCKED: BRANCH   2  12
DOCKED: ATOM     12  C   UNL     1     -44.413 -20.023   6.802 -0.17 +0.00    +0.038 C  
DOCKED: BRANCH  12  13
DOCKED: ATOM     13  C   UNL     1     -44.833 -19.299   8.080 -0.27 +0.00    +0.038 C  
DOCKED: BRANCH  13  14
DOCKED: ATOM     14  C   UNL     1     -44.674 -17.787   7.931 -0.09 +0.00    +0.251 C  
DOCKED: BRANCH  14  15
DOCKED: ATOM     15  N   UNL     1     -45.539 -17.288   6.868 -0.17 +0.00    +0.141 N  
DOCKED: ATOM     16  C   UNL     1     -46.321 -16.142   7.335 -0.17 +0.00    +0.285 C  
DOCKED: ATOM     17  C   UNL     1     -44.750 -16.919   5.692 -0.14 +0.00    +0.285 C  
DOCKED: ENDBRANCH  14  15
DOCKED: ENDBRANCH  13  14
DOCKED: ENDBRANCH  12  13
DOCKED: ENDBRANCH   2  12
DOCKED: BRANCH   2  18
DOCKED: ATOM     18  C   UNL     1     -42.450 -20.866   5.527 -0.09 +0.00    +0.006 A  
DOCKED: ATOM     19  C   UNL     1     -41.574 -21.943   5.396 -0.05 +0.00    +0.001 A  
DOCKED: ATOM     20  C   UNL     1     -41.096 -22.301   4.134 -0.12 +0.00    +0.029 A  
DOCKED: ATOM     21  C   UNL     1     -41.495 -21.584   3.008 -0.13 +0.00    +0.140 A  
DOCKED: ATOM     22  C   UNL     1     -42.372 -20.508   3.140 -0.19 +0.00    +0.029 A  
DOCKED: ATOM     23  F   UNL     1     -41.038 -21.930   1.797 -0.03 -0.00    -0.204 F  
DOCKED: ATOM     24  C   UNL     1     -42.850 -20.147   4.401 -0.20 +0.00    +0.001 A  
DOCKED: ENDBRANCH   2  18
DOCKED: TORSDOF 5
DOCKED: TER
DOCKED: ENDMDL
________________________________________________________________________________


    FINAL DOCKED STATE:
    ________________________


Run:   217 / 512
Time taken for this run:   0.002s

DOCKED: MODEL        217
DOCKED: USER    Run = 217
DOCKED: USER
DOCKED: USER    Estimated Free Energy of Binding    =  -5.01 kcal/mol  [=(1)+(2)+(3)-(4)]
DOCKED: USER
DOCKED: USER    (1) Final Intermolecular Energy     =  -6.50 kcal/mol
DOCKED: USER        vdW + Hbond + desolv Energy     =  -6.50 kcal/mol
DOCKED: USER        Electrostatic Energy            =  +0.00 kcal/mol
DOCKED: USER        Moving Ligand-Fixed Receptor    =  -6.50 kcal/mol
DOCKED: USER        Moving Ligand-Moving Receptor   =  +0.00 kcal/mol
DOCKED: USER    (2) Final Total Internal Energy     =  -1.05 kcal/mol
DOCKED: USER    (3) Torsional Free Energy           =  +1.49 kcal/mol
DOCKED: USER    (4) Unbound System's Energy         =  -1.05 kcal/mol
DOCKED: USER
DOCKED: USER
DOCKED: REMARK  5 active torsions:
DOCKED: REMARK  status: ('A' for Active; 'I' for Inactive)
DOCKED: REMARK    1  A    between atoms: C_2  and  C_19 
DOCKED: REMARK    2  A    between atoms: C_2  and  C_11 
DOCKED: REMARK    3  A    between atoms: C_19  and  C_20 
DOCKED: REMARK    4  A    between atoms: C_20  and  C_21 
DOCKED: REMARK    5  A    between atoms: C_21  and  N_22 
DOCKED: USER                              x       y       z     vdW  Elec       q    Type
DOCKED: USER                           _______ _______ _______ _____ _____    ______ ____
DOCKED: ROOT
DOCKED: ATOM      1  O   UNL     1     -51.456 -22.217  15.028 -0.00 -0.00    -0.346 OA 
DOCKED: ATOM      2  C   UNL     1     -50.029 -22.111  14.721 -0.12 +0.00    +0.130 C  
DOCKED: ATOM      3  C   UNL     1     -49.923 -22.625  13.315 -0.27 +0.00    +0.004 A  
DOCKED: ATOM      4  C   UNL     1     -51.191 -22.897  12.821 -0.26 +0.00    +0.006 A  
DOCKED: ATOM      5  C   UNL     1     -52.209 -22.575  13.846 -0.17 +0.00    +0.169 C  
DOCKED: ATOM      6  C   UNL     1     -48.797 -22.826  12.531 -0.36 -0.00    -0.001 A  
DOCKED: ATOM      7  C   UNL     1     -51.377 -23.380  11.537 -0.18 +0.00    +0.008 A  
DOCKED: ATOM      8  C   UNL     1     -48.966 -23.316  11.235 -0.12 +0.00    +0.010 A  
DOCKED: ATOM      9  C   UNL     1     -50.250 -23.592  10.741 -0.35 +0.00    +0.068 A  
DOCKED: ATOM     10  N   UNL     1     -50.530 -24.497   8.329 -2.80 -0.00    -0.191 NA 
DOCKED: ATOM     11  C   UNL     1     -50.404 -24.091   9.411 -0.27 +0.00    +0.101 C  
DOCKED: ENDROOT
DOCKED: BRANCH   2  12
DOCKED: ATOM     12  C   UNL     1     -49.615 -20.650  14.851 -0.13 +0.00    +0.038 C  
DOCKED: BRANCH  12  13
DOCKED: ATOM     13  C   UNL     1     -50.830 -19.740  15.021 -0.11 +0.00    +0.038 C  
DOCKED: BRANCH  13  14
DOCKED: ATOM     14  C   UNL     1     -50.447 -18.272  14.836 -0.06 +0.00    +0.251 C  
DOCKED: BRANCH  14  15
DOCKED: ATOM     15  N   UNL     1     -50.400 -17.935  13.418 -0.18 +0.00    +0.141 N  
DOCKED: ATOM     16  C   UNL     1     -51.079 -16.662  13.168 -0.11 +0.00    +0.285 C  
DOCKED: ATOM     17  C   UNL     1     -49.015 -17.872  12.949 -0.09 +0.00    +0.285 C  
DOCKED: ENDBRANCH  14  15
DOCKED: ENDBRANCH  13  14
DOCKED: ENDBRANCH  12  13
DOCKED: ENDBRANCH   2  12
DOCKED: BRANCH   2  18
DOCKED: ATOM     18  C   UNL     1     -49.306 -22.965  15.708 -0.12 +0.00    +0.006 A  
DOCKED: ATOM     19  C   UNL     1     -49.819 -24.213  16.057 -0.20 +0.00    +0.001 A  
DOCKED: ATOM     20  C   UNL     1     -49.142 -25.011  16.981 -0.13 +0.00    +0.029 A  
DOCKED: ATOM     21  C   UNL     1     -47.954 -24.560  17.553 -0.15 +0.00    +0.140 A  
DOCKED: ATOM     22  C   UNL     1     -47.441 -23.311  17.204 -0.13 +0.00    +0.029 A  
DOCKED: ATOM     23  F   UNL     1     -47.303 -25.326  18.438 -0.09 -0.00    -0.204 F  
DOCKED: ATOM     24  C   UNL     1     -48.117 -22.512  16.280 -0.11 +0.00    +0.001 A  
DOCKED: ENDBRANCH   2  18
DOCKED: TORSDOF 5
DOCKED: TER
DOCKED: ENDMDL
________________________________________________________________________________


    FINAL DOCKED STATE:
    ________________________


Run:   218 / 512
Time taken for this run:   0.002s

DOCKED: MODEL        218
DOCKED: USER    Run = 218
DOCKED: USER
DOCKED: USER    Estimated Free Energy of Binding    =  -4.74 kcal/mol  [=(1)+(2)+(3)-(4)]
DOCKED: USER
DOCKED: USER    (1) Final Intermolecular Energy     =  -6.23 kcal/mol
DOCKED: USER        vdW + Hbond + desolv Energy     =  -6.23 kcal/mol
DOCKED: USER        Electrostatic Energy            =  +0.00 kcal/mol
DOCKED: USER        Moving Ligand-Fixed Receptor    =  -6.23 kcal/mol
DOCKED: USER        Moving Ligand-Moving Receptor   =  +0.00 kcal/mol
DOCKED: USER    (2) Final Total Internal Energy     =  -1.00 kcal/mol
DOCKED: USER    (3) Torsional Free Energy           =  +1.49 kcal/mol
DOCKED: USER    (4) Unbound System's Energy         =  -1.00 kcal/mol
DOCKED: USER
DOCKED: USER
DOCKED: REMARK  5 active torsions:
DOCKED: REMARK  status: ('A' for Active; 'I' for Inactive)
DOCKED: REMARK    1  A    between atoms: C_2  and  C_19 
DOCKED: REMARK    2  A    between atoms: C_2  and  C_11 
DOCKED: REMARK    3  A    between atoms: C_19  and  C_20 
DOCKED: REMARK    4  A    between atoms: C_20  and  C_21 
DOCKED: REMARK    5  A    between atoms: C_21  and  N_22 
DOCKED: USER                              x       y       z     vdW  Elec       q    Type
DOCKED: USER                           _______ _______ _______ _____ _____    ______ ____
DOCKED: ROOT
DOCKED: ATOM      1  O   UNL     1     -47.593 -23.277  14.789 -0.11 -0.00    -0.346 OA 
DOCKED: ATOM      2  C   UNL     1     -48.960 -22.755  14.845 -0.15 +0.00    +0.130 C  
DOCKED: ATOM      3  C   UNL     1     -49.518 -23.064  13.486 -0.27 +0.00    +0.004 A  
DOCKED: ATOM      4  C   UNL     1     -48.592 -23.796  12.756 -0.38 +0.00    +0.006 A  
DOCKED: ATOM      5  C   UNL     1     -47.380 -24.030  13.573 -0.21 +0.00    +0.169 C  
DOCKED: ATOM      6  C   UNL     1     -50.752 -22.735  12.944 -0.26 -0.00    -0.001 A  
DOCKED: ATOM      7  C   UNL     1     -48.863 -24.217  11.465 -0.30 +0.00    +0.008 A  
DOCKED: ATOM      8  C   UNL     1     -51.038 -23.148  11.642 -0.09 +0.00    +0.010 A  
DOCKED: ATOM      9  C   UNL     1     -50.098 -23.886  10.907 -0.41 +0.00    +0.068 A  
DOCKED: ATOM     10  N   UNL     1     -50.664 -24.642   8.494 -2.62 -0.00    -0.191 NA 
DOCKED: ATOM     11  C   UNL     1     -50.410 -24.303   9.576 -0.31 +0.00    +0.101 C  
DOCKED: ENDROOT
DOCKED: BRANCH   2  12
DOCKED: ATOM     12  C   UNL     1     -49.703 -23.468  15.969 -0.16 +0.00    +0.038 C  
DOCKED: BRANCH  12  13
DOCKED: ATOM     13  C   UNL     1     -48.755 -23.868  17.097 -0.18 +0.00    +0.038 C  
DOCKED: BRANCH  13  14
DOCKED: ATOM     14  C   UNL     1     -49.339 -25.010  17.927 -0.07 +0.00    +0.251 C  
DOCKED: BRANCH  14  15
DOCKED: ATOM     15  N   UNL     1     -50.260 -24.489  18.930 -0.10 +0.00    +0.141 N  
DOCKED: ATOM     16  C   UNL     1     -51.459 -25.324  19.013 -0.10 +0.00    +0.285 C  
DOCKED: ATOM     17  C   UNL     1     -49.607 -24.407  20.237 -0.04 +0.00    +0.285 C  
DOCKED: ENDBRANCH  14  15
DOCKED: ENDBRANCH  13  14
DOCKED: ENDBRANCH  12  13
DOCKED: ENDBRANCH   2  12
DOCKED: BRANCH   2  18
DOCKED: ATOM     18  C   UNL     1     -48.857 -21.291  15.112 -0.11 +0.00    +0.006 A  
DOCKED: ATOM     19  C   UNL     1     -48.144 -20.471  14.238 -0.18 +0.00    +0.001 A  
DOCKED: ATOM     20  C   UNL     1     -48.049 -19.102  14.489 -0.10 +0.00    +0.029 A  
DOCKED: ATOM     21  C   UNL     1     -48.666 -18.554  15.613 -0.02 +0.00    +0.140 A  
DOCKED: ATOM     22  C   UNL     1     -49.379 -19.375  16.487 -0.02 +0.00    +0.029 A  
DOCKED: ATOM     23  F   UNL     1     -48.576 -17.240  15.852 +0.00 -0.00    -0.204 F  
DOCKED: ATOM     24  C   UNL     1     -49.474 -20.745  16.237 -0.04 +0.00    +0.001 A  
DOCKED: ENDBRANCH   2  18
DOCKED: TORSDOF 5
DOCKED: TER
DOCKED: ENDMDL
________________________________________________________________________________


    FINAL DOCKED STATE:
    ________________________


Run:   219 / 512
Time taken for this run:   0.002s

DOCKED: MODEL        219
DOCKED: USER    Run = 219
DOCKED: USER
DOCKED: USER    Estimated Free Energy of Binding    =  -3.64 kcal/mol  [=(1)+(2)+(3)-(4)]
DOCKED: USER
DOCKED: USER    (1) Final Intermolecular Energy     =  -5.13 kcal/mol
DOCKED: USER        vdW + Hbond + desolv Energy     =  -5.13 kcal/mol
DOCKED: USER        Electrostatic Energy            =  +0.00 kcal/mol
DOCKED: USER        Moving Ligand-Fixed Receptor    =  -5.13 kcal/mol
DOCKED: USER        Moving Ligand-Moving Receptor   =  +0.00 kcal/mol
DOCKED: USER    (2) Final Total Internal Energy     =  -1.18 kcal/mol
DOCKED: USER    (3) Torsional Free Energy           =  +1.49 kcal/mol
DOCKED: USER    (4) Unbound System's Energy         =  -1.18 kcal/mol
DOCKED: USER
DOCKED: USER
DOCKED: REMARK  5 active torsions:
DOCKED: REMARK  status: ('A' for Active; 'I' for Inactive)
DOCKED: REMARK    1  A    between atoms: C_2  and  C_19 
DOCKED: REMARK    2  A    between atoms: C_2  and  C_11 
DOCKED: REMARK    3  A    between atoms: C_19  and  C_20 
DOCKED: REMARK    4  A    between atoms: C_20  and  C_21 
DOCKED: REMARK    5  A    between atoms: C_21  and  N_22 
DOCKED: USER                              x       y       z     vdW  Elec       q    Type
DOCKED: USER                           _______ _______ _______ _____ _____    ______ ____
DOCKED: ROOT
DOCKED: ATOM      1  O   UNL     1     -40.050 -21.005   6.555 +0.01 -0.00    -0.346 OA 
DOCKED: ATOM      2  C   UNL     1     -41.120 -20.395   7.345 -0.04 +0.00    +0.130 C  
DOCKED: ATOM      3  C   UNL     1     -41.674 -21.540   8.144 -0.11 +0.00    +0.004 A  
DOCKED: ATOM      4  C   UNL     1     -40.916 -22.680   7.913 -0.09 +0.00    +0.006 A  
DOCKED: ATOM      5  C   UNL     1     -39.817 -22.370   6.971 -0.03 +0.00    +0.169 C  
DOCKED: ATOM      6  C   UNL     1     -42.755 -21.568   9.013 -0.22 -0.00    -0.001 A  
DOCKED: ATOM      7  C   UNL     1     -41.213 -23.880   8.536 -0.17 +0.00    +0.008 A  
DOCKED: ATOM      8  C   UNL     1     -43.069 -22.772   9.645 -0.18 +0.00    +0.010 A  
DOCKED: ATOM      9  C   UNL     1     -42.302 -23.922   9.408 -0.28 +0.00    +0.068 A  
DOCKED: ATOM     10  N   UNL     1     -42.910 -26.140  10.602 -2.55 -0.00    -0.191 NA 
DOCKED: ATOM     11  C   UNL     1     -42.637 -25.145  10.066 -0.37 +0.00    +0.101 C  
DOCKED: ENDROOT
DOCKED: BRANCH   2  12
DOCKED: ATOM     12  C   UNL     1     -40.513 -19.303   8.218 -0.02 +0.00    +0.038 C  
DOCKED: BRANCH  12  13
DOCKED: ATOM     13  C   UNL     1     -39.609 -19.891   9.299 -0.02 +0.00    +0.038 C  
DOCKED: BRANCH  13  14
DOCKED: ATOM     14  C   UNL     1     -40.333 -19.963  10.642 -0.01 +0.00    +0.251 C  
DOCKED: BRANCH  14  15
DOCKED: ATOM     15  N   UNL     1     -40.589 -18.621  11.152 -0.01 +0.00    +0.141 N  
DOCKED: ATOM     16  C   UNL     1     -41.973 -18.499  11.612 -0.02 +0.00    +0.285 C  
DOCKED: ATOM     17  C   UNL     1     -39.663 -18.298  12.239 -0.00 +0.00    +0.285 C  
DOCKED: ENDBRANCH  14  15
DOCKED: ENDBRANCH  13  14
DOCKED: ENDBRANCH  12  13
DOCKED: ENDBRANCH   2  12
DOCKED: BRANCH   2  18
DOCKED: ATOM     18  C   UNL     1     -42.107 -19.828   6.380 -0.10 +0.00    +0.006 A  
DOCKED: ATOM     19  C   UNL     1     -42.214 -20.364   5.098 -0.15 +0.00    +0.001 A  
DOCKED: ATOM     20  C   UNL     1     -43.136 -19.832   4.196 -0.20 +0.00    +0.029 A  
DOCKED: ATOM     21  C   UNL     1     -43.951 -18.767   4.578 -0.18 +0.00    +0.140 A  
DOCKED: ATOM     22  C   UNL     1     -43.843 -18.232   5.862 -0.16 +0.00    +0.029 A  
DOCKED: ATOM     23  F   UNL     1     -44.838 -18.258   3.713 -0.11 -0.00    -0.204 F  
DOCKED: ATOM     24  C   UNL     1     -42.920 -18.762   6.764 -0.10 +0.00    +0.001 A  
DOCKED: ENDBRANCH   2  18
DOCKED: TORSDOF 5
DOCKED: TER
DOCKED: ENDMDL
________________________________________________________________________________


    FINAL DOCKED STATE:
    ________________________


Run:   220 / 512
Time taken for this run:   0.002s

DOCKED: MODEL        220
DOCKED: USER    Run = 220
DOCKED: USER
DOCKED: USER    Estimated Free Energy of Binding    =  -3.98 kcal/mol  [=(1)+(2)+(3)-(4)]
DOCKED: USER
DOCKED: USER    (1) Final Intermolecular Energy     =  -5.48 kcal/mol
DOCKED: USER        vdW + Hbond + desolv Energy     =  -5.48 kcal/mol
DOCKED: USER        Electrostatic Energy            =  +0.00 kcal/mol
DOCKED: USER        Moving Ligand-Fixed Receptor    =  -5.48 kcal/mol
DOCKED: USER        Moving Ligand-Moving Receptor   =  +0.00 kcal/mol
DOCKED: USER    (2) Final Total Internal Energy     =  -0.94 kcal/mol
DOCKED: USER    (3) Torsional Free Energy           =  +1.49 kcal/mol
DOCKED: USER    (4) Unbound System's Energy         =  -0.94 kcal/mol
DOCKED: USER
DOCKED: USER
DOCKED: REMARK  5 active torsions:
DOCKED: REMARK  status: ('A' for Active; 'I' for Inactive)
DOCKED: REMARK    1  A    between atoms: C_2  and  C_19 
DOCKED: REMARK    2  A    between atoms: C_2  and  C_11 
DOCKED: REMARK    3  A    between atoms: C_19  and  C_20 
DOCKED: REMARK    4  A    between atoms: C_20  and  C_21 
DOCKED: REMARK    5  A    between atoms: C_21  and  N_22 
DOCKED: USER                              x       y       z     vdW  Elec       q    Type
DOCKED: USER                           _______ _______ _______ _____ _____    ______ ____
DOCKED: ROOT
DOCKED: ATOM      1  O   UNL     1     -49.234 -18.934  13.905 -0.08 -0.00    -0.346 OA 
DOCKED: ATOM      2  C   UNL     1     -47.964 -19.649  14.037 -0.16 +0.00    +0.130 C  
DOCKED: ATOM      3  C   UNL     1     -48.306 -21.062  13.662 -0.25 +0.00    +0.004 A  
DOCKED: ATOM      4  C   UNL     1     -49.628 -21.128  13.246 -0.26 +0.00    +0.006 A  
DOCKED: ATOM      5  C   UNL     1     -50.240 -19.782  13.303 -0.16 +0.00    +0.169 C  
DOCKED: ATOM      6  C   UNL     1     -47.507 -22.197  13.677 -0.18 -0.00    -0.001 A  
DOCKED: ATOM      7  C   UNL     1     -50.196 -22.322  12.837 -0.26 +0.00    +0.008 A  
DOCKED: ATOM      8  C   UNL     1     -48.067 -23.409  13.272 -0.33 +0.00    +0.010 A  
DOCKED: ATOM      9  C   UNL     1     -49.404 -23.472  12.854 -0.30 +0.00    +0.068 A  
DOCKED: ATOM     10  N   UNL     1     -50.411 -25.738  12.103 -2.55 -0.00    -0.191 NA 
DOCKED: ATOM     11  C   UNL     1     -49.959 -24.722  12.440 -0.34 +0.00    +0.101 C  
DOCKED: ENDROOT
DOCKED: BRANCH   2  12
DOCKED: ATOM     12  C   UNL     1     -46.952 -19.013  13.092 -0.17 +0.00    +0.038 C  
DOCKED: BRANCH  12  13
DOCKED: ATOM     13  C   UNL     1     -47.383 -17.607  12.678 -0.11 +0.00    +0.038 C  
DOCKED: BRANCH  13  14
DOCKED: ATOM     14  C   UNL     1     -46.313 -16.577  13.033 -0.04 +0.00    +0.251 C  
DOCKED: BRANCH  14  15
DOCKED: ATOM     15  N   UNL     1     -45.406 -16.380  11.908 -0.04 +0.00    +0.141 N  
DOCKED: ATOM     16  C   UNL     1     -44.343 -17.387  11.921 -0.04 +0.00    +0.285 C  
DOCKED: ATOM     17  C   UNL     1     -46.137 -16.430  10.641 -0.06 +0.00    +0.285 C  
DOCKED: ENDBRANCH  14  15
DOCKED: ENDBRANCH  13  14
DOCKED: ENDBRANCH  12  13
DOCKED: ENDBRANCH   2  12
DOCKED: BRANCH   2  18
DOCKED: ATOM     18  C   UNL     1     -47.532 -19.513  15.459 -0.06 +0.00    +0.006 A  
DOCKED: ATOM     19  C   UNL     1     -48.004 -18.453  16.232 -0.02 +0.00    +0.001 A  
DOCKED: ATOM     20  C   UNL     1     -47.599 -18.327  17.561 -0.00 +0.00    +0.029 A  
DOCKED: ATOM     21  C   UNL     1     -46.725 -19.260  18.116 -0.00 +0.00    +0.140 A  
DOCKED: ATOM     22  C   UNL     1     -46.253 -20.320  17.342 -0.02 +0.00    +0.029 A  
DOCKED: ATOM     23  F   UNL     1     -46.338 -19.140  19.392 -0.00 -0.00    -0.204 F  
DOCKED: ATOM     24  C   UNL     1     -46.657 -20.447  16.012 -0.06 +0.00    +0.001 A  
DOCKED: ENDBRANCH   2  18
DOCKED: TORSDOF 5
DOCKED: TER
DOCKED: ENDMDL
________________________________________________________________________________


    FINAL DOCKED STATE:
    ________________________


Run:   221 / 512
Time taken for this run:   0.002s

DOCKED: MODEL        221
DOCKED: USER    Run = 221
DOCKED: USER
DOCKED: USER    Estimated Free Energy of Binding    =  -4.99 kcal/mol  [=(1)+(2)+(3)-(4)]
DOCKED: USER
DOCKED: USER    (1) Final Intermolecular Energy     =  -6.49 kcal/mol
DOCKED: USER        vdW + Hbond + desolv Energy     =  -6.49 kcal/mol
DOCKED: USER        Electrostatic Energy            =  +0.00 kcal/mol
DOCKED: USER        Moving Ligand-Fixed Receptor    =  -6.49 kcal/mol
DOCKED: USER        Moving Ligand-Moving Receptor   =  +0.00 kcal/mol
DOCKED: USER    (2) Final Total Internal Energy     =  -0.87 kcal/mol
DOCKED: USER    (3) Torsional Free Energy           =  +1.49 kcal/mol
DOCKED: USER    (4) Unbound System's Energy         =  -0.87 kcal/mol
DOCKED: USER
DOCKED: USER
DOCKED: REMARK  5 active torsions:
DOCKED: REMARK  status: ('A' for Active; 'I' for Inactive)
DOCKED: REMARK    1  A    between atoms: C_2  and  C_19 
DOCKED: REMARK    2  A    between atoms: C_2  and  C_11 
DOCKED: REMARK    3  A    between atoms: C_19  and  C_20 
DOCKED: REMARK    4  A    between atoms: C_20  and  C_21 
DOCKED: REMARK    5  A    between atoms: C_21  and  N_22 
DOCKED: USER                              x       y       z     vdW  Elec       q    Type
DOCKED: USER                           _______ _______ _______ _____ _____    ______ ____
DOCKED: ROOT
DOCKED: ATOM      1  O   UNL     1     -42.928 -14.226   6.774 -0.06 -0.00    -0.346 OA 
DOCKED: ATOM      2  C   UNL     1     -44.218 -14.864   7.037 -0.14 +0.00    +0.130 C  
DOCKED: ATOM      3  C   UNL     1     -45.096 -14.373   5.923 -0.17 +0.00    +0.004 A  
DOCKED: ATOM      4  C   UNL     1     -44.347 -13.611   5.039 -0.17 +0.00    +0.006 A  
DOCKED: ATOM      5  C   UNL     1     -42.939 -13.555   5.492 -0.10 +0.00    +0.169 C  
DOCKED: ATOM      6  C   UNL     1     -46.448 -14.594   5.704 -0.29 -0.00    -0.001 A  
DOCKED: ATOM      7  C   UNL     1     -44.919 -13.042   3.914 -0.27 +0.00    +0.008 A  
DOCKED: ATOM      8  C   UNL     1     -47.041 -14.023   4.576 -0.25 +0.00    +0.010 A  
DOCKED: ATOM      9  C   UNL     1     -46.280 -13.251   3.686 -0.34 +0.00    +0.068 A  
DOCKED: ATOM     10  N   UNL     1     -47.410 -12.210   1.600 -2.52 -0.00    -0.191 NA 
DOCKED: ATOM     11  C   UNL     1     -46.903 -12.677   2.536 -0.39 +0.00    +0.101 C  
DOCKED: ENDROOT
DOCKED: BRANCH   2  12
DOCKED: ATOM     12  C   UNL     1     -44.021 -16.376   7.016 -0.10 +0.00    +0.038 C  
DOCKED: BRANCH  12  13
DOCKED: ATOM     13  C   UNL     1     -44.819 -17.056   8.127 -0.13 +0.00    +0.038 C  
DOCKED: BRANCH  13  14
DOCKED: ATOM     14  C   UNL     1     -45.722 -18.151   7.563 -0.16 +0.00    +0.251 C  
DOCKED: BRANCH  14  15
DOCKED: ATOM     15  N   UNL     1     -45.169 -19.467   7.857 -0.25 +0.00    +0.141 N  
DOCKED: ATOM     16  C   UNL     1     -44.086 -19.791   6.927 -0.16 +0.00    +0.285 C  
DOCKED: ATOM     17  C   UNL     1     -44.687 -19.527   9.238 -0.13 +0.00    +0.285 C  
DOCKED: ENDBRANCH  14  15
DOCKED: ENDBRANCH  13  14
DOCKED: ENDBRANCH  12  13
DOCKED: ENDBRANCH   2  12
DOCKED: BRANCH   2  18
DOCKED: ATOM     18  C   UNL     1     -44.668 -14.399   8.382 -0.14 +0.00    +0.006 A  
DOCKED: ATOM     19  C   UNL     1     -46.020 -14.151   8.616 -0.14 +0.00    +0.001 A  
DOCKED: ATOM     20  C   UNL     1     -46.440 -13.716   9.874 -0.21 +0.00    +0.029 A  
DOCKED: ATOM     21  C   UNL     1     -45.509 -13.529  10.894 -0.12 +0.00    +0.140 A  
DOCKED: ATOM     22  C   UNL     1     -44.157 -13.776  10.659 -0.09 +0.00    +0.029 A  
DOCKED: ATOM     23  F   UNL     1     -45.913 -13.112  12.101 -0.03 -0.00    -0.204 F  
DOCKED: ATOM     24  C   UNL     1     -43.736 -14.212   9.401 -0.11 +0.00    +0.001 A  
DOCKED: ENDBRANCH   2  18
DOCKED: TORSDOF 5
DOCKED: TER
DOCKED: ENDMDL
________________________________________________________________________________


    FINAL DOCKED STATE:
    ________________________


Run:   222 / 512
Time taken for this run:   0.002s

DOCKED: MODEL        222
DOCKED: USER    Run = 222
DOCKED: USER
DOCKED: USER    Estimated Free Energy of Binding    =  -4.02 kcal/mol  [=(1)+(2)+(3)-(4)]
DOCKED: USER
DOCKED: USER    (1) Final Intermolecular Energy     =  -5.51 kcal/mol
DOCKED: USER        vdW + Hbond + desolv Energy     =  -5.51 kcal/mol
DOCKED: USER        Electrostatic Energy            =  +0.00 kcal/mol
DOCKED: USER        Moving Ligand-Fixed Receptor    =  -5.51 kcal/mol
DOCKED: USER        Moving Ligand-Moving Receptor   =  +0.00 kcal/mol
DOCKED: USER    (2) Final Total Internal Energy     =  -1.31 kcal/mol
DOCKED: USER    (3) Torsional Free Energy           =  +1.49 kcal/mol
DOCKED: USER    (4) Unbound System's Energy         =  -1.31 kcal/mol
DOCKED: USER
DOCKED: USER
DOCKED: REMARK  5 active torsions:
DOCKED: REMARK  status: ('A' for Active; 'I' for Inactive)
DOCKED: REMARK    1  A    between atoms: C_2  and  C_19 
DOCKED: REMARK    2  A    between atoms: C_2  and  C_11 
DOCKED: REMARK    3  A    between atoms: C_19  and  C_20 
DOCKED: REMARK    4  A    between atoms: C_20  and  C_21 
DOCKED: REMARK    5  A    between atoms: C_21  and  N_22 
DOCKED: USER                              x       y       z     vdW  Elec       q    Type
DOCKED: USER                           _______ _______ _______ _____ _____    ______ ____
DOCKED: ROOT
DOCKED: ATOM      1  O   UNL     1     -39.763 -22.162   5.651 +0.01 -0.00    -0.346 OA 
DOCKED: ATOM      2  C   UNL     1     -40.734 -21.313   6.342 -0.06 +0.00    +0.130 C  
DOCKED: ATOM      3  C   UNL     1     -41.356 -22.230   7.355 -0.11 +0.00    +0.004 A  
DOCKED: ATOM      4  C   UNL     1     -40.720 -23.463   7.322 -0.10 +0.00    +0.006 A  
DOCKED: ATOM      5  C   UNL     1     -39.641 -23.444   6.309 -0.04 +0.00    +0.169 C  
DOCKED: ATOM      6  C   UNL     1     -42.394 -21.988   8.243 -0.20 -0.00    -0.001 A  
DOCKED: ATOM      7  C   UNL     1     -41.100 -24.492   8.166 -0.19 +0.00    +0.008 A  
DOCKED: ATOM      8  C   UNL     1     -42.792 -23.018   9.098 -0.30 +0.00    +0.010 A  
DOCKED: ATOM      9  C   UNL     1     -42.147 -24.263   9.060 -0.28 +0.00    +0.068 A  
DOCKED: ATOM     10  N   UNL     1     -42.906 -26.151  10.663 -2.57 -0.00    -0.191 NA 
DOCKED: ATOM     11  C   UNL     1     -42.566 -25.305   9.944 -0.42 +0.00    +0.101 C  
DOCKED: ENDROOT
DOCKED: BRANCH   2  12
DOCKED: ATOM     12  C   UNL     1     -39.989 -20.145   6.978 -0.02 +0.00    +0.038 C  
DOCKED: BRANCH  12  13
DOCKED: ATOM     13  C   UNL     1     -39.641 -20.434   8.437 -0.02 +0.00    +0.038 C  
DOCKED: BRANCH  13  14
DOCKED: ATOM     14  C   UNL     1     -40.427 -19.524   9.379 -0.01 +0.00    +0.251 C  
DOCKED: BRANCH  14  15
DOCKED: ATOM     15  N   UNL     1     -41.426 -18.765   8.636 -0.01 +0.00    +0.141 N  
DOCKED: ATOM     16  C   UNL     1     -42.741 -18.885   9.268 -0.03 +0.00    +0.285 C  
DOCKED: ATOM     17  C   UNL     1     -41.036 -17.358   8.538 -0.00 +0.00    +0.285 C  
DOCKED: ENDBRANCH  14  15
DOCKED: ENDBRANCH  13  14
DOCKED: ENDBRANCH  12  13
DOCKED: ENDBRANCH   2  12
DOCKED: BRANCH   2  18
DOCKED: ATOM     18  C   UNL     1     -41.706 -20.836   5.315 -0.12 +0.00    +0.006 A  
DOCKED: ATOM     19  C   UNL     1     -42.642 -19.856   5.643 -0.16 +0.00    +0.001 A  
DOCKED: ATOM     20  C   UNL     1     -43.550 -19.412   4.682 -0.20 +0.00    +0.029 A  
DOCKED: ATOM     21  C   UNL     1     -43.521 -19.946   3.394 -0.18 +0.00    +0.140 A  
DOCKED: ATOM     22  C   UNL     1     -42.584 -20.926   3.067 -0.20 +0.00    +0.029 A  
DOCKED: ATOM     23  F   UNL     1     -44.392 -19.518   2.471 -0.14 -0.00    -0.204 F  
DOCKED: ATOM     24  C   UNL     1     -41.675 -21.372   4.028 -0.15 +0.00    +0.001 A  
DOCKED: ENDBRANCH   2  18
DOCKED: TORSDOF 5
DOCKED: TER
DOCKED: ENDMDL
________________________________________________________________________________


    FINAL DOCKED STATE:
    ________________________


Run:   223 / 512
Time taken for this run:   0.002s

DOCKED: MODEL        223
DOCKED: USER    Run = 223
DOCKED: USER
DOCKED: USER    Estimated Free Energy of Binding    =  -3.27 kcal/mol  [=(1)+(2)+(3)-(4)]
DOCKED: USER
DOCKED: USER    (1) Final Intermolecular Energy     =  -4.76 kcal/mol
DOCKED: USER        vdW + Hbond + desolv Energy     =  -4.76 kcal/mol
DOCKED: USER        Electrostatic Energy            =  +0.00 kcal/mol
DOCKED: USER        Moving Ligand-Fixed Receptor    =  -4.76 kcal/mol
DOCKED: USER        Moving Ligand-Moving Receptor   =  +0.00 kcal/mol
DOCKED: USER    (2) Final Total Internal Energy     =  -1.39 kcal/mol
DOCKED: USER    (3) Torsional Free Energy           =  +1.49 kcal/mol
DOCKED: USER    (4) Unbound System's Energy         =  -1.39 kcal/mol
DOCKED: USER
DOCKED: USER
DOCKED: REMARK  5 active torsions:
DOCKED: REMARK  status: ('A' for Active; 'I' for Inactive)
DOCKED: REMARK    1  A    between atoms: C_2  and  C_19 
DOCKED: REMARK    2  A    between atoms: C_2  and  C_11 
DOCKED: REMARK    3  A    between atoms: C_19  and  C_20 
DOCKED: REMARK    4  A    between atoms: C_20  and  C_21 
DOCKED: REMARK    5  A    between atoms: C_21  and  N_22 
DOCKED: USER                              x       y       z     vdW  Elec       q    Type
DOCKED: USER                           _______ _______ _______ _____ _____    ______ ____
DOCKED: ROOT
DOCKED: ATOM      1  O   UNL     1     -47.957 -19.070  15.819 -0.00 -0.00    -0.346 OA 
DOCKED: ATOM      2  C   UNL     1     -47.678 -19.277  14.397 -0.11 +0.00    +0.130 C  
DOCKED: ATOM      3  C   UNL     1     -48.275 -20.623  14.106 -0.20 +0.00    +0.004 A  
DOCKED: ATOM      4  C   UNL     1     -48.934 -21.095  15.232 -0.09 +0.00    +0.006 A  
DOCKED: ATOM      5  C   UNL     1     -48.832 -20.104  16.327 -0.02 +0.00    +0.169 C  
DOCKED: ATOM      6  C   UNL     1     -48.247 -21.365  12.934 -0.26 -0.00    -0.001 A  
DOCKED: ATOM      7  C   UNL     1     -49.581 -22.319  15.229 -0.11 +0.00    +0.008 A  
DOCKED: ATOM      8  C   UNL     1     -48.891 -22.604  12.916 -0.34 +0.00    +0.010 A  
DOCKED: ATOM      9  C   UNL     1     -49.555 -23.078  14.058 -0.18 +0.00    +0.068 A  
DOCKED: ATOM     10  N   UNL     1     -50.743 -25.379  13.989 -1.95 -0.00    -0.191 NA 
DOCKED: ATOM     11  C   UNL     1     -50.210 -24.347  14.020 -0.24 +0.00    +0.101 C  
DOCKED: ENDROOT
DOCKED: BRANCH   2  12
DOCKED: ATOM     12  C   UNL     1     -48.336 -18.152  13.607 -0.15 +0.00    +0.038 C  
DOCKED: BRANCH  12  13
DOCKED: ATOM     13  C   UNL     1     -49.769 -18.510  13.217 -0.22 +0.00    +0.038 C  
DOCKED: BRANCH  13  14
DOCKED: ATOM     14  C   UNL     1     -50.775 -17.862  14.167 -0.11 +0.00    +0.251 C  
DOCKED: BRANCH  14  15
DOCKED: ATOM     15  N   UNL     1     -52.021 -18.620  14.180 -0.14 +0.00    +0.141 N  
DOCKED: ATOM     16  C   UNL     1     -51.847 -19.910  13.511 -0.11 +0.00    +0.285 C  
DOCKED: ATOM     17  C   UNL     1     -52.488 -18.819  15.553 -0.02 +0.00    +0.285 C  
DOCKED: ENDBRANCH  14  15
DOCKED: ENDBRANCH  13  14
DOCKED: ENDBRANCH  12  13
DOCKED: ENDBRANCH   2  12
DOCKED: BRANCH   2  18
DOCKED: ATOM     18  C   UNL     1     -46.194 -19.252  14.235 -0.11 +0.00    +0.006 A  
DOCKED: ATOM     19  C   UNL     1     -45.374 -19.100  15.353 -0.05 +0.00    +0.001 A  
DOCKED: ATOM     20  C   UNL     1     -43.987 -19.076  15.200 -0.04 +0.00    +0.029 A  
DOCKED: ATOM     21  C   UNL     1     -43.423 -19.205  13.932 -0.06 +0.00    +0.140 A  
DOCKED: ATOM     22  C   UNL     1     -44.244 -19.357  12.815 -0.11 +0.00    +0.029 A  
DOCKED: ATOM     23  F   UNL     1     -42.092 -19.184  13.786 -0.00 -0.00    -0.204 F  
DOCKED: ATOM     24  C   UNL     1     -45.632 -19.380  12.966 -0.14 +0.00    +0.001 A  
DOCKED: ENDBRANCH   2  18
DOCKED: TORSDOF 5
DOCKED: TER
DOCKED: ENDMDL
________________________________________________________________________________


    FINAL DOCKED STATE:
    ________________________


Run:   224 / 512
Time taken for this run:   0.002s

DOCKED: MODEL        224
DOCKED: USER    Run = 224
DOCKED: USER
DOCKED: USER    Estimated Free Energy of Binding    =  -4.00 kcal/mol  [=(1)+(2)+(3)-(4)]
DOCKED: USER
DOCKED: USER    (1) Final Intermolecular Energy     =  -5.49 kcal/mol
DOCKED: USER        vdW + Hbond + desolv Energy     =  -5.49 kcal/mol
DOCKED: USER        Electrostatic Energy            =  +0.00 kcal/mol
DOCKED: USER        Moving Ligand-Fixed Receptor    =  -5.49 kcal/mol
DOCKED: USER        Moving Ligand-Moving Receptor   =  +0.00 kcal/mol
DOCKED: USER    (2) Final Total Internal Energy     =  -1.09 kcal/mol
DOCKED: USER    (3) Torsional Free Energy           =  +1.49 kcal/mol
DOCKED: USER    (4) Unbound System's Energy         =  -1.09 kcal/mol
DOCKED: USER
DOCKED: USER
DOCKED: REMARK  5 active torsions:
DOCKED: REMARK  status: ('A' for Active; 'I' for Inactive)
DOCKED: REMARK    1  A    between atoms: C_2  and  C_19 
DOCKED: REMARK    2  A    between atoms: C_2  and  C_11 
DOCKED: REMARK    3  A    between atoms: C_19  and  C_20 
DOCKED: REMARK    4  A    between atoms: C_20  and  C_21 
DOCKED: REMARK    5  A    between atoms: C_21  and  N_22 
DOCKED: USER                              x       y       z     vdW  Elec       q    Type
DOCKED: USER                           _______ _______ _______ _____ _____    ______ ____
DOCKED: ROOT
DOCKED: ATOM      1  O   UNL     1     -43.770 -19.945   7.325 -0.03 -0.00    -0.346 OA 
DOCKED: ATOM      2  C   UNL     1     -42.357 -20.299   7.188 -0.11 +0.00    +0.130 C  
DOCKED: ATOM      3  C   UNL     1     -42.239 -21.600   7.929 -0.16 +0.00    +0.004 A  
DOCKED: ATOM      4  C   UNL     1     -43.493 -22.009   8.357 -0.32 +0.00    +0.006 A  
DOCKED: ATOM      5  C   UNL     1     -44.516 -21.030   7.925 -0.28 +0.00    +0.169 C  
DOCKED: ATOM      6  C   UNL     1     -41.112 -22.365   8.193 -0.10 -0.00    -0.001 A  
DOCKED: ATOM      7  C   UNL     1     -43.665 -23.187   9.063 -0.22 +0.00    +0.008 A  
DOCKED: ATOM      8  C   UNL     1     -41.268 -23.554   8.908 -0.16 +0.00    +0.010 A  
DOCKED: ATOM      9  C   UNL     1     -42.538 -23.963   9.340 -0.30 +0.00    +0.068 A  
DOCKED: ATOM     10  N   UNL     1     -42.793 -26.178  10.661 -2.44 -0.00    -0.191 NA 
DOCKED: ATOM     11  C   UNL     1     -42.679 -25.184  10.069 -0.36 +0.00    +0.101 C  
DOCKED: ENDROOT
DOCKED: BRANCH   2  12
DOCKED: ATOM     12  C   UNL     1     -42.034 -20.430   5.704 -0.14 +0.00    +0.038 C  
DOCKED: BRANCH  12  13
DOCKED: ATOM     13  C   UNL     1     -42.286 -19.120   4.962 -0.11 +0.00    +0.038 C  
DOCKED: BRANCH  13  14
DOCKED: ATOM     14  C   UNL     1     -42.225 -19.325   3.449 -0.10 +0.00    +0.251 C  
DOCKED: BRANCH  14  15
DOCKED: ATOM     15  N   UNL     1     -43.418 -18.777   2.815 -0.19 +0.00    +0.141 N  
DOCKED: ATOM     16  C   UNL     1     -44.029 -19.765   1.924 -0.23 +0.00    +0.285 C  
DOCKED: ATOM     17  C   UNL     1     -44.383 -18.337   3.824 -0.15 +0.00    +0.285 C  
DOCKED: ENDBRANCH  14  15
DOCKED: ENDBRANCH  13  14
DOCKED: ENDBRANCH  12  13
DOCKED: ENDBRANCH   2  12
DOCKED: BRANCH   2  18
DOCKED: ATOM     18  C   UNL     1     -41.568 -19.199   7.816 -0.03 +0.00    +0.006 A  
DOCKED: ATOM     19  C   UNL     1     -42.223 -18.177   8.502 -0.03 +0.00    +0.001 A  
DOCKED: ATOM     20  C   UNL     1     -41.484 -17.148   9.088 -0.01 +0.00    +0.029 A  
DOCKED: ATOM     21  C   UNL     1     -40.094 -17.143   8.988 -0.00 +0.00    +0.140 A  
DOCKED: ATOM     22  C   UNL     1     -39.440 -18.166   8.301 -0.00 +0.00    +0.029 A  
DOCKED: ATOM     23  F   UNL     1     -39.385 -16.156   9.552 +0.00 -0.00    -0.204 F  
DOCKED: ATOM     24  C   UNL     1     -40.178 -19.195   7.714 -0.01 +0.00    +0.001 A  
DOCKED: ENDBRANCH   2  18
DOCKED: TORSDOF 5
DOCKED: TER
DOCKED: ENDMDL
________________________________________________________________________________


    FINAL DOCKED STATE:
    ________________________


Run:   225 / 512
Time taken for this run:   0.002s

DOCKED: MODEL        225
DOCKED: USER    Run = 225
DOCKED: USER
DOCKED: USER    Estimated Free Energy of Binding    =  -3.79 kcal/mol  [=(1)+(2)+(3)-(4)]
DOCKED: USER
DOCKED: USER    (1) Final Intermolecular Energy     =  -5.28 kcal/mol
DOCKED: USER        vdW + Hbond + desolv Energy     =  -5.28 kcal/mol
DOCKED: USER        Electrostatic Energy            =  +0.00 kcal/mol
DOCKED: USER        Moving Ligand-Fixed Receptor    =  -5.28 kcal/mol
DOCKED: USER        Moving Ligand-Moving Receptor   =  +0.00 kcal/mol
DOCKED: USER    (2) Final Total Internal Energy     =  -1.27 kcal/mol
DOCKED: USER    (3) Torsional Free Energy           =  +1.49 kcal/mol
DOCKED: USER    (4) Unbound System's Energy         =  -1.27 kcal/mol
DOCKED: USER
DOCKED: USER
DOCKED: REMARK  5 active torsions:
DOCKED: REMARK  status: ('A' for Active; 'I' for Inactive)
DOCKED: REMARK    1  A    between atoms: C_2  and  C_19 
DOCKED: REMARK    2  A    between atoms: C_2  and  C_11 
DOCKED: REMARK    3  A    between atoms: C_19  and  C_20 
DOCKED: REMARK    4  A    between atoms: C_20  and  C_21 
DOCKED: REMARK    5  A    between atoms: C_21  and  N_22 
DOCKED: USER                              x       y       z     vdW  Elec       q    Type
DOCKED: USER                           _______ _______ _______ _____ _____    ______ ____
DOCKED: ROOT
DOCKED: ATOM      1  O   UNL     1     -47.716 -19.147  13.691 -0.07 -0.00    -0.346 OA 
DOCKED: ATOM      2  C   UNL     1     -48.606 -19.560  14.776 -0.09 +0.00    +0.130 C  
DOCKED: ATOM      3  C   UNL     1     -49.083 -20.919  14.352 -0.17 +0.00    +0.004 A  
DOCKED: ATOM      4  C   UNL     1     -48.437 -21.297  13.184 -0.28 +0.00    +0.006 A  
DOCKED: ATOM      5  C   UNL     1     -47.493 -20.237  12.766 +0.01 +0.00    +0.169 C  
DOCKED: ATOM      6  C   UNL     1     -50.006 -21.759  14.959 -0.11 -0.00    -0.001 A  
DOCKED: ATOM      7  C   UNL     1     -48.692 -22.517  12.582 -0.33 +0.00    +0.008 A  
DOCKED: ATOM      8  C   UNL     1     -50.277 -22.991  14.361 -0.17 +0.00    +0.010 A  
DOCKED: ATOM      9  C   UNL     1     -49.623 -23.368  13.179 -0.26 +0.00    +0.068 A  
DOCKED: ATOM     10  N   UNL     1     -50.146 -25.665  12.099 -2.56 -0.00    -0.191 NA 
DOCKED: ATOM     11  C   UNL     1     -49.912 -24.634  12.583 -0.35 +0.00    +0.101 C  
DOCKED: ENDROOT
DOCKED: BRANCH   2  12
DOCKED: ATOM     12  C   UNL     1     -47.806 -19.589  16.073 -0.04 +0.00    +0.038 C  
DOCKED: BRANCH  12  13
DOCKED: ATOM     13  C   UNL     1     -46.829 -20.763  16.098 -0.07 +0.00    +0.038 C  
DOCKED: BRANCH  13  14
DOCKED: ATOM     14  C   UNL     1     -45.524 -20.407  15.388 -0.07 +0.00    +0.251 C  
DOCKED: BRANCH  14  15
DOCKED: ATOM     15  N   UNL     1     -44.721 -21.605  15.172 -0.12 +0.00    +0.141 N  
DOCKED: ATOM     16  C   UNL     1     -43.550 -21.608  16.051 -0.06 +0.00    +0.285 C  
DOCKED: ATOM     17  C   UNL     1     -45.523 -22.810  15.392 -0.09 +0.00    +0.285 C  
DOCKED: ENDBRANCH  14  15
DOCKED: ENDBRANCH  13  14
DOCKED: ENDBRANCH  12  13
DOCKED: ENDBRANCH   2  12
DOCKED: BRANCH   2  18
DOCKED: ATOM     18  C   UNL     1     -49.706 -18.553  14.845 -0.09 +0.00    +0.006 A  
DOCKED: ATOM     19  C   UNL     1     -50.489 -18.455  15.994 -0.03 +0.00    +0.001 A  
DOCKED: ATOM     20  C   UNL     1     -51.517 -17.514  16.057 -0.03 +0.00    +0.029 A  
DOCKED: ATOM     21  C   UNL     1     -51.760 -16.673  14.972 -0.03 +0.00    +0.140 A  
DOCKED: ATOM     22  C   UNL     1     -50.976 -16.771  13.823 -0.12 +0.00    +0.029 A  
DOCKED: ATOM     23  F   UNL     1     -52.746 -15.768  15.034 +0.01 -0.00    -0.204 F  
DOCKED: ATOM     24  C   UNL     1     -49.948 -17.713  13.759 -0.16 +0.00    +0.001 A  
DOCKED: ENDBRANCH   2  18
DOCKED: TORSDOF 5
DOCKED: TER
DOCKED: ENDMDL
________________________________________________________________________________


    FINAL DOCKED STATE:
    ________________________


Run:   226 / 512
Time taken for this run:   0.002s

DOCKED: MODEL        226
DOCKED: USER    Run = 226
DOCKED: USER
DOCKED: USER    Estimated Free Energy of Binding    =  -4.39 kcal/mol  [=(1)+(2)+(3)-(4)]
DOCKED: USER
DOCKED: USER    (1) Final Intermolecular Energy     =  -5.88 kcal/mol
DOCKED: USER        vdW + Hbond + desolv Energy     =  -5.88 kcal/mol
DOCKED: USER        Electrostatic Energy            =  +0.00 kcal/mol
DOCKED: USER        Moving Ligand-Fixed Receptor    =  -5.88 kcal/mol
DOCKED: USER        Moving Ligand-Moving Receptor   =  +0.00 kcal/mol
DOCKED: USER    (2) Final Total Internal Energy     =  -1.08 kcal/mol
DOCKED: USER    (3) Torsional Free Energy           =  +1.49 kcal/mol
DOCKED: USER    (4) Unbound System's Energy         =  -1.08 kcal/mol
DOCKED: USER
DOCKED: USER
DOCKED: REMARK  5 active torsions:
DOCKED: REMARK  status: ('A' for Active; 'I' for Inactive)
DOCKED: REMARK    1  A    between atoms: C_2  and  C_19 
DOCKED: REMARK    2  A    between atoms: C_2  and  C_11 
DOCKED: REMARK    3  A    between atoms: C_19  and  C_20 
DOCKED: REMARK    4  A    between atoms: C_20  and  C_21 
DOCKED: REMARK    5  A    between atoms: C_21  and  N_22 
DOCKED: USER                              x       y       z     vdW  Elec       q    Type
DOCKED: USER                           _______ _______ _______ _____ _____    ______ ____
DOCKED: ROOT
DOCKED: ATOM      1  O   UNL     1     -43.082 -13.807   7.062 -0.08 -0.00    -0.346 OA 
DOCKED: ATOM      2  C   UNL     1     -44.270 -14.655   7.179 -0.14 +0.00    +0.130 C  
DOCKED: ATOM      3  C   UNL     1     -45.122 -14.243   6.014 -0.09 +0.00    +0.004 A  
DOCKED: ATOM      4  C   UNL     1     -44.436 -13.320   5.237 -0.01 +0.00    +0.006 A  
DOCKED: ATOM      5  C   UNL     1     -43.097 -13.072   5.817 -0.11 +0.00    +0.169 C  
DOCKED: ATOM      6  C   UNL     1     -46.398 -14.659   5.664 -0.27 -0.00    -0.001 A  
DOCKED: ATOM      7  C   UNL     1     -44.998 -12.782   4.092 -0.27 +0.00    +0.008 A  
DOCKED: ATOM      8  C   UNL     1     -46.981 -14.122   4.515 -0.16 +0.00    +0.010 A  
DOCKED: ATOM      9  C   UNL     1     -46.284 -13.188   3.733 -0.35 +0.00    +0.068 A  
DOCKED: ATOM     10  N   UNL     1     -47.393 -12.215   1.603 -2.49 -0.00    -0.191 NA 
DOCKED: ATOM     11  C   UNL     1     -46.896 -12.651   2.559 -0.41 +0.00    +0.101 C  
DOCKED: ENDROOT
DOCKED: BRANCH   2  12
DOCKED: ATOM     12  C   UNL     1     -43.831 -16.113   7.106 -0.09 +0.00    +0.038 C  
DOCKED: BRANCH  12  13
DOCKED: ATOM     13  C   UNL     1     -44.335 -16.783   5.830 -0.17 +0.00    +0.038 C  
DOCKED: BRANCH  13  14
DOCKED: ATOM     14  C   UNL     1     -45.532 -17.687   6.120 +0.18 +0.00    +0.251 C  
DOCKED: BRANCH  14  15
DOCKED: ATOM     15  N   UNL     1     -45.952 -17.542   7.509 -0.18 +0.00    +0.141 N  
DOCKED: ATOM     16  C   UNL     1     -47.401 -17.352   7.593 -0.14 +0.00    +0.285 C  
DOCKED: ATOM     17  C   UNL     1     -45.547 -18.710   8.294 -0.16 +0.00    +0.285 C  
DOCKED: ENDBRANCH  14  15
DOCKED: ENDBRANCH  13  14
DOCKED: ENDBRANCH  12  13
DOCKED: ENDBRANCH   2  12
DOCKED: BRANCH   2  18
DOCKED: ATOM     18  C   UNL     1     -44.898 -14.347   8.497 -0.13 +0.00    +0.006 A  
DOCKED: ATOM     19  C   UNL     1     -46.286 -14.279   8.608 -0.20 +0.00    +0.001 A  
DOCKED: ATOM     20  C   UNL     1     -46.872 -13.991   9.841 -0.22 +0.00    +0.029 A  
DOCKED: ATOM     21  C   UNL     1     -46.070 -13.771  10.960 -0.13 +0.00    +0.140 A  
DOCKED: ATOM     22  C   UNL     1     -44.682 -13.840  10.848 -0.12 +0.00    +0.029 A  
DOCKED: ATOM     23  F   UNL     1     -46.633 -13.496  12.144 -0.01 -0.00    -0.204 F  
DOCKED: ATOM     24  C   UNL     1     -44.094 -14.128   9.615 -0.11 +0.00    +0.001 A  
DOCKED: ENDBRANCH   2  18
DOCKED: TORSDOF 5
DOCKED: TER
DOCKED: ENDMDL
________________________________________________________________________________


    FINAL DOCKED STATE:
    ________________________


Run:   227 / 512
Time taken for this run:   0.002s

DOCKED: MODEL        227
DOCKED: USER    Run = 227
DOCKED: USER
DOCKED: USER    Estimated Free Energy of Binding    =  -3.99 kcal/mol  [=(1)+(2)+(3)-(4)]
DOCKED: USER
DOCKED: USER    (1) Final Intermolecular Energy     =  -5.48 kcal/mol
DOCKED: USER        vdW + Hbond + desolv Energy     =  -5.48 kcal/mol
DOCKED: USER        Electrostatic Energy            =  +0.00 kcal/mol
DOCKED: USER        Moving Ligand-Fixed Receptor    =  -5.48 kcal/mol
DOCKED: USER        Moving Ligand-Moving Receptor   =  +0.00 kcal/mol
DOCKED: USER    (2) Final Total Internal Energy     =  -1.40 kcal/mol
DOCKED: USER    (3) Torsional Free Energy           =  +1.49 kcal/mol
DOCKED: USER    (4) Unbound System's Energy         =  -1.40 kcal/mol
DOCKED: USER
DOCKED: USER
DOCKED: REMARK  5 active torsions:
DOCKED: REMARK  status: ('A' for Active; 'I' for Inactive)
DOCKED: REMARK    1  A    between atoms: C_2  and  C_19 
DOCKED: REMARK    2  A    between atoms: C_2  and  C_11 
DOCKED: REMARK    3  A    between atoms: C_19  and  C_20 
DOCKED: REMARK    4  A    between atoms: C_20  and  C_21 
DOCKED: REMARK    5  A    between atoms: C_21  and  N_22 
DOCKED: USER                              x       y       z     vdW  Elec       q    Type
DOCKED: USER                           _______ _______ _______ _____ _____    ______ ____
DOCKED: ROOT
DOCKED: ATOM      1  O   UNL     1     -45.777 -20.969  15.259 -0.06 -0.00    -0.346 OA 
DOCKED: ATOM      2  C   UNL     1     -46.923 -20.169  14.825 -0.11 +0.00    +0.130 C  
DOCKED: ATOM      3  C   UNL     1     -47.826 -21.166  14.159 -0.21 +0.00    +0.004 A  
DOCKED: ATOM      4  C   UNL     1     -47.296 -22.441  14.296 -0.23 +0.00    +0.006 A  
DOCKED: ATOM      5  C   UNL     1     -46.031 -22.380  15.062 -0.16 +0.00    +0.169 C  
DOCKED: ATOM      6  C   UNL     1     -49.026 -20.962  13.494 -0.25 -0.00    -0.001 A  
DOCKED: ATOM      7  C   UNL     1     -47.940 -23.549  13.773 -0.33 +0.00    +0.008 A  
DOCKED: ATOM      8  C   UNL     1     -49.686 -22.069  12.957 -0.29 +0.00    +0.010 A  
DOCKED: ATOM      9  C   UNL     1     -49.146 -23.356  13.097 -0.29 +0.00    +0.068 A  
DOCKED: ATOM     10  N   UNL     1     -50.398 -25.390  12.093 -2.56 -0.00    -0.191 NA 
DOCKED: ATOM     11  C   UNL     1     -49.836 -24.478  12.543 -0.37 +0.00    +0.101 C  
DOCKED: ENDROOT
DOCKED: BRANCH   2  12
DOCKED: ATOM     12  C   UNL     1     -47.555 -19.526  16.054 -0.04 +0.00    +0.038 C  
DOCKED: BRANCH  12  13
DOCKED: ATOM     13  C   UNL     1     -48.175 -20.574  16.976 -0.03 +0.00    +0.038 C  
DOCKED: BRANCH  13  14
DOCKED: ATOM     14  C   UNL     1     -49.661 -20.301  17.197 -0.01 +0.00    +0.251 C  
DOCKED: BRANCH  14  15
DOCKED: ATOM     15  N   UNL     1     -50.468 -21.324  16.542 -0.02 +0.00    +0.141 N  
DOCKED: ATOM     16  C   UNL     1     -49.935 -22.659  16.821 -0.02 +0.00    +0.285 C  
DOCKED: ATOM     17  C   UNL     1     -51.864 -21.235  16.973 +0.00 +0.00    +0.285 C  
DOCKED: ENDBRANCH  14  15
DOCKED: ENDBRANCH  13  14
DOCKED: ENDBRANCH  12  13
DOCKED: ENDBRANCH   2  12
DOCKED: BRANCH   2  18
DOCKED: ATOM     18  C   UNL     1     -46.402 -19.135  13.884 -0.13 +0.00    +0.006 A  
DOCKED: ATOM     19  C   UNL     1     -45.937 -17.916  14.375 -0.05 +0.00    +0.001 A  
DOCKED: ATOM     20  C   UNL     1     -45.450 -16.950  13.494 -0.04 +0.00    +0.029 A  
DOCKED: ATOM     21  C   UNL     1     -45.430 -17.204  12.123 -0.06 +0.00    +0.140 A  
DOCKED: ATOM     22  C   UNL     1     -45.896 -18.424  11.632 -0.10 +0.00    +0.029 A  
DOCKED: ATOM     23  F   UNL     1     -44.961 -16.277  11.277 -0.00 -0.00    -0.204 F  
DOCKED: ATOM     24  C   UNL     1     -46.383 -19.390  12.513 -0.11 +0.00    +0.001 A  
DOCKED: ENDBRANCH   2  18
DOCKED: TORSDOF 5
DOCKED: TER
DOCKED: ENDMDL
________________________________________________________________________________


    FINAL DOCKED STATE:
    ________________________


Run:   228 / 512
Time taken for this run:   0.002s

DOCKED: MODEL        228
DOCKED: USER    Run = 228
DOCKED: USER
DOCKED: USER    Estimated Free Energy of Binding    =  -4.45 kcal/mol  [=(1)+(2)+(3)-(4)]
DOCKED: USER
DOCKED: USER    (1) Final Intermolecular Energy     =  -5.95 kcal/mol
DOCKED: USER        vdW + Hbond + desolv Energy     =  -5.95 kcal/mol
DOCKED: USER        Electrostatic Energy            =  +0.00 kcal/mol
DOCKED: USER        Moving Ligand-Fixed Receptor    =  -5.95 kcal/mol
DOCKED: USER        Moving Ligand-Moving Receptor   =  +0.00 kcal/mol
DOCKED: USER    (2) Final Total Internal Energy     =  -0.97 kcal/mol
DOCKED: USER    (3) Torsional Free Energy           =  +1.49 kcal/mol
DOCKED: USER    (4) Unbound System's Energy         =  -0.97 kcal/mol
DOCKED: USER
DOCKED: USER
DOCKED: REMARK  5 active torsions:
DOCKED: REMARK  status: ('A' for Active; 'I' for Inactive)
DOCKED: REMARK    1  A    between atoms: C_2  and  C_19 
DOCKED: REMARK    2  A    between atoms: C_2  and  C_11 
DOCKED: REMARK    3  A    between atoms: C_19  and  C_20 
DOCKED: REMARK    4  A    between atoms: C_20  and  C_21 
DOCKED: REMARK    5  A    between atoms: C_21  and  N_22 
DOCKED: USER                              x       y       z     vdW  Elec       q    Type
DOCKED: USER                           _______ _______ _______ _____ _____    ______ ____
DOCKED: ROOT
DOCKED: ATOM      1  O   UNL     1     -42.013 -13.278   6.153 -0.04 -0.00    -0.346 OA 
DOCKED: ATOM      2  C   UNL     1     -42.984 -14.351   6.369 -0.11 +0.00    +0.130 C  
DOCKED: ATOM      3  C   UNL     1     -44.084 -14.043   5.395 -0.17 +0.00    +0.004 A  
DOCKED: ATOM      4  C   UNL     1     -43.724 -12.954   4.613 -0.17 +0.00    +0.006 A  
DOCKED: ATOM      5  C   UNL     1     -42.376 -12.481   5.001 -0.09 +0.00    +0.169 C  
DOCKED: ATOM      6  C   UNL     1     -45.301 -14.682   5.207 -0.27 -0.00    -0.001 A  
DOCKED: ATOM      7  C   UNL     1     -44.564 -12.467   3.626 -0.26 +0.00    +0.008 A  
DOCKED: ATOM      8  C   UNL     1     -46.160 -14.200   4.219 -0.18 +0.00    +0.010 A  
DOCKED: ATOM      9  C   UNL     1     -45.793 -13.098   3.432 -0.33 +0.00    +0.068 A  
DOCKED: ATOM     10  N   UNL     1     -47.410 -12.230   1.603 -2.52 -0.00    -0.191 NA 
DOCKED: ATOM     11  C   UNL     1     -46.685 -12.619   2.424 -0.44 +0.00    +0.101 C  
DOCKED: ENDROOT
DOCKED: BRANCH   2  12
DOCKED: ATOM     12  C   UNL     1     -42.300 -15.684   6.090 -0.04 +0.00    +0.038 C  
DOCKED: BRANCH  12  13
DOCKED: ATOM     13  C   UNL     1     -43.210 -16.861   6.438 -0.06 +0.00    +0.038 C  
DOCKED: BRANCH  13  14
DOCKED: ATOM     14  C   UNL     1     -42.670 -18.165   5.853 -0.05 +0.00    +0.251 C  
DOCKED: BRANCH  14  15
DOCKED: ATOM     15  N   UNL     1     -43.110 -18.322   4.472 -0.12 +0.00    +0.141 N  
DOCKED: ATOM     16  C   UNL     1     -43.058 -19.728   4.070 -0.17 +0.00    +0.285 C  
DOCKED: ATOM     17  C   UNL     1     -44.465 -17.795   4.300 -0.16 +0.00    +0.285 C  
DOCKED: ENDBRANCH  14  15
DOCKED: ENDBRANCH  13  14
DOCKED: ENDBRANCH  12  13
DOCKED: ENDBRANCH   2  12
DOCKED: BRANCH   2  18
DOCKED: ATOM     18  C   UNL     1     -43.425 -14.260   7.792 -0.14 +0.00    +0.006 A  
DOCKED: ATOM     19  C   UNL     1     -42.509 -13.917   8.785 -0.10 +0.00    +0.001 A  
DOCKED: ATOM     20  C   UNL     1     -42.923 -13.833  10.115 -0.07 +0.00    +0.029 A  
DOCKED: ATOM     21  C   UNL     1     -44.251 -14.091  10.450 -0.10 +0.00    +0.140 A  
DOCKED: ATOM     22  C   UNL     1     -45.167 -14.434   9.456 -0.16 +0.00    +0.029 A  
DOCKED: ATOM     23  F   UNL     1     -44.649 -14.008  11.726 -0.03 -0.00    -0.204 F  
DOCKED: ATOM     24  C   UNL     1     -44.754 -14.519   8.125 -0.16 +0.00    +0.001 A  
DOCKED: ENDBRANCH   2  18
DOCKED: TORSDOF 5
DOCKED: TER
DOCKED: ENDMDL
________________________________________________________________________________


    FINAL DOCKED STATE:
    ________________________


Run:   229 / 512
Time taken for this run:   0.002s

DOCKED: MODEL        229
DOCKED: USER    Run = 229
DOCKED: USER
DOCKED: USER    Estimated Free Energy of Binding    =  -4.20 kcal/mol  [=(1)+(2)+(3)-(4)]
DOCKED: USER
DOCKED: USER    (1) Final Intermolecular Energy     =  -5.69 kcal/mol
DOCKED: USER        vdW + Hbond + desolv Energy     =  -5.69 kcal/mol
DOCKED: USER        Electrostatic Energy            =  +0.00 kcal/mol
DOCKED: USER        Moving Ligand-Fixed Receptor    =  -5.69 kcal/mol
DOCKED: USER        Moving Ligand-Moving Receptor   =  +0.00 kcal/mol
DOCKED: USER    (2) Final Total Internal Energy     =  -1.24 kcal/mol
DOCKED: USER    (3) Torsional Free Energy           =  +1.49 kcal/mol
DOCKED: USER    (4) Unbound System's Energy         =  -1.24 kcal/mol
DOCKED: USER
DOCKED: USER
DOCKED: REMARK  5 active torsions:
DOCKED: REMARK  status: ('A' for Active; 'I' for Inactive)
DOCKED: REMARK    1  A    between atoms: C_2  and  C_19 
DOCKED: REMARK    2  A    between atoms: C_2  and  C_11 
DOCKED: REMARK    3  A    between atoms: C_19  and  C_20 
DOCKED: REMARK    4  A    between atoms: C_20  and  C_21 
DOCKED: REMARK    5  A    between atoms: C_21  and  N_22 
DOCKED: USER                              x       y       z     vdW  Elec       q    Type
DOCKED: USER                           _______ _______ _______ _____ _____    ______ ____
DOCKED: ROOT
DOCKED: ATOM      1  O   UNL     1     -43.249 -16.294   5.560 +0.00 -0.00    -0.346 OA 
DOCKED: ATOM      2  C   UNL     1     -44.459 -16.017   6.336 -0.13 +0.00    +0.130 C  
DOCKED: ATOM      3  C   UNL     1     -45.258 -15.111   5.444 -0.25 +0.00    +0.004 A  
DOCKED: ATOM      4  C   UNL     1     -44.614 -14.971   4.223 -0.21 +0.00    +0.006 A  
DOCKED: ATOM      5  C   UNL     1     -43.370 -15.773   4.216 -0.10 +0.00    +0.169 C  
DOCKED: ATOM      6  C   UNL     1     -46.464 -14.470   5.690 -0.29 -0.00    -0.001 A  
DOCKED: ATOM      7  C   UNL     1     -45.147 -14.188   3.213 -0.14 +0.00    +0.008 A  
DOCKED: ATOM      8  C   UNL     1     -47.012 -13.674   4.683 -0.28 +0.00    +0.010 A  
DOCKED: ATOM      9  C   UNL     1     -46.356 -13.534   3.451 -0.08 +0.00    +0.068 A  
DOCKED: ATOM     10  N   UNL     1     -47.404 -12.052   1.601 -2.42 -0.00    -0.191 NA 
DOCKED: ATOM     11  C   UNL     1     -46.934 -12.716   2.431 -0.35 +0.00    +0.101 C  
DOCKED: ENDROOT
DOCKED: BRANCH   2  12
DOCKED: ATOM     12  C   UNL     1     -45.162 -17.338   6.622 -0.21 +0.00    +0.038 C  
DOCKED: BRANCH  12  13
DOCKED: ATOM     13  C   UNL     1     -44.275 -18.530   6.267 -0.19 +0.00    +0.038 C  
DOCKED: BRANCH  13  14
DOCKED: ATOM     14  C   UNL     1     -44.020 -19.409   7.489 -0.16 +0.00    +0.251 C  
DOCKED: BRANCH  14  15
DOCKED: ATOM     15  N   UNL     1     -43.909 -18.588   8.690 -0.08 +0.00    +0.141 N  
DOCKED: ATOM     16  C   UNL     1     -45.172 -18.582   9.429 -0.11 +0.00    +0.285 C  
DOCKED: ATOM     17  C   UNL     1     -42.822 -19.070   9.545 -0.05 +0.00    +0.285 C  
DOCKED: ENDBRANCH  14  15
DOCKED: ENDBRANCH  13  14
DOCKED: ENDBRANCH  12  13
DOCKED: ENDBRANCH   2  12
DOCKED: BRANCH   2  18
DOCKED: ATOM     18  C   UNL     1     -44.025 -15.353   7.600 -0.12 +0.00    +0.006 A  
DOCKED: ATOM     19  C   UNL     1     -44.962 -14.709   8.407 -0.18 +0.00    +0.001 A  
DOCKED: ATOM     20  C   UNL     1     -44.554 -14.089   9.588 -0.11 +0.00    +0.029 A  
DOCKED: ATOM     21  C   UNL     1     -43.211 -14.114   9.962 -0.08 +0.00    +0.140 A  
DOCKED: ATOM     22  C   UNL     1     -42.274 -14.759   9.155 -0.07 +0.00    +0.029 A  
DOCKED: ATOM     23  F   UNL     1     -42.821 -13.520  11.097 -0.04 -0.00    -0.204 F  
DOCKED: ATOM     24  C   UNL     1     -42.681 -15.379   7.972 -0.06 +0.00    +0.001 A  
DOCKED: ENDBRANCH   2  18
DOCKED: TORSDOF 5
DOCKED: TER
DOCKED: ENDMDL
________________________________________________________________________________


    FINAL DOCKED STATE:
    ________________________


Run:   230 / 512
Time taken for this run:   0.002s

DOCKED: MODEL        230
DOCKED: USER    Run = 230
DOCKED: USER
DOCKED: USER    Estimated Free Energy of Binding    =  -5.55 kcal/mol  [=(1)+(2)+(3)-(4)]
DOCKED: USER
DOCKED: USER    (1) Final Intermolecular Energy     =  -7.04 kcal/mol
DOCKED: USER        vdW + Hbond + desolv Energy     =  -7.04 kcal/mol
DOCKED: USER        Electrostatic Energy            =  +0.00 kcal/mol
DOCKED: USER        Moving Ligand-Fixed Receptor    =  -7.04 kcal/mol
DOCKED: USER        Moving Ligand-Moving Receptor   =  +0.00 kcal/mol
DOCKED: USER    (2) Final Total Internal Energy     =  -1.08 kcal/mol
DOCKED: USER    (3) Torsional Free Energy           =  +1.49 kcal/mol
DOCKED: USER    (4) Unbound System's Energy         =  -1.08 kcal/mol
DOCKED: USER
DOCKED: USER
DOCKED: REMARK  5 active torsions:
DOCKED: REMARK  status: ('A' for Active; 'I' for Inactive)
DOCKED: REMARK    1  A    between atoms: C_2  and  C_19 
DOCKED: REMARK    2  A    between atoms: C_2  and  C_11 
DOCKED: REMARK    3  A    between atoms: C_19  and  C_20 
DOCKED: REMARK    4  A    between atoms: C_20  and  C_21 
DOCKED: REMARK    5  A    between atoms: C_21  and  N_22 
DOCKED: USER                              x       y       z     vdW  Elec       q    Type
DOCKED: USER                           _______ _______ _______ _____ _____    ______ ____
DOCKED: ROOT
DOCKED: ATOM      1  O   UNL     1     -51.767 -22.803  15.165 -0.00 -0.00    -0.346 OA 
DOCKED: ATOM      2  C   UNL     1     -50.412 -22.338  14.870 -0.11 +0.00    +0.130 C  
DOCKED: ATOM      3  C   UNL     1     -50.214 -22.699  13.426 -0.24 +0.00    +0.004 A  
DOCKED: ATOM      4  C   UNL     1     -51.391 -23.223  12.910 -0.27 +0.00    +0.006 A  
DOCKED: ATOM      5  C   UNL     1     -52.437 -23.234  13.957 -0.16 +0.00    +0.169 C  
DOCKED: ATOM      6  C   UNL     1     -49.087 -22.563  12.629 -0.35 -0.00    -0.001 A  
DOCKED: ATOM      7  C   UNL     1     -51.481 -23.631  11.591 -0.30 +0.00    +0.008 A  
DOCKED: ATOM      8  C   UNL     1     -49.160 -22.975  11.297 -0.25 +0.00    +0.010 A  
DOCKED: ATOM      9  C   UNL     1     -50.351 -23.506  10.781 -0.32 +0.00    +0.068 A  
DOCKED: ATOM     10  N   UNL     1     -50.455 -24.255   8.303 -2.99 -0.00    -0.191 NA 
DOCKED: ATOM     11  C   UNL     1     -50.408 -23.920   9.414 -0.25 +0.00    +0.101 C  
DOCKED: ENDROOT
DOCKED: BRANCH   2  12
DOCKED: ATOM     12  C   UNL     1     -50.352 -20.836  15.120 -0.11 +0.00    +0.038 C  
DOCKED: BRANCH  12  13
DOCKED: ATOM     13  C   UNL     1     -51.082 -20.060  14.025 -0.23 +0.00    +0.038 C  
DOCKED: BRANCH  13  14
DOCKED: ATOM     14  C   UNL     1     -50.116 -19.170  13.245 -0.15 +0.00    +0.251 C  
DOCKED: BRANCH  14  15
DOCKED: ATOM     15  N   UNL     1     -50.293 -17.773  13.627 -0.15 +0.00    +0.141 N  
DOCKED: ATOM     16  C   UNL     1     -49.621 -16.889  12.673 -0.12 +0.00    +0.285 C  
DOCKED: ATOM     17  C   UNL     1     -51.715 -17.439  13.714 -0.12 +0.00    +0.285 C  
DOCKED: ENDBRANCH  14  15
DOCKED: ENDBRANCH  13  14
DOCKED: ENDBRANCH  12  13
DOCKED: ENDBRANCH   2  12
DOCKED: BRANCH   2  18
DOCKED: ATOM     18  C   UNL     1     -49.489 -23.073  15.784 -0.12 +0.00    +0.006 A  
DOCKED: ATOM     19  C   UNL     1     -48.665 -22.365  16.658 -0.08 +0.00    +0.001 A  
DOCKED: ATOM     20  C   UNL     1     -47.803 -23.054  17.513 -0.10 +0.00    +0.029 A  
DOCKED: ATOM     21  C   UNL     1     -47.766 -24.447  17.492 -0.13 +0.00    +0.140 A  
DOCKED: ATOM     22  C   UNL     1     -48.591 -25.154  16.617 -0.19 +0.00    +0.029 A  
DOCKED: ATOM     23  F   UNL     1     -46.940 -25.108  18.313 -0.06 -0.00    -0.204 F  
DOCKED: ATOM     24  C   UNL     1     -49.454 -24.467  15.762 -0.24 +0.00    +0.001 A  
DOCKED: ENDBRANCH   2  18
DOCKED: TORSDOF 5
DOCKED: TER
DOCKED: ENDMDL
________________________________________________________________________________


    FINAL DOCKED STATE:
    ________________________


Run:   231 / 512
Time taken for this run:   0.002s

DOCKED: MODEL        231
DOCKED: USER    Run = 231
DOCKED: USER
DOCKED: USER    Estimated Free Energy of Binding    =  -3.92 kcal/mol  [=(1)+(2)+(3)-(4)]
DOCKED: USER
DOCKED: USER    (1) Final Intermolecular Energy     =  -5.41 kcal/mol
DOCKED: USER        vdW + Hbond + desolv Energy     =  -5.41 kcal/mol
DOCKED: USER        Electrostatic Energy            =  +0.00 kcal/mol
DOCKED: USER        Moving Ligand-Fixed Receptor    =  -5.41 kcal/mol
DOCKED: USER        Moving Ligand-Moving Receptor   =  +0.00 kcal/mol
DOCKED: USER    (2) Final Total Internal Energy     =  -1.14 kcal/mol
DOCKED: USER    (3) Torsional Free Energy           =  +1.49 kcal/mol
DOCKED: USER    (4) Unbound System's Energy         =  -1.14 kcal/mol
DOCKED: USER
DOCKED: USER
DOCKED: REMARK  5 active torsions:
DOCKED: REMARK  status: ('A' for Active; 'I' for Inactive)
DOCKED: REMARK    1  A    between atoms: C_2  and  C_19 
DOCKED: REMARK    2  A    between atoms: C_2  and  C_11 
DOCKED: REMARK    3  A    between atoms: C_19  and  C_20 
DOCKED: REMARK    4  A    between atoms: C_20  and  C_21 
DOCKED: REMARK    5  A    between atoms: C_21  and  N_22 
DOCKED: USER                              x       y       z     vdW  Elec       q    Type
DOCKED: USER                           _______ _______ _______ _____ _____    ______ ____
DOCKED: ROOT
DOCKED: ATOM      1  O   UNL     1     -40.241 -24.681   4.541 -0.02 -0.00    -0.346 OA 
DOCKED: ATOM      2  C   UNL     1     -40.233 -23.438   5.313 -0.08 +0.00    +0.130 C  
DOCKED: ATOM      3  C   UNL     1     -40.838 -23.829   6.631 -0.12 +0.00    +0.004 A  
DOCKED: ATOM      4  C   UNL     1     -41.068 -25.197   6.651 -0.17 +0.00    +0.006 A  
DOCKED: ATOM      5  C   UNL     1     -40.628 -25.800   5.373 -0.09 +0.00    +0.169 C  
DOCKED: ATOM      6  C   UNL     1     -41.148 -23.039   7.728 -0.12 -0.00    -0.001 A  
DOCKED: ATOM      7  C   UNL     1     -41.617 -25.819   7.759 -0.29 +0.00    +0.008 A  
DOCKED: ATOM      8  C   UNL     1     -41.706 -23.650   8.852 -0.22 +0.00    +0.010 A  
DOCKED: ATOM      9  C   UNL     1     -41.939 -25.033   8.867 -0.30 +0.00    +0.068 A  
DOCKED: ATOM     10  N   UNL     1     -42.973 -26.137  10.971 -2.62 -0.00    -0.191 NA 
DOCKED: ATOM     11  C   UNL     1     -42.510 -25.642  10.027 -0.39 +0.00    +0.101 C  
DOCKED: ENDROOT
DOCKED: BRANCH   2  12
DOCKED: ATOM     12  C   UNL     1     -38.792 -22.958   5.440 -0.02 +0.00    +0.038 C  
DOCKED: BRANCH  12  13
DOCKED: ATOM     13  C   UNL     1     -38.052 -23.704   6.549 -0.02 +0.00    +0.038 C  
DOCKED: BRANCH  13  14
DOCKED: ATOM     14  C   UNL     1     -36.695 -24.207   6.061 -0.01 +0.00    +0.251 C  
DOCKED: BRANCH  14  15
DOCKED: ATOM     15  N   UNL     1     -36.699 -24.353   4.611 -0.00 +0.00    +0.141 N  
DOCKED: ATOM     16  C   UNL     1     -35.433 -23.889   4.041 -0.00 +0.00    +0.285 C  
DOCKED: ATOM     17  C   UNL     1     -36.945 -25.746   4.234 -0.00 +0.00    +0.285 C  
DOCKED: ENDBRANCH  14  15
DOCKED: ENDBRANCH  13  14
DOCKED: ENDBRANCH  12  13
DOCKED: ENDBRANCH   2  12
DOCKED: BRANCH   2  18
DOCKED: ATOM     18  C   UNL     1     -41.065 -22.452   4.562 -0.12 +0.00    +0.006 A  
DOCKED: ATOM     19  C   UNL     1     -41.778 -21.473   5.251 -0.09 +0.00    +0.001 A  
DOCKED: ATOM     20  C   UNL     1     -42.556 -20.553   4.547 -0.15 +0.00    +0.029 A  
DOCKED: ATOM     21  C   UNL     1     -42.617 -20.612   3.156 -0.18 +0.00    +0.140 A  
DOCKED: ATOM     22  C   UNL     1     -41.903 -21.591   2.467 -0.17 +0.00    +0.029 A  
DOCKED: ATOM     23  F   UNL     1     -43.362 -19.727   2.480 -0.10 -0.00    -0.204 F  
DOCKED: ATOM     24  C   UNL     1     -41.126 -22.513   3.170 -0.12 +0.00    +0.001 A  
DOCKED: ENDBRANCH   2  18
DOCKED: TORSDOF 5
DOCKED: TER
DOCKED: ENDMDL
________________________________________________________________________________


    FINAL DOCKED STATE:
    ________________________


Run:   232 / 512
Time taken for this run:   0.002s

DOCKED: MODEL        232
DOCKED: USER    Run = 232
DOCKED: USER
DOCKED: USER    Estimated Free Energy of Binding    =  -3.75 kcal/mol  [=(1)+(2)+(3)-(4)]
DOCKED: USER
DOCKED: USER    (1) Final Intermolecular Energy     =  -5.24 kcal/mol
DOCKED: USER        vdW + Hbond + desolv Energy     =  -5.24 kcal/mol
DOCKED: USER        Electrostatic Energy            =  +0.00 kcal/mol
DOCKED: USER        Moving Ligand-Fixed Receptor    =  -5.24 kcal/mol
DOCKED: USER        Moving Ligand-Moving Receptor   =  +0.00 kcal/mol
DOCKED: USER    (2) Final Total Internal Energy     =  -1.38 kcal/mol
DOCKED: USER    (3) Torsional Free Energy           =  +1.49 kcal/mol
DOCKED: USER    (4) Unbound System's Energy         =  -1.38 kcal/mol
DOCKED: USER
DOCKED: USER
DOCKED: REMARK  5 active torsions:
DOCKED: REMARK  status: ('A' for Active; 'I' for Inactive)
DOCKED: REMARK    1  A    between atoms: C_2  and  C_19 
DOCKED: REMARK    2  A    between atoms: C_2  and  C_11 
DOCKED: REMARK    3  A    between atoms: C_19  and  C_20 
DOCKED: REMARK    4  A    between atoms: C_20  and  C_21 
DOCKED: REMARK    5  A    between atoms: C_21  and  N_22 
DOCKED: USER                              x       y       z     vdW  Elec       q    Type
DOCKED: USER                           _______ _______ _______ _____ _____    ______ ____
DOCKED: ROOT
DOCKED: ATOM      1  O   UNL     1     -44.253 -15.494   7.230 -0.04 -0.00    -0.346 OA 
DOCKED: ATOM      2  C   UNL     1     -45.647 -15.582   6.791 -0.22 +0.00    +0.130 C  
DOCKED: ATOM      3  C   UNL     1     -45.747 -14.552   5.703 -0.28 +0.00    +0.004 A  
DOCKED: ATOM      4  C   UNL     1     -44.496 -14.002   5.464 -0.16 +0.00    +0.006 A  
DOCKED: ATOM      5  C   UNL     1     -43.493 -14.628   6.355 -0.11 +0.00    +0.169 C  
DOCKED: ATOM      6  C   UNL     1     -46.855 -14.144   4.975 -0.31 -0.00    -0.001 A  
DOCKED: ATOM      7  C   UNL     1     -44.309 -13.027   4.499 -0.20 +0.00    +0.008 A  
DOCKED: ATOM      8  C   UNL     1     -46.684 -13.158   4.001 -0.39 +0.00    +0.010 A  
DOCKED: ATOM      9  C   UNL     1     -45.418 -12.603   3.764 -0.30 +0.00    +0.068 A  
DOCKED: ATOM     10  N   UNL     1     -45.135 -10.779   1.946 -0.87 -0.00    -0.191 NA 
DOCKED: ATOM     11  C   UNL     1     -45.262 -11.597   2.762 -0.34 +0.00    +0.101 C  
DOCKED: ENDROOT
DOCKED: BRANCH   2  12
DOCKED: ATOM     12  C   UNL     1     -45.907 -16.999   6.293 -0.14 +0.00    +0.038 C  
DOCKED: BRANCH  12  13
DOCKED: ATOM     13  C   UNL     1     -44.667 -17.590   5.624 -0.20 +0.00    +0.038 C  
DOCKED: BRANCH  13  14
DOCKED: ATOM     14  C   UNL     1     -44.762 -17.487   4.102 -0.12 +0.00    +0.251 C  
DOCKED: BRANCH  14  15
DOCKED: ATOM     15  N   UNL     1     -43.431 -17.506   3.509 -0.14 +0.00    +0.141 N  
DOCKED: ATOM     16  C   UNL     1     -43.311 -16.475   2.476 -0.10 +0.00    +0.285 C  
DOCKED: ATOM     17  C   UNL     1     -42.405 -17.316   4.536 -0.03 +0.00    +0.285 C  
DOCKED: ENDBRANCH  14  15
DOCKED: ENDBRANCH  13  14
DOCKED: ENDBRANCH  12  13
DOCKED: ENDBRANCH   2  12
DOCKED: BRANCH   2  18
DOCKED: ATOM     18  C   UNL     1     -46.498 -15.263   7.974 -0.25 +0.00    +0.006 A  
DOCKED: ATOM     19  C   UNL     1     -46.228 -14.131   8.742 -0.19 +0.00    +0.001 A  
DOCKED: ATOM     20  C   UNL     1     -47.024 -13.833   9.848 -0.23 +0.00    +0.029 A  
DOCKED: ATOM     21  C   UNL     1     -48.089 -14.668  10.185 -0.13 +0.00    +0.140 A  
DOCKED: ATOM     22  C   UNL     1     -48.359 -15.800   9.417 -0.21 +0.00    +0.029 A  
DOCKED: ATOM     23  F   UNL     1     -48.855 -14.381  11.246 -0.00 -0.00    -0.204 F  
DOCKED: ATOM     24  C   UNL     1     -47.562 -16.098   8.310 -0.28 +0.00    +0.001 A  
DOCKED: ENDBRANCH   2  18
DOCKED: TORSDOF 5
DOCKED: TER
DOCKED: ENDMDL
________________________________________________________________________________


    FINAL DOCKED STATE:
    ________________________


Run:   233 / 512
Time taken for this run:   0.002s

DOCKED: MODEL        233
DOCKED: USER    Run = 233
DOCKED: USER
DOCKED: USER    Estimated Free Energy of Binding    =  -4.28 kcal/mol  [=(1)+(2)+(3)-(4)]
DOCKED: USER
DOCKED: USER    (1) Final Intermolecular Energy     =  -5.77 kcal/mol
DOCKED: USER        vdW + Hbond + desolv Energy     =  -5.77 kcal/mol
DOCKED: USER        Electrostatic Energy            =  +0.00 kcal/mol
DOCKED: USER        Moving Ligand-Fixed Receptor    =  -5.77 kcal/mol
DOCKED: USER        Moving Ligand-Moving Receptor   =  +0.00 kcal/mol
DOCKED: USER    (2) Final Total Internal Energy     =  -1.05 kcal/mol
DOCKED: USER    (3) Torsional Free Energy           =  +1.49 kcal/mol
DOCKED: USER    (4) Unbound System's Energy         =  -1.05 kcal/mol
DOCKED: USER
DOCKED: USER
DOCKED: REMARK  5 active torsions:
DOCKED: REMARK  status: ('A' for Active; 'I' for Inactive)
DOCKED: REMARK    1  A    between atoms: C_2  and  C_19 
DOCKED: REMARK    2  A    between atoms: C_2  and  C_11 
DOCKED: REMARK    3  A    between atoms: C_19  and  C_20 
DOCKED: REMARK    4  A    between atoms: C_20  and  C_21 
DOCKED: REMARK    5  A    between atoms: C_21  and  N_22 
DOCKED: USER                              x       y       z     vdW  Elec       q    Type
DOCKED: USER                           _______ _______ _______ _____ _____    ______ ____
DOCKED: ROOT
DOCKED: ATOM      1  O   UNL     1     -45.832 -21.063  15.415 -0.06 -0.00    -0.346 OA 
DOCKED: ATOM      2  C   UNL     1     -46.723 -20.306  14.536 -0.13 +0.00    +0.130 C  
DOCKED: ATOM      3  C   UNL     1     -47.551 -21.364  13.866 -0.22 +0.00    +0.004 A  
DOCKED: ATOM      4  C   UNL     1     -47.239 -22.607  14.396 -0.24 +0.00    +0.006 A  
DOCKED: ATOM      5  C   UNL     1     -46.207 -22.460  15.447 -0.16 +0.00    +0.169 C  
DOCKED: ATOM      6  C   UNL     1     -48.513 -21.234  12.874 -0.27 -0.00    -0.001 A  
DOCKED: ATOM      7  C   UNL     1     -47.868 -23.758  13.954 -0.34 +0.00    +0.008 A  
DOCKED: ATOM      8  C   UNL     1     -49.153 -22.386  12.414 -0.34 +0.00    +0.010 A  
DOCKED: ATOM      9  C   UNL     1     -48.833 -23.642  12.952 -0.32 +0.00    +0.068 A  
DOCKED: ATOM     10  N   UNL     1     -50.045 -25.759  12.080 -2.61 -0.00    -0.191 NA 
DOCKED: ATOM     11  C   UNL     1     -49.501 -24.809  12.471 -0.29 +0.00    +0.101 C  
DOCKED: ENDROOT
DOCKED: BRANCH   2  12
DOCKED: ATOM     12  C   UNL     1     -47.553 -19.356  15.391 -0.06 +0.00    +0.038 C  
DOCKED: BRANCH  12  13
DOCKED: ATOM     13  C   UNL     1     -48.138 -20.069  16.608 -0.03 +0.00    +0.038 C  
DOCKED: BRANCH  13  14
DOCKED: ATOM     14  C   UNL     1     -49.644 -20.273  16.455 -0.01 +0.00    +0.251 C  
DOCKED: BRANCH  14  15
DOCKED: ATOM     15  N   UNL     1     -50.362 -19.557  17.503 -0.01 +0.00    +0.141 N  
DOCKED: ATOM     16  C   UNL     1     -51.253 -20.463  18.229 +0.00 +0.00    +0.285 C  
DOCKED: ATOM     17  C   UNL     1     -49.423 -18.919  18.427 +0.00 +0.00    +0.285 C  
DOCKED: ENDBRANCH  14  15
DOCKED: ENDBRANCH  13  14
DOCKED: ENDBRANCH  12  13
DOCKED: ENDBRANCH   2  12
DOCKED: BRANCH   2  18
DOCKED: ATOM     18  C   UNL     1     -45.857 -19.553  13.581 -0.14 +0.00    +0.006 A  
DOCKED: ATOM     19  C   UNL     1     -44.479 -19.765  13.575 -0.10 +0.00    +0.001 A  
DOCKED: ATOM     20  C   UNL     1     -43.671 -19.061  12.682 -0.10 +0.00    +0.029 A  
DOCKED: ATOM     21  C   UNL     1     -44.241 -18.147  11.797 -0.07 +0.00    +0.140 A  
DOCKED: ATOM     22  C   UNL     1     -45.620 -17.935  11.804 -0.12 +0.00    +0.029 A  
DOCKED: ATOM     23  F   UNL     1     -43.465 -17.472  10.939 -0.00 -0.00    -0.204 F  
DOCKED: ATOM     24  C   UNL     1     -46.429 -18.639  12.697 -0.15 +0.00    +0.001 A  
DOCKED: ENDBRANCH   2  18
DOCKED: TORSDOF 5
DOCKED: TER
DOCKED: ENDMDL
________________________________________________________________________________


    FINAL DOCKED STATE:
    ________________________


Run:   234 / 512
Time taken for this run:   0.002s

DOCKED: MODEL        234
DOCKED: USER    Run = 234
DOCKED: USER
DOCKED: USER    Estimated Free Energy of Binding    =  -3.57 kcal/mol  [=(1)+(2)+(3)-(4)]
DOCKED: USER
DOCKED: USER    (1) Final Intermolecular Energy     =  -5.06 kcal/mol
DOCKED: USER        vdW + Hbond + desolv Energy     =  -5.06 kcal/mol
DOCKED: USER        Electrostatic Energy            =  +0.00 kcal/mol
DOCKED: USER        Moving Ligand-Fixed Receptor    =  -5.06 kcal/mol
DOCKED: USER        Moving Ligand-Moving Receptor   =  +0.00 kcal/mol
DOCKED: USER    (2) Final Total Internal Energy     =  -1.21 kcal/mol
DOCKED: USER    (3) Torsional Free Energy           =  +1.49 kcal/mol
DOCKED: USER    (4) Unbound System's Energy         =  -1.21 kcal/mol
DOCKED: USER
DOCKED: USER
DOCKED: REMARK  5 active torsions:
DOCKED: REMARK  status: ('A' for Active; 'I' for Inactive)
DOCKED: REMARK    1  A    between atoms: C_2  and  C_19 
DOCKED: REMARK    2  A    between atoms: C_2  and  C_11 
DOCKED: REMARK    3  A    between atoms: C_19  and  C_20 
DOCKED: REMARK    4  A    between atoms: C_20  and  C_21 
DOCKED: REMARK    5  A    between atoms: C_21  and  N_22 
DOCKED: USER                              x       y       z     vdW  Elec       q    Type
DOCKED: USER                           _______ _______ _______ _____ _____    ______ ____
DOCKED: ROOT
DOCKED: ATOM      1  O   UNL     1     -43.328 -20.079   6.960 -0.02 -0.00    -0.346 OA 
DOCKED: ATOM      2  C   UNL     1     -42.093 -20.757   6.562 -0.12 +0.00    +0.130 C  
DOCKED: ATOM      3  C   UNL     1     -42.076 -21.998   7.407 -0.15 +0.00    +0.004 A  
DOCKED: ATOM      4  C   UNL     1     -43.250 -22.079   8.142 -0.29 +0.00    +0.006 A  
DOCKED: ATOM      5  C   UNL     1     -44.119 -20.921   7.830 -0.26 +0.00    +0.169 C  
DOCKED: ATOM      6  C   UNL     1     -41.104 -22.982   7.509 -0.12 -0.00    -0.001 A  
DOCKED: ATOM      7  C   UNL     1     -43.491 -23.136   9.002 -0.28 +0.00    +0.008 A  
DOCKED: ATOM      8  C   UNL     1     -41.330 -24.053   8.375 -0.18 +0.00    +0.010 A  
DOCKED: ATOM      9  C   UNL     1     -42.517 -24.130   9.118 -0.31 +0.00    +0.068 A  
DOCKED: ATOM     10  N   UNL     1     -42.907 -26.134  10.713 -2.59 -0.00    -0.191 NA 
DOCKED: ATOM     11  C   UNL     1     -42.732 -25.235   9.998 -0.37 +0.00    +0.101 C  
DOCKED: ENDROOT
DOCKED: BRANCH   2  12
DOCKED: ATOM     12  C   UNL     1     -42.166 -21.057   5.070 -0.10 +0.00    +0.038 C  
DOCKED: BRANCH  12  13
DOCKED: ATOM     13  C   UNL     1     -42.080 -19.777   4.240 -0.14 +0.00    +0.038 C  
DOCKED: BRANCH  13  14
DOCKED: ATOM     14  C   UNL     1     -41.060 -19.922   3.112 -0.03 +0.00    +0.251 C  
DOCKED: BRANCH  14  15
DOCKED: ATOM     15  N   UNL     1     -40.815 -18.631   2.481 -0.01 +0.00    +0.141 N  
DOCKED: ATOM     16  C   UNL     1     -41.999 -17.776   2.578 -0.03 +0.00    +0.285 C  
DOCKED: ATOM     17  C   UNL     1     -39.660 -17.969   3.091 +0.00 +0.00    +0.285 C  
DOCKED: ENDBRANCH  14  15
DOCKED: ENDBRANCH  13  14
DOCKED: ENDBRANCH  12  13
DOCKED: ENDBRANCH   2  12
DOCKED: BRANCH   2  18
DOCKED: ATOM     18  C   UNL     1     -40.966 -19.828   6.870 -0.03 +0.00    +0.006 A  
DOCKED: ATOM     19  C   UNL     1     -39.653 -20.216   6.611 -0.01 +0.00    +0.001 A  
DOCKED: ATOM     20  C   UNL     1     -38.600 -19.347   6.899 -0.00 +0.00    +0.029 A  
DOCKED: ATOM     21  C   UNL     1     -38.863 -18.091   7.446 +0.00 +0.00    +0.140 A  
DOCKED: ATOM     22  C   UNL     1     -40.177 -17.704   7.705 -0.00 +0.00    +0.029 A  
DOCKED: ATOM     23  F   UNL     1     -37.852 -17.256   7.721 +0.00 -0.00    -0.204 F  
DOCKED: ATOM     24  C   UNL     1     -41.231 -18.573   7.417 -0.01 +0.00    +0.001 A  
DOCKED: ENDBRANCH   2  18
DOCKED: TORSDOF 5
DOCKED: TER
DOCKED: ENDMDL
________________________________________________________________________________


    FINAL DOCKED STATE:
    ________________________


Run:   235 / 512
Time taken for this run:   0.002s

DOCKED: MODEL        235
DOCKED: USER    Run = 235
DOCKED: USER
DOCKED: USER    Estimated Free Energy of Binding    =  -4.30 kcal/mol  [=(1)+(2)+(3)-(4)]
DOCKED: USER
DOCKED: USER    (1) Final Intermolecular Energy     =  -5.79 kcal/mol
DOCKED: USER        vdW + Hbond + desolv Energy     =  -5.79 kcal/mol
DOCKED: USER        Electrostatic Energy            =  +0.00 kcal/mol
DOCKED: USER        Moving Ligand-Fixed Receptor    =  -5.79 kcal/mol
DOCKED: USER        Moving Ligand-Moving Receptor   =  +0.00 kcal/mol
DOCKED: USER    (2) Final Total Internal Energy     =  -1.21 kcal/mol
DOCKED: USER    (3) Torsional Free Energy           =  +1.49 kcal/mol
DOCKED: USER    (4) Unbound System's Energy         =  -1.21 kcal/mol
DOCKED: USER
DOCKED: USER
DOCKED: REMARK  5 active torsions:
DOCKED: REMARK  status: ('A' for Active; 'I' for Inactive)
DOCKED: REMARK    1  A    between atoms: C_2  and  C_19 
DOCKED: REMARK    2  A    between atoms: C_2  and  C_11 
DOCKED: REMARK    3  A    between atoms: C_19  and  C_20 
DOCKED: REMARK    4  A    between atoms: C_20  and  C_21 
DOCKED: REMARK    5  A    between atoms: C_21  and  N_22 
DOCKED: USER                              x       y       z     vdW  Elec       q    Type
DOCKED: USER                           _______ _______ _______ _____ _____    ______ ____
DOCKED: ROOT
DOCKED: ATOM      1  O   UNL     1     -45.658 -21.240  15.223 -0.07 -0.00    -0.346 OA 
DOCKED: ATOM      2  C   UNL     1     -46.570 -20.398  14.448 -0.14 +0.00    +0.130 C  
DOCKED: ATOM      3  C   UNL     1     -47.514 -21.378  13.814 -0.21 +0.00    +0.004 A  
DOCKED: ATOM      4  C   UNL     1     -47.235 -22.658  14.272 -0.23 +0.00    +0.006 A  
DOCKED: ATOM      5  C   UNL     1     -46.114 -22.613  15.237 -0.17 +0.00    +0.169 C  
DOCKED: ATOM      6  C   UNL     1     -48.543 -21.154  12.911 -0.26 -0.00    -0.001 A  
DOCKED: ATOM      7  C   UNL     1     -47.968 -23.752  13.845 -0.34 +0.00    +0.008 A  
DOCKED: ATOM      8  C   UNL     1     -49.289 -22.248  12.467 -0.33 +0.00    +0.010 A  
DOCKED: ATOM      9  C   UNL     1     -49.002 -23.540  12.933 -0.31 +0.00    +0.068 A  
DOCKED: ATOM     10  N   UNL     1     -50.409 -25.547  12.093 -2.56 -0.00    -0.191 NA 
DOCKED: ATOM     11  C   UNL     1     -49.778 -24.647  12.469 -0.37 +0.00    +0.101 C  
DOCKED: ENDROOT
DOCKED: BRANCH   2  12
DOCKED: ATOM     12  C   UNL     1     -47.268 -19.436  15.403 -0.06 +0.00    +0.038 C  
DOCKED: BRANCH  12  13
DOCKED: ATOM     13  C   UNL     1     -47.169 -19.918  16.849 -0.03 +0.00    +0.038 C  
DOCKED: BRANCH  13  14
DOCKED: ATOM     14  C   UNL     1     -48.487 -19.704  17.591 -0.00 +0.00    +0.251 C  
DOCKED: BRANCH  14  15
DOCKED: ATOM     15  N   UNL     1     -49.153 -20.981  17.819 -0.01 +0.00    +0.141 N  
DOCKED: ATOM     16  C   UNL     1     -50.104 -20.877  18.927 -0.00 +0.00    +0.285 C  
DOCKED: ATOM     17  C   UNL     1     -49.836 -21.431  16.604 -0.01 +0.00    +0.285 C  
DOCKED: ENDBRANCH  14  15
DOCKED: ENDBRANCH  13  14
DOCKED: ENDBRANCH  12  13
DOCKED: ENDBRANCH   2  12
DOCKED: BRANCH   2  18
DOCKED: ATOM     18  C   UNL     1     -45.741 -19.659  13.451 -0.13 +0.00    +0.006 A  
DOCKED: ATOM     19  C   UNL     1     -46.357 -18.863  12.486 -0.15 +0.00    +0.001 A  
DOCKED: ATOM     20  C   UNL     1     -45.581 -18.173  11.554 -0.13 +0.00    +0.029 A  
DOCKED: ATOM     21  C   UNL     1     -44.191 -18.280  11.588 -0.08 +0.00    +0.140 A  
DOCKED: ATOM     22  C   UNL     1     -43.576 -19.077  12.554 -0.10 +0.00    +0.029 A  
DOCKED: ATOM     23  F   UNL     1     -43.446 -17.617  10.694 -0.00 -0.00    -0.204 F  
DOCKED: ATOM     24  C   UNL     1     -44.352 -19.768  13.486 -0.10 +0.00    +0.001 A  
DOCKED: ENDBRANCH   2  18
DOCKED: TORSDOF 5
DOCKED: TER
DOCKED: ENDMDL
________________________________________________________________________________


    FINAL DOCKED STATE:
    ________________________


Run:   236 / 512
Time taken for this run:   0.002s

DOCKED: MODEL        236
DOCKED: USER    Run = 236
DOCKED: USER
DOCKED: USER    Estimated Free Energy of Binding    =  -4.37 kcal/mol  [=(1)+(2)+(3)-(4)]
DOCKED: USER
DOCKED: USER    (1) Final Intermolecular Energy     =  -5.86 kcal/mol
DOCKED: USER        vdW + Hbond + desolv Energy     =  -5.86 kcal/mol
DOCKED: USER        Electrostatic Energy            =  +0.00 kcal/mol
DOCKED: USER        Moving Ligand-Fixed Receptor    =  -5.86 kcal/mol
DOCKED: USER        Moving Ligand-Moving Receptor   =  +0.00 kcal/mol
DOCKED: USER    (2) Final Total Internal Energy     =  -1.35 kcal/mol
DOCKED: USER    (3) Torsional Free Energy           =  +1.49 kcal/mol
DOCKED: USER    (4) Unbound System's Energy         =  -1.35 kcal/mol
DOCKED: USER
DOCKED: USER
DOCKED: REMARK  5 active torsions:
DOCKED: REMARK  status: ('A' for Active; 'I' for Inactive)
DOCKED: REMARK    1  A    between atoms: C_2  and  C_19 
DOCKED: REMARK    2  A    between atoms: C_2  and  C_11 
DOCKED: REMARK    3  A    between atoms: C_19  and  C_20 
DOCKED: REMARK    4  A    between atoms: C_20  and  C_21 
DOCKED: REMARK    5  A    between atoms: C_21  and  N_22 
DOCKED: USER                              x       y       z     vdW  Elec       q    Type
DOCKED: USER                           _______ _______ _______ _____ _____    ______ ____
DOCKED: ROOT
DOCKED: ATOM      1  O   UNL     1     -45.709 -21.265  15.362 -0.07 -0.00    -0.346 OA 
DOCKED: ATOM      2  C   UNL     1     -46.627 -20.459  14.555 -0.13 +0.00    +0.130 C  
DOCKED: ATOM      3  C   UNL     1     -47.507 -21.476  13.889 -0.22 +0.00    +0.004 A  
DOCKED: ATOM      4  C   UNL     1     -47.194 -22.744  14.357 -0.25 +0.00    +0.006 A  
DOCKED: ATOM      5  C   UNL     1     -46.110 -22.655  15.361 -0.17 +0.00    +0.169 C  
DOCKED: ATOM      6  C   UNL     1     -48.513 -21.292  12.951 -0.28 -0.00    -0.001 A  
DOCKED: ATOM      7  C   UNL     1     -47.867 -23.866  13.905 -0.35 +0.00    +0.008 A  
DOCKED: ATOM      8  C   UNL     1     -49.198 -22.414  12.482 -0.34 +0.00    +0.010 A  
DOCKED: ATOM      9  C   UNL     1     -48.877 -23.695  12.957 -0.32 +0.00    +0.068 A  
DOCKED: ATOM     10  N   UNL     1     -50.171 -25.756  12.069 -2.58 -0.00    -0.191 NA 
DOCKED: ATOM     11  C   UNL     1     -49.590 -24.831  12.467 -0.28 +0.00    +0.101 C  
DOCKED: ENDROOT
DOCKED: BRANCH   2  12
DOCKED: ATOM     12  C   UNL     1     -47.395 -19.527  15.485 -0.06 +0.00    +0.038 C  
DOCKED: BRANCH  12  13
DOCKED: ATOM     13  C   UNL     1     -48.418 -20.294  16.321 -0.04 +0.00    +0.038 C  
DOCKED: BRANCH  13  14
DOCKED: ATOM     14  C   UNL     1     -49.843 -19.974  15.875 -0.02 +0.00    +0.251 C  
DOCKED: BRANCH  14  15
DOCKED: ATOM     15  N   UNL     1     -50.648 -21.190  15.837 -0.04 +0.00    +0.141 N  
DOCKED: ATOM     16  C   UNL     1     -49.910 -22.315  16.414 -0.02 +0.00    +0.285 C  
DOCKED: ATOM     17  C   UNL     1     -51.912 -20.994  16.548 -0.00 +0.00    +0.285 C  
DOCKED: ENDBRANCH  14  15
DOCKED: ENDBRANCH  13  14
DOCKED: ENDBRANCH  12  13
DOCKED: ENDBRANCH   2  12
DOCKED: BRANCH   2  18
DOCKED: ATOM     18  C   UNL     1     -45.794 -19.687  13.587 -0.14 +0.00    +0.006 A  
DOCKED: ATOM     19  C   UNL     1     -46.408 -18.902  12.611 -0.15 +0.00    +0.001 A  
DOCKED: ATOM     20  C   UNL     1     -45.628 -18.181  11.706 -0.13 +0.00    +0.029 A  
DOCKED: ATOM     21  C   UNL     1     -44.237 -18.244  11.779 -0.08 +0.00    +0.140 A  
DOCKED: ATOM     22  C   UNL     1     -43.624 -19.029  12.756 -0.09 +0.00    +0.029 A  
DOCKED: ATOM     23  F   UNL     1     -43.489 -17.551  10.912 -0.00 -0.00    -0.204 F  
DOCKED: ATOM     24  C   UNL     1     -44.403 -19.751  13.661 -0.11 +0.00    +0.001 A  
DOCKED: ENDBRANCH   2  18
DOCKED: TORSDOF 5
DOCKED: TER
DOCKED: ENDMDL
________________________________________________________________________________


    FINAL DOCKED STATE:
    ________________________


Run:   237 / 512
Time taken for this run:   0.002s

DOCKED: MODEL        237
DOCKED: USER    Run = 237
DOCKED: USER
DOCKED: USER    Estimated Free Energy of Binding    =  -5.31 kcal/mol  [=(1)+(2)+(3)-(4)]
DOCKED: USER
DOCKED: USER    (1) Final Intermolecular Energy     =  -6.81 kcal/mol
DOCKED: USER        vdW + Hbond + desolv Energy     =  -6.81 kcal/mol
DOCKED: USER        Electrostatic Energy            =  +0.00 kcal/mol
DOCKED: USER        Moving Ligand-Fixed Receptor    =  -6.81 kcal/mol
DOCKED: USER        Moving Ligand-Moving Receptor   =  +0.00 kcal/mol
DOCKED: USER    (2) Final Total Internal Energy     =  -1.07 kcal/mol
DOCKED: USER    (3) Torsional Free Energy           =  +1.49 kcal/mol
DOCKED: USER    (4) Unbound System's Energy         =  -1.07 kcal/mol
DOCKED: USER
DOCKED: USER
DOCKED: REMARK  5 active torsions:
DOCKED: REMARK  status: ('A' for Active; 'I' for Inactive)
DOCKED: REMARK    1  A    between atoms: C_2  and  C_19 
DOCKED: REMARK    2  A    between atoms: C_2  and  C_11 
DOCKED: REMARK    3  A    between atoms: C_19  and  C_20 
DOCKED: REMARK    4  A    between atoms: C_20  and  C_21 
DOCKED: REMARK    5  A    between atoms: C_21  and  N_22 
DOCKED: USER                              x       y       z     vdW  Elec       q    Type
DOCKED: USER                           _______ _______ _______ _____ _____    ______ ____
DOCKED: ROOT
DOCKED: ATOM      1  O   UNL     1     -51.441 -23.331  15.270 -0.01 -0.00    -0.346 OA 
DOCKED: ATOM      2  C   UNL     1     -50.349 -22.457  14.838 -0.11 +0.00    +0.130 C  
DOCKED: ATOM      3  C   UNL     1     -50.188 -22.775  13.380 -0.25 +0.00    +0.004 A  
DOCKED: ATOM      4  C   UNL     1     -51.173 -23.670  12.986 -0.28 +0.00    +0.006 A  
DOCKED: ATOM      5  C   UNL     1     -52.049 -23.992  14.135 -0.16 +0.00    +0.169 C  
DOCKED: ATOM      6  C   UNL     1     -49.252 -22.302  12.472 -0.34 -0.00    -0.001 A  
DOCKED: ATOM      7  C   UNL     1     -51.254 -24.124  11.681 -0.37 +0.00    +0.008 A  
DOCKED: ATOM      8  C   UNL     1     -49.318 -22.754  11.153 -0.25 +0.00    +0.010 A  
DOCKED: ATOM      9  C   UNL     1     -50.314 -23.660  10.759 -0.36 +0.00    +0.068 A  
DOCKED: ATOM     10  N   UNL     1     -50.410 -24.474   8.301 -2.76 -0.00    -0.191 NA 
DOCKED: ATOM     11  C   UNL     1     -50.366 -24.109   9.404 -0.29 +0.00    +0.101 C  
DOCKED: ENDROOT
DOCKED: BRANCH   2  12
DOCKED: ATOM     12  C   UNL     1     -50.761 -21.011  15.088 -0.11 +0.00    +0.038 C  
DOCKED: BRANCH  12  13
DOCKED: ATOM     13  C   UNL     1     -51.546 -20.444  13.907 -0.24 +0.00    +0.038 C  
DOCKED: BRANCH  13  14
DOCKED: ATOM     14  C   UNL     1     -50.864 -19.199  13.342 -0.15 +0.00    +0.251 C  
DOCKED: BRANCH  14  15
DOCKED: ATOM     15  N   UNL     1     -51.764 -18.053  13.409 -0.19 +0.00    +0.141 N  
DOCKED: ATOM     16  C   UNL     1     -53.149 -18.494  13.583 -0.14 +0.00    +0.285 C  
DOCKED: ATOM     17  C   UNL     1     -51.375 -17.157  14.499 -0.05 +0.00    +0.285 C  
DOCKED: ENDBRANCH  14  15
DOCKED: ENDBRANCH  13  14
DOCKED: ENDBRANCH  12  13
DOCKED: ENDBRANCH   2  12
DOCKED: BRANCH   2  18
DOCKED: ATOM     18  C   UNL     1     -49.151 -22.823  15.649 -0.12 +0.00    +0.006 A  
DOCKED: ATOM     19  C   UNL     1     -48.152 -21.879  15.882 -0.09 +0.00    +0.001 A  
DOCKED: ATOM     20  C   UNL     1     -47.033 -22.223  16.640 -0.09 +0.00    +0.029 A  
DOCKED: ATOM     21  C   UNL     1     -46.914 -23.509  17.165 -0.06 +0.00    +0.140 A  
DOCKED: ATOM     22  C   UNL     1     -47.914 -24.453  16.932 -0.15 +0.00    +0.029 A  
DOCKED: ATOM     23  F   UNL     1     -45.840 -23.838  17.894 -0.03 -0.00    -0.204 F  
DOCKED: ATOM     24  C   UNL     1     -49.034 -24.110  16.173 -0.21 +0.00    +0.001 A  
DOCKED: ENDBRANCH   2  18
DOCKED: TORSDOF 5
DOCKED: TER
DOCKED: ENDMDL
________________________________________________________________________________


    FINAL DOCKED STATE:
    ________________________


Run:   238 / 512
Time taken for this run:   0.002s

DOCKED: MODEL        238
DOCKED: USER    Run = 238
DOCKED: USER
DOCKED: USER    Estimated Free Energy of Binding    =  -4.50 kcal/mol  [=(1)+(2)+(3)-(4)]
DOCKED: USER
DOCKED: USER    (1) Final Intermolecular Energy     =  -5.99 kcal/mol
DOCKED: USER        vdW + Hbond + desolv Energy     =  -5.99 kcal/mol
DOCKED: USER        Electrostatic Energy            =  +0.00 kcal/mol
DOCKED: USER        Moving Ligand-Fixed Receptor    =  -5.99 kcal/mol
DOCKED: USER        Moving Ligand-Moving Receptor   =  +0.00 kcal/mol
DOCKED: USER    (2) Final Total Internal Energy     =  -0.93 kcal/mol
DOCKED: USER    (3) Torsional Free Energy           =  +1.49 kcal/mol
DOCKED: USER    (4) Unbound System's Energy         =  -0.93 kcal/mol
DOCKED: USER
DOCKED: USER
DOCKED: REMARK  5 active torsions:
DOCKED: REMARK  status: ('A' for Active; 'I' for Inactive)
DOCKED: REMARK    1  A    between atoms: C_2  and  C_19 
DOCKED: REMARK    2  A    between atoms: C_2  and  C_11 
DOCKED: REMARK    3  A    between atoms: C_19  and  C_20 
DOCKED: REMARK    4  A    between atoms: C_20  and  C_21 
DOCKED: REMARK    5  A    between atoms: C_21  and  N_22 
DOCKED: USER                              x       y       z     vdW  Elec       q    Type
DOCKED: USER                           _______ _______ _______ _____ _____    ______ ____
DOCKED: ROOT
DOCKED: ATOM      1  O   UNL     1     -47.901 -19.168  13.763 -0.07 -0.00    -0.346 OA 
DOCKED: ATOM      2  C   UNL     1     -49.255 -19.341  14.291 -0.14 +0.00    +0.130 C  
DOCKED: ATOM      3  C   UNL     1     -49.630 -20.733  13.871 -0.21 +0.00    +0.004 A  
DOCKED: ATOM      4  C   UNL     1     -48.546 -21.342  13.254 -0.28 +0.00    +0.006 A  
DOCKED: ATOM      5  C   UNL     1     -47.392 -20.415  13.235 -0.17 +0.00    +0.169 C  
DOCKED: ATOM      6  C   UNL     1     -50.830 -21.409  14.032 -0.20 -0.00    -0.001 A  
DOCKED: ATOM      7  C   UNL     1     -48.625 -22.639  12.776 -0.34 +0.00    +0.008 A  
DOCKED: ATOM      8  C   UNL     1     -50.926 -22.716  13.551 -0.22 +0.00    +0.010 A  
DOCKED: ATOM      9  C   UNL     1     -49.829 -23.328  12.927 -0.27 +0.00    +0.068 A  
DOCKED: ATOM     10  N   UNL     1     -50.040 -25.757  12.050 -2.59 -0.00    -0.191 NA 
DOCKED: ATOM     11  C   UNL     1     -49.945 -24.667  12.443 -0.36 +0.00    +0.101 C  
DOCKED: ENDROOT
DOCKED: BRANCH   2  12
DOCKED: ATOM     12  C   UNL     1     -49.208 -19.170  15.805 -0.05 +0.00    +0.038 C  
DOCKED: BRANCH  12  13
DOCKED: ATOM     13  C   UNL     1     -49.574 -20.468  16.523 -0.04 +0.00    +0.038 C  
DOCKED: BRANCH  13  14
DOCKED: ATOM     14  C   UNL     1     -48.323 -21.254  16.908 -0.02 +0.00    +0.251 C  
DOCKED: BRANCH  14  15
DOCKED: ATOM     15  N   UNL     1     -47.948 -20.968  18.287 -0.01 +0.00    +0.141 N  
DOCKED: ATOM     16  C   UNL     1     -47.196 -22.086  18.860 -0.02 +0.00    +0.285 C  
DOCKED: ATOM     17  C   UNL     1     -47.161 -19.736  18.363 -0.00 +0.00    +0.285 C  
DOCKED: ENDBRANCH  14  15
DOCKED: ENDBRANCH  13  14
DOCKED: ENDBRANCH  12  13
DOCKED: ENDBRANCH   2  12
DOCKED: BRANCH   2  18
DOCKED: ATOM     18  C   UNL     1     -50.107 -18.293  13.657 -0.19 +0.00    +0.006 A  
DOCKED: ATOM     19  C   UNL     1     -51.471 -18.237  13.943 -0.20 +0.00    +0.001 A  
DOCKED: ATOM     20  C   UNL     1     -52.267 -17.256  13.349 -0.18 +0.00    +0.029 A  
DOCKED: ATOM     21  C   UNL     1     -51.699 -16.334  12.472 -0.11 +0.00    +0.140 A  
DOCKED: ATOM     22  C   UNL     1     -50.335 -16.390  12.187 -0.14 +0.00    +0.029 A  
DOCKED: ATOM     23  F   UNL     1     -52.463 -15.392  11.904 -0.03 -0.00    -0.204 F  
DOCKED: ATOM     24  C   UNL     1     -49.538 -17.371  12.779 -0.16 +0.00    +0.001 A  
DOCKED: ENDBRANCH   2  18
DOCKED: TORSDOF 5
DOCKED: TER
DOCKED: ENDMDL
________________________________________________________________________________


    FINAL DOCKED STATE:
    ________________________


Run:   239 / 512
Time taken for this run:   0.002s

DOCKED: MODEL        239
DOCKED: USER    Run = 239
DOCKED: USER
DOCKED: USER    Estimated Free Energy of Binding    =  -3.69 kcal/mol  [=(1)+(2)+(3)-(4)]
DOCKED: USER
DOCKED: USER    (1) Final Intermolecular Energy     =  -5.18 kcal/mol
DOCKED: USER        vdW + Hbond + desolv Energy     =  -5.18 kcal/mol
DOCKED: USER        Electrostatic Energy            =  +0.00 kcal/mol
DOCKED: USER        Moving Ligand-Fixed Receptor    =  -5.18 kcal/mol
DOCKED: USER        Moving Ligand-Moving Receptor   =  +0.00 kcal/mol
DOCKED: USER    (2) Final Total Internal Energy     =  -1.25 kcal/mol
DOCKED: USER    (3) Torsional Free Energy           =  +1.49 kcal/mol
DOCKED: USER    (4) Unbound System's Energy         =  -1.25 kcal/mol
DOCKED: USER
DOCKED: USER
DOCKED: REMARK  5 active torsions:
DOCKED: REMARK  status: ('A' for Active; 'I' for Inactive)
DOCKED: REMARK    1  A    between atoms: C_2  and  C_19 
DOCKED: REMARK    2  A    between atoms: C_2  and  C_11 
DOCKED: REMARK    3  A    between atoms: C_19  and  C_20 
DOCKED: REMARK    4  A    between atoms: C_20  and  C_21 
DOCKED: REMARK    5  A    between atoms: C_21  and  N_22 
DOCKED: USER                              x       y       z     vdW  Elec       q    Type
DOCKED: USER                           _______ _______ _______ _____ _____    ______ ____
DOCKED: ROOT
DOCKED: ATOM      1  O   UNL     1     -47.689 -19.749  15.509 -0.01 -0.00    -0.346 OA 
DOCKED: ATOM      2  C   UNL     1     -46.629 -20.755  15.409 -0.10 +0.00    +0.130 C  
DOCKED: ATOM      3  C   UNL     1     -47.289 -21.904  14.703 -0.20 +0.00    +0.004 A  
DOCKED: ATOM      4  C   UNL     1     -48.578 -21.546  14.333 -0.19 +0.00    +0.006 A  
DOCKED: ATOM      5  C   UNL     1     -48.852 -20.153  14.750 -0.10 +0.00    +0.169 C  
DOCKED: ATOM      6  C   UNL     1     -46.785 -23.161  14.403 -0.21 -0.00    -0.001 A  
DOCKED: ATOM      7  C   UNL     1     -49.404 -22.428  13.657 -0.25 +0.00    +0.008 A  
DOCKED: ATOM      8  C   UNL     1     -47.608 -24.063  13.726 -0.35 +0.00    +0.010 A  
DOCKED: ATOM      9  C   UNL     1     -48.910 -23.698  13.355 -0.30 +0.00    +0.068 A  
DOCKED: ATOM     10  N   UNL     1     -50.409 -25.394  12.094 -2.57 -0.00    -0.191 NA 
DOCKED: ATOM     11  C   UNL     1     -49.737 -24.634  12.660 -0.34 +0.00    +0.101 C  
DOCKED: ENDROOT
DOCKED: BRANCH   2  12
DOCKED: ATOM     12  C   UNL     1     -45.471 -20.159  14.619 -0.13 +0.00    +0.038 C  
DOCKED: BRANCH  12  13
DOCKED: ATOM     13  C   UNL     1     -44.559 -19.321  15.513 -0.05 +0.00    +0.038 C  
DOCKED: BRANCH  13  14
DOCKED: ATOM     14  C   UNL     1     -43.095 -19.717  15.329 -0.03 +0.00    +0.251 C  
DOCKED: BRANCH  14  15
DOCKED: ATOM     15  N   UNL     1     -42.919 -21.141  15.584 -0.05 +0.00    +0.141 N  
DOCKED: ATOM     16  C   UNL     1     -42.493 -21.835  14.368 -0.08 +0.00    +0.285 C  
DOCKED: ATOM     17  C   UNL     1     -41.947 -21.357  16.658 -0.01 +0.00    +0.285 C  
DOCKED: ENDBRANCH  14  15
DOCKED: ENDBRANCH  13  14
DOCKED: ENDBRANCH  12  13
DOCKED: ENDBRANCH   2  12
DOCKED: BRANCH   2  18
DOCKED: ATOM     18  C   UNL     1     -46.214 -21.090  16.803 -0.05 +0.00    +0.006 A  
DOCKED: ATOM     19  C   UNL     1     -46.661 -20.311  17.870 -0.01 +0.00    +0.001 A  
DOCKED: ATOM     20  C   UNL     1     -46.272 -20.625  19.172 -0.01 +0.00    +0.029 A  
DOCKED: ATOM     21  C   UNL     1     -45.437 -21.717  19.406 -0.01 +0.00    +0.140 A  
DOCKED: ATOM     22  C   UNL     1     -44.990 -22.495  18.339 -0.06 +0.00    +0.029 A  
DOCKED: ATOM     23  F   UNL     1     -45.065 -22.019  20.657 +0.00 -0.00    -0.204 F  
DOCKED: ATOM     24  C   UNL     1     -45.379 -22.182  17.035 -0.09 +0.00    +0.001 A  
DOCKED: ENDBRANCH   2  18
DOCKED: TORSDOF 5
DOCKED: TER
DOCKED: ENDMDL
________________________________________________________________________________


    FINAL DOCKED STATE:
    ________________________


Run:   240 / 512
Time taken for this run:   0.002s

DOCKED: MODEL        240
DOCKED: USER    Run = 240
DOCKED: USER
DOCKED: USER    Estimated Free Energy of Binding    =  -5.79 kcal/mol  [=(1)+(2)+(3)-(4)]
DOCKED: USER
DOCKED: USER    (1) Final Intermolecular Energy     =  -7.28 kcal/mol
DOCKED: USER        vdW + Hbond + desolv Energy     =  -7.28 kcal/mol
DOCKED: USER        Electrostatic Energy            =  +0.00 kcal/mol
DOCKED: USER        Moving Ligand-Fixed Receptor    =  -7.28 kcal/mol
DOCKED: USER        Moving Ligand-Moving Receptor   =  +0.00 kcal/mol
DOCKED: USER    (2) Final Total Internal Energy     =  -1.51 kcal/mol
DOCKED: USER    (3) Torsional Free Energy           =  +1.49 kcal/mol
DOCKED: USER    (4) Unbound System's Energy         =  -1.51 kcal/mol
DOCKED: USER
DOCKED: USER
DOCKED: REMARK  5 active torsions:
DOCKED: REMARK  status: ('A' for Active; 'I' for Inactive)
DOCKED: REMARK    1  A    between atoms: C_2  and  C_19 
DOCKED: REMARK    2  A    between atoms: C_2  and  C_11 
DOCKED: REMARK    3  A    between atoms: C_19  and  C_20 
DOCKED: REMARK    4  A    between atoms: C_20  and  C_21 
DOCKED: REMARK    5  A    between atoms: C_21  and  N_22 
DOCKED: USER                              x       y       z     vdW  Elec       q    Type
DOCKED: USER                           _______ _______ _______ _____ _____    ______ ____
DOCKED: ROOT
DOCKED: ATOM      1  O   UNL     1     -48.242 -21.614  14.622 -0.05 -0.00    -0.346 OA 
DOCKED: ATOM      2  C   UNL     1     -47.893 -23.036  14.599 -0.23 +0.00    +0.130 C  
DOCKED: ATOM      3  C   UNL     1     -48.415 -23.512  13.274 -0.35 +0.00    +0.004 A  
DOCKED: ATOM      4  C   UNL     1     -48.917 -22.437  12.556 -0.35 +0.00    +0.006 A  
DOCKED: ATOM      5  C   UNL     1     -48.755 -21.190  13.337 -0.24 +0.00    +0.169 C  
DOCKED: ATOM      6  C   UNL     1     -48.432 -24.793  12.742 -0.37 -0.00    -0.001 A  
DOCKED: ATOM      7  C   UNL     1     -49.456 -22.603  11.291 -0.04 +0.00    +0.008 A  
DOCKED: ATOM      8  C   UNL     1     -48.976 -24.978  11.470 -0.45 +0.00    +0.010 A  
DOCKED: ATOM      9  C   UNL     1     -49.484 -23.888  10.748 -0.42 +0.00    +0.068 A  
DOCKED: ATOM     10  N   UNL     1     -50.482 -24.265   8.387 -2.93 -0.00    -0.191 NA 
DOCKED: ATOM     11  C   UNL     1     -50.035 -24.096   9.446 -0.42 +0.00    +0.101 C  
DOCKED: ENDROOT
DOCKED: BRANCH   2  12
DOCKED: ATOM     12  C   UNL     1     -46.379 -23.164  14.721 -0.23 +0.00    +0.038 C  
DOCKED: BRANCH  12  13
DOCKED: ATOM     13  C   UNL     1     -45.745 -21.851  15.178 -0.18 +0.00    +0.038 C  
DOCKED: BRANCH  13  14
DOCKED: ATOM     14  C   UNL     1     -45.331 -21.924  16.647 -0.07 +0.00    +0.251 C  
DOCKED: BRANCH  14  15
DOCKED: ATOM     15  N   UNL     1     -46.489 -21.727  17.511 -0.04 +0.00    +0.141 N  
DOCKED: ATOM     16  C   UNL     1     -46.151 -22.027  18.903 -0.02 +0.00    +0.285 C  
DOCKED: ATOM     17  C   UNL     1     -46.991 -20.357  17.395 -0.01 +0.00    +0.285 C  
DOCKED: ENDBRANCH  14  15
DOCKED: ENDBRANCH  13  14
DOCKED: ENDBRANCH  12  13
DOCKED: ENDBRANCH   2  12
DOCKED: BRANCH   2  18
DOCKED: ATOM     18  C   UNL     1     -48.583 -23.673  15.759 -0.19 +0.00    +0.006 A  
DOCKED: ATOM     19  C   UNL     1     -49.956 -23.503  15.932 -0.14 +0.00    +0.001 A  
DOCKED: ATOM     20  C   UNL     1     -50.600 -24.099  17.017 -0.13 +0.00    +0.029 A  
DOCKED: ATOM     21  C   UNL     1     -49.871 -24.864  17.926 -0.05 +0.00    +0.140 A  
DOCKED: ATOM     22  C   UNL     1     -48.497 -25.034  17.752 -0.23 +0.00    +0.029 A  
DOCKED: ATOM     23  F   UNL     1     -50.489 -25.437  18.966 -0.04 -0.00    -0.204 F  
DOCKED: ATOM     24  C   UNL     1     -47.852 -24.437  16.667 -0.11 +0.00    +0.001 A  
DOCKED: ENDBRANCH   2  18
DOCKED: TORSDOF 5
DOCKED: TER
DOCKED: ENDMDL
________________________________________________________________________________


    FINAL DOCKED STATE:
    ________________________


Run:   241 / 512
Time taken for this run:   0.002s

DOCKED: MODEL        241
DOCKED: USER    Run = 241
DOCKED: USER
DOCKED: USER    Estimated Free Energy of Binding    =  -4.01 kcal/mol  [=(1)+(2)+(3)-(4)]
DOCKED: USER
DOCKED: USER    (1) Final Intermolecular Energy     =  -5.50 kcal/mol
DOCKED: USER        vdW + Hbond + desolv Energy     =  -5.50 kcal/mol
DOCKED: USER        Electrostatic Energy            =  +0.00 kcal/mol
DOCKED: USER        Moving Ligand-Fixed Receptor    =  -5.50 kcal/mol
DOCKED: USER        Moving Ligand-Moving Receptor   =  +0.00 kcal/mol
DOCKED: USER    (2) Final Total Internal Energy     =  -1.14 kcal/mol
DOCKED: USER    (3) Torsional Free Energy           =  +1.49 kcal/mol
DOCKED: USER    (4) Unbound System's Energy         =  -1.14 kcal/mol
DOCKED: USER
DOCKED: USER
DOCKED: REMARK  5 active torsions:
DOCKED: REMARK  status: ('A' for Active; 'I' for Inactive)
DOCKED: REMARK    1  A    between atoms: C_2  and  C_19 
DOCKED: REMARK    2  A    between atoms: C_2  and  C_11 
DOCKED: REMARK    3  A    between atoms: C_19  and  C_20 
DOCKED: REMARK    4  A    between atoms: C_20  and  C_21 
DOCKED: REMARK    5  A    between atoms: C_21  and  N_22 
DOCKED: USER                              x       y       z     vdW  Elec       q    Type
DOCKED: USER                           _______ _______ _______ _____ _____    ______ ____
DOCKED: ROOT
DOCKED: ATOM      1  O   UNL     1     -53.024 -19.757  14.497 -0.05 -0.00    -0.346 OA 
DOCKED: ATOM      2  C   UNL     1     -51.573 -19.566  14.518 -0.15 +0.00    +0.130 C  
DOCKED: ATOM      3  C   UNL     1     -51.032 -20.872  14.010 -0.20 +0.00    +0.004 A  
DOCKED: ATOM      4  C   UNL     1     -52.082 -21.695  13.628 -0.23 +0.00    +0.006 A  
DOCKED: ATOM      5  C   UNL     1     -53.370 -20.998  13.841 -0.22 +0.00    +0.169 C  
DOCKED: ATOM      6  C   UNL     1     -49.716 -21.292  13.885 -0.22 -0.00    -0.001 A  
DOCKED: ATOM      7  C   UNL     1     -51.855 -22.961  13.115 -0.26 +0.00    +0.008 A  
DOCKED: ATOM      8  C   UNL     1     -49.471 -22.568  13.374 -0.28 +0.00    +0.010 A  
DOCKED: ATOM      9  C   UNL     1     -50.535 -23.397  12.990 -0.24 +0.00    +0.068 A  
DOCKED: ATOM     10  N   UNL     1     -50.045 -25.757  12.040 -2.58 -0.00    -0.191 NA 
DOCKED: ATOM     11  C   UNL     1     -50.265 -24.699  12.467 -0.33 +0.00    +0.101 C  
DOCKED: ENDROOT
DOCKED: BRANCH   2  12
DOCKED: ATOM     12  C   UNL     1     -51.228 -18.389  13.614 -0.24 +0.00    +0.038 C  
DOCKED: BRANCH  12  13
DOCKED: ATOM     13  C   UNL     1     -49.933 -18.639  12.844 -0.06 +0.00    +0.038 C  
DOCKED: BRANCH  13  14
DOCKED: ATOM     14  C   UNL     1     -48.774 -17.847  13.446 -0.12 +0.00    +0.251 C  
DOCKED: BRANCH  14  15
DOCKED: ATOM     15  N   UNL     1     -47.638 -18.725  13.701 -0.11 +0.00    +0.141 N  
DOCKED: ATOM     16  C   UNL     1     -46.414 -18.165  13.124 -0.09 +0.00    +0.285 C  
DOCKED: ATOM     17  C   UNL     1     -47.467 -18.944  15.138 -0.03 +0.00    +0.285 C  
DOCKED: ENDBRANCH  14  15
DOCKED: ENDBRANCH  13  14
DOCKED: ENDBRANCH  12  13
DOCKED: ENDBRANCH   2  12
DOCKED: BRANCH   2  18
DOCKED: ATOM     18  C   UNL     1     -51.190 -19.289  15.933 -0.04 +0.00    +0.006 A  
DOCKED: ATOM     19  C   UNL     1     -50.788 -18.008  16.308 -0.02 +0.00    +0.001 A  
DOCKED: ATOM     20  C   UNL     1     -50.429 -17.750  17.632 -0.01 +0.00    +0.029 A  
DOCKED: ATOM     21  C   UNL     1     -50.473 -18.774  18.578 -0.00 +0.00    +0.140 A  
DOCKED: ATOM     22  C   UNL     1     -50.875 -20.055  18.202 -0.00 +0.00    +0.029 A  
DOCKED: ATOM     23  F   UNL     1     -50.130 -18.526  19.849 +0.00 -0.00    -0.204 F  
DOCKED: ATOM     24  C   UNL     1     -51.233 -20.314  16.878 -0.03 +0.00    +0.001 A  
DOCKED: ENDBRANCH   2  18
DOCKED: TORSDOF 5
DOCKED: TER
DOCKED: ENDMDL
________________________________________________________________________________


    FINAL DOCKED STATE:
    ________________________


Run:   242 / 512
Time taken for this run:   0.002s

DOCKED: MODEL        242
DOCKED: USER    Run = 242
DOCKED: USER
DOCKED: USER    Estimated Free Energy of Binding    =  -3.95 kcal/mol  [=(1)+(2)+(3)-(4)]
DOCKED: USER
DOCKED: USER    (1) Final Intermolecular Energy     =  -5.44 kcal/mol
DOCKED: USER        vdW + Hbond + desolv Energy     =  -5.44 kcal/mol
DOCKED: USER        Electrostatic Energy            =  +0.00 kcal/mol
DOCKED: USER        Moving Ligand-Fixed Receptor    =  -5.44 kcal/mol
DOCKED: USER        Moving Ligand-Moving Receptor   =  +0.00 kcal/mol
DOCKED: USER    (2) Final Total Internal Energy     =  -1.49 kcal/mol
DOCKED: USER    (3) Torsional Free Energy           =  +1.49 kcal/mol
DOCKED: USER    (4) Unbound System's Energy         =  -1.49 kcal/mol
DOCKED: USER
DOCKED: USER
DOCKED: REMARK  5 active torsions:
DOCKED: REMARK  status: ('A' for Active; 'I' for Inactive)
DOCKED: REMARK    1  A    between atoms: C_2  and  C_19 
DOCKED: REMARK    2  A    between atoms: C_2  and  C_11 
DOCKED: REMARK    3  A    between atoms: C_19  and  C_20 
DOCKED: REMARK    4  A    between atoms: C_20  and  C_21 
DOCKED: REMARK    5  A    between atoms: C_21  and  N_22 
DOCKED: USER                              x       y       z     vdW  Elec       q    Type
DOCKED: USER                           _______ _______ _______ _____ _____    ______ ____
DOCKED: ROOT
DOCKED: ATOM      1  O   UNL     1     -50.631 -18.972  14.274 -0.07 -0.00    -0.346 OA 
DOCKED: ATOM      2  C   UNL     1     -49.207 -19.253  14.087 -0.15 +0.00    +0.130 C  
DOCKED: ATOM      3  C   UNL     1     -49.177 -20.690  13.653 -0.23 +0.00    +0.004 A  
DOCKED: ATOM      4  C   UNL     1     -50.475 -21.157  13.497 -0.22 +0.00    +0.006 A  
DOCKED: ATOM      5  C   UNL     1     -51.438 -20.075  13.801 -0.19 +0.00    +0.169 C  
DOCKED: ATOM      6  C   UNL     1     -48.090 -21.514  13.404 -0.27 -0.00    -0.001 A  
DOCKED: ATOM      7  C   UNL     1     -50.729 -22.457  13.095 -0.24 +0.00    +0.008 A  
DOCKED: ATOM      8  C   UNL     1     -48.329 -22.829  13.002 -0.31 +0.00    +0.010 A  
DOCKED: ATOM      9  C   UNL     1     -49.643 -23.297  12.848 -0.29 +0.00    +0.068 A  
DOCKED: ATOM     10  N   UNL     1     -50.053 -25.742  12.094 -2.61 -0.00    -0.191 NA 
DOCKED: ATOM     11  C   UNL     1     -49.869 -24.646  12.433 -0.38 +0.00    +0.101 C  
DOCKED: ENDROOT
DOCKED: BRANCH   2  12
DOCKED: ATOM     12  C   UNL     1     -48.662 -18.302  13.028 -0.10 +0.00    +0.038 C  
DOCKED: BRANCH  12  13
DOCKED: ATOM     13  C   UNL     1     -49.729 -17.310  12.568 -0.14 +0.00    +0.038 C  
DOCKED: BRANCH  13  14
DOCKED: ATOM     14  C   UNL     1     -49.712 -16.047  13.428 -0.07 +0.00    +0.251 C  
DOCKED: BRANCH  14  15
DOCKED: ATOM     15  N   UNL     1     -50.863 -16.027  14.323 -0.04 +0.00    +0.141 N  
DOCKED: ATOM     16  C   UNL     1     -50.432 -16.111  15.719 -0.00 +0.00    +0.285 C  
DOCKED: ATOM     17  C   UNL     1     -51.661 -14.819  14.110 -0.01 +0.00    +0.285 C  
DOCKED: ENDBRANCH  14  15
DOCKED: ENDBRANCH  13  14
DOCKED: ENDBRANCH  12  13
DOCKED: ENDBRANCH   2  12
DOCKED: BRANCH   2  18
DOCKED: ATOM     18  C   UNL     1     -48.542 -19.030  15.404 -0.05 +0.00    +0.006 A  
DOCKED: ATOM     19  C   UNL     1     -48.987 -19.714  16.534 -0.02 +0.00    +0.001 A  
DOCKED: ATOM     20  C   UNL     1     -48.365 -19.504  17.766 -0.00 +0.00    +0.029 A  
DOCKED: ATOM     21  C   UNL     1     -47.298 -18.612  17.865 -0.00 +0.00    +0.140 A  
DOCKED: ATOM     22  C   UNL     1     -46.853 -17.928  16.734 -0.01 +0.00    +0.029 A  
DOCKED: ATOM     23  F   UNL     1     -46.700 -18.412  19.046 -0.00 -0.00    -0.204 F  
DOCKED: ATOM     24  C   UNL     1     -47.475 -18.137  15.502 -0.03 +0.00    +0.001 A  
DOCKED: ENDBRANCH   2  18
DOCKED: TORSDOF 5
DOCKED: TER
DOCKED: ENDMDL
________________________________________________________________________________


    FINAL DOCKED STATE:
    ________________________


Run:   243 / 512
Time taken for this run:   0.002s

DOCKED: MODEL        243
DOCKED: USER    Run = 243
DOCKED: USER
DOCKED: USER    Estimated Free Energy of Binding    =  -3.67 kcal/mol  [=(1)+(2)+(3)-(4)]
DOCKED: USER
DOCKED: USER    (1) Final Intermolecular Energy     =  -5.16 kcal/mol
DOCKED: USER        vdW + Hbond + desolv Energy     =  -5.16 kcal/mol
DOCKED: USER        Electrostatic Energy            =  +0.00 kcal/mol
DOCKED: USER        Moving Ligand-Fixed Receptor    =  -5.16 kcal/mol
DOCKED: USER        Moving Ligand-Moving Receptor   =  +0.00 kcal/mol
DOCKED: USER    (2) Final Total Internal Energy     =  -1.57 kcal/mol
DOCKED: USER    (3) Torsional Free Energy           =  +1.49 kcal/mol
DOCKED: USER    (4) Unbound System's Energy         =  -1.57 kcal/mol
DOCKED: USER
DOCKED: USER
DOCKED: REMARK  5 active torsions:
DOCKED: REMARK  status: ('A' for Active; 'I' for Inactive)
DOCKED: REMARK    1  A    between atoms: C_2  and  C_19 
DOCKED: REMARK    2  A    between atoms: C_2  and  C_11 
DOCKED: REMARK    3  A    between atoms: C_19  and  C_20 
DOCKED: REMARK    4  A    between atoms: C_20  and  C_21 
DOCKED: REMARK    5  A    between atoms: C_21  and  N_22 
DOCKED: USER                              x       y       z     vdW  Elec       q    Type
DOCKED: USER                           _______ _______ _______ _____ _____    ______ ____
DOCKED: ROOT
DOCKED: ATOM      1  O   UNL     1     -43.649 -19.657   7.682 -0.02 -0.00    -0.346 OA 
DOCKED: ATOM      2  C   UNL     1     -42.526 -20.314   7.012 -0.13 +0.00    +0.130 C  
DOCKED: ATOM      3  C   UNL     1     -42.430 -21.647   7.694 -0.18 +0.00    +0.004 A  
DOCKED: ATOM      4  C   UNL     1     -43.474 -21.786   8.598 -0.30 +0.00    +0.006 A  
DOCKED: ATOM      5  C   UNL     1     -44.328 -20.578   8.567 -0.25 +0.00    +0.169 C  
DOCKED: ATOM      6  C   UNL     1     -41.500 -22.662   7.521 -0.13 -0.00    -0.001 A  
DOCKED: ATOM      7  C   UNL     1     -43.622 -22.934   9.358 -0.04 +0.00    +0.008 A  
DOCKED: ATOM      8  C   UNL     1     -41.632 -23.824   8.284 -0.20 +0.00    +0.010 A  
DOCKED: ATOM      9  C   UNL     1     -42.689 -23.959   9.197 -0.31 +0.00    +0.068 A  
DOCKED: ATOM     10  N   UNL     1     -42.910 -26.131  10.592 -2.55 -0.00    -0.191 NA 
DOCKED: ATOM     11  C   UNL     1     -42.810 -25.156   9.967 -0.34 +0.00    +0.101 C  
DOCKED: ENDROOT
DOCKED: BRANCH   2  12
DOCKED: ATOM     12  C   UNL     1     -42.850 -20.428   5.527 -0.14 +0.00    +0.038 C  
DOCKED: BRANCH  12  13
DOCKED: ATOM     13  C   UNL     1     -43.877 -19.383   5.099 -0.16 +0.00    +0.038 C  
DOCKED: BRANCH  13  14
DOCKED: ATOM     14  C   UNL     1     -43.246 -17.994   5.015 -0.11 +0.00    +0.251 C  
DOCKED: BRANCH  14  15
DOCKED: ATOM     15  N   UNL     1     -43.653 -17.182   6.156 -0.07 +0.00    +0.141 N  
DOCKED: ATOM     16  C   UNL     1     -43.029 -15.859   6.097 -0.03 +0.00    +0.285 C  
DOCKED: ATOM     17  C   UNL     1     -45.110 -17.054   6.204 -0.14 +0.00    +0.285 C  
DOCKED: ENDBRANCH  14  15
DOCKED: ENDBRANCH  13  14
DOCKED: ENDBRANCH  12  13
DOCKED: ENDBRANCH   2  12
DOCKED: BRANCH   2  18
DOCKED: ATOM     18  C   UNL     1     -41.324 -19.458   7.236 -0.03 +0.00    +0.006 A  
DOCKED: ATOM     19  C   UNL     1     -40.289 -19.451   6.301 -0.01 +0.00    +0.001 A  
DOCKED: ATOM     20  C   UNL     1     -39.166 -18.651   6.512 -0.00 +0.00    +0.029 A  
DOCKED: ATOM     21  C   UNL     1     -39.078 -17.859   7.656 +0.00 +0.00    +0.140 A  
DOCKED: ATOM     22  C   UNL     1     -40.113 -17.867   8.591 -0.00 +0.00    +0.029 A  
DOCKED: ATOM     23  F   UNL     1     -38.000 -17.090   7.858 +0.00 -0.00    -0.204 F  
DOCKED: ATOM     24  C   UNL     1     -41.238 -18.667   8.381 -0.02 +0.00    +0.001 A  
DOCKED: ENDBRANCH   2  18
DOCKED: TORSDOF 5
DOCKED: TER
DOCKED: ENDMDL
________________________________________________________________________________


    FINAL DOCKED STATE:
    ________________________


Run:   244 / 512
Time taken for this run:   0.002s

DOCKED: MODEL        244
DOCKED: USER    Run = 244
DOCKED: USER
DOCKED: USER    Estimated Free Energy of Binding    =  -4.34 kcal/mol  [=(1)+(2)+(3)-(4)]
DOCKED: USER
DOCKED: USER    (1) Final Intermolecular Energy     =  -5.83 kcal/mol
DOCKED: USER        vdW + Hbond + desolv Energy     =  -5.83 kcal/mol
DOCKED: USER        Electrostatic Energy            =  +0.00 kcal/mol
DOCKED: USER        Moving Ligand-Fixed Receptor    =  -5.83 kcal/mol
DOCKED: USER        Moving Ligand-Moving Receptor   =  +0.00 kcal/mol
DOCKED: USER    (2) Final Total Internal Energy     =  -0.87 kcal/mol
DOCKED: USER    (3) Torsional Free Energy           =  +1.49 kcal/mol
DOCKED: USER    (4) Unbound System's Energy         =  -0.87 kcal/mol
DOCKED: USER
DOCKED: USER
DOCKED: REMARK  5 active torsions:
DOCKED: REMARK  status: ('A' for Active; 'I' for Inactive)
DOCKED: REMARK    1  A    between atoms: C_2  and  C_19 
DOCKED: REMARK    2  A    between atoms: C_2  and  C_11 
DOCKED: REMARK    3  A    between atoms: C_19  and  C_20 
DOCKED: REMARK    4  A    between atoms: C_20  and  C_21 
DOCKED: REMARK    5  A    between atoms: C_21  and  N_22 
DOCKED: USER                              x       y       z     vdW  Elec       q    Type
DOCKED: USER                           _______ _______ _______ _____ _____    ______ ____
DOCKED: ROOT
DOCKED: ATOM      1  O   UNL     1     -46.262 -13.404   4.146 -0.15 -0.00    -0.346 OA 
DOCKED: ATOM      2  C   UNL     1     -44.839 -13.653   3.912 -0.23 +0.00    +0.130 C  
DOCKED: ATOM      3  C   UNL     1     -44.616 -13.169   2.509 -0.25 +0.00    +0.004 A  
DOCKED: ATOM      4  C   UNL     1     -45.780 -12.591   2.023 -0.41 +0.00    +0.006 A  
DOCKED: ATOM      5  C   UNL     1     -46.836 -12.641   3.059 -0.38 +0.00    +0.169 C  
DOCKED: ATOM      6  C   UNL     1     -43.470 -13.224   1.729 -0.15 -0.00    -0.001 A  
DOCKED: ATOM      7  C   UNL     1     -45.842 -12.057   0.747 -0.26 +0.00    +0.008 A  
DOCKED: ATOM      8  C   UNL     1     -43.517 -12.693   0.438 -0.18 +0.00    +0.010 A  
DOCKED: ATOM      9  C   UNL     1     -44.697 -12.112  -0.049 -0.23 +0.00    +0.068 A  
DOCKED: ATOM     10  N   UNL     1     -44.749 -11.131  -2.447 -1.16 -0.00    -0.191 NA 
DOCKED: ATOM     11  C   UNL     1     -44.726 -11.571  -1.372 -0.11 +0.00    +0.101 C  
DOCKED: ENDROOT
DOCKED: BRANCH   2  12
DOCKED: ATOM     12  C   UNL     1     -44.036 -12.872   4.945 -0.16 +0.00    +0.038 C  
DOCKED: BRANCH  12  13
DOCKED: ATOM     13  C   UNL     1     -43.672 -11.480   4.431 -0.26 +0.00    +0.038 C  
DOCKED: BRANCH  13  14
DOCKED: ATOM     14  C   UNL     1     -42.637 -10.813   5.335 -0.13 +0.00    +0.251 C  
DOCKED: BRANCH  14  15
DOCKED: ATOM     15  N   UNL     1     -42.969  -9.408   5.535 -0.19 +0.00    +0.141 N  
DOCKED: ATOM     16  C   UNL     1     -44.411  -9.194   5.406 -0.23 +0.00    +0.285 C  
DOCKED: ATOM     17  C   UNL     1     -42.504  -8.950   6.845 -0.10 +0.00    +0.285 C  
DOCKED: ENDBRANCH  14  15
DOCKED: ENDBRANCH  13  14
DOCKED: ENDBRANCH  12  13
DOCKED: ENDBRANCH   2  12
DOCKED: BRANCH   2  18
DOCKED: ATOM     18  C   UNL     1     -44.623 -15.122   4.061 -0.20 +0.00    +0.006 A  
DOCKED: ATOM     19  C   UNL     1     -43.952 -15.832   3.067 -0.15 +0.00    +0.001 A  
DOCKED: ATOM     20  C   UNL     1     -43.751 -17.206   3.208 -0.15 +0.00    +0.029 A  
DOCKED: ATOM     21  C   UNL     1     -44.221 -17.867   4.341 -0.19 +0.00    +0.140 A  
DOCKED: ATOM     22  C   UNL     1     -44.893 -17.156   5.336 -0.20 +0.00    +0.029 A  
DOCKED: ATOM     23  F   UNL     1     -44.027 -19.185   4.477 -0.11 -0.00    -0.204 F  
DOCKED: ATOM     24  C   UNL     1     -45.094 -15.782   5.196 -0.23 +0.00    +0.001 A  
DOCKED: ENDBRANCH   2  18
DOCKED: TORSDOF 5
DOCKED: TER
DOCKED: ENDMDL
________________________________________________________________________________


    FINAL DOCKED STATE:
    ________________________


Run:   245 / 512
Time taken for this run:   0.002s

DOCKED: MODEL        245
DOCKED: USER    Run = 245
DOCKED: USER
DOCKED: USER    Estimated Free Energy of Binding    =  -3.51 kcal/mol  [=(1)+(2)+(3)-(4)]
DOCKED: USER
DOCKED: USER    (1) Final Intermolecular Energy     =  -5.01 kcal/mol
DOCKED: USER        vdW + Hbond + desolv Energy     =  -5.01 kcal/mol
DOCKED: USER        Electrostatic Energy            =  +0.00 kcal/mol
DOCKED: USER        Moving Ligand-Fixed Receptor    =  -5.01 kcal/mol
DOCKED: USER        Moving Ligand-Moving Receptor   =  +0.00 kcal/mol
DOCKED: USER    (2) Final Total Internal Energy     =  -1.62 kcal/mol
DOCKED: USER    (3) Torsional Free Energy           =  +1.49 kcal/mol
DOCKED: USER    (4) Unbound System's Energy         =  -1.62 kcal/mol
DOCKED: USER
DOCKED: USER
DOCKED: REMARK  5 active torsions:
DOCKED: REMARK  status: ('A' for Active; 'I' for Inactive)
DOCKED: REMARK    1  A    between atoms: C_2  and  C_19 
DOCKED: REMARK    2  A    between atoms: C_2  and  C_11 
DOCKED: REMARK    3  A    between atoms: C_19  and  C_20 
DOCKED: REMARK    4  A    between atoms: C_20  and  C_21 
DOCKED: REMARK    5  A    between atoms: C_21  and  N_22 
DOCKED: USER                              x       y       z     vdW  Elec       q    Type
DOCKED: USER                           _______ _______ _______ _____ _____    ______ ____
DOCKED: ROOT
DOCKED: ATOM      1  O   UNL     1     -41.799 -20.683   6.504 +0.00 -0.00    -0.346 OA 
DOCKED: ATOM      2  C   UNL     1     -40.947 -21.790   6.065 -0.09 +0.00    +0.130 C  
DOCKED: ATOM      3  C   UNL     1     -41.227 -22.876   7.064 -0.12 +0.00    +0.004 A  
DOCKED: ATOM      4  C   UNL     1     -42.231 -22.466   7.930 -0.20 +0.00    +0.006 A  
DOCKED: ATOM      5  C   UNL     1     -42.688 -21.107   7.563 -0.15 +0.00    +0.169 C  
DOCKED: ATOM      6  C   UNL     1     -40.648 -24.130   7.188 -0.12 -0.00    -0.001 A  
DOCKED: ATOM      7  C   UNL     1     -42.685 -23.289   8.947 -0.31 +0.00    +0.008 A  
DOCKED: ATOM      8  C   UNL     1     -41.092 -24.969   8.211 -0.22 +0.00    +0.010 A  
DOCKED: ATOM      9  C   UNL     1     -42.106 -24.551   9.086 -0.30 +0.00    +0.068 A  
DOCKED: ATOM     10  N   UNL     1     -42.910 -26.135  10.971 -2.68 -0.00    -0.191 NA 
DOCKED: ATOM     11  C   UNL     1     -42.549 -25.424  10.126 -0.41 +0.00    +0.101 C  
DOCKED: ENDROOT
DOCKED: BRANCH   2  12
DOCKED: ATOM     12  C   UNL     1     -41.346 -22.172   4.645 -0.11 +0.00    +0.038 C  
DOCKED: BRANCH  12  13
DOCKED: ATOM     13  C   UNL     1     -42.150 -21.060   3.973 -0.17 +0.00    +0.038 C  
DOCKED: BRANCH  13  14
DOCKED: ATOM     14  C   UNL     1     -41.227 -19.995   3.385 -0.05 +0.00    +0.251 C  
DOCKED: BRANCH  14  15
DOCKED: ATOM     15  N   UNL     1     -40.933 -18.972   4.381 -0.02 +0.00    +0.141 N  
DOCKED: ATOM     16  C   UNL     1     -39.833 -18.116   3.933 +0.00 +0.00    +0.285 C  
DOCKED: ATOM     17  C   UNL     1     -42.122 -18.166   4.660 -0.03 +0.00    +0.285 C  
DOCKED: ENDBRANCH  14  15
DOCKED: ENDBRANCH  13  14
DOCKED: ENDBRANCH  12  13
DOCKED: ENDBRANCH   2  12
DOCKED: BRANCH   2  18
DOCKED: ATOM     18  C   UNL     1     -39.538 -21.302   6.116 -0.02 +0.00    +0.006 A  
DOCKED: ATOM     19  C   UNL     1     -39.136 -20.438   7.133 -0.01 +0.00    +0.001 A  
DOCKED: ATOM     20  C   UNL     1     -37.818 -19.982   7.180 -0.00 +0.00    +0.029 A  
DOCKED: ATOM     21  C   UNL     1     -36.904 -20.392   6.210 +0.00 +0.00    +0.140 A  
DOCKED: ATOM     22  C   UNL     1     -37.307 -21.257   5.193 -0.00 +0.00    +0.029 A  
DOCKED: ATOM     23  F   UNL     1     -35.638 -19.957   6.256 +0.00 -0.00    -0.204 F  
DOCKED: ATOM     24  C   UNL     1     -38.625 -21.713   5.146 -0.01 +0.00    +0.001 A  
DOCKED: ENDBRANCH   2  18
DOCKED: TORSDOF 5
DOCKED: TER
DOCKED: ENDMDL
________________________________________________________________________________


    FINAL DOCKED STATE:
    ________________________


Run:   246 / 512
Time taken for this run:   0.002s

DOCKED: MODEL        246
DOCKED: USER    Run = 246
DOCKED: USER
DOCKED: USER    Estimated Free Energy of Binding    =  -3.97 kcal/mol  [=(1)+(2)+(3)-(4)]
DOCKED: USER
DOCKED: USER    (1) Final Intermolecular Energy     =  -5.46 kcal/mol
DOCKED: USER        vdW + Hbond + desolv Energy     =  -5.46 kcal/mol
DOCKED: USER        Electrostatic Energy            =  +0.00 kcal/mol
DOCKED: USER        Moving Ligand-Fixed Receptor    =  -5.46 kcal/mol
DOCKED: USER        Moving Ligand-Moving Receptor   =  +0.00 kcal/mol
DOCKED: USER    (2) Final Total Internal Energy     =  -1.12 kcal/mol
DOCKED: USER    (3) Torsional Free Energy           =  +1.49 kcal/mol
DOCKED: USER    (4) Unbound System's Energy         =  -1.12 kcal/mol
DOCKED: USER
DOCKED: USER
DOCKED: REMARK  5 active torsions:
DOCKED: REMARK  status: ('A' for Active; 'I' for Inactive)
DOCKED: REMARK    1  A    between atoms: C_2  and  C_19 
DOCKED: REMARK    2  A    between atoms: C_2  and  C_11 
DOCKED: REMARK    3  A    between atoms: C_19  and  C_20 
DOCKED: REMARK    4  A    between atoms: C_20  and  C_21 
DOCKED: REMARK    5  A    between atoms: C_21  and  N_22 
DOCKED: USER                              x       y       z     vdW  Elec       q    Type
DOCKED: USER                           _______ _______ _______ _____ _____    ______ ____
DOCKED: ROOT
DOCKED: ATOM      1  O   UNL     1     -47.433 -21.829  16.926 -0.01 -0.00    -0.346 OA 
DOCKED: ATOM      2  C   UNL     1     -47.085 -21.279  15.615 -0.10 +0.00    +0.130 C  
DOCKED: ATOM      3  C   UNL     1     -47.810 -22.170  14.648 -0.21 +0.00    +0.004 A  
DOCKED: ATOM      4  C   UNL     1     -48.592 -23.079  15.347 -0.17 +0.00    +0.006 A  
DOCKED: ATOM      5  C   UNL     1     -48.451 -22.849  16.802 -0.08 +0.00    +0.169 C  
DOCKED: ATOM      6  C   UNL     1     -47.787 -22.169  13.261 -0.19 -0.00    -0.001 A  
DOCKED: ATOM      7  C   UNL     1     -49.370 -24.016  14.688 -0.23 +0.00    +0.008 A  
DOCKED: ATOM      8  C   UNL     1     -48.564 -23.110  12.583 -0.34 +0.00    +0.010 A  
DOCKED: ATOM      9  C   UNL     1     -49.352 -24.028  13.293 -0.28 +0.00    +0.068 A  
DOCKED: ATOM     10  N   UNL     1     -50.785 -25.758  12.002 -2.26 -0.00    -0.191 NA 
DOCKED: ATOM     11  C   UNL     1     -50.142 -24.982  12.581 -0.16 +0.00    +0.101 C  
DOCKED: ENDROOT
DOCKED: BRANCH   2  12
DOCKED: ATOM     12  C   UNL     1     -47.558 -19.832  15.557 -0.07 +0.00    +0.038 C  
DOCKED: BRANCH  12  13
DOCKED: ATOM     13  C   UNL     1     -48.520 -19.606  14.393 -0.15 +0.00    +0.038 C  
DOCKED: BRANCH  13  14
DOCKED: ATOM     14  C   UNL     1     -49.943 -19.367  14.894 -0.07 +0.00    +0.251 C  
DOCKED: BRANCH  14  15
DOCKED: ATOM     15  N   UNL     1     -50.894 -19.481  13.795 -0.19 +0.00    +0.141 N  
DOCKED: ATOM     16  C   UNL     1     -51.295 -20.876  13.601 -0.13 +0.00    +0.285 C  
DOCKED: ATOM     17  C   UNL     1     -52.070 -18.645  14.041 -0.13 +0.00    +0.285 C  
DOCKED: ENDBRANCH  14  15
DOCKED: ENDBRANCH  13  14
DOCKED: ENDBRANCH  12  13
DOCKED: ENDBRANCH   2  12
DOCKED: BRANCH   2  18
DOCKED: ATOM     18  C   UNL     1     -45.601 -21.367  15.486 -0.13 +0.00    +0.006 A  
DOCKED: ATOM     19  C   UNL     1     -44.991 -22.603  15.279 -0.18 +0.00    +0.001 A  
DOCKED: ATOM     20  C   UNL     1     -43.603 -22.683  15.159 -0.17 +0.00    +0.029 A  
DOCKED: ATOM     21  C   UNL     1     -42.828 -21.528  15.245 -0.07 +0.00    +0.140 A  
DOCKED: ATOM     22  C   UNL     1     -43.439 -20.291  15.452 -0.06 +0.00    +0.029 A  
DOCKED: ATOM     23  F   UNL     1     -41.496 -21.605  15.128 -0.00 -0.00    -0.204 F  
DOCKED: ATOM     24  C   UNL     1     -44.827 -20.210  15.573 -0.07 +0.00    +0.001 A  
DOCKED: ENDBRANCH   2  18
DOCKED: TORSDOF 5
DOCKED: TER
DOCKED: ENDMDL
________________________________________________________________________________


    FINAL DOCKED STATE:
    ________________________


Run:   247 / 512
Time taken for this run:   0.002s

DOCKED: MODEL        247
DOCKED: USER    Run = 247
DOCKED: USER
DOCKED: USER    Estimated Free Energy of Binding    =  -4.15 kcal/mol  [=(1)+(2)+(3)-(4)]
DOCKED: USER
DOCKED: USER    (1) Final Intermolecular Energy     =  -5.64 kcal/mol
DOCKED: USER        vdW + Hbond + desolv Energy     =  -5.64 kcal/mol
DOCKED: USER        Electrostatic Energy            =  +0.00 kcal/mol
DOCKED: USER        Moving Ligand-Fixed Receptor    =  -5.64 kcal/mol
DOCKED: USER        Moving Ligand-Moving Receptor   =  +0.00 kcal/mol
DOCKED: USER    (2) Final Total Internal Energy     =  -1.27 kcal/mol
DOCKED: USER    (3) Torsional Free Energy           =  +1.49 kcal/mol
DOCKED: USER    (4) Unbound System's Energy         =  -1.27 kcal/mol
DOCKED: USER
DOCKED: USER
DOCKED: REMARK  5 active torsions:
DOCKED: REMARK  status: ('A' for Active; 'I' for Inactive)
DOCKED: REMARK    1  A    between atoms: C_2  and  C_19 
DOCKED: REMARK    2  A    between atoms: C_2  and  C_11 
DOCKED: REMARK    3  A    between atoms: C_19  and  C_20 
DOCKED: REMARK    4  A    between atoms: C_20  and  C_21 
DOCKED: REMARK    5  A    between atoms: C_21  and  N_22 
DOCKED: USER                              x       y       z     vdW  Elec       q    Type
DOCKED: USER                           _______ _______ _______ _____ _____    ______ ____
DOCKED: ROOT
DOCKED: ATOM      1  O   UNL     1     -40.367 -24.071   4.634 -0.02 -0.00    -0.346 OA 
DOCKED: ATOM      2  C   UNL     1     -40.457 -22.880   5.480 -0.09 +0.00    +0.130 C  
DOCKED: ATOM      3  C   UNL     1     -41.019 -23.398   6.772 -0.12 +0.00    +0.004 A  
DOCKED: ATOM      4  C   UNL     1     -41.136 -24.780   6.710 -0.16 +0.00    +0.006 A  
DOCKED: ATOM      5  C   UNL     1     -40.655 -25.266   5.397 -0.09 +0.00    +0.169 C  
DOCKED: ATOM      6  C   UNL     1     -41.386 -22.704   7.916 -0.13 -0.00    -0.001 A  
DOCKED: ATOM      7  C   UNL     1     -41.625 -25.511   7.779 -0.28 +0.00    +0.008 A  
DOCKED: ATOM      8  C   UNL     1     -41.886 -23.426   9.001 -0.23 +0.00    +0.010 A  
DOCKED: ATOM      9  C   UNL     1     -42.004 -24.823   8.933 -0.30 +0.00    +0.068 A  
DOCKED: ATOM     10  N   UNL     1     -42.929 -26.133  10.967 -2.66 -0.00    -0.191 NA 
DOCKED: ATOM     11  C   UNL     1     -42.515 -25.545  10.055 -0.40 +0.00    +0.101 C  
DOCKED: ENDROOT
DOCKED: BRANCH   2  12
DOCKED: ATOM     12  C   UNL     1     -39.060 -22.291   5.635 -0.02 +0.00    +0.038 C  
DOCKED: BRANCH  12  13
DOCKED: ATOM     13  C   UNL     1     -38.327 -22.901   6.828 -0.02 +0.00    +0.038 C  
DOCKED: BRANCH  13  14
DOCKED: ATOM     14  C   UNL     1     -37.030 -23.578   6.390 -0.00 +0.00    +0.251 C  
DOCKED: BRANCH  14  15
DOCKED: ATOM     15  N   UNL     1     -37.321 -24.755   5.580 -0.01 +0.00    +0.141 N  
DOCKED: ATOM     16  C   UNL     1     -36.296 -24.940   4.552 -0.00 +0.00    +0.285 C  
DOCKED: ATOM     17  C   UNL     1     -37.418 -25.949   6.421 -0.03 +0.00    +0.285 C  
DOCKED: ENDBRANCH  14  15
DOCKED: ENDBRANCH  13  14
DOCKED: ENDBRANCH  12  13
DOCKED: ENDBRANCH   2  12
DOCKED: BRANCH   2  18
DOCKED: ATOM     18  C   UNL     1     -41.371 -21.923   4.791 -0.12 +0.00    +0.006 A  
DOCKED: ATOM     19  C   UNL     1     -41.973 -20.892   5.511 -0.13 +0.00    +0.001 A  
DOCKED: ATOM     20  C   UNL     1     -42.828 -19.999   4.865 -0.18 +0.00    +0.029 A  
DOCKED: ATOM     21  C   UNL     1     -43.080 -20.137   3.501 -0.20 +0.00    +0.140 A  
DOCKED: ATOM     22  C   UNL     1     -42.477 -21.168   2.781 -0.20 +0.00    +0.029 A  
DOCKED: ATOM     23  F   UNL     1     -43.899 -19.278   2.881 -0.13 -0.00    -0.204 F  
DOCKED: ATOM     24  C   UNL     1     -41.622 -22.063   3.426 -0.13 +0.00    +0.001 A  
DOCKED: ENDBRANCH   2  18
DOCKED: TORSDOF 5
DOCKED: TER
DOCKED: ENDMDL
________________________________________________________________________________


    FINAL DOCKED STATE:
    ________________________


Run:   248 / 512
Time taken for this run:   0.002s

DOCKED: MODEL        248
DOCKED: USER    Run = 248
DOCKED: USER
DOCKED: USER    Estimated Free Energy of Binding    =  -4.12 kcal/mol  [=(1)+(2)+(3)-(4)]
DOCKED: USER
DOCKED: USER    (1) Final Intermolecular Energy     =  -5.61 kcal/mol
DOCKED: USER        vdW + Hbond + desolv Energy     =  -5.61 kcal/mol
DOCKED: USER        Electrostatic Energy            =  +0.00 kcal/mol
DOCKED: USER        Moving Ligand-Fixed Receptor    =  -5.61 kcal/mol
DOCKED: USER        Moving Ligand-Moving Receptor   =  +0.00 kcal/mol
DOCKED: USER    (2) Final Total Internal Energy     =  -0.88 kcal/mol
DOCKED: USER    (3) Torsional Free Energy           =  +1.49 kcal/mol
DOCKED: USER    (4) Unbound System's Energy         =  -0.88 kcal/mol
DOCKED: USER
DOCKED: USER
DOCKED: REMARK  5 active torsions:
DOCKED: REMARK  status: ('A' for Active; 'I' for Inactive)
DOCKED: REMARK    1  A    between atoms: C_2  and  C_19 
DOCKED: REMARK    2  A    between atoms: C_2  and  C_11 
DOCKED: REMARK    3  A    between atoms: C_19  and  C_20 
DOCKED: REMARK    4  A    between atoms: C_20  and  C_21 
DOCKED: REMARK    5  A    between atoms: C_21  and  N_22 
DOCKED: USER                              x       y       z     vdW  Elec       q    Type
DOCKED: USER                           _______ _______ _______ _____ _____    ______ ____
DOCKED: ROOT
DOCKED: ATOM      1  O   UNL     1     -50.450 -19.038  14.466 -0.05 -0.00    -0.346 OA 
DOCKED: ATOM      2  C   UNL     1     -49.035 -19.340  14.250 -0.14 +0.00    +0.130 C  
DOCKED: ATOM      3  C   UNL     1     -49.039 -20.765  13.778 -0.23 +0.00    +0.004 A  
DOCKED: ATOM      4  C   UNL     1     -50.347 -21.204  13.630 -0.23 +0.00    +0.006 A  
DOCKED: ATOM      5  C   UNL     1     -51.285 -20.114  13.977 -0.18 +0.00    +0.169 C  
DOCKED: ATOM      6  C   UNL     1     -47.971 -21.602  13.490 -0.26 -0.00    -0.001 A  
DOCKED: ATOM      7  C   UNL     1     -50.632 -22.488  13.197 -0.25 +0.00    +0.008 A  
DOCKED: ATOM      8  C   UNL     1     -48.241 -22.901  13.057 -0.31 +0.00    +0.010 A  
DOCKED: ATOM      9  C   UNL     1     -49.565 -23.341  12.911 -0.29 +0.00    +0.068 A  
DOCKED: ATOM     10  N   UNL     1     -50.032 -25.757  12.099 -2.61 -0.00    -0.191 NA 
DOCKED: ATOM     11  C   UNL     1     -49.823 -24.674  12.464 -0.36 +0.00    +0.101 C  
DOCKED: ENDROOT
DOCKED: BRANCH   2  12
DOCKED: ATOM     12  C   UNL     1     -48.488 -18.371  13.209 -0.16 +0.00    +0.038 C  
DOCKED: BRANCH  12  13
DOCKED: ATOM     13  C   UNL     1     -47.024 -18.031  13.479 -0.12 +0.00    +0.038 C  
DOCKED: BRANCH  13  14
DOCKED: ATOM     14  C   UNL     1     -46.125 -18.538  12.353 -0.10 +0.00    +0.251 C  
DOCKED: BRANCH  14  15
DOCKED: ATOM     15  N   UNL     1     -46.147 -17.610  11.229 -0.07 +0.00    +0.141 N  
DOCKED: ATOM     16  C   UNL     1     -46.157 -16.225  11.704 -0.05 +0.00    +0.285 C  
DOCKED: ATOM     17  C   UNL     1     -44.998 -17.836  10.351 -0.08 +0.00    +0.285 C  
DOCKED: ENDBRANCH  14  15
DOCKED: ENDBRANCH  13  14
DOCKED: ENDBRANCH  12  13
DOCKED: ENDBRANCH   2  12
DOCKED: BRANCH   2  18
DOCKED: ATOM     18  C   UNL     1     -48.346 -19.165  15.563 -0.05 +0.00    +0.006 A  
DOCKED: ATOM     19  C   UNL     1     -47.246 -19.959  15.883 -0.05 +0.00    +0.001 A  
DOCKED: ATOM     20  C   UNL     1     -46.603 -19.794  17.111 -0.02 +0.00    +0.029 A  
DOCKED: ATOM     21  C   UNL     1     -47.061 -18.836  18.015 -0.00 +0.00    +0.140 A  
DOCKED: ATOM     22  C   UNL     1     -48.162 -18.043  17.693 -0.00 +0.00    +0.029 A  
DOCKED: ATOM     23  F   UNL     1     -46.443 -18.677  19.192 -0.00 -0.00    -0.204 F  
DOCKED: ATOM     24  C   UNL     1     -48.805 -18.207  16.466 -0.02 +0.00    +0.001 A  
DOCKED: ENDBRANCH   2  18
DOCKED: TORSDOF 5
DOCKED: TER
DOCKED: ENDMDL
________________________________________________________________________________


    FINAL DOCKED STATE:
    ________________________


Run:   249 / 512
Time taken for this run:   0.002s

DOCKED: MODEL        249
DOCKED: USER    Run = 249
DOCKED: USER
DOCKED: USER    Estimated Free Energy of Binding    =  -4.33 kcal/mol  [=(1)+(2)+(3)-(4)]
DOCKED: USER
DOCKED: USER    (1) Final Intermolecular Energy     =  -5.82 kcal/mol
DOCKED: USER        vdW + Hbond + desolv Energy     =  -5.82 kcal/mol
DOCKED: USER        Electrostatic Energy            =  +0.00 kcal/mol
DOCKED: USER        Moving Ligand-Fixed Receptor    =  -5.82 kcal/mol
DOCKED: USER        Moving Ligand-Moving Receptor   =  +0.00 kcal/mol
DOCKED: USER    (2) Final Total Internal Energy     =  -1.45 kcal/mol
DOCKED: USER    (3) Torsional Free Energy           =  +1.49 kcal/mol
DOCKED: USER    (4) Unbound System's Energy         =  -1.45 kcal/mol
DOCKED: USER
DOCKED: USER
DOCKED: REMARK  5 active torsions:
DOCKED: REMARK  status: ('A' for Active; 'I' for Inactive)
DOCKED: REMARK    1  A    between atoms: C_2  and  C_19 
DOCKED: REMARK    2  A    between atoms: C_2  and  C_11 
DOCKED: REMARK    3  A    between atoms: C_19  and  C_20 
DOCKED: REMARK    4  A    between atoms: C_20  and  C_21 
DOCKED: REMARK    5  A    between atoms: C_21  and  N_22 
DOCKED: USER                              x       y       z     vdW  Elec       q    Type
DOCKED: USER                           _______ _______ _______ _____ _____    ______ ____
DOCKED: ROOT
DOCKED: ATOM      1  O   UNL     1     -46.115 -21.434  16.088 -0.04 -0.00    -0.346 OA 
DOCKED: ATOM      2  C   UNL     1     -46.629 -20.596  15.003 -0.11 +0.00    +0.130 C  
DOCKED: ATOM      3  C   UNL     1     -47.497 -21.528  14.209 -0.21 +0.00    +0.004 A  
DOCKED: ATOM      4  C   UNL     1     -47.564 -22.760  14.845 -0.23 +0.00    +0.006 A  
DOCKED: ATOM      5  C   UNL     1     -46.767 -22.726  16.091 -0.13 +0.00    +0.169 C  
DOCKED: ATOM      6  C   UNL     1     -48.183 -21.301  13.025 -0.26 -0.00    -0.001 A  
DOCKED: ATOM      7  C   UNL     1     -48.310 -23.802  14.321 -0.30 +0.00    +0.008 A  
DOCKED: ATOM      8  C   UNL     1     -48.937 -22.343  12.482 -0.34 +0.00    +0.010 A  
DOCKED: ATOM      9  C   UNL     1     -49.000 -23.587  13.127 -0.30 +0.00    +0.068 A  
DOCKED: ATOM     10  N   UNL     1     -50.411 -25.498  12.094 -2.56 -0.00    -0.191 NA 
DOCKED: ATOM     11  C   UNL     1     -49.778 -24.641  12.557 -0.35 +0.00    +0.101 C  
DOCKED: ENDROOT
DOCKED: BRANCH   2  12
DOCKED: ATOM     12  C   UNL     1     -47.406 -19.437  15.615 -0.06 +0.00    +0.038 C  
DOCKED: BRANCH  12  13
DOCKED: ATOM     13  C   UNL     1     -48.622 -19.932  16.395 -0.04 +0.00    +0.038 C  
DOCKED: BRANCH  13  14
DOCKED: ATOM     14  C   UNL     1     -49.921 -19.539  15.695 -0.03 +0.00    +0.251 C  
DOCKED: BRANCH  14  15
DOCKED: ATOM     15  N   UNL     1     -50.434 -20.657  14.912 -0.07 +0.00    +0.141 N  
DOCKED: ATOM     16  C   UNL     1     -50.929 -21.718  15.791 -0.02 +0.00    +0.285 C  
DOCKED: ATOM     17  C   UNL     1     -51.496 -20.210  14.009 -0.13 +0.00    +0.285 C  
DOCKED: ENDBRANCH  14  15
DOCKED: ENDBRANCH  13  14
DOCKED: ENDBRANCH  12  13
DOCKED: ENDBRANCH   2  12
DOCKED: BRANCH   2  18
DOCKED: ATOM     18  C   UNL     1     -45.447 -20.106  14.234 -0.12 +0.00    +0.006 A  
DOCKED: ATOM     19  C   UNL     1     -45.607 -19.109  13.273 -0.14 +0.00    +0.001 A  
DOCKED: ATOM     20  C   UNL     1     -44.501 -18.651  12.555 -0.11 +0.00    +0.029 A  
DOCKED: ATOM     21  C   UNL     1     -43.239 -19.191  12.799 -0.07 +0.00    +0.140 A  
DOCKED: ATOM     22  C   UNL     1     -43.081 -20.189  13.760 -0.10 +0.00    +0.029 A  
DOCKED: ATOM     23  F   UNL     1     -42.178 -18.751  12.110 -0.01 -0.00    -0.204 F  
DOCKED: ATOM     24  C   UNL     1     -44.186 -20.647  14.479 -0.10 +0.00    +0.001 A  
DOCKED: ENDBRANCH   2  18
DOCKED: TORSDOF 5
DOCKED: TER
DOCKED: ENDMDL
________________________________________________________________________________


    FINAL DOCKED STATE:
    ________________________


Run:   250 / 512
Time taken for this run:   0.002s

DOCKED: MODEL        250
DOCKED: USER    Run = 250
DOCKED: USER
DOCKED: USER    Estimated Free Energy of Binding    =  -3.98 kcal/mol  [=(1)+(2)+(3)-(4)]
DOCKED: USER
DOCKED: USER    (1) Final Intermolecular Energy     =  -5.47 kcal/mol
DOCKED: USER        vdW + Hbond + desolv Energy     =  -5.47 kcal/mol
DOCKED: USER        Electrostatic Energy            =  +0.00 kcal/mol
DOCKED: USER        Moving Ligand-Fixed Receptor    =  -5.47 kcal/mol
DOCKED: USER        Moving Ligand-Moving Receptor   =  +0.00 kcal/mol
DOCKED: USER    (2) Final Total Internal Energy     =  -1.06 kcal/mol
DOCKED: USER    (3) Torsional Free Energy           =  +1.49 kcal/mol
DOCKED: USER    (4) Unbound System's Energy         =  -1.06 kcal/mol
DOCKED: USER
DOCKED: USER
DOCKED: REMARK  5 active torsions:
DOCKED: REMARK  status: ('A' for Active; 'I' for Inactive)
DOCKED: REMARK    1  A    between atoms: C_2  and  C_19 
DOCKED: REMARK    2  A    between atoms: C_2  and  C_11 
DOCKED: REMARK    3  A    between atoms: C_19  and  C_20 
DOCKED: REMARK    4  A    between atoms: C_20  and  C_21 
DOCKED: REMARK    5  A    between atoms: C_21  and  N_22 
DOCKED: USER                              x       y       z     vdW  Elec       q    Type
DOCKED: USER                           _______ _______ _______ _____ _____    ______ ____
DOCKED: ROOT
DOCKED: ATOM      1  O   UNL     1     -44.155 -15.357   7.213 -0.04 -0.00    -0.346 OA 
DOCKED: ATOM      2  C   UNL     1     -45.502 -15.553   6.675 -0.21 +0.00    +0.130 C  
DOCKED: ATOM      3  C   UNL     1     -45.599 -14.541   5.570 -0.28 +0.00    +0.004 A  
DOCKED: ATOM      4  C   UNL     1     -44.378 -13.900   5.415 -0.16 +0.00    +0.006 A  
DOCKED: ATOM      5  C   UNL     1     -43.399 -14.443   6.384 -0.11 +0.00    +0.169 C  
DOCKED: ATOM      6  C   UNL     1     -46.678 -14.222   4.759 -0.24 -0.00    -0.001 A  
DOCKED: ATOM      7  C   UNL     1     -44.195 -12.921   4.454 -0.20 +0.00    +0.008 A  
DOCKED: ATOM      8  C   UNL     1     -46.511 -13.234   3.788 -0.40 +0.00    +0.010 A  
DOCKED: ATOM      9  C   UNL     1     -45.276 -12.587   3.636 -0.29 +0.00    +0.068 A  
DOCKED: ATOM     10  N   UNL     1     -44.998 -10.760   1.819 -0.85 -0.00    -0.191 NA 
DOCKED: ATOM     11  C   UNL     1     -45.122 -11.579   2.635 -0.33 +0.00    +0.101 C  
DOCKED: ENDROOT
DOCKED: BRANCH   2  12
DOCKED: ATOM     12  C   UNL     1     -45.619 -16.989   6.178 -0.19 +0.00    +0.038 C  
DOCKED: BRANCH  12  13
DOCKED: ATOM     13  C   UNL     1     -44.427 -17.832   6.626 -0.17 +0.00    +0.038 C  
DOCKED: BRANCH  13  14
DOCKED: ATOM     14  C   UNL     1     -44.865 -18.932   7.592 -0.18 +0.00    +0.251 C  
DOCKED: BRANCH  14  15
DOCKED: ATOM     15  N   UNL     1     -43.994 -20.095   7.464 -0.21 +0.00    +0.141 N  
DOCKED: ATOM     16  C   UNL     1     -42.595 -19.682   7.353 -0.07 +0.00    +0.285 C  
DOCKED: ATOM     17  C   UNL     1     -44.169 -20.997   8.604 -0.18 +0.00    +0.285 C  
DOCKED: ENDBRANCH  14  15
DOCKED: ENDBRANCH  13  14
DOCKED: ENDBRANCH  12  13
DOCKED: ENDBRANCH   2  12
DOCKED: BRANCH   2  18
DOCKED: ATOM     18  C   UNL     1     -46.459 -15.290   7.790 -0.26 +0.00    +0.006 A  
DOCKED: ATOM     19  C   UNL     1     -46.286 -14.173   8.607 -0.18 +0.00    +0.001 A  
DOCKED: ATOM     20  C   UNL     1     -47.181 -13.928   9.649 -0.23 +0.00    +0.029 A  
DOCKED: ATOM     21  C   UNL     1     -48.247 -14.800   9.873 -0.15 +0.00    +0.140 A  
DOCKED: ATOM     22  C   UNL     1     -48.418 -15.916   9.055 -0.23 +0.00    +0.029 A  
DOCKED: ATOM     23  F   UNL     1     -49.106 -14.563  10.872 -0.01 -0.00    -0.204 F  
DOCKED: ATOM     24  C   UNL     1     -47.523 -16.162   8.013 -0.29 +0.00    +0.001 A  
DOCKED: ENDBRANCH   2  18
DOCKED: TORSDOF 5
DOCKED: TER
DOCKED: ENDMDL
________________________________________________________________________________


    FINAL DOCKED STATE:
    ________________________


Run:   251 / 512
Time taken for this run:   0.002s

DOCKED: MODEL        251
DOCKED: USER    Run = 251
DOCKED: USER
DOCKED: USER    Estimated Free Energy of Binding    =  -3.93 kcal/mol  [=(1)+(2)+(3)-(4)]
DOCKED: USER
DOCKED: USER    (1) Final Intermolecular Energy     =  -5.42 kcal/mol
DOCKED: USER        vdW + Hbond + desolv Energy     =  -5.42 kcal/mol
DOCKED: USER        Electrostatic Energy            =  +0.00 kcal/mol
DOCKED: USER        Moving Ligand-Fixed Receptor    =  -5.42 kcal/mol
DOCKED: USER        Moving Ligand-Moving Receptor   =  +0.00 kcal/mol
DOCKED: USER    (2) Final Total Internal Energy     =  -0.98 kcal/mol
DOCKED: USER    (3) Torsional Free Energy           =  +1.49 kcal/mol
DOCKED: USER    (4) Unbound System's Energy         =  -0.98 kcal/mol
DOCKED: USER
DOCKED: USER
DOCKED: REMARK  5 active torsions:
DOCKED: REMARK  status: ('A' for Active; 'I' for Inactive)
DOCKED: REMARK    1  A    between atoms: C_2  and  C_19 
DOCKED: REMARK    2  A    between atoms: C_2  and  C_11 
DOCKED: REMARK    3  A    between atoms: C_19  and  C_20 
DOCKED: REMARK    4  A    between atoms: C_20  and  C_21 
DOCKED: REMARK    5  A    between atoms: C_21  and  N_22 
DOCKED: USER                              x       y       z     vdW  Elec       q    Type
DOCKED: USER                           _______ _______ _______ _____ _____    ______ ____
DOCKED: ROOT
DOCKED: ATOM      1  O   UNL     1     -47.162 -19.634  14.799 -0.03 -0.00    -0.346 OA 
DOCKED: ATOM      2  C   UNL     1     -46.419 -20.809  15.257 -0.11 +0.00    +0.130 C  
DOCKED: ATOM      3  C   UNL     1     -47.172 -21.964  14.663 -0.20 +0.00    +0.004 A  
DOCKED: ATOM      4  C   UNL     1     -48.189 -21.489  13.848 -0.24 +0.00    +0.006 A  
DOCKED: ATOM      5  C   UNL     1     -48.173 -20.009  13.835 -0.17 +0.00    +0.169 C  
DOCKED: ATOM      6  C   UNL     1     -46.965 -23.326  14.823 -0.25 -0.00    -0.001 A  
DOCKED: ATOM      7  C   UNL     1     -49.034 -22.353  13.172 -0.31 +0.00    +0.008 A  
DOCKED: ATOM      8  C   UNL     1     -47.811 -24.211  14.151 -0.36 +0.00    +0.010 A  
DOCKED: ATOM      9  C   UNL     1     -48.840 -23.726  13.329 -0.30 +0.00    +0.068 A  
DOCKED: ATOM     10  N   UNL     1     -50.388 -25.395  12.093 -2.56 -0.00    -0.191 NA 
DOCKED: ATOM     11  C   UNL     1     -49.694 -24.646  12.648 -0.33 +0.00    +0.101 C  
DOCKED: ENDROOT
DOCKED: BRANCH   2  12
DOCKED: ATOM     12  C   UNL     1     -44.988 -20.705  14.741 -0.13 +0.00    +0.038 C  
DOCKED: BRANCH  12  13
DOCKED: ATOM     13  C   UNL     1     -44.265 -22.047  14.832 -0.10 +0.00    +0.038 C  
DOCKED: BRANCH  13  14
DOCKED: ATOM     14  C   UNL     1     -42.750 -21.855  14.850 -0.08 +0.00    +0.251 C  
DOCKED: BRANCH  14  15
DOCKED: ATOM     15  N   UNL     1     -42.406 -20.497  14.445 -0.06 +0.00    +0.141 N  
DOCKED: ATOM     16  C   UNL     1     -41.502 -19.882  15.418 -0.01 +0.00    +0.285 C  
DOCKED: ATOM     17  C   UNL     1     -41.797 -20.495  13.114 -0.05 +0.00    +0.285 C  
DOCKED: ENDBRANCH  14  15
DOCKED: ENDBRANCH  13  14
DOCKED: ENDBRANCH  12  13
DOCKED: ENDBRANCH   2  12
DOCKED: BRANCH   2  18
DOCKED: ATOM     18  C   UNL     1     -46.456 -20.795  16.748 -0.05 +0.00    +0.006 A  
DOCKED: ATOM     19  C   UNL     1     -47.637 -21.111  17.419 -0.03 +0.00    +0.001 A  
DOCKED: ATOM     20  C   UNL     1     -47.670 -21.097  18.814 -0.01 +0.00    +0.029 A  
DOCKED: ATOM     21  C   UNL     1     -46.524 -20.769  19.536 -0.00 +0.00    +0.140 A  
DOCKED: ATOM     22  C   UNL     1     -45.343 -20.454  18.864 -0.01 +0.00    +0.029 A  
DOCKED: ATOM     23  F   UNL     1     -46.556 -20.758  20.875 +0.00 -0.00    -0.204 F  
DOCKED: ATOM     24  C   UNL     1     -45.308 -20.466  17.469 -0.02 +0.00    +0.001 A  
DOCKED: ENDBRANCH   2  18
DOCKED: TORSDOF 5
DOCKED: TER
DOCKED: ENDMDL
________________________________________________________________________________


    FINAL DOCKED STATE:
    ________________________


Run:   252 / 512
Time taken for this run:   0.002s

DOCKED: MODEL        252
DOCKED: USER    Run = 252
DOCKED: USER
DOCKED: USER    Estimated Free Energy of Binding    =  -4.79 kcal/mol  [=(1)+(2)+(3)-(4)]
DOCKED: USER
DOCKED: USER    (1) Final Intermolecular Energy     =  -6.28 kcal/mol
DOCKED: USER        vdW + Hbond + desolv Energy     =  -6.28 kcal/mol
DOCKED: USER        Electrostatic Energy            =  +0.00 kcal/mol
DOCKED: USER        Moving Ligand-Fixed Receptor    =  -6.28 kcal/mol
DOCKED: USER        Moving Ligand-Moving Receptor   =  +0.00 kcal/mol
DOCKED: USER    (2) Final Total Internal Energy     =  -1.06 kcal/mol
DOCKED: USER    (3) Torsional Free Energy           =  +1.49 kcal/mol
DOCKED: USER    (4) Unbound System's Energy         =  -1.06 kcal/mol
DOCKED: USER
DOCKED: USER
DOCKED: REMARK  5 active torsions:
DOCKED: REMARK  status: ('A' for Active; 'I' for Inactive)
DOCKED: REMARK    1  A    between atoms: C_2  and  C_19 
DOCKED: REMARK    2  A    between atoms: C_2  and  C_11 
DOCKED: REMARK    3  A    between atoms: C_19  and  C_20 
DOCKED: REMARK    4  A    between atoms: C_20  and  C_21 
DOCKED: REMARK    5  A    between atoms: C_21  and  N_22 
DOCKED: USER                              x       y       z     vdW  Elec       q    Type
DOCKED: USER                           _______ _______ _______ _____ _____    ______ ____
DOCKED: ROOT
DOCKED: ATOM      1  O   UNL     1     -47.850 -24.049  15.391 -0.10 -0.00    -0.346 OA 
DOCKED: ATOM      2  C   UNL     1     -47.998 -22.689  14.872 -0.19 +0.00    +0.130 C  
DOCKED: ATOM      3  C   UNL     1     -48.522 -22.889  13.480 -0.31 +0.00    +0.004 A  
DOCKED: ATOM      4  C   UNL     1     -48.758 -24.239  13.260 -0.38 +0.00    +0.006 A  
DOCKED: ATOM      5  C   UNL     1     -48.424 -25.012  14.477 -0.17 +0.00    +0.169 C  
DOCKED: ATOM      6  C   UNL     1     -48.780 -21.951  12.491 -0.30 -0.00    -0.001 A  
DOCKED: ATOM      7  C   UNL     1     -49.253 -24.696  12.050 -0.46 +0.00    +0.008 A  
DOCKED: ATOM      8  C   UNL     1     -49.275 -22.397  11.264 +0.04 +0.00    +0.010 A  
DOCKED: ATOM      9  C   UNL     1     -49.511 -23.763  11.046 -0.41 +0.00    +0.068 A  
DOCKED: ATOM     10  N   UNL     1     -50.435 -24.556   8.759 -2.36 -0.00    -0.191 NA 
DOCKED: ATOM     11  C   UNL     1     -50.020 -24.200   9.784 -0.50 +0.00    +0.101 C  
DOCKED: ENDROOT
DOCKED: BRANCH   2  12
DOCKED: ATOM     12  C   UNL     1     -48.971 -21.934  15.770 -0.10 +0.00    +0.038 C  
DOCKED: BRANCH  12  13
DOCKED: ATOM     13  C   UNL     1     -50.421 -22.264  15.421 -0.11 +0.00    +0.038 C  
DOCKED: BRANCH  13  14
DOCKED: ATOM     14  C   UNL     1     -51.224 -22.601  16.676 -0.02 +0.00    +0.251 C  
DOCKED: BRANCH  14  15
DOCKED: ATOM     15  N   UNL     1     -52.391 -21.733  16.779 -0.03 +0.00    +0.141 N  
DOCKED: ATOM     16  C   UNL     1     -52.074 -20.532  17.553 +0.00 +0.00    +0.285 C  
DOCKED: ATOM     17  C   UNL     1     -52.880 -21.365  15.449 -0.03 +0.00    +0.285 C  
DOCKED: ENDBRANCH  14  15
DOCKED: ENDBRANCH  13  14
DOCKED: ENDBRANCH  12  13
DOCKED: ENDBRANCH   2  12
DOCKED: BRANCH   2  18
DOCKED: ATOM     18  C   UNL     1     -46.644 -22.062  14.899 -0.19 +0.00    +0.006 A  
DOCKED: ATOM     19  C   UNL     1     -46.511 -20.684  14.737 -0.14 +0.00    +0.001 A  
DOCKED: ATOM     20  C   UNL     1     -45.244 -20.099  14.762 -0.10 +0.00    +0.029 A  
DOCKED: ATOM     21  C   UNL     1     -44.113 -20.892  14.950 -0.09 +0.00    +0.140 A  
DOCKED: ATOM     22  C   UNL     1     -44.247 -22.271  15.112 -0.16 +0.00    +0.029 A  
DOCKED: ATOM     23  F   UNL     1     -42.897 -20.331  14.975 -0.01 -0.00    -0.204 F  
DOCKED: ATOM     24  C   UNL     1     -45.514 -22.857  15.087 -0.17 +0.00    +0.001 A  
DOCKED: ENDBRANCH   2  18
DOCKED: TORSDOF 5
DOCKED: TER
DOCKED: ENDMDL
________________________________________________________________________________


    FINAL DOCKED STATE:
    ________________________


Run:   253 / 512
Time taken for this run:   0.002s

DOCKED: MODEL        253
DOCKED: USER    Run = 253
DOCKED: USER
DOCKED: USER    Estimated Free Energy of Binding    =  -4.00 kcal/mol  [=(1)+(2)+(3)-(4)]
DOCKED: USER
DOCKED: USER    (1) Final Intermolecular Energy     =  -5.49 kcal/mol
DOCKED: USER        vdW + Hbond + desolv Energy     =  -5.49 kcal/mol
DOCKED: USER        Electrostatic Energy            =  +0.00 kcal/mol
DOCKED: USER        Moving Ligand-Fixed Receptor    =  -5.49 kcal/mol
DOCKED: USER        Moving Ligand-Moving Receptor   =  +0.00 kcal/mol
DOCKED: USER    (2) Final Total Internal Energy     =  -1.19 kcal/mol
DOCKED: USER    (3) Torsional Free Energy           =  +1.49 kcal/mol
DOCKED: USER    (4) Unbound System's Energy         =  -1.19 kcal/mol
DOCKED: USER
DOCKED: USER
DOCKED: REMARK  5 active torsions:
DOCKED: REMARK  status: ('A' for Active; 'I' for Inactive)
DOCKED: REMARK    1  A    between atoms: C_2  and  C_19 
DOCKED: REMARK    2  A    between atoms: C_2  and  C_11 
DOCKED: REMARK    3  A    between atoms: C_19  and  C_20 
DOCKED: REMARK    4  A    between atoms: C_20  and  C_21 
DOCKED: REMARK    5  A    between atoms: C_21  and  N_22 
DOCKED: USER                              x       y       z     vdW  Elec       q    Type
DOCKED: USER                           _______ _______ _______ _____ _____    ______ ____
DOCKED: ROOT
DOCKED: ATOM      1  O   UNL     1     -45.975 -21.828  16.352 -0.04 -0.00    -0.346 OA 
DOCKED: ATOM      2  C   UNL     1     -46.413 -20.909  15.300 -0.11 +0.00    +0.130 C  
DOCKED: ATOM      3  C   UNL     1     -47.321 -21.746  14.447 -0.20 +0.00    +0.004 A  
DOCKED: ATOM      4  C   UNL     1     -47.478 -22.999  15.021 -0.23 +0.00    +0.006 A  
DOCKED: ATOM      5  C   UNL     1     -46.706 -23.074  16.282 -0.11 +0.00    +0.169 C  
DOCKED: ATOM      6  C   UNL     1     -47.967 -21.420  13.263 -0.24 -0.00    -0.001 A  
DOCKED: ATOM      7  C   UNL     1     -48.276 -23.966  14.434 -0.31 +0.00    +0.008 A  
DOCKED: ATOM      8  C   UNL     1     -48.772 -22.386  12.657 -0.33 +0.00    +0.010 A  
DOCKED: ATOM      9  C   UNL     1     -48.926 -23.652  13.240 -0.30 +0.00    +0.068 A  
DOCKED: ATOM     10  N   UNL     1     -50.431 -25.420  12.090 -2.55 -0.00    -0.191 NA 
DOCKED: ATOM     11  C   UNL     1     -49.755 -24.628  12.606 -0.35 +0.00    +0.101 C  
DOCKED: ENDROOT
DOCKED: BRANCH   2  12
DOCKED: ATOM     12  C   UNL     1     -47.129 -19.733  15.954 -0.05 +0.00    +0.038 C  
DOCKED: BRANCH  12  13
DOCKED: ATOM     13  C   UNL     1     -47.816 -20.152  17.252 -0.02 +0.00    +0.038 C  
DOCKED: BRANCH  13  14
DOCKED: ATOM     14  C   UNL     1     -49.251 -20.606  16.993 -0.01 +0.00    +0.251 C  
DOCKED: BRANCH  14  15
DOCKED: ATOM     15  N   UNL     1     -49.919 -20.923  18.250 -0.01 +0.00    +0.141 N  
DOCKED: ATOM     16  C   UNL     1     -51.373 -20.878  18.088 +0.00 +0.00    +0.285 C  
DOCKED: ATOM     17  C   UNL     1     -49.502 -22.239  18.737 -0.01 +0.00    +0.285 C  
DOCKED: ENDBRANCH  14  15
DOCKED: ENDBRANCH  13  14
DOCKED: ENDBRANCH  12  13
DOCKED: ENDBRANCH   2  12
DOCKED: BRANCH   2  18
DOCKED: ATOM     18  C   UNL     1     -45.188 -20.458  14.577 -0.11 +0.00    +0.006 A  
DOCKED: ATOM     19  C   UNL     1     -43.962 -21.070  14.835 -0.12 +0.00    +0.001 A  
DOCKED: ATOM     20  C   UNL     1     -42.817 -20.647  14.158 -0.10 +0.00    +0.029 A  
DOCKED: ATOM     21  C   UNL     1     -42.900 -19.615  13.225 -0.07 +0.00    +0.140 A  
DOCKED: ATOM     22  C   UNL     1     -44.126 -19.003  12.968 -0.10 +0.00    +0.029 A  
DOCKED: ATOM     23  F   UNL     1     -41.801 -19.210  12.574 -0.01 -0.00    -0.204 F  
DOCKED: ATOM     24  C   UNL     1     -45.272 -19.425  13.644 -0.12 +0.00    +0.001 A  
DOCKED: ENDBRANCH   2  18
DOCKED: TORSDOF 5
DOCKED: TER
DOCKED: ENDMDL
________________________________________________________________________________


    FINAL DOCKED STATE:
    ________________________


Run:   254 / 512
Time taken for this run:   0.002s

DOCKED: MODEL        254
DOCKED: USER    Run = 254
DOCKED: USER
DOCKED: USER    Estimated Free Energy of Binding    =  -4.13 kcal/mol  [=(1)+(2)+(3)-(4)]
DOCKED: USER
DOCKED: USER    (1) Final Intermolecular Energy     =  -5.62 kcal/mol
DOCKED: USER        vdW + Hbond + desolv Energy     =  -5.62 kcal/mol
DOCKED: USER        Electrostatic Energy            =  +0.00 kcal/mol
DOCKED: USER        Moving Ligand-Fixed Receptor    =  -5.62 kcal/mol
DOCKED: USER        Moving Ligand-Moving Receptor   =  +0.00 kcal/mol
DOCKED: USER    (2) Final Total Internal Energy     =  -1.44 kcal/mol
DOCKED: USER    (3) Torsional Free Energy           =  +1.49 kcal/mol
DOCKED: USER    (4) Unbound System's Energy         =  -1.44 kcal/mol
DOCKED: USER
DOCKED: USER
DOCKED: REMARK  5 active torsions:
DOCKED: REMARK  status: ('A' for Active; 'I' for Inactive)
DOCKED: REMARK    1  A    between atoms: C_2  and  C_19 
DOCKED: REMARK    2  A    between atoms: C_2  and  C_11 
DOCKED: REMARK    3  A    between atoms: C_19  and  C_20 
DOCKED: REMARK    4  A    between atoms: C_20  and  C_21 
DOCKED: REMARK    5  A    between atoms: C_21  and  N_22 
DOCKED: USER                              x       y       z     vdW  Elec       q    Type
DOCKED: USER                           _______ _______ _______ _____ _____    ______ ____
DOCKED: ROOT
DOCKED: ATOM      1  O   UNL     1     -47.821 -18.985  13.627 -0.07 -0.00    -0.346 OA 
DOCKED: ATOM      2  C   UNL     1     -48.990 -19.206  14.479 -0.12 +0.00    +0.130 C  
DOCKED: ATOM      3  C   UNL     1     -49.477 -20.568  14.076 -0.20 +0.00    +0.004 A  
DOCKED: ATOM      4  C   UNL     1     -48.600 -21.124  13.155 -0.27 +0.00    +0.006 A  
DOCKED: ATOM      5  C   UNL     1     -47.483 -20.188  12.898 -0.11 +0.00    +0.169 C  
DOCKED: ATOM      6  C   UNL     1     -50.600 -21.264  14.500 -0.15 -0.00    -0.001 A  
DOCKED: ATOM      7  C   UNL     1     -48.816 -22.384  12.625 -0.33 +0.00    +0.008 A  
DOCKED: ATOM      8  C   UNL     1     -50.833 -22.535  13.971 -0.19 +0.00    +0.010 A  
DOCKED: ATOM      9  C   UNL     1     -49.945 -23.092  13.039 -0.25 +0.00    +0.068 A  
DOCKED: ATOM     10  N   UNL     1     -50.406 -25.455  12.081 -2.55 -0.00    -0.191 NA 
DOCKED: ATOM     11  C   UNL     1     -50.199 -24.395  12.510 -0.36 +0.00    +0.101 C  
DOCKED: ENDROOT
DOCKED: BRANCH   2  12
DOCKED: ATOM     12  C   UNL     1     -48.545 -19.142  15.935 -0.04 +0.00    +0.038 C  
DOCKED: BRANCH  12  13
DOCKED: ATOM     13  C   UNL     1     -48.334 -20.539  16.515 -0.04 +0.00    +0.038 C  
DOCKED: BRANCH  13  14
DOCKED: ATOM     14  C   UNL     1     -46.855 -20.921  16.504 -0.03 +0.00    +0.251 C  
DOCKED: BRANCH  14  15
DOCKED: ATOM     15  N   UNL     1     -46.594 -21.912  15.467 -0.12 +0.00    +0.141 N  
DOCKED: ATOM     16  C   UNL     1     -45.155 -22.127  15.309 -0.11 +0.00    +0.285 C  
DOCKED: ATOM     17  C   UNL     1     -47.265 -23.175  15.781 -0.10 +0.00    +0.285 C  
DOCKED: ENDBRANCH  14  15
DOCKED: ENDBRANCH  13  14
DOCKED: ENDBRANCH  12  13
DOCKED: ENDBRANCH   2  12
DOCKED: BRANCH   2  18
DOCKED: ATOM     18  C   UNL     1     -49.968 -18.123  14.167 -0.14 +0.00    +0.006 A  
DOCKED: ATOM     19  C   UNL     1     -50.571 -17.410  15.202 -0.05 +0.00    +0.001 A  
DOCKED: ATOM     20  C   UNL     1     -51.486 -16.397  14.909 -0.04 +0.00    +0.029 A  
DOCKED: ATOM     21  C   UNL     1     -51.795 -16.100  13.582 -0.08 +0.00    +0.140 A  
DOCKED: ATOM     22  C   UNL     1     -51.191 -16.813  12.548 -0.12 +0.00    +0.029 A  
DOCKED: ATOM     23  F   UNL     1     -52.672 -15.127  13.301 +0.01 -0.00    -0.204 F  
DOCKED: ATOM     24  C   UNL     1     -50.277 -17.827  12.840 -0.16 +0.00    +0.001 A  
DOCKED: ENDBRANCH   2  18
DOCKED: TORSDOF 5
DOCKED: TER
DOCKED: ENDMDL
________________________________________________________________________________


    FINAL DOCKED STATE:
    ________________________


Run:   255 / 512
Time taken for this run:   0.002s

DOCKED: MODEL        255
DOCKED: USER    Run = 255
DOCKED: USER
DOCKED: USER    Estimated Free Energy of Binding    =  -3.88 kcal/mol  [=(1)+(2)+(3)-(4)]
DOCKED: USER
DOCKED: USER    (1) Final Intermolecular Energy     =  -5.38 kcal/mol
DOCKED: USER        vdW + Hbond + desolv Energy     =  -5.38 kcal/mol
DOCKED: USER        Electrostatic Energy            =  +0.00 kcal/mol
DOCKED: USER        Moving Ligand-Fixed Receptor    =  -5.38 kcal/mol
DOCKED: USER        Moving Ligand-Moving Receptor   =  +0.00 kcal/mol
DOCKED: USER    (2) Final Total Internal Energy     =  -0.78 kcal/mol
DOCKED: USER    (3) Torsional Free Energy           =  +1.49 kcal/mol
DOCKED: USER    (4) Unbound System's Energy         =  -0.78 kcal/mol
DOCKED: USER
DOCKED: USER
DOCKED: REMARK  5 active torsions:
DOCKED: REMARK  status: ('A' for Active; 'I' for Inactive)
DOCKED: REMARK    1  A    between atoms: C_2  and  C_19 
DOCKED: REMARK    2  A    between atoms: C_2  and  C_11 
DOCKED: REMARK    3  A    between atoms: C_19  and  C_20 
DOCKED: REMARK    4  A    between atoms: C_20  and  C_21 
DOCKED: REMARK    5  A    between atoms: C_21  and  N_22 
DOCKED: USER                              x       y       z     vdW  Elec       q    Type
DOCKED: USER                           _______ _______ _______ _____ _____    ______ ____
DOCKED: ROOT
DOCKED: ATOM      1  O   UNL     1     -41.131 -21.620   5.700 -0.01 -0.00    -0.346 OA 
DOCKED: ATOM      2  C   UNL     1     -41.389 -20.822   6.899 -0.07 +0.00    +0.130 C  
DOCKED: ATOM      3  C   UNL     1     -41.771 -21.840   7.934 -0.13 +0.00    +0.004 A  
DOCKED: ATOM      4  C   UNL     1     -41.637 -23.116   7.405 -0.16 +0.00    +0.006 A  
DOCKED: ATOM      5  C   UNL     1     -41.151 -23.033   6.010 -0.08 +0.00    +0.169 C  
DOCKED: ATOM      6  C   UNL     1     -42.194 -21.653   9.242 -0.18 -0.00    -0.001 A  
DOCKED: ATOM      7  C   UNL     1     -41.922 -24.242   8.159 -0.25 +0.00    +0.008 A  
DOCKED: ATOM      8  C   UNL     1     -42.489 -22.778  10.013 -0.22 +0.00    +0.010 A  
DOCKED: ATOM      9  C   UNL     1     -42.353 -24.066   9.474 -0.30 +0.00    +0.068 A  
DOCKED: ATOM     10  N   UNL     1     -42.905 -26.134  10.935 -2.67 -0.00    -0.191 NA 
DOCKED: ATOM     11  C   UNL     1     -42.658 -25.206  10.279 -0.32 +0.00    +0.101 C  
DOCKED: ENDROOT
DOCKED: BRANCH   2  12
DOCKED: ATOM     12  C   UNL     1     -40.117 -20.062   7.256 -0.02 +0.00    +0.038 C  
DOCKED: BRANCH  12  13
DOCKED: ATOM     13  C   UNL     1     -39.451 -20.645   8.501 -0.02 +0.00    +0.038 C  
DOCKED: BRANCH  13  14
DOCKED: ATOM     14  C   UNL     1     -38.127 -19.942   8.797 -0.00 +0.00    +0.251 C  
DOCKED: BRANCH  14  15
DOCKED: ATOM     15  N   UNL     1     -37.919 -19.837  10.236 -0.00 +0.00    +0.141 N  
DOCKED: ATOM     16  C   UNL     1     -37.051 -20.915  10.712 +0.00 +0.00    +0.285 C  
DOCKED: ATOM     17  C   UNL     1     -37.346 -18.534  10.580 +0.00 +0.00    +0.285 C  
DOCKED: ENDBRANCH  14  15
DOCKED: ENDBRANCH  13  14
DOCKED: ENDBRANCH  12  13
DOCKED: ENDBRANCH   2  12
DOCKED: BRANCH   2  18
DOCKED: ATOM     18  C   UNL     1     -42.501 -19.883   6.568 -0.13 +0.00    +0.006 A  
DOCKED: ATOM     19  C   UNL     1     -43.331 -19.401   7.579 -0.14 +0.00    +0.001 A  
DOCKED: ATOM     20  C   UNL     1     -44.371 -18.525   7.268 -0.17 +0.00    +0.029 A  
DOCKED: ATOM     21  C   UNL     1     -44.579 -18.131   5.947 -0.10 +0.00    +0.140 A  
DOCKED: ATOM     22  C   UNL     1     -43.748 -18.613   4.935 -0.20 +0.00    +0.029 A  
DOCKED: ATOM     23  F   UNL     1     -45.576 -17.288   5.648 -0.07 -0.00    -0.204 F  
DOCKED: ATOM     24  C   UNL     1     -42.708 -19.491   5.246 -0.16 +0.00    +0.001 A  
DOCKED: ENDBRANCH   2  18
DOCKED: TORSDOF 5
DOCKED: TER
DOCKED: ENDMDL
________________________________________________________________________________


    FINAL DOCKED STATE:
    ________________________


Run:   256 / 512
Time taken for this run:   0.002s

DOCKED: MODEL        256
DOCKED: USER    Run = 256
DOCKED: USER
DOCKED: USER    Estimated Free Energy of Binding    =  -4.33 kcal/mol  [=(1)+(2)+(3)-(4)]
DOCKED: USER
DOCKED: USER    (1) Final Intermolecular Energy     =  -5.82 kcal/mol
DOCKED: USER        vdW + Hbond + desolv Energy     =  -5.82 kcal/mol
DOCKED: USER        Electrostatic Energy            =  +0.00 kcal/mol
DOCKED: USER        Moving Ligand-Fixed Receptor    =  -5.82 kcal/mol
DOCKED: USER        Moving Ligand-Moving Receptor   =  +0.00 kcal/mol
DOCKED: USER    (2) Final Total Internal Energy     =  -1.60 kcal/mol
DOCKED: USER    (3) Torsional Free Energy           =  +1.49 kcal/mol
DOCKED: USER    (4) Unbound System's Energy         =  -1.60 kcal/mol
DOCKED: USER
DOCKED: USER
DOCKED: REMARK  5 active torsions:
DOCKED: REMARK  status: ('A' for Active; 'I' for Inactive)
DOCKED: REMARK    1  A    between atoms: C_2  and  C_19 
DOCKED: REMARK    2  A    between atoms: C_2  and  C_11 
DOCKED: REMARK    3  A    between atoms: C_19  and  C_20 
DOCKED: REMARK    4  A    between atoms: C_20  and  C_21 
DOCKED: REMARK    5  A    between atoms: C_21  and  N_22 
DOCKED: USER                              x       y       z     vdW  Elec       q    Type
DOCKED: USER                           _______ _______ _______ _____ _____    ______ ____
DOCKED: ROOT
DOCKED: ATOM      1  O   UNL     1     -45.761 -15.927   7.262 -0.07 -0.00    -0.346 OA 
DOCKED: ATOM      2  C   UNL     1     -44.505 -15.525   6.628 -0.14 +0.00    +0.130 C  
DOCKED: ATOM      3  C   UNL     1     -44.943 -14.706   5.448 -0.23 +0.00    +0.004 A  
DOCKED: ATOM      4  C   UNL     1     -46.323 -14.559   5.469 -0.29 +0.00    +0.006 A  
DOCKED: ATOM      5  C   UNL     1     -46.884 -15.249   6.651 -0.19 +0.00    +0.169 C  
DOCKED: ATOM      6  C   UNL     1     -44.181 -14.127   4.444 -0.18 -0.00    -0.001 A  
DOCKED: ATOM      7  C   UNL     1     -46.985 -13.837   4.490 -0.32 +0.00    +0.008 A  
DOCKED: ATOM      8  C   UNL     1     -44.834 -13.400   3.448 -0.26 +0.00    +0.010 A  
DOCKED: ATOM      9  C   UNL     1     -46.229 -13.255   3.471 -0.32 +0.00    +0.068 A  
DOCKED: ATOM     10  N   UNL     1     -47.411 -11.895   1.610 -2.33 -0.00    -0.191 NA 
DOCKED: ATOM     11  C   UNL     1     -46.881 -12.505   2.444 -0.38 +0.00    +0.101 C  
DOCKED: ENDROOT
DOCKED: BRANCH   2  12
DOCKED: ATOM     12  C   UNL     1     -43.690 -14.724   7.636 -0.15 +0.00    +0.038 C  
DOCKED: BRANCH  12  13
DOCKED: ATOM     13  C   UNL     1     -44.289 -14.820   9.038 -0.15 +0.00    +0.038 C  
DOCKED: BRANCH  13  14
DOCKED: ATOM     14  C   UNL     1     -43.714 -16.012   9.801 -0.03 +0.00    +0.251 C  
DOCKED: BRANCH  14  15
DOCKED: ATOM     15  N   UNL     1     -44.327 -17.252   9.340 -0.05 +0.00    +0.141 N  
DOCKED: ATOM     16  C   UNL     1     -43.381 -18.364   9.442 -0.04 +0.00    +0.285 C  
DOCKED: ATOM     17  C   UNL     1     -45.539 -17.545  10.108 -0.06 +0.00    +0.285 C  
DOCKED: ENDBRANCH  14  15
DOCKED: ENDBRANCH  13  14
DOCKED: ENDBRANCH  12  13
DOCKED: ENDBRANCH   2  12
DOCKED: BRANCH   2  18
DOCKED: ATOM     18  C   UNL     1     -43.795 -16.777   6.234 -0.10 +0.00    +0.006 A  
DOCKED: ATOM     19  C   UNL     1     -44.520 -17.868   5.757 -0.18 +0.00    +0.001 A  
DOCKED: ATOM     20  C   UNL     1     -43.854 -19.039   5.390 -0.18 +0.00    +0.029 A  
DOCKED: ATOM     21  C   UNL     1     -42.467 -19.116   5.500 -0.09 +0.00    +0.140 A  
DOCKED: ATOM     22  C   UNL     1     -41.742 -18.024   5.977 -0.02 +0.00    +0.029 A  
DOCKED: ATOM     23  F   UNL     1     -41.828 -20.239   5.145 -0.04 -0.00    -0.204 F  
DOCKED: ATOM     24  C   UNL     1     -42.407 -16.853   6.345 -0.03 +0.00    +0.001 A  
DOCKED: ENDBRANCH   2  18
DOCKED: TORSDOF 5
DOCKED: TER
DOCKED: ENDMDL
________________________________________________________________________________


    FINAL DOCKED STATE:
    ________________________


Run:   257 / 512
Time taken for this run:   0.002s

DOCKED: MODEL        257
DOCKED: USER    Run = 257
DOCKED: USER
DOCKED: USER    Estimated Free Energy of Binding    =  -3.85 kcal/mol  [=(1)+(2)+(3)-(4)]
DOCKED: USER
DOCKED: USER    (1) Final Intermolecular Energy     =  -5.34 kcal/mol
DOCKED: USER        vdW + Hbond + desolv Energy     =  -5.34 kcal/mol
DOCKED: USER        Electrostatic Energy            =  +0.00 kcal/mol
DOCKED: USER        Moving Ligand-Fixed Receptor    =  -5.34 kcal/mol
DOCKED: USER        Moving Ligand-Moving Receptor   =  +0.00 kcal/mol
DOCKED: USER    (2) Final Total Internal Energy     =  -1.40 kcal/mol
DOCKED: USER    (3) Torsional Free Energy           =  +1.49 kcal/mol
DOCKED: USER    (4) Unbound System's Energy         =  -1.40 kcal/mol
DOCKED: USER
DOCKED: USER
DOCKED: REMARK  5 active torsions:
DOCKED: REMARK  status: ('A' for Active; 'I' for Inactive)
DOCKED: REMARK    1  A    between atoms: C_2  and  C_19 
DOCKED: REMARK    2  A    between atoms: C_2  and  C_11 
DOCKED: REMARK    3  A    between atoms: C_19  and  C_20 
DOCKED: REMARK    4  A    between atoms: C_20  and  C_21 
DOCKED: REMARK    5  A    between atoms: C_21  and  N_22 
DOCKED: USER                              x       y       z     vdW  Elec       q    Type
DOCKED: USER                           _______ _______ _______ _____ _____    ______ ____
DOCKED: ROOT
DOCKED: ATOM      1  O   UNL     1     -46.921 -19.578  14.258 -0.05 -0.00    -0.346 OA 
DOCKED: ATOM      2  C   UNL     1     -46.574 -20.662  15.177 -0.11 +0.00    +0.130 C  
DOCKED: ATOM      3  C   UNL     1     -47.360 -21.834  14.665 -0.20 +0.00    +0.004 A  
DOCKED: ATOM      4  C   UNL     1     -48.012 -21.481  13.492 -0.26 +0.00    +0.006 A  
DOCKED: ATOM      5  C   UNL     1     -47.698 -20.078  13.144 -0.18 +0.00    +0.169 C  
DOCKED: ATOM      6  C   UNL     1     -47.480 -23.113  15.189 -0.23 -0.00    -0.001 A  
DOCKED: ATOM      7  C   UNL     1     -48.805 -22.387  12.808 -0.34 +0.00    +0.008 A  
DOCKED: ATOM      8  C   UNL     1     -48.279 -24.036  14.513 -0.30 +0.00    +0.010 A  
DOCKED: ATOM      9  C   UNL     1     -48.938 -23.675  13.329 -0.30 +0.00    +0.068 A  
DOCKED: ATOM     10  N   UNL     1     -50.410 -25.416  12.097 -2.56 -0.00    -0.191 NA 
DOCKED: ATOM     11  C   UNL     1     -49.750 -24.635  12.650 -0.34 +0.00    +0.101 C  
DOCKED: ENDROOT
DOCKED: BRANCH   2  12
DOCKED: ATOM     12  C   UNL     1     -45.067 -20.885  15.114 -0.13 +0.00    +0.038 C  
DOCKED: BRANCH  12  13
DOCKED: ATOM     13  C   UNL     1     -44.304 -19.707  15.716 -0.05 +0.00    +0.038 C  
DOCKED: BRANCH  13  14
DOCKED: ATOM     14  C   UNL     1     -43.610 -18.889  14.628 -0.03 +0.00    +0.251 C  
DOCKED: BRANCH  14  15
DOCKED: ATOM     15  N   UNL     1     -44.359 -18.966  13.380 -0.08 +0.00    +0.141 N  
DOCKED: ATOM     16  C   UNL     1     -44.843 -17.642  12.985 -0.04 +0.00    +0.285 C  
DOCKED: ATOM     17  C   UNL     1     -43.533 -19.541  12.317 -0.06 +0.00    +0.285 C  
DOCKED: ENDBRANCH  14  15
DOCKED: ENDBRANCH  13  14
DOCKED: ENDBRANCH  12  13
DOCKED: ENDBRANCH   2  12
DOCKED: BRANCH   2  18
DOCKED: ATOM     18  C   UNL     1     -46.997 -20.229  16.541 -0.03 +0.00    +0.006 A  
DOCKED: ATOM     19  C   UNL     1     -46.726 -21.038  17.644 -0.03 +0.00    +0.001 A  
DOCKED: ATOM     20  C   UNL     1     -47.122 -20.632  18.919 -0.01 +0.00    +0.029 A  
DOCKED: ATOM     21  C   UNL     1     -47.788 -19.420  19.089 -0.00 +0.00    +0.140 A  
DOCKED: ATOM     22  C   UNL     1     -48.059 -18.611  17.986 -0.00 +0.00    +0.029 A  
DOCKED: ATOM     23  F   UNL     1     -48.167 -19.029  20.313 +0.00 -0.00    -0.204 F  
DOCKED: ATOM     24  C   UNL     1     -47.663 -19.016  16.710 -0.02 +0.00    +0.001 A  
DOCKED: ENDBRANCH   2  18
DOCKED: TORSDOF 5
DOCKED: TER
DOCKED: ENDMDL
________________________________________________________________________________


    FINAL DOCKED STATE:
    ________________________


Run:   258 / 512
Time taken for this run:   0.002s

DOCKED: MODEL        258
DOCKED: USER    Run = 258
DOCKED: USER
DOCKED: USER    Estimated Free Energy of Binding    =  -4.74 kcal/mol  [=(1)+(2)+(3)-(4)]
DOCKED: USER
DOCKED: USER    (1) Final Intermolecular Energy     =  -6.23 kcal/mol
DOCKED: USER        vdW + Hbond + desolv Energy     =  -6.23 kcal/mol
DOCKED: USER        Electrostatic Energy            =  +0.00 kcal/mol
DOCKED: USER        Moving Ligand-Fixed Receptor    =  -6.23 kcal/mol
DOCKED: USER        Moving Ligand-Moving Receptor   =  +0.00 kcal/mol
DOCKED: USER    (2) Final Total Internal Energy     =  -0.94 kcal/mol
DOCKED: USER    (3) Torsional Free Energy           =  +1.49 kcal/mol
DOCKED: USER    (4) Unbound System's Energy         =  -0.94 kcal/mol
DOCKED: USER
DOCKED: USER
DOCKED: REMARK  5 active torsions:
DOCKED: REMARK  status: ('A' for Active; 'I' for Inactive)
DOCKED: REMARK    1  A    between atoms: C_2  and  C_19 
DOCKED: REMARK    2  A    between atoms: C_2  and  C_11 
DOCKED: REMARK    3  A    between atoms: C_19  and  C_20 
DOCKED: REMARK    4  A    between atoms: C_20  and  C_21 
DOCKED: REMARK    5  A    between atoms: C_21  and  N_22 
DOCKED: USER                              x       y       z     vdW  Elec       q    Type
DOCKED: USER                           _______ _______ _______ _____ _____    ______ ____
DOCKED: ROOT
DOCKED: ATOM      1  O   UNL     1     -45.508 -21.368  15.214 -0.08 -0.00    -0.346 OA 
DOCKED: ATOM      2  C   UNL     1     -46.470 -20.488  14.549 -0.13 +0.00    +0.130 C  
DOCKED: ATOM      3  C   UNL     1     -47.442 -21.437  13.909 -0.21 +0.00    +0.004 A  
DOCKED: ATOM      4  C   UNL     1     -47.127 -22.740  14.268 -0.22 +0.00    +0.006 A  
DOCKED: ATOM      5  C   UNL     1     -45.952 -22.744  15.167 -0.18 +0.00    +0.169 C  
DOCKED: ATOM      6  C   UNL     1     -48.524 -21.168  13.084 -0.27 -0.00    -0.001 A  
DOCKED: ATOM      7  C   UNL     1     -47.876 -23.813  13.815 -0.35 +0.00    +0.008 A  
DOCKED: ATOM      8  C   UNL     1     -49.286 -22.239  12.615 -0.32 +0.00    +0.010 A  
DOCKED: ATOM      9  C   UNL     1     -48.964 -23.555  12.980 -0.31 +0.00    +0.068 A  
DOCKED: ATOM     10  N   UNL     1     -50.402 -25.520  12.096 -2.56 -0.00    -0.191 NA 
DOCKED: ATOM     11  C   UNL     1     -49.757 -24.639  12.492 -0.37 +0.00    +0.101 C  
DOCKED: ENDROOT
DOCKED: BRANCH   2  12
DOCKED: ATOM     12  C   UNL     1     -47.117 -19.597  15.602 -0.06 +0.00    +0.038 C  
DOCKED: BRANCH  12  13
DOCKED: ATOM     13  C   UNL     1     -48.018 -18.543  14.962 -0.07 +0.00    +0.038 C  
DOCKED: BRANCH  13  14
DOCKED: ATOM     14  C   UNL     1     -49.469 -18.715  15.409 -0.03 +0.00    +0.251 C  
DOCKED: BRANCH  14  15
DOCKED: ATOM     15  N   UNL     1     -50.378 -18.388  14.317 -0.10 +0.00    +0.141 N  
DOCKED: ATOM     16  C   UNL     1     -49.631 -17.966  13.132 -0.13 +0.00    +0.285 C  
DOCKED: ATOM     17  C   UNL     1     -51.231 -19.534  13.997 -0.15 +0.00    +0.285 C  
DOCKED: ENDBRANCH  14  15
DOCKED: ENDBRANCH  13  14
DOCKED: ENDBRANCH  12  13
DOCKED: ENDBRANCH   2  12
DOCKED: BRANCH   2  18
DOCKED: ATOM     18  C   UNL     1     -45.706 -19.679  13.555 -0.13 +0.00    +0.006 A  
DOCKED: ATOM     19  C   UNL     1     -46.384 -18.835  12.676 -0.15 +0.00    +0.001 A  
DOCKED: ATOM     20  C   UNL     1     -45.668 -18.079  11.746 -0.12 +0.00    +0.029 A  
DOCKED: ATOM     21  C   UNL     1     -44.278 -18.168  11.697 -0.08 +0.00    +0.140 A  
DOCKED: ATOM     22  C   UNL     1     -43.601 -19.013  12.577 -0.09 +0.00    +0.029 A  
DOCKED: ATOM     23  F   UNL     1     -43.592 -17.441  10.806 -0.00 -0.00    -0.204 F  
DOCKED: ATOM     24  C   UNL     1     -44.316 -19.770  13.507 -0.10 +0.00    +0.001 A  
DOCKED: ENDBRANCH   2  18
DOCKED: TORSDOF 5
DOCKED: TER
DOCKED: ENDMDL
________________________________________________________________________________


    FINAL DOCKED STATE:
    ________________________


Run:   259 / 512
Time taken for this run:   0.002s

DOCKED: MODEL        259
DOCKED: USER    Run = 259
DOCKED: USER
DOCKED: USER    Estimated Free Energy of Binding    =  -5.33 kcal/mol  [=(1)+(2)+(3)-(4)]
DOCKED: USER
DOCKED: USER    (1) Final Intermolecular Energy     =  -6.82 kcal/mol
DOCKED: USER        vdW + Hbond + desolv Energy     =  -6.82 kcal/mol
DOCKED: USER        Electrostatic Energy            =  +0.00 kcal/mol
DOCKED: USER        Moving Ligand-Fixed Receptor    =  -6.82 kcal/mol
DOCKED: USER        Moving Ligand-Moving Receptor   =  +0.00 kcal/mol
DOCKED: USER    (2) Final Total Internal Energy     =  -1.49 kcal/mol
DOCKED: USER    (3) Torsional Free Energy           =  +1.49 kcal/mol
DOCKED: USER    (4) Unbound System's Energy         =  -1.49 kcal/mol
DOCKED: USER
DOCKED: USER
DOCKED: REMARK  5 active torsions:
DOCKED: REMARK  status: ('A' for Active; 'I' for Inactive)
DOCKED: REMARK    1  A    between atoms: C_2  and  C_19 
DOCKED: REMARK    2  A    between atoms: C_2  and  C_11 
DOCKED: REMARK    3  A    between atoms: C_19  and  C_20 
DOCKED: REMARK    4  A    between atoms: C_20  and  C_21 
DOCKED: REMARK    5  A    between atoms: C_21  and  N_22 
DOCKED: USER                              x       y       z     vdW  Elec       q    Type
DOCKED: USER                           _______ _______ _______ _____ _____    ______ ____
DOCKED: ROOT
DOCKED: ATOM      1  O   UNL     1     -48.528 -21.552  14.828 -0.03 -0.00    -0.346 OA 
DOCKED: ATOM      2  C   UNL     1     -48.702 -23.002  14.917 -0.17 +0.00    +0.130 C  
DOCKED: ATOM      3  C   UNL     1     -49.107 -23.402  13.528 -0.30 +0.00    +0.004 A  
DOCKED: ATOM      4  C   UNL     1     -49.061 -22.295  12.691 -0.33 +0.00    +0.006 A  
DOCKED: ATOM      5  C   UNL     1     -48.616 -21.107  13.454 -0.23 +0.00    +0.169 C  
DOCKED: ATOM      6  C   UNL     1     -49.476 -24.647  13.041 -0.22 -0.00    -0.001 A  
DOCKED: ATOM      7  C   UNL     1     -49.383 -22.393  11.349 +0.08 +0.00    +0.008 A  
DOCKED: ATOM      8  C   UNL     1     -49.809 -24.761  11.690 -0.48 +0.00    +0.010 A  
DOCKED: ATOM      9  C   UNL     1     -49.762 -23.639  10.848 -0.41 +0.00    +0.068 A  
DOCKED: ATOM     10  N   UNL     1     -50.380 -23.887   8.344 -3.12 -0.00    -0.191 NA 
DOCKED: ATOM     11  C   UNL     1     -50.103 -23.776   9.467 -0.42 +0.00    +0.101 C  
DOCKED: ENDROOT
DOCKED: BRANCH   2  12
DOCKED: ATOM     12  C   UNL     1     -47.379 -23.622  15.351 -0.22 +0.00    +0.038 C  
DOCKED: BRANCH  12  13
DOCKED: ATOM     13  C   UNL     1     -46.223 -22.637  15.188 -0.23 +0.00    +0.038 C  
DOCKED: BRANCH  13  14
DOCKED: ATOM     14  C   UNL     1     -45.803 -22.055  16.537 -0.07 +0.00    +0.251 C  
DOCKED: BRANCH  14  15
DOCKED: ATOM     15  N   UNL     1     -46.977 -21.654  17.304 -0.04 +0.00    +0.141 N  
DOCKED: ATOM     16  C   UNL     1     -46.778 -21.922  18.729 -0.02 +0.00    +0.285 C  
DOCKED: ATOM     17  C   UNL     1     -47.272 -20.236  17.090 -0.01 +0.00    +0.285 C  
DOCKED: ENDBRANCH  14  15
DOCKED: ENDBRANCH  13  14
DOCKED: ENDBRANCH  12  13
DOCKED: ENDBRANCH   2  12
DOCKED: BRANCH   2  18
DOCKED: ATOM     18  C   UNL     1     -49.771 -23.251  15.929 -0.12 +0.00    +0.006 A  
DOCKED: ATOM     19  C   UNL     1     -49.543 -24.139  16.979 -0.17 +0.00    +0.001 A  
DOCKED: ATOM     20  C   UNL     1     -50.543 -24.372  17.924 -0.13 +0.00    +0.029 A  
DOCKED: ATOM     21  C   UNL     1     -51.769 -23.716  17.818 -0.05 +0.00    +0.140 A  
DOCKED: ATOM     22  C   UNL     1     -51.996 -22.828  16.767 -0.06 +0.00    +0.029 A  
DOCKED: ATOM     23  F   UNL     1     -52.728 -23.938  18.726 +0.01 -0.00    -0.204 F  
DOCKED: ATOM     24  C   UNL     1     -50.996 -22.595  15.821 -0.09 +0.00    +0.001 A  
DOCKED: ENDBRANCH   2  18
DOCKED: TORSDOF 5
DOCKED: TER
DOCKED: ENDMDL
________________________________________________________________________________


    FINAL DOCKED STATE:
    ________________________


Run:   260 / 512
Time taken for this run:   0.002s

DOCKED: MODEL        260
DOCKED: USER    Run = 260
DOCKED: USER
DOCKED: USER    Estimated Free Energy of Binding    =  -4.16 kcal/mol  [=(1)+(2)+(3)-(4)]
DOCKED: USER
DOCKED: USER    (1) Final Intermolecular Energy     =  -5.66 kcal/mol
DOCKED: USER        vdW + Hbond + desolv Energy     =  -5.66 kcal/mol
DOCKED: USER        Electrostatic Energy            =  +0.00 kcal/mol
DOCKED: USER        Moving Ligand-Fixed Receptor    =  -5.66 kcal/mol
DOCKED: USER        Moving Ligand-Moving Receptor   =  +0.00 kcal/mol
DOCKED: USER    (2) Final Total Internal Energy     =  -1.20 kcal/mol
DOCKED: USER    (3) Torsional Free Energy           =  +1.49 kcal/mol
DOCKED: USER    (4) Unbound System's Energy         =  -1.20 kcal/mol
DOCKED: USER
DOCKED: USER
DOCKED: REMARK  5 active torsions:
DOCKED: REMARK  status: ('A' for Active; 'I' for Inactive)
DOCKED: REMARK    1  A    between atoms: C_2  and  C_19 
DOCKED: REMARK    2  A    between atoms: C_2  and  C_11 
DOCKED: REMARK    3  A    between atoms: C_19  and  C_20 
DOCKED: REMARK    4  A    between atoms: C_20  and  C_21 
DOCKED: REMARK    5  A    between atoms: C_21  and  N_22 
DOCKED: USER                              x       y       z     vdW  Elec       q    Type
DOCKED: USER                           _______ _______ _______ _____ _____    ______ ____
DOCKED: ROOT
DOCKED: ATOM      1  O   UNL     1     -40.666 -23.866   4.629 -0.02 -0.00    -0.346 OA 
DOCKED: ATOM      2  C   UNL     1     -40.632 -22.722   5.540 -0.10 +0.00    +0.130 C  
DOCKED: ATOM      3  C   UNL     1     -41.136 -23.282   6.839 -0.13 +0.00    +0.004 A  
DOCKED: ATOM      4  C   UNL     1     -41.335 -24.649   6.712 -0.17 +0.00    +0.006 A  
DOCKED: ATOM      5  C   UNL     1     -40.971 -25.085   5.346 -0.07 +0.00    +0.169 C  
DOCKED: ATOM      6  C   UNL     1     -41.387 -22.634   8.040 -0.13 -0.00    -0.001 A  
DOCKED: ATOM      7  C   UNL     1     -41.794 -25.412   7.772 -0.29 +0.00    +0.008 A  
DOCKED: ATOM      8  C   UNL     1     -41.854 -23.389   9.118 -0.23 +0.00    +0.010 A  
DOCKED: ATOM      9  C   UNL     1     -42.055 -24.771   8.984 -0.30 +0.00    +0.068 A  
DOCKED: ATOM     10  N   UNL     1     -42.918 -26.143  11.006 -2.67 -0.00    -0.191 NA 
DOCKED: ATOM     11  C   UNL     1     -42.532 -25.528  10.099 -0.41 +0.00    +0.101 C  
DOCKED: ENDROOT
DOCKED: BRANCH   2  12
DOCKED: ATOM     12  C   UNL     1     -39.197 -22.217   5.629 -0.02 +0.00    +0.038 C  
DOCKED: BRANCH  12  13
DOCKED: ATOM     13  C   UNL     1     -38.261 -23.295   6.172 -0.02 +0.00    +0.038 C  
DOCKED: BRANCH  13  14
DOCKED: ATOM     14  C   UNL     1     -37.227 -23.704   5.125 -0.00 +0.00    +0.251 C  
DOCKED: BRANCH  14  15
DOCKED: ATOM     15  N   UNL     1     -37.672 -24.897   4.413 -0.01 +0.00    +0.141 N  
DOCKED: ATOM     16  C   UNL     1     -38.273 -24.536   3.128 -0.01 +0.00    +0.285 C  
DOCKED: ATOM     17  C   UNL     1     -36.556 -25.822   4.209 -0.00 +0.00    +0.285 C  
DOCKED: ENDBRANCH  14  15
DOCKED: ENDBRANCH  13  14
DOCKED: ENDBRANCH  12  13
DOCKED: ENDBRANCH   2  12
DOCKED: BRANCH   2  18
DOCKED: ATOM     18  C   UNL     1     -41.534 -21.680   4.967 -0.10 +0.00    +0.006 A  
DOCKED: ATOM     19  C   UNL     1     -42.090 -20.707   5.796 -0.13 +0.00    +0.001 A  
DOCKED: ATOM     20  C   UNL     1     -42.933 -19.734   5.259 -0.18 +0.00    +0.029 A  
DOCKED: ATOM     21  C   UNL     1     -43.220 -19.735   3.894 -0.20 +0.00    +0.140 A  
DOCKED: ATOM     22  C   UNL     1     -42.664 -20.710   3.066 -0.21 +0.00    +0.029 A  
DOCKED: ATOM     23  F   UNL     1     -44.028 -18.800   3.378 -0.12 -0.00    -0.204 F  
DOCKED: ATOM     24  C   UNL     1     -41.820 -21.684   3.602 -0.14 +0.00    +0.001 A  
DOCKED: ENDBRANCH   2  18
DOCKED: TORSDOF 5
DOCKED: TER
DOCKED: ENDMDL
________________________________________________________________________________


    FINAL DOCKED STATE:
    ________________________


Run:   261 / 512
Time taken for this run:   0.002s

DOCKED: MODEL        261
DOCKED: USER    Run = 261
DOCKED: USER
DOCKED: USER    Estimated Free Energy of Binding    =  -3.77 kcal/mol  [=(1)+(2)+(3)-(4)]
DOCKED: USER
DOCKED: USER    (1) Final Intermolecular Energy     =  -5.26 kcal/mol
DOCKED: USER        vdW + Hbond + desolv Energy     =  -5.26 kcal/mol
DOCKED: USER        Electrostatic Energy            =  +0.00 kcal/mol
DOCKED: USER        Moving Ligand-Fixed Receptor    =  -5.26 kcal/mol
DOCKED: USER        Moving Ligand-Moving Receptor   =  +0.00 kcal/mol
DOCKED: USER    (2) Final Total Internal Energy     =  -1.25 kcal/mol
DOCKED: USER    (3) Torsional Free Energy           =  +1.49 kcal/mol
DOCKED: USER    (4) Unbound System's Energy         =  -1.25 kcal/mol
DOCKED: USER
DOCKED: USER
DOCKED: REMARK  5 active torsions:
DOCKED: REMARK  status: ('A' for Active; 'I' for Inactive)
DOCKED: REMARK    1  A    between atoms: C_2  and  C_19 
DOCKED: REMARK    2  A    between atoms: C_2  and  C_11 
DOCKED: REMARK    3  A    between atoms: C_19  and  C_20 
DOCKED: REMARK    4  A    between atoms: C_20  and  C_21 
DOCKED: REMARK    5  A    between atoms: C_21  and  N_22 
DOCKED: USER                              x       y       z     vdW  Elec       q    Type
DOCKED: USER                           _______ _______ _______ _____ _____    ______ ____
DOCKED: ROOT
DOCKED: ATOM      1  O   UNL     1     -40.835 -25.378   4.551 -0.01 -0.00    -0.346 OA 
DOCKED: ATOM      2  C   UNL     1     -40.339 -24.224   5.302 -0.09 +0.00    +0.130 C  
DOCKED: ATOM      3  C   UNL     1     -40.853 -24.453   6.694 -0.14 +0.00    +0.004 A  
DOCKED: ATOM      4  C   UNL     1     -41.492 -25.683   6.760 -0.23 +0.00    +0.006 A  
DOCKED: ATOM      5  C   UNL     1     -41.435 -26.350   5.439 -0.11 +0.00    +0.169 C  
DOCKED: ATOM      6  C   UNL     1     -40.753 -23.643   7.816 -0.11 -0.00    -0.001 A  
DOCKED: ATOM      7  C   UNL     1     -42.053 -26.142   7.939 -0.27 +0.00    +0.008 A  
DOCKED: ATOM      8  C   UNL     1     -41.318 -24.090   9.012 -0.21 +0.00    +0.010 A  
DOCKED: ATOM      9  C   UNL     1     -41.964 -25.333   9.073 -0.32 +0.00    +0.068 A  
DOCKED: ATOM     10  N   UNL     1     -42.998 -26.134  11.309 -2.60 -0.00    -0.191 NA 
DOCKED: ATOM     11  C   UNL     1     -42.535 -25.775  10.306 -0.34 +0.00    +0.101 C  
DOCKED: ENDROOT
DOCKED: BRANCH   2  12
DOCKED: ATOM     12  C   UNL     1     -38.817 -24.217   5.226 -0.04 +0.00    +0.038 C  
DOCKED: BRANCH  12  13
DOCKED: ATOM     13  C   UNL     1     -38.233 -22.955   5.859 -0.01 +0.00    +0.038 C  
DOCKED: BRANCH  13  14
DOCKED: ATOM     14  C   UNL     1     -37.172 -22.328   4.958 -0.00 +0.00    +0.251 C  
DOCKED: BRANCH  14  15
DOCKED: ATOM     15  N   UNL     1     -37.500 -20.935   4.681 -0.00 +0.00    +0.141 N  
DOCKED: ATOM     16  C   UNL     1     -38.205 -20.815   3.403 +0.00 +0.00    +0.285 C  
DOCKED: ATOM     17  C   UNL     1     -38.310 -20.371   5.762 +0.00 +0.00    +0.285 C  
DOCKED: ENDBRANCH  14  15
DOCKED: ENDBRANCH  13  14
DOCKED: ENDBRANCH  12  13
DOCKED: ENDBRANCH   2  12
DOCKED: BRANCH   2  18
DOCKED: ATOM     18  C   UNL     1     -40.916 -23.006   4.663 -0.10 +0.00    +0.006 A  
DOCKED: ATOM     19  C   UNL     1     -41.399 -21.965   5.455 -0.11 +0.00    +0.001 A  
DOCKED: ATOM     20  C   UNL     1     -41.939 -20.826   4.856 -0.14 +0.00    +0.029 A  
DOCKED: ATOM     21  C   UNL     1     -41.995 -20.730   3.466 -0.15 +0.00    +0.140 A  
DOCKED: ATOM     22  C   UNL     1     -41.512 -21.772   2.674 -0.15 +0.00    +0.029 A  
DOCKED: ATOM     23  F   UNL     1     -42.511 -19.636   2.891 -0.04 -0.00    -0.204 F  
DOCKED: ATOM     24  C   UNL     1     -40.972 -22.911   3.273 -0.09 +0.00    +0.001 A  
DOCKED: ENDBRANCH   2  18
DOCKED: TORSDOF 5
DOCKED: TER
DOCKED: ENDMDL
________________________________________________________________________________


    FINAL DOCKED STATE:
    ________________________


Run:   262 / 512
Time taken for this run:   0.002s

DOCKED: MODEL        262
DOCKED: USER    Run = 262
DOCKED: USER
DOCKED: USER    Estimated Free Energy of Binding    =  -4.12 kcal/mol  [=(1)+(2)+(3)-(4)]
DOCKED: USER
DOCKED: USER    (1) Final Intermolecular Energy     =  -5.61 kcal/mol
DOCKED: USER        vdW + Hbond + desolv Energy     =  -5.61 kcal/mol
DOCKED: USER        Electrostatic Energy            =  +0.00 kcal/mol
DOCKED: USER        Moving Ligand-Fixed Receptor    =  -5.61 kcal/mol
DOCKED: USER        Moving Ligand-Moving Receptor   =  +0.00 kcal/mol
DOCKED: USER    (2) Final Total Internal Energy     =  -1.42 kcal/mol
DOCKED: USER    (3) Torsional Free Energy           =  +1.49 kcal/mol
DOCKED: USER    (4) Unbound System's Energy         =  -1.42 kcal/mol
DOCKED: USER
DOCKED: USER
DOCKED: REMARK  5 active torsions:
DOCKED: REMARK  status: ('A' for Active; 'I' for Inactive)
DOCKED: REMARK    1  A    between atoms: C_2  and  C_19 
DOCKED: REMARK    2  A    between atoms: C_2  and  C_11 
DOCKED: REMARK    3  A    between atoms: C_19  and  C_20 
DOCKED: REMARK    4  A    between atoms: C_20  and  C_21 
DOCKED: REMARK    5  A    between atoms: C_21  and  N_22 
DOCKED: USER                              x       y       z     vdW  Elec       q    Type
DOCKED: USER                           _______ _______ _______ _____ _____    ______ ____
DOCKED: ROOT
DOCKED: ATOM      1  O   UNL     1     -45.671 -21.350  15.345 -0.07 -0.00    -0.346 OA 
DOCKED: ATOM      2  C   UNL     1     -46.879 -20.557  15.116 -0.10 +0.00    +0.130 C  
DOCKED: ATOM      3  C   UNL     1     -47.805 -21.508  14.415 -0.20 +0.00    +0.004 A  
DOCKED: ATOM      4  C   UNL     1     -47.221 -22.765  14.348 -0.25 +0.00    +0.006 A  
DOCKED: ATOM      5  C   UNL     1     -45.893 -22.737  15.001 -0.15 +0.00    +0.169 C  
DOCKED: ATOM      6  C   UNL     1     -49.069 -21.282  13.889 -0.23 -0.00    -0.001 A  
DOCKED: ATOM      7  C   UNL     1     -47.873 -23.832  13.753 -0.35 +0.00    +0.008 A  
DOCKED: ATOM      8  C   UNL     1     -49.737 -22.346  13.281 -0.27 +0.00    +0.010 A  
DOCKED: ATOM      9  C   UNL     1     -49.142 -23.615  13.215 -0.29 +0.00    +0.068 A  
DOCKED: ATOM     10  N   UNL     1     -50.412 -25.571  12.085 -2.55 -0.00    -0.191 NA 
DOCKED: ATOM     11  C   UNL     1     -49.842 -24.693  12.591 -0.30 +0.00    +0.101 C  
DOCKED: ENDROOT
DOCKED: BRANCH   2  12
DOCKED: ATOM     12  C   UNL     1     -47.415 -20.092  16.465 -0.04 +0.00    +0.038 C  
DOCKED: BRANCH  12  13
DOCKED: ATOM     13  C   UNL     1     -47.239 -21.169  17.534 -0.04 +0.00    +0.038 C  
DOCKED: BRANCH  13  14
DOCKED: ATOM     14  C   UNL     1     -48.514 -21.994  17.698 -0.02 +0.00    +0.251 C  
DOCKED: BRANCH  14  15
DOCKED: ATOM     15  N   UNL     1     -48.233 -23.409  17.485 -0.09 +0.00    +0.141 N  
DOCKED: ATOM     16  C   UNL     1     -46.935 -23.769  18.058 -0.08 +0.00    +0.285 C  
DOCKED: ATOM     17  C   UNL     1     -49.292 -24.238  18.064 -0.09 +0.00    +0.285 C  
DOCKED: ENDBRANCH  14  15
DOCKED: ENDBRANCH  13  14
DOCKED: ENDBRANCH  12  13
DOCKED: ENDBRANCH   2  12
DOCKED: BRANCH   2  18
DOCKED: ATOM     18  C   UNL     1     -46.485 -19.396  14.265 -0.12 +0.00    +0.006 A  
DOCKED: ATOM     19  C   UNL     1     -46.787 -18.098  14.674 -0.05 +0.00    +0.001 A  
DOCKED: ATOM     20  C   UNL     1     -46.418 -17.014  13.877 -0.04 +0.00    +0.029 A  
DOCKED: ATOM     21  C   UNL     1     -45.747 -17.229  12.674 -0.06 +0.00    +0.140 A  
DOCKED: ATOM     22  C   UNL     1     -45.444 -18.527  12.266 -0.13 +0.00    +0.029 A  
DOCKED: ATOM     23  F   UNL     1     -45.391 -16.187  11.910 -0.00 -0.00    -0.204 F  
DOCKED: ATOM     24  C   UNL     1     -45.814 -19.613  13.062 -0.09 +0.00    +0.001 A  
DOCKED: ENDBRANCH   2  18
DOCKED: TORSDOF 5
DOCKED: TER
DOCKED: ENDMDL
________________________________________________________________________________


    FINAL DOCKED STATE:
    ________________________


Run:   263 / 512
Time taken for this run:   0.002s

DOCKED: MODEL        263
DOCKED: USER    Run = 263
DOCKED: USER
DOCKED: USER    Estimated Free Energy of Binding    =  -4.35 kcal/mol  [=(1)+(2)+(3)-(4)]
DOCKED: USER
DOCKED: USER    (1) Final Intermolecular Energy     =  -5.84 kcal/mol
DOCKED: USER        vdW + Hbond + desolv Energy     =  -5.84 kcal/mol
DOCKED: USER        Electrostatic Energy            =  +0.00 kcal/mol
DOCKED: USER        Moving Ligand-Fixed Receptor    =  -5.84 kcal/mol
DOCKED: USER        Moving Ligand-Moving Receptor   =  +0.00 kcal/mol
DOCKED: USER    (2) Final Total Internal Energy     =  -0.95 kcal/mol
DOCKED: USER    (3) Torsional Free Energy           =  +1.49 kcal/mol
DOCKED: USER    (4) Unbound System's Energy         =  -0.95 kcal/mol
DOCKED: USER
DOCKED: USER
DOCKED: REMARK  5 active torsions:
DOCKED: REMARK  status: ('A' for Active; 'I' for Inactive)
DOCKED: REMARK    1  A    between atoms: C_2  and  C_19 
DOCKED: REMARK    2  A    between atoms: C_2  and  C_11 
DOCKED: REMARK    3  A    between atoms: C_19  and  C_20 
DOCKED: REMARK    4  A    between atoms: C_20  and  C_21 
DOCKED: REMARK    5  A    between atoms: C_21  and  N_22 
DOCKED: USER                              x       y       z     vdW  Elec       q    Type
DOCKED: USER                           _______ _______ _______ _____ _____    ______ ____
DOCKED: ROOT
DOCKED: ATOM      1  O   UNL     1     -47.783 -18.884  13.418 -0.07 -0.00    -0.346 OA 
DOCKED: ATOM      2  C   UNL     1     -49.108 -18.958  14.034 -0.15 +0.00    +0.130 C  
DOCKED: ATOM      3  C   UNL     1     -49.587 -20.339  13.692 -0.22 +0.00    +0.004 A  
DOCKED: ATOM      4  C   UNL     1     -48.581 -21.032  13.033 -0.25 +0.00    +0.006 A  
DOCKED: ATOM      5  C   UNL     1     -47.380 -20.176  12.908 -0.11 +0.00    +0.169 C  
DOCKED: ATOM      6  C   UNL     1     -50.811 -20.938  13.952 -0.21 -0.00    -0.001 A  
DOCKED: ATOM      7  C   UNL     1     -48.763 -22.338  12.611 -0.33 +0.00    +0.008 A  
DOCKED: ATOM      8  C   UNL     1     -51.012 -22.253  13.528 -0.22 +0.00    +0.010 A  
DOCKED: ATOM      9  C   UNL     1     -49.993 -22.949  12.862 -0.26 +0.00    +0.068 A  
DOCKED: ATOM     10  N   UNL     1     -50.396 -25.390  12.093 -2.56 -0.00    -0.191 NA 
DOCKED: ATOM     11  C   UNL     1     -50.215 -24.295  12.437 -0.36 +0.00    +0.101 C  
DOCKED: ENDROOT
DOCKED: BRANCH   2  12
DOCKED: ATOM     12  C   UNL     1     -48.956 -18.738  15.535 -0.05 +0.00    +0.038 C  
DOCKED: BRANCH  12  13
DOCKED: ATOM     13  C   UNL     1     -50.315 -18.638  16.224 -0.03 +0.00    +0.038 C  
DOCKED: BRANCH  13  14
DOCKED: ATOM     14  C   UNL     1     -50.164 -18.175  17.672 -0.00 +0.00    +0.251 C  
DOCKED: BRANCH  14  15
DOCKED: ATOM     15  N   UNL     1     -50.638 -16.804  17.818 -0.00 +0.00    +0.141 N  
DOCKED: ATOM     16  C   UNL     1     -49.690 -16.011  18.602 +0.00 +0.00    +0.285 C  
DOCKED: ATOM     17  C   UNL     1     -50.850 -16.190  16.506 -0.00 +0.00    +0.285 C  
DOCKED: ENDBRANCH  14  15
DOCKED: ENDBRANCH  13  14
DOCKED: ENDBRANCH  12  13
DOCKED: ENDBRANCH   2  12
DOCKED: BRANCH   2  18
DOCKED: ATOM     18  C   UNL     1     -49.938 -17.884  13.414 -0.19 +0.00    +0.006 A  
DOCKED: ATOM     19  C   UNL     1     -49.323 -16.784  12.818 -0.16 +0.00    +0.001 A  
DOCKED: ATOM     20  C   UNL     1     -50.100 -15.781  12.239 -0.15 +0.00    +0.029 A  
DOCKED: ATOM     21  C   UNL     1     -51.491 -15.878  12.257 -0.11 +0.00    +0.140 A  
DOCKED: ATOM     22  C   UNL     1     -52.106 -16.979  12.853 -0.16 +0.00    +0.029 A  
DOCKED: ATOM     23  F   UNL     1     -52.237 -14.916  11.699 -0.02 -0.00    -0.204 F  
DOCKED: ATOM     24  C   UNL     1     -51.329 -17.983  13.433 -0.22 +0.00    +0.001 A  
DOCKED: ENDBRANCH   2  18
DOCKED: TORSDOF 5
DOCKED: TER
DOCKED: ENDMDL
________________________________________________________________________________


    FINAL DOCKED STATE:
    ________________________


Run:   264 / 512
Time taken for this run:   0.002s

DOCKED: MODEL        264
DOCKED: USER    Run = 264
DOCKED: USER
DOCKED: USER    Estimated Free Energy of Binding    =  -3.93 kcal/mol  [=(1)+(2)+(3)-(4)]
DOCKED: USER
DOCKED: USER    (1) Final Intermolecular Energy     =  -5.42 kcal/mol
DOCKED: USER        vdW + Hbond + desolv Energy     =  -5.42 kcal/mol
DOCKED: USER        Electrostatic Energy            =  +0.00 kcal/mol
DOCKED: USER        Moving Ligand-Fixed Receptor    =  -5.42 kcal/mol
DOCKED: USER        Moving Ligand-Moving Receptor   =  +0.00 kcal/mol
DOCKED: USER    (2) Final Total Internal Energy     =  -1.25 kcal/mol
DOCKED: USER    (3) Torsional Free Energy           =  +1.49 kcal/mol
DOCKED: USER    (4) Unbound System's Energy         =  -1.25 kcal/mol
DOCKED: USER
DOCKED: USER
DOCKED: REMARK  5 active torsions:
DOCKED: REMARK  status: ('A' for Active; 'I' for Inactive)
DOCKED: REMARK    1  A    between atoms: C_2  and  C_19 
DOCKED: REMARK    2  A    between atoms: C_2  and  C_11 
DOCKED: REMARK    3  A    between atoms: C_19  and  C_20 
DOCKED: REMARK    4  A    between atoms: C_20  and  C_21 
DOCKED: REMARK    5  A    between atoms: C_21  and  N_22 
DOCKED: USER                              x       y       z     vdW  Elec       q    Type
DOCKED: USER                           _______ _______ _______ _____ _____    ______ ____
DOCKED: ROOT
DOCKED: ATOM      1  O   UNL     1     -41.554 -14.293   4.504 +0.01 -0.00    -0.346 OA 
DOCKED: ATOM      2  C   UNL     1     -42.040 -13.108   5.213 -0.07 +0.00    +0.130 C  
DOCKED: ATOM      3  C   UNL     1     -43.271 -12.713   4.450 -0.15 +0.00    +0.004 A  
DOCKED: ATOM      4  C   UNL     1     -43.529 -13.651   3.461 -0.13 +0.00    +0.006 A  
DOCKED: ATOM      5  C   UNL     1     -42.510 -14.723   3.508 -0.04 +0.00    +0.169 C  
DOCKED: ATOM      6  C   UNL     1     -44.103 -11.616   4.624 -0.19 -0.00    -0.001 A  
DOCKED: ATOM      7  C   UNL     1     -44.617 -13.525   2.614 -0.24 +0.00    +0.008 A  
DOCKED: ATOM      8  C   UNL     1     -45.202 -11.473   3.776 -0.29 +0.00    +0.010 A  
DOCKED: ATOM      9  C   UNL     1     -45.458 -12.423   2.776 -0.35 +0.00    +0.068 A  
DOCKED: ATOM     10  N   UNL     1     -47.509 -12.129   1.221 -2.52 -0.00    -0.191 NA 
DOCKED: ATOM     11  C   UNL     1     -46.589 -12.261   1.918 -0.43 +0.00    +0.101 C  
DOCKED: ENDROOT
DOCKED: BRANCH   2  12
DOCKED: ATOM     12  C   UNL     1     -42.336 -13.497   6.656 -0.13 +0.00    +0.038 C  
DOCKED: BRANCH  12  13
DOCKED: ATOM     13  C   UNL     1     -43.140 -14.794   6.730 -0.11 +0.00    +0.038 C  
DOCKED: BRANCH  13  14
DOCKED: ATOM     14  C   UNL     1     -44.628 -14.508   6.922 -0.10 +0.00    +0.251 C  
DOCKED: BRANCH  14  15
DOCKED: ATOM     15  N   UNL     1     -45.430 -15.496   6.211 -0.19 +0.00    +0.141 N  
DOCKED: ATOM     16  C   UNL     1     -44.572 -16.411   5.456 -0.13 +0.00    +0.285 C  
DOCKED: ATOM     17  C   UNL     1     -46.274 -16.244   7.144 -0.17 +0.00    +0.285 C  
DOCKED: ENDBRANCH  14  15
DOCKED: ENDBRANCH  13  14
DOCKED: ENDBRANCH  12  13
DOCKED: ENDBRANCH   2  12
DOCKED: BRANCH   2  18
DOCKED: ATOM     18  C   UNL     1     -40.958 -12.083   5.142 -0.05 +0.00    +0.006 A  
DOCKED: ATOM     19  C   UNL     1     -39.674 -12.452   4.743 -0.01 +0.00    +0.001 A  
DOCKED: ATOM     20  C   UNL     1     -38.663 -11.492   4.678 -0.01 +0.00    +0.029 A  
DOCKED: ATOM     21  C   UNL     1     -38.937 -10.167   5.012 -0.00 +0.00    +0.140 A  
DOCKED: ATOM     22  C   UNL     1     -40.221  -9.799   5.411 -0.03 +0.00    +0.029 A  
DOCKED: ATOM     23  F   UNL     1     -37.966  -9.246   4.947 +0.00 -0.00    -0.204 F  
DOCKED: ATOM     24  C   UNL     1     -41.233 -10.758   5.477 -0.09 +0.00    +0.001 A  
DOCKED: ENDBRANCH   2  18
DOCKED: TORSDOF 5
DOCKED: TER
DOCKED: ENDMDL
________________________________________________________________________________


    FINAL DOCKED STATE:
    ________________________


Run:   265 / 512
Time taken for this run:   0.002s

DOCKED: MODEL        265
DOCKED: USER    Run = 265
DOCKED: USER
DOCKED: USER    Estimated Free Energy of Binding    =  -3.76 kcal/mol  [=(1)+(2)+(3)-(4)]
DOCKED: USER
DOCKED: USER    (1) Final Intermolecular Energy     =  -5.25 kcal/mol
DOCKED: USER        vdW + Hbond + desolv Energy     =  -5.25 kcal/mol
DOCKED: USER        Electrostatic Energy            =  +0.00 kcal/mol
DOCKED: USER        Moving Ligand-Fixed Receptor    =  -5.25 kcal/mol
DOCKED: USER        Moving Ligand-Moving Receptor   =  +0.00 kcal/mol
DOCKED: USER    (2) Final Total Internal Energy     =  -1.20 kcal/mol
DOCKED: USER    (3) Torsional Free Energy           =  +1.49 kcal/mol
DOCKED: USER    (4) Unbound System's Energy         =  -1.20 kcal/mol
DOCKED: USER
DOCKED: USER
DOCKED: REMARK  5 active torsions:
DOCKED: REMARK  status: ('A' for Active; 'I' for Inactive)
DOCKED: REMARK    1  A    between atoms: C_2  and  C_19 
DOCKED: REMARK    2  A    between atoms: C_2  and  C_11 
DOCKED: REMARK    3  A    between atoms: C_19  and  C_20 
DOCKED: REMARK    4  A    between atoms: C_20  and  C_21 
DOCKED: REMARK    5  A    between atoms: C_21  and  N_22 
DOCKED: USER                              x       y       z     vdW  Elec       q    Type
DOCKED: USER                           _______ _______ _______ _____ _____    ______ ____
DOCKED: ROOT
DOCKED: ATOM      1  O   UNL     1     -41.607 -11.297   2.857 -0.02 -0.00    -0.346 OA 
DOCKED: ATOM      2  C   UNL     1     -41.990 -11.956   4.106 -0.07 +0.00    +0.130 C  
DOCKED: ATOM      3  C   UNL     1     -43.448 -12.260   3.920 -0.17 +0.00    +0.004 A  
DOCKED: ATOM      4  C   UNL     1     -43.839 -11.906   2.636 -0.22 +0.00    +0.006 A  
DOCKED: ATOM      5  C   UNL     1     -42.681 -11.364   1.891 -0.13 +0.00    +0.169 C  
DOCKED: ATOM      6  C   UNL     1     -44.354 -12.815   4.812 -0.10 -0.00    -0.001 A  
DOCKED: ATOM      7  C   UNL     1     -45.140 -12.089   2.203 -0.37 +0.00    +0.008 A  
DOCKED: ATOM      8  C   UNL     1     -45.672 -13.002   4.391 -0.17 +0.00    +0.010 A  
DOCKED: ATOM      9  C   UNL     1     -46.063 -12.642   3.093 -0.39 +0.00    +0.068 A  
DOCKED: ATOM     10  N   UNL     1     -48.515 -13.008   2.342 -2.49 -0.00    -0.191 NA 
DOCKED: ATOM     11  C   UNL     1     -47.415 -12.843   2.679 -0.20 +0.00    +0.101 C  
DOCKED: ENDROOT
DOCKED: BRANCH   2  12
DOCKED: ATOM     12  C   UNL     1     -41.139 -13.210   4.271 -0.03 +0.00    +0.038 C  
DOCKED: BRANCH  12  13
DOCKED: ATOM     13  C   UNL     1     -41.551 -14.296   3.279 -0.03 +0.00    +0.038 C  
DOCKED: BRANCH  13  14
DOCKED: ATOM     14  C   UNL     1     -42.004 -15.561   4.006 -0.02 +0.00    +0.251 C  
DOCKED: BRANCH  14  15
DOCKED: ATOM     15  N   UNL     1     -42.284 -16.624   3.048 -0.04 +0.00    +0.141 N  
DOCKED: ATOM     16  C   UNL     1     -42.067 -17.937   3.657 -0.03 +0.00    +0.285 C  
DOCKED: ATOM     17  C   UNL     1     -43.655 -16.517   2.546 -0.08 +0.00    +0.285 C  
DOCKED: ENDBRANCH  14  15
DOCKED: ENDBRANCH  13  14
DOCKED: ENDBRANCH  12  13
DOCKED: ENDBRANCH   2  12
DOCKED: BRANCH   2  18
DOCKED: ATOM     18  C   UNL     1     -41.734 -10.984   5.209 -0.11 +0.00    +0.006 A  
DOCKED: ATOM     19  C   UNL     1     -42.444  -9.785   5.259 -0.18 +0.00    +0.001 A  
DOCKED: ATOM     20  C   UNL     1     -42.204  -8.876   6.291 -0.14 +0.00    +0.029 A  
DOCKED: ATOM     21  C   UNL     1     -41.256  -9.168   7.270 -0.08 +0.00    +0.140 A  
DOCKED: ATOM     22  C   UNL     1     -40.546 -10.368   7.220 -0.08 +0.00    +0.029 A  
DOCKED: ATOM     23  F   UNL     1     -41.027  -8.296   8.261 -0.02 -0.00    -0.204 F  
DOCKED: ATOM     24  C   UNL     1     -40.785 -11.277   6.188 -0.08 +0.00    +0.001 A  
DOCKED: ENDBRANCH   2  18
DOCKED: TORSDOF 5
DOCKED: TER
DOCKED: ENDMDL
________________________________________________________________________________


    FINAL DOCKED STATE:
    ________________________


Run:   266 / 512
Time taken for this run:   0.002s

DOCKED: MODEL        266
DOCKED: USER    Run = 266
DOCKED: USER
DOCKED: USER    Estimated Free Energy of Binding    =  -3.88 kcal/mol  [=(1)+(2)+(3)-(4)]
DOCKED: USER
DOCKED: USER    (1) Final Intermolecular Energy     =  -5.37 kcal/mol
DOCKED: USER        vdW + Hbond + desolv Energy     =  -5.37 kcal/mol
DOCKED: USER        Electrostatic Energy            =  +0.00 kcal/mol
DOCKED: USER        Moving Ligand-Fixed Receptor    =  -5.37 kcal/mol
DOCKED: USER        Moving Ligand-Moving Receptor   =  +0.00 kcal/mol
DOCKED: USER    (2) Final Total Internal Energy     =  -1.34 kcal/mol
DOCKED: USER    (3) Torsional Free Energy           =  +1.49 kcal/mol
DOCKED: USER    (4) Unbound System's Energy         =  -1.34 kcal/mol
DOCKED: USER
DOCKED: USER
DOCKED: REMARK  5 active torsions:
DOCKED: REMARK  status: ('A' for Active; 'I' for Inactive)
DOCKED: REMARK    1  A    between atoms: C_2  and  C_19 
DOCKED: REMARK    2  A    between atoms: C_2  and  C_11 
DOCKED: REMARK    3  A    between atoms: C_19  and  C_20 
DOCKED: REMARK    4  A    between atoms: C_20  and  C_21 
DOCKED: REMARK    5  A    between atoms: C_21  and  N_22 
DOCKED: USER                              x       y       z     vdW  Elec       q    Type
DOCKED: USER                           _______ _______ _______ _____ _____    ______ ____
DOCKED: ROOT
DOCKED: ATOM      1  O   UNL     1     -41.898 -11.041   4.280 -0.03 -0.00    -0.346 OA 
DOCKED: ATOM      2  C   UNL     1     -41.987 -10.907   2.825 -0.11 +0.00    +0.130 C  
DOCKED: ATOM      3  C   UNL     1     -43.384 -11.357   2.508 -0.09 +0.00    +0.004 A  
DOCKED: ATOM      4  C   UNL     1     -44.069 -11.619   3.686 -0.24 +0.00    +0.006 A  
DOCKED: ATOM      5  C   UNL     1     -43.191 -11.353   4.848 -0.17 +0.00    +0.169 C  
DOCKED: ATOM      6  C   UNL     1     -44.003 -11.510   1.276 -0.25 -0.00    -0.001 A  
DOCKED: ATOM      7  C   UNL     1     -45.386 -12.045   3.675 -0.35 +0.00    +0.008 A  
DOCKED: ATOM      8  C   UNL     1     -45.329 -11.944   1.248 -0.36 +0.00    +0.010 A  
DOCKED: ATOM      9  C   UNL     1     -46.017 -12.210   2.441 -0.40 +0.00    +0.068 A  
DOCKED: ATOM     10  N   UNL     1     -48.481 -13.008   2.352 -2.46 -0.00    -0.191 NA 
DOCKED: ATOM     11  C   UNL     1     -47.376 -12.651   2.392 -0.19 +0.00    +0.101 C  
DOCKED: ENDROOT
DOCKED: BRANCH   2  12
DOCKED: ATOM     12  C   UNL     1     -41.736  -9.449   2.459 -0.02 +0.00    +0.038 C  
DOCKED: BRANCH  12  13
DOCKED: ATOM     13  C   UNL     1     -41.203  -8.658   3.652 -0.12 +0.00    +0.038 C  
DOCKED: BRANCH  13  14
DOCKED: ATOM     14  C   UNL     1     -42.015  -7.383   3.873 -0.09 +0.00    +0.251 C  
DOCKED: BRANCH  14  15
DOCKED: ATOM     15  N   UNL     1     -42.733  -7.452   5.140 -0.11 +0.00    +0.141 N  
DOCKED: ATOM     16  C   UNL     1     -44.015  -8.138   4.970 -0.18 +0.00    +0.285 C  
DOCKED: ATOM     17  C   UNL     1     -41.925  -8.131   6.154 -0.06 +0.00    +0.285 C  
DOCKED: ENDBRANCH  14  15
DOCKED: ENDBRANCH  13  14
DOCKED: ENDBRANCH  12  13
DOCKED: ENDBRANCH   2  12
DOCKED: BRANCH   2  18
DOCKED: ATOM     18  C   UNL     1     -40.943 -11.797   2.240 -0.05 +0.00    +0.006 A  
DOCKED: ATOM     19  C   UNL     1     -40.397 -11.503   0.991 -0.05 +0.00    +0.001 A  
DOCKED: ATOM     20  C   UNL     1     -39.421 -12.337   0.444 -0.01 +0.00    +0.029 A  
DOCKED: ATOM     21  C   UNL     1     -38.991 -13.461   1.147 +0.00 +0.00    +0.140 A  
DOCKED: ATOM     22  C   UNL     1     -39.537 -13.754   2.397 -0.00 +0.00    +0.029 A  
DOCKED: ATOM     23  F   UNL     1     -38.052 -14.260   0.623 +0.00 -0.00    -0.204 F  
DOCKED: ATOM     24  C   UNL     1     -40.514 -12.921   2.944 -0.02 +0.00    +0.001 A  
DOCKED: ENDBRANCH   2  18
DOCKED: TORSDOF 5
DOCKED: TER
DOCKED: ENDMDL
________________________________________________________________________________


    FINAL DOCKED STATE:
    ________________________


Run:   267 / 512
Time taken for this run:   0.002s

DOCKED: MODEL        267
DOCKED: USER    Run = 267
DOCKED: USER
DOCKED: USER    Estimated Free Energy of Binding    =  -5.42 kcal/mol  [=(1)+(2)+(3)-(4)]
DOCKED: USER
DOCKED: USER    (1) Final Intermolecular Energy     =  -6.91 kcal/mol
DOCKED: USER        vdW + Hbond + desolv Energy     =  -6.91 kcal/mol
DOCKED: USER        Electrostatic Energy            =  +0.00 kcal/mol
DOCKED: USER        Moving Ligand-Fixed Receptor    =  -6.91 kcal/mol
DOCKED: USER        Moving Ligand-Moving Receptor   =  +0.00 kcal/mol
DOCKED: USER    (2) Final Total Internal Energy     =  -1.00 kcal/mol
DOCKED: USER    (3) Torsional Free Energy           =  +1.49 kcal/mol
DOCKED: USER    (4) Unbound System's Energy         =  -1.00 kcal/mol
DOCKED: USER
DOCKED: USER
DOCKED: REMARK  5 active torsions:
DOCKED: REMARK  status: ('A' for Active; 'I' for Inactive)
DOCKED: REMARK    1  A    between atoms: C_2  and  C_19 
DOCKED: REMARK    2  A    between atoms: C_2  and  C_11 
DOCKED: REMARK    3  A    between atoms: C_19  and  C_20 
DOCKED: REMARK    4  A    between atoms: C_20  and  C_21 
DOCKED: REMARK    5  A    between atoms: C_21  and  N_22 
DOCKED: USER                              x       y       z     vdW  Elec       q    Type
DOCKED: USER                           _______ _______ _______ _____ _____    ______ ____
DOCKED: ROOT
DOCKED: ATOM      1  O   UNL     1     -48.306 -21.405  14.558 -0.05 -0.00    -0.346 OA 
DOCKED: ATOM      2  C   UNL     1     -47.870 -22.801  14.607 -0.22 +0.00    +0.130 C  
DOCKED: ATOM      3  C   UNL     1     -48.395 -23.387  13.329 -0.34 +0.00    +0.004 A  
DOCKED: ATOM      4  C   UNL     1     -48.983 -22.390  12.564 -0.35 +0.00    +0.006 A  
DOCKED: ATOM      5  C   UNL     1     -48.878 -21.091  13.267 -0.23 +0.00    +0.169 C  
DOCKED: ATOM      6  C   UNL     1     -48.346 -24.697  12.873 -0.40 -0.00    -0.001 A  
DOCKED: ATOM      7  C   UNL     1     -49.542 -22.664  11.328 -0.10 +0.00    +0.008 A  
DOCKED: ATOM      8  C   UNL     1     -48.910 -24.991  11.630 -0.45 +0.00    +0.010 A  
DOCKED: ATOM      9  C   UNL     1     -49.504 -23.979  10.862 -0.43 +0.00    +0.068 A  
DOCKED: ATOM     10  N   UNL     1     -50.537 -24.558   8.557 -2.56 -0.00    -0.191 NA 
DOCKED: ATOM     11  C   UNL     1     -50.075 -24.298   9.591 -0.43 +0.00    +0.101 C  
DOCKED: ENDROOT
DOCKED: BRANCH   2  12
DOCKED: ATOM     12  C   UNL     1     -46.349 -22.829  14.692 -0.20 +0.00    +0.038 C  
DOCKED: BRANCH  12  13
DOCKED: ATOM     13  C   UNL     1     -45.846 -22.077  15.923 -0.16 +0.00    +0.038 C  
DOCKED: BRANCH  13  14
DOCKED: ATOM     14  C   UNL     1     -44.624 -22.767  16.527 -0.08 +0.00    +0.251 C  
DOCKED: BRANCH  14  15
DOCKED: ATOM     15  N   UNL     1     -43.399 -22.214  15.963 -0.09 +0.00    +0.141 N  
DOCKED: ATOM     16  C   UNL     1     -42.637 -21.496  16.986 -0.02 +0.00    +0.285 C  
DOCKED: ATOM     17  C   UNL     1     -42.580 -23.273  15.370 -0.11 +0.00    +0.285 C  
DOCKED: ENDBRANCH  14  15
DOCKED: ENDBRANCH  13  14
DOCKED: ENDBRANCH  12  13
DOCKED: ENDBRANCH   2  12
DOCKED: BRANCH   2  18
DOCKED: ATOM     18  C   UNL     1     -48.488 -23.409  15.822 -0.17 +0.00    +0.006 A  
DOCKED: ATOM     19  C   UNL     1     -49.379 -22.666  16.596 -0.08 +0.00    +0.001 A  
DOCKED: ATOM     20  C   UNL     1     -49.955 -23.235  17.732 -0.07 +0.00    +0.029 A  
DOCKED: ATOM     21  C   UNL     1     -49.642 -24.545  18.092 -0.11 +0.00    +0.140 A  
DOCKED: ATOM     22  C   UNL     1     -48.752 -25.287  17.317 -0.01 +0.00    +0.029 A  
DOCKED: ATOM     23  F   UNL     1     -50.197 -25.091  19.181 -0.03 -0.00    -0.204 F  
DOCKED: ATOM     24  C   UNL     1     -48.173 -24.719  16.181 -0.21 +0.00    +0.001 A  
DOCKED: ENDBRANCH   2  18
DOCKED: TORSDOF 5
DOCKED: TER
DOCKED: ENDMDL
________________________________________________________________________________


    FINAL DOCKED STATE:
    ________________________


Run:   268 / 512
Time taken for this run:   0.002s

DOCKED: MODEL        268
DOCKED: USER    Run = 268
DOCKED: USER
DOCKED: USER    Estimated Free Energy of Binding    =  -3.35 kcal/mol  [=(1)+(2)+(3)-(4)]
DOCKED: USER
DOCKED: USER    (1) Final Intermolecular Energy     =  -4.84 kcal/mol
DOCKED: USER        vdW + Hbond + desolv Energy     =  -4.84 kcal/mol
DOCKED: USER        Electrostatic Energy            =  +0.00 kcal/mol
DOCKED: USER        Moving Ligand-Fixed Receptor    =  -4.84 kcal/mol
DOCKED: USER        Moving Ligand-Moving Receptor   =  +0.00 kcal/mol
DOCKED: USER    (2) Final Total Internal Energy     =  -1.39 kcal/mol
DOCKED: USER    (3) Torsional Free Energy           =  +1.49 kcal/mol
DOCKED: USER    (4) Unbound System's Energy         =  -1.39 kcal/mol
DOCKED: USER
DOCKED: USER
DOCKED: REMARK  5 active torsions:
DOCKED: REMARK  status: ('A' for Active; 'I' for Inactive)
DOCKED: REMARK    1  A    between atoms: C_2  and  C_19 
DOCKED: REMARK    2  A    between atoms: C_2  and  C_11 
DOCKED: REMARK    3  A    between atoms: C_19  and  C_20 
DOCKED: REMARK    4  A    between atoms: C_20  and  C_21 
DOCKED: REMARK    5  A    between atoms: C_21  and  N_22 
DOCKED: USER                              x       y       z     vdW  Elec       q    Type
DOCKED: USER                           _______ _______ _______ _____ _____    ______ ____
DOCKED: ROOT
DOCKED: ATOM      1  O   UNL     1     -41.956 -11.691   5.377 -0.04 -0.00    -0.346 OA 
DOCKED: ATOM      2  C   UNL     1     -41.604 -12.529   4.231 -0.04 +0.00    +0.130 C  
DOCKED: ATOM      3  C   UNL     1     -42.878 -12.611   3.440 -0.10 +0.00    +0.004 A  
DOCKED: ATOM      4  C   UNL     1     -43.842 -11.802   4.024 -0.23 +0.00    +0.006 A  
DOCKED: ATOM      5  C   UNL     1     -43.279 -11.128   5.215 -0.17 +0.00    +0.169 C  
DOCKED: ATOM      6  C   UNL     1     -43.158 -13.335   2.291 -0.11 -0.00    -0.001 A  
DOCKED: ATOM      7  C   UNL     1     -45.113 -11.691   3.485 -0.34 +0.00    +0.008 A  
DOCKED: ATOM      8  C   UNL     1     -44.436 -13.238   1.738 -0.24 +0.00    +0.010 A  
DOCKED: ATOM      9  C   UNL     1     -45.408 -12.420   2.332 -0.35 +0.00    +0.068 A  
DOCKED: ATOM     10  N   UNL     1     -47.769 -12.258   1.277 -2.58 -0.00    -0.191 NA 
DOCKED: ATOM     11  C   UNL     1     -46.710 -12.331   1.750 -0.34 +0.00    +0.101 C  
DOCKED: ENDROOT
DOCKED: BRANCH   2  12
DOCKED: ATOM     12  C   UNL     1     -40.474 -11.851   3.466 -0.03 +0.00    +0.038 C  
DOCKED: BRANCH  12  13
DOCKED: ATOM     13  C   UNL     1     -40.997 -10.712   2.593 -0.09 +0.00    +0.038 C  
DOCKED: BRANCH  13  14
DOCKED: ATOM     14  C   UNL     1     -40.797  -9.360   3.274 -0.04 +0.00    +0.251 C  
DOCKED: BRANCH  14  15
DOCKED: ATOM     15  N   UNL     1     -40.261  -9.544   4.618 -0.02 +0.00    +0.141 N  
DOCKED: ATOM     16  C   UNL     1     -38.820  -9.289   4.639 +0.00 +0.00    +0.285 C  
DOCKED: ATOM     17  C   UNL     1     -40.946  -8.668   5.570 -0.02 +0.00    +0.285 C  
DOCKED: ENDBRANCH  14  15
DOCKED: ENDBRANCH  13  14
DOCKED: ENDBRANCH  12  13
DOCKED: ENDBRANCH   2  12
DOCKED: BRANCH   2  18
DOCKED: ATOM     18  C   UNL     1     -41.170 -13.850   4.773 -0.03 +0.00    +0.006 A  
DOCKED: ATOM     19  C   UNL     1     -39.895 -14.336   4.486 -0.01 +0.00    +0.001 A  
DOCKED: ATOM     20  C   UNL     1     -39.491 -15.572   4.993 -0.00 +0.00    +0.029 A  
DOCKED: ATOM     21  C   UNL     1     -40.361 -16.318   5.786 -0.00 +0.00    +0.140 A  
DOCKED: ATOM     22  C   UNL     1     -41.636 -15.831   6.073 -0.02 +0.00    +0.029 A  
DOCKED: ATOM     23  F   UNL     1     -39.971 -17.503   6.275 +0.00 -0.00    -0.204 F  
DOCKED: ATOM     24  C   UNL     1     -42.041 -14.596   5.566 -0.05 +0.00    +0.001 A  
DOCKED: ENDBRANCH   2  18
DOCKED: TORSDOF 5
DOCKED: TER
DOCKED: ENDMDL
________________________________________________________________________________


    FINAL DOCKED STATE:
    ________________________


Run:   269 / 512
Time taken for this run:   0.002s

DOCKED: MODEL        269
DOCKED: USER    Run = 269
DOCKED: USER
DOCKED: USER    Estimated Free Energy of Binding    =  -3.82 kcal/mol  [=(1)+(2)+(3)-(4)]
DOCKED: USER
DOCKED: USER    (1) Final Intermolecular Energy     =  -5.31 kcal/mol
DOCKED: USER        vdW + Hbond + desolv Energy     =  -5.31 kcal/mol
DOCKED: USER        Electrostatic Energy            =  +0.00 kcal/mol
DOCKED: USER        Moving Ligand-Fixed Receptor    =  -5.31 kcal/mol
DOCKED: USER        Moving Ligand-Moving Receptor   =  +0.00 kcal/mol
DOCKED: USER    (2) Final Total Internal Energy     =  -1.39 kcal/mol
DOCKED: USER    (3) Torsional Free Energy           =  +1.49 kcal/mol
DOCKED: USER    (4) Unbound System's Energy         =  -1.39 kcal/mol
DOCKED: USER
DOCKED: USER
DOCKED: REMARK  5 active torsions:
DOCKED: REMARK  status: ('A' for Active; 'I' for Inactive)
DOCKED: REMARK    1  A    between atoms: C_2  and  C_19 
DOCKED: REMARK    2  A    between atoms: C_2  and  C_11 
DOCKED: REMARK    3  A    between atoms: C_19  and  C_20 
DOCKED: REMARK    4  A    between atoms: C_20  and  C_21 
DOCKED: REMARK    5  A    between atoms: C_21  and  N_22 
DOCKED: USER                              x       y       z     vdW  Elec       q    Type
DOCKED: USER                           _______ _______ _______ _____ _____    ______ ____
DOCKED: ROOT
DOCKED: ATOM      1  O   UNL     1     -48.042 -20.521  16.518 -0.00 -0.00    -0.346 OA 
DOCKED: ATOM      2  C   UNL     1     -47.740 -20.089  15.153 -0.08 +0.00    +0.130 C  
DOCKED: ATOM      3  C   UNL     1     -48.248 -21.214  14.299 -0.19 +0.00    +0.004 A  
DOCKED: ATOM      4  C   UNL     1     -48.885 -22.154  15.096 -0.13 +0.00    +0.006 A  
DOCKED: ATOM      5  C   UNL     1     -48.854 -21.718  16.510 -0.04 +0.00    +0.169 C  
DOCKED: ATOM      6  C   UNL     1     -48.164 -21.385  12.925 -0.25 -0.00    -0.001 A  
DOCKED: ATOM      7  C   UNL     1     -49.453 -23.294  14.552 -0.19 +0.00    +0.008 A  
DOCKED: ATOM      8  C   UNL     1     -48.728 -22.532  12.362 -0.30 +0.00    +0.010 A  
DOCKED: ATOM      9  C   UNL     1     -49.369 -23.481  13.171 -0.28 +0.00    +0.068 A  
DOCKED: ATOM     10  N   UNL     1     -50.409 -25.595  12.094 -2.55 -0.00    -0.191 NA 
DOCKED: ATOM     11  C   UNL     1     -49.942 -24.647  12.577 -0.34 +0.00    +0.101 C  
DOCKED: ENDROOT
DOCKED: BRANCH   2  12
DOCKED: ATOM     12  C   UNL     1     -48.462 -18.772  14.892 -0.08 +0.00    +0.038 C  
DOCKED: BRANCH  12  13
DOCKED: ATOM     13  C   UNL     1     -49.806 -19.001  14.204 -0.18 +0.00    +0.038 C  
DOCKED: BRANCH  13  14
DOCKED: ATOM     14  C   UNL     1     -50.949 -19.001  15.217 -0.05 +0.00    +0.251 C  
DOCKED: BRANCH  14  15
DOCKED: ATOM     15  N   UNL     1     -51.801 -20.168  15.020 -0.07 +0.00    +0.141 N  
DOCKED: ATOM     16  C   UNL     1     -53.082 -19.993  15.706 -0.02 +0.00    +0.285 C  
DOCKED: ATOM     17  C   UNL     1     -52.019 -20.413  13.593 -0.13 +0.00    +0.285 C  
DOCKED: ENDBRANCH  14  15
DOCKED: ENDBRANCH  13  14
DOCKED: ENDBRANCH  12  13
DOCKED: ENDBRANCH   2  12
DOCKED: BRANCH   2  18
DOCKED: ATOM     18  C   UNL     1     -46.260 -19.917  15.068 -0.09 +0.00    +0.006 A  
DOCKED: ATOM     19  C   UNL     1     -45.690 -18.665  15.291 -0.04 +0.00    +0.001 A  
DOCKED: ATOM     20  C   UNL     1     -44.305 -18.506  15.211 -0.03 +0.00    +0.029 A  
DOCKED: ATOM     21  C   UNL     1     -43.494 -19.598  14.908 -0.04 +0.00    +0.140 A  
DOCKED: ATOM     22  C   UNL     1     -44.065 -20.851  14.686 -0.11 +0.00    +0.029 A  
DOCKED: ATOM     23  F   UNL     1     -42.166 -19.446  14.833 -0.00 -0.00    -0.204 F  
DOCKED: ATOM     24  C   UNL     1     -45.450 -21.011  14.765 -0.12 +0.00    +0.001 A  
DOCKED: ENDBRANCH   2  18
DOCKED: TORSDOF 5
DOCKED: TER
DOCKED: ENDMDL
________________________________________________________________________________


    FINAL DOCKED STATE:
    ________________________


Run:   270 / 512
Time taken for this run:   0.002s

DOCKED: MODEL        270
DOCKED: USER    Run = 270
DOCKED: USER
DOCKED: USER    Estimated Free Energy of Binding    =  -3.77 kcal/mol  [=(1)+(2)+(3)-(4)]
DOCKED: USER
DOCKED: USER    (1) Final Intermolecular Energy     =  -5.26 kcal/mol
DOCKED: USER        vdW + Hbond + desolv Energy     =  -5.26 kcal/mol
DOCKED: USER        Electrostatic Energy            =  +0.00 kcal/mol
DOCKED: USER        Moving Ligand-Fixed Receptor    =  -5.26 kcal/mol
DOCKED: USER        Moving Ligand-Moving Receptor   =  +0.00 kcal/mol
DOCKED: USER    (2) Final Total Internal Energy     =  -1.21 kcal/mol
DOCKED: USER    (3) Torsional Free Energy           =  +1.49 kcal/mol
DOCKED: USER    (4) Unbound System's Energy         =  -1.21 kcal/mol
DOCKED: USER
DOCKED: USER
DOCKED: REMARK  5 active torsions:
DOCKED: REMARK  status: ('A' for Active; 'I' for Inactive)
DOCKED: REMARK    1  A    between atoms: C_2  and  C_19 
DOCKED: REMARK    2  A    between atoms: C_2  and  C_11 
DOCKED: REMARK    3  A    between atoms: C_19  and  C_20 
DOCKED: REMARK    4  A    between atoms: C_20  and  C_21 
DOCKED: REMARK    5  A    between atoms: C_21  and  N_22 
DOCKED: USER                              x       y       z     vdW  Elec       q    Type
DOCKED: USER                           _______ _______ _______ _____ _____    ______ ____
DOCKED: ROOT
DOCKED: ATOM      1  O   UNL     1     -42.120 -13.316   5.696 -0.03 -0.00    -0.346 OA 
DOCKED: ATOM      2  C   UNL     1     -41.632 -12.656   4.484 -0.05 +0.00    +0.130 C  
DOCKED: ATOM      3  C   UNL     1     -42.865 -12.493   3.643 -0.11 +0.00    +0.004 A  
DOCKED: ATOM      4  C   UNL     1     -43.977 -12.920   4.355 -0.19 +0.00    +0.006 A  
DOCKED: ATOM      5  C   UNL     1     -43.566 -13.377   5.702 -0.10 +0.00    +0.169 C  
DOCKED: ATOM      6  C   UNL     1     -42.994 -11.995   2.355 -0.15 -0.00    -0.001 A  
DOCKED: ATOM      7  C   UNL     1     -45.247 -12.869   3.807 -0.31 +0.00    +0.008 A  
DOCKED: ATOM      8  C   UNL     1     -44.267 -11.941   1.786 -0.28 +0.00    +0.010 A  
DOCKED: ATOM      9  C   UNL     1     -45.388 -12.376   2.509 -0.34 +0.00    +0.068 A  
DOCKED: ATOM     10  N   UNL     1     -47.739 -12.258   1.426 -2.56 -0.00    -0.191 NA 
DOCKED: ATOM     11  C   UNL     1     -46.685 -12.311   1.912 -0.40 +0.00    +0.101 C  
DOCKED: ENDROOT
DOCKED: BRANCH   2  12
DOCKED: ATOM     12  C   UNL     1     -41.003 -11.326   4.880 -0.06 +0.00    +0.038 C  
DOCKED: BRANCH  12  13
DOCKED: ATOM     13  C   UNL     1     -41.772 -10.663   6.021 -0.15 +0.00    +0.038 C  
DOCKED: BRANCH  13  14
DOCKED: ATOM     14  C   UNL     1     -41.635  -9.143   5.966 -0.07 +0.00    +0.251 C  
DOCKED: BRANCH  14  15
DOCKED: ATOM     15  N   UNL     1     -42.722  -8.563   5.186 -0.13 +0.00    +0.141 N  
DOCKED: ATOM     16  C   UNL     1     -43.819  -9.521   5.039 -0.20 +0.00    +0.285 C  
DOCKED: ATOM     17  C   UNL     1     -43.206  -7.331   5.812 -0.09 +0.00    +0.285 C  
DOCKED: ENDBRANCH  14  15
DOCKED: ENDBRANCH  13  14
DOCKED: ENDBRANCH  12  13
DOCKED: ENDBRANCH   2  12
DOCKED: BRANCH   2  18
DOCKED: ATOM     18  C   UNL     1     -40.624 -13.567   3.868 -0.01 +0.00    +0.006 A  
DOCKED: ATOM     19  C   UNL     1     -39.431 -13.047   3.366 -0.01 +0.00    +0.001 A  
DOCKED: ATOM     20  C   UNL     1     -38.489 -13.900   2.789 -0.00 +0.00    +0.029 A  
DOCKED: ATOM     21  C   UNL     1     -38.740 -15.269   2.715 +0.00 +0.00    +0.140 A  
DOCKED: ATOM     22  C   UNL     1     -39.934 -15.788   3.217 -0.00 +0.00    +0.029 A  
DOCKED: ATOM     23  F   UNL     1     -37.835 -16.087   2.163 +0.00 -0.00    -0.204 F  
DOCKED: ATOM     24  C   UNL     1     -40.877 -14.936   3.794 -0.01 +0.00    +0.001 A  
DOCKED: ENDBRANCH   2  18
DOCKED: TORSDOF 5
DOCKED: TER
DOCKED: ENDMDL
________________________________________________________________________________


    FINAL DOCKED STATE:
    ________________________


Run:   271 / 512
Time taken for this run:   0.002s

DOCKED: MODEL        271
DOCKED: USER    Run = 271
DOCKED: USER
DOCKED: USER    Estimated Free Energy of Binding    =  -4.96 kcal/mol  [=(1)+(2)+(3)-(4)]
DOCKED: USER
DOCKED: USER    (1) Final Intermolecular Energy     =  -6.45 kcal/mol
DOCKED: USER        vdW + Hbond + desolv Energy     =  -6.45 kcal/mol
DOCKED: USER        Electrostatic Energy            =  +0.00 kcal/mol
DOCKED: USER        Moving Ligand-Fixed Receptor    =  -6.45 kcal/mol
DOCKED: USER        Moving Ligand-Moving Receptor   =  +0.00 kcal/mol
DOCKED: USER    (2) Final Total Internal Energy     =  -1.29 kcal/mol
DOCKED: USER    (3) Torsional Free Energy           =  +1.49 kcal/mol
DOCKED: USER    (4) Unbound System's Energy         =  -1.29 kcal/mol
DOCKED: USER
DOCKED: USER
DOCKED: REMARK  5 active torsions:
DOCKED: REMARK  status: ('A' for Active; 'I' for Inactive)
DOCKED: REMARK    1  A    between atoms: C_2  and  C_19 
DOCKED: REMARK    2  A    between atoms: C_2  and  C_11 
DOCKED: REMARK    3  A    between atoms: C_19  and  C_20 
DOCKED: REMARK    4  A    between atoms: C_20  and  C_21 
DOCKED: REMARK    5  A    between atoms: C_21  and  N_22 
DOCKED: USER                              x       y       z     vdW  Elec       q    Type
DOCKED: USER                           _______ _______ _______ _____ _____    ______ ____
DOCKED: ROOT
DOCKED: ATOM      1  O   UNL     1     -48.666 -21.424  14.953 -0.03 -0.00    -0.346 OA 
DOCKED: ATOM      2  C   UNL     1     -48.048 -22.750  14.960 -0.18 +0.00    +0.130 C  
DOCKED: ATOM      3  C   UNL     1     -48.478 -23.354  13.654 -0.32 +0.00    +0.004 A  
DOCKED: ATOM      4  C   UNL     1     -49.188 -22.416  12.917 -0.33 +0.00    +0.006 A  
DOCKED: ATOM      5  C   UNL     1     -49.264 -21.142  13.666 -0.21 +0.00    +0.169 C  
DOCKED: ATOM      6  C   UNL     1     -48.250 -24.627  13.154 -0.42 -0.00    -0.001 A  
DOCKED: ATOM      7  C   UNL     1     -49.695 -22.717  11.665 -0.23 +0.00    +0.008 A  
DOCKED: ATOM      8  C   UNL     1     -48.759 -24.948  11.894 -0.41 +0.00    +0.010 A  
DOCKED: ATOM      9  C   UNL     1     -49.477 -23.997  11.153 -0.42 +0.00    +0.068 A  
DOCKED: ATOM     10  N   UNL     1     -50.403 -24.624   8.816 -2.26 -0.00    -0.191 NA 
DOCKED: ATOM     11  C   UNL     1     -49.989 -24.343   9.865 -0.51 +0.00    +0.101 C  
DOCKED: ENDROOT
DOCKED: BRANCH   2  12
DOCKED: ATOM     12  C   UNL     1     -46.537 -22.577  15.064 -0.24 +0.00    +0.038 C  
DOCKED: BRANCH  12  13
DOCKED: ATOM     13  C   UNL     1     -46.094 -22.418  16.517 -0.14 +0.00    +0.038 C  
DOCKED: BRANCH  13  14
DOCKED: ATOM     14  C   UNL     1     -45.979 -20.944  16.898 -0.03 +0.00    +0.251 C  
DOCKED: BRANCH  14  15
DOCKED: ATOM     15  N   UNL     1     -46.854 -20.641  18.024 -0.01 +0.00    +0.141 N  
DOCKED: ATOM     16  C   UNL     1     -46.070 -20.240  19.194 -0.00 +0.00    +0.285 C  
DOCKED: ATOM     17  C   UNL     1     -47.808 -19.590  17.668 -0.00 +0.00    +0.285 C  
DOCKED: ENDBRANCH  14  15
DOCKED: ENDBRANCH  13  14
DOCKED: ENDBRANCH  12  13
DOCKED: ENDBRANCH   2  12
DOCKED: BRANCH   2  18
DOCKED: ATOM     18  C   UNL     1     -48.589 -23.478  16.144 -0.16 +0.00    +0.006 A  
DOCKED: ATOM     19  C   UNL     1     -49.642 -22.931  16.877 -0.08 +0.00    +0.001 A  
DOCKED: ATOM     20  C   UNL     1     -50.147 -23.613  17.985 -0.09 +0.00    +0.029 A  
DOCKED: ATOM     21  C   UNL     1     -49.600 -24.841  18.357 -0.10 +0.00    +0.140 A  
DOCKED: ATOM     22  C   UNL     1     -48.548 -25.388  17.623 -0.13 +0.00    +0.029 A  
DOCKED: ATOM     23  F   UNL     1     -50.087 -25.496  19.419 -0.03 -0.00    -0.204 F  
DOCKED: ATOM     24  C   UNL     1     -48.042 -24.706  16.515 -0.13 +0.00    +0.001 A  
DOCKED: ENDBRANCH   2  18
DOCKED: TORSDOF 5
DOCKED: TER
DOCKED: ENDMDL
________________________________________________________________________________


    FINAL DOCKED STATE:
    ________________________


Run:   272 / 512
Time taken for this run:   0.002s

DOCKED: MODEL        272
DOCKED: USER    Run = 272
DOCKED: USER
DOCKED: USER    Estimated Free Energy of Binding    =  -5.05 kcal/mol  [=(1)+(2)+(3)-(4)]
DOCKED: USER
DOCKED: USER    (1) Final Intermolecular Energy     =  -6.54 kcal/mol
DOCKED: USER        vdW + Hbond + desolv Energy     =  -6.54 kcal/mol
DOCKED: USER        Electrostatic Energy            =  +0.00 kcal/mol
DOCKED: USER        Moving Ligand-Fixed Receptor    =  -6.54 kcal/mol
DOCKED: USER        Moving Ligand-Moving Receptor   =  +0.00 kcal/mol
DOCKED: USER    (2) Final Total Internal Energy     =  -1.07 kcal/mol
DOCKED: USER    (3) Torsional Free Energy           =  +1.49 kcal/mol
DOCKED: USER    (4) Unbound System's Energy         =  -1.07 kcal/mol
DOCKED: USER
DOCKED: USER
DOCKED: REMARK  5 active torsions:
DOCKED: REMARK  status: ('A' for Active; 'I' for Inactive)
DOCKED: REMARK    1  A    between atoms: C_2  and  C_19 
DOCKED: REMARK    2  A    between atoms: C_2  and  C_11 
DOCKED: REMARK    3  A    between atoms: C_19  and  C_20 
DOCKED: REMARK    4  A    between atoms: C_20  and  C_21 
DOCKED: REMARK    5  A    between atoms: C_21  and  N_22 
DOCKED: USER                              x       y       z     vdW  Elec       q    Type
DOCKED: USER                           _______ _______ _______ _____ _____    ______ ____
DOCKED: ROOT
DOCKED: ATOM      1  O   UNL     1     -51.904 -23.963  15.547 -0.03 -0.00    -0.346 OA 
DOCKED: ATOM      2  C   UNL     1     -50.786 -23.042  15.336 -0.10 +0.00    +0.130 C  
DOCKED: ATOM      3  C   UNL     1     -50.521 -23.130  13.861 -0.21 +0.00    +0.004 A  
DOCKED: ATOM      4  C   UNL     1     -51.472 -23.945  13.264 -0.26 +0.00    +0.006 A  
DOCKED: ATOM      5  C   UNL     1     -52.427 -24.434  14.284 -0.14 +0.00    +0.169 C  
DOCKED: ATOM      6  C   UNL     1     -49.524 -22.529  13.107 -0.30 -0.00    -0.001 A  
DOCKED: ATOM      7  C   UNL     1     -51.458 -24.189  11.901 -0.36 +0.00    +0.008 A  
DOCKED: ATOM      8  C   UNL     1     -49.493 -22.769  11.732 -0.33 +0.00    +0.010 A  
DOCKED: ATOM      9  C   UNL     1     -50.456 -23.595  11.132 -0.33 +0.00    +0.068 A  
DOCKED: ATOM     10  N   UNL     1     -50.375 -24.015   8.577 -2.71 -0.00    -0.191 NA 
DOCKED: ATOM     11  C   UNL     1     -50.411 -23.827   9.723 -0.28 +0.00    +0.101 C  
DOCKED: ENDROOT
DOCKED: BRANCH   2  12
DOCKED: ATOM     12  C   UNL     1     -51.219 -21.649  15.779 -0.08 +0.00    +0.038 C  
DOCKED: BRANCH  12  13
DOCKED: ATOM     13  C   UNL     1     -52.539 -21.242  15.126 -0.13 +0.00    +0.038 C  
DOCKED: BRANCH  13  14
DOCKED: ATOM     14  C   UNL     1     -52.302 -20.294  13.952 -0.14 +0.00    +0.251 C  
DOCKED: BRANCH  14  15
DOCKED: ATOM     15  N   UNL     1     -52.595 -18.920  14.343 -0.12 +0.00    +0.141 N  
DOCKED: ATOM     16  C   UNL     1     -51.801 -18.535  15.510 -0.02 +0.00    +0.285 C  
DOCKED: ATOM     17  C   UNL     1     -52.341 -18.003  13.231 -0.13 +0.00    +0.285 C  
DOCKED: ENDBRANCH  14  15
DOCKED: ENDBRANCH  13  14
DOCKED: ENDBRANCH  12  13
DOCKED: ENDBRANCH   2  12
DOCKED: BRANCH   2  18
DOCKED: ATOM     18  C   UNL     1     -49.648 -23.540  16.163 -0.14 +0.00    +0.006 A  
DOCKED: ATOM     19  C   UNL     1     -49.247 -24.871  16.066 -0.24 +0.00    +0.001 A  
DOCKED: ATOM     20  C   UNL     1     -48.183 -25.336  16.840 -0.14 +0.00    +0.029 A  
DOCKED: ATOM     21  C   UNL     1     -47.522 -24.469  17.709 -0.10 +0.00    +0.140 A  
DOCKED: ATOM     22  C   UNL     1     -47.923 -23.137  17.805 -0.10 +0.00    +0.029 A  
DOCKED: ATOM     23  F   UNL     1     -46.499 -24.915  18.450 -0.05 -0.00    -0.204 F  
DOCKED: ATOM     24  C   UNL     1     -48.988 -22.671  17.032 -0.08 +0.00    +0.001 A  
DOCKED: ENDBRANCH   2  18
DOCKED: TORSDOF 5
DOCKED: TER
DOCKED: ENDMDL
________________________________________________________________________________


    FINAL DOCKED STATE:
    ________________________


Run:   273 / 512
Time taken for this run:   0.002s

DOCKED: MODEL        273
DOCKED: USER    Run = 273
DOCKED: USER
DOCKED: USER    Estimated Free Energy of Binding    =  -5.41 kcal/mol  [=(1)+(2)+(3)-(4)]
DOCKED: USER
DOCKED: USER    (1) Final Intermolecular Energy     =  -6.90 kcal/mol
DOCKED: USER        vdW + Hbond + desolv Energy     =  -6.90 kcal/mol
DOCKED: USER        Electrostatic Energy            =  +0.00 kcal/mol
DOCKED: USER        Moving Ligand-Fixed Receptor    =  -6.90 kcal/mol
DOCKED: USER        Moving Ligand-Moving Receptor   =  +0.00 kcal/mol
DOCKED: USER    (2) Final Total Internal Energy     =  -0.88 kcal/mol
DOCKED: USER    (3) Torsional Free Energy           =  +1.49 kcal/mol
DOCKED: USER    (4) Unbound System's Energy         =  -0.88 kcal/mol
DOCKED: USER
DOCKED: USER
DOCKED: REMARK  5 active torsions:
DOCKED: REMARK  status: ('A' for Active; 'I' for Inactive)
DOCKED: REMARK    1  A    between atoms: C_2  and  C_19 
DOCKED: REMARK    2  A    between atoms: C_2  and  C_11 
DOCKED: REMARK    3  A    between atoms: C_19  and  C_20 
DOCKED: REMARK    4  A    between atoms: C_20  and  C_21 
DOCKED: REMARK    5  A    between atoms: C_21  and  N_22 
DOCKED: USER                              x       y       z     vdW  Elec       q    Type
DOCKED: USER                           _______ _______ _______ _____ _____    ______ ____
DOCKED: ROOT
DOCKED: ATOM      1  O   UNL     1     -51.690 -22.732  15.103 -0.00 -0.00    -0.346 OA 
DOCKED: ATOM      2  C   UNL     1     -50.251 -22.604  14.869 -0.11 +0.00    +0.130 C  
DOCKED: ATOM      3  C   UNL     1     -50.088 -22.961  13.420 -0.25 +0.00    +0.004 A  
DOCKED: ATOM      4  C   UNL     1     -51.335 -23.166  12.847 -0.28 +0.00    +0.006 A  
DOCKED: ATOM      5  C   UNL     1     -52.394 -22.951  13.858 -0.17 +0.00    +0.169 C  
DOCKED: ATOM      6  C   UNL     1     -48.930 -23.082  12.666 -0.37 -0.00    -0.001 A  
DOCKED: ATOM      7  C   UNL     1     -51.468 -23.503  11.511 -0.26 +0.00    +0.008 A  
DOCKED: ATOM      8  C   UNL     1     -49.047 -23.425  11.318 -0.26 +0.00    +0.010 A  
DOCKED: ATOM      9  C   UNL     1     -50.310 -23.634  10.744 -0.35 +0.00    +0.068 A  
DOCKED: ATOM     10  N   UNL     1     -50.491 -24.265   8.237 -3.02 -0.00    -0.191 NA 
DOCKED: ATOM     11  C   UNL     1     -50.410 -23.982   9.361 -0.26 +0.00    +0.101 C  
DOCKED: ENDROOT
DOCKED: BRANCH   2  12
DOCKED: ATOM     12  C   UNL     1     -49.837 -21.169  15.177 -0.11 +0.00    +0.038 C  
DOCKED: BRANCH  12  13
DOCKED: ATOM     13  C   UNL     1     -48.360 -21.084  15.554 -0.09 +0.00    +0.038 C  
DOCKED: BRANCH  13  14
DOCKED: ATOM     14  C   UNL     1     -47.480 -20.989  14.310 -0.14 +0.00    +0.251 C  
DOCKED: BRANCH  14  15
DOCKED: ATOM     15  N   UNL     1     -46.732 -19.737  14.312 -0.10 +0.00    +0.141 N  
DOCKED: ATOM     16  C   UNL     1     -45.344 -19.965  14.715 -0.07 +0.00    +0.285 C  
DOCKED: ATOM     17  C   UNL     1     -46.780 -19.106  12.991 -0.12 +0.00    +0.285 C  
DOCKED: ENDBRANCH  14  15
DOCKED: ENDBRANCH  13  14
DOCKED: ENDBRANCH  12  13
DOCKED: ENDBRANCH   2  12
DOCKED: BRANCH   2  18
DOCKED: ATOM     18  C   UNL     1     -49.573 -23.568  15.785 -0.15 +0.00    +0.006 A  
DOCKED: ATOM     19  C   UNL     1     -48.815 -24.613  15.259 -0.28 +0.00    +0.001 A  
DOCKED: ATOM     20  C   UNL     1     -48.182 -25.514  16.116 -0.03 +0.00    +0.029 A  
DOCKED: ATOM     21  C   UNL     1     -48.307 -25.368  17.497 -0.12 +0.00    +0.140 A  
DOCKED: ATOM     22  C   UNL     1     -49.064 -24.321  18.022 -0.16 +0.00    +0.029 A  
DOCKED: ATOM     23  F   UNL     1     -47.697 -26.231  18.320 -0.09 -0.00    -0.204 F  
DOCKED: ATOM     24  C   UNL     1     -49.699 -23.420  17.166 -0.11 +0.00    +0.001 A  
DOCKED: ENDBRANCH   2  18
DOCKED: TORSDOF 5
DOCKED: TER
DOCKED: ENDMDL
________________________________________________________________________________


    FINAL DOCKED STATE:
    ________________________


Run:   274 / 512
Time taken for this run:   0.002s

DOCKED: MODEL        274
DOCKED: USER    Run = 274
DOCKED: USER
DOCKED: USER    Estimated Free Energy of Binding    =  -4.23 kcal/mol  [=(1)+(2)+(3)-(4)]
DOCKED: USER
DOCKED: USER    (1) Final Intermolecular Energy     =  -5.73 kcal/mol
DOCKED: USER        vdW + Hbond + desolv Energy     =  -5.73 kcal/mol
DOCKED: USER        Electrostatic Energy            =  +0.00 kcal/mol
DOCKED: USER        Moving Ligand-Fixed Receptor    =  -5.73 kcal/mol
DOCKED: USER        Moving Ligand-Moving Receptor   =  +0.00 kcal/mol
DOCKED: USER    (2) Final Total Internal Energy     =  -0.96 kcal/mol
DOCKED: USER    (3) Torsional Free Energy           =  +1.49 kcal/mol
DOCKED: USER    (4) Unbound System's Energy         =  -0.96 kcal/mol
DOCKED: USER
DOCKED: USER
DOCKED: REMARK  5 active torsions:
DOCKED: REMARK  status: ('A' for Active; 'I' for Inactive)
DOCKED: REMARK    1  A    between atoms: C_2  and  C_19 
DOCKED: REMARK    2  A    between atoms: C_2  and  C_11 
DOCKED: REMARK    3  A    between atoms: C_19  and  C_20 
DOCKED: REMARK    4  A    between atoms: C_20  and  C_21 
DOCKED: REMARK    5  A    between atoms: C_21  and  N_22 
DOCKED: USER                              x       y       z     vdW  Elec       q    Type
DOCKED: USER                           _______ _______ _______ _____ _____    ______ ____
DOCKED: ROOT
DOCKED: ATOM      1  O   UNL     1     -45.328 -21.580  15.311 -0.08 -0.00    -0.346 OA 
DOCKED: ATOM      2  C   UNL     1     -46.290 -20.638  14.735 -0.13 +0.00    +0.130 C  
DOCKED: ATOM      3  C   UNL     1     -47.303 -21.522  14.068 -0.20 +0.00    +0.004 A  
DOCKED: ATOM      4  C   UNL     1     -47.009 -22.852  14.332 -0.23 +0.00    +0.006 A  
DOCKED: ATOM      5  C   UNL     1     -45.806 -22.940  15.190 -0.13 +0.00    +0.169 C  
DOCKED: ATOM      6  C   UNL     1     -48.404 -21.176  13.297 -0.28 -0.00    -0.001 A  
DOCKED: ATOM      7  C   UNL     1     -47.797 -23.876  13.835 -0.35 +0.00    +0.008 A  
DOCKED: ATOM      8  C   UNL     1     -49.205 -22.197  12.786 -0.32 +0.00    +0.010 A  
DOCKED: ATOM      9  C   UNL     1     -48.903 -23.541  13.054 -0.31 +0.00    +0.068 A  
DOCKED: ATOM     10  N   UNL     1     -50.415 -25.413  12.093 -2.56 -0.00    -0.191 NA 
DOCKED: ATOM     11  C   UNL     1     -49.737 -24.573  12.524 -0.37 +0.00    +0.101 C  
DOCKED: ENDROOT
DOCKED: BRANCH   2  12
DOCKED: ATOM     12  C   UNL     1     -46.882 -19.803  15.864 -0.05 +0.00    +0.038 C  
DOCKED: BRANCH  12  13
DOCKED: ATOM     13  C   UNL     1     -46.344 -18.374  15.842 -0.03 +0.00    +0.038 C  
DOCKED: BRANCH  13  14
DOCKED: ATOM     14  C   UNL     1     -45.319 -18.155  16.953 -0.00 +0.00    +0.251 C  
DOCKED: BRANCH  14  15
DOCKED: ATOM     15  N   UNL     1     -45.526 -16.858  17.586 -0.00 +0.00    +0.141 N  
DOCKED: ATOM     16  C   UNL     1     -45.136 -15.775  16.682 -0.00 +0.00    +0.285 C  
DOCKED: ATOM     17  C   UNL     1     -46.923 -16.700  17.994 +0.00 +0.00    +0.285 C  
DOCKED: ENDBRANCH  14  15
DOCKED: ENDBRANCH  13  14
DOCKED: ENDBRANCH  12  13
DOCKED: ENDBRANCH   2  12
DOCKED: BRANCH   2  18
DOCKED: ATOM     18  C   UNL     1     -45.538 -19.783  13.771 -0.12 +0.00    +0.006 A  
DOCKED: ATOM     19  C   UNL     1     -46.226 -19.070  12.789 -0.16 +0.00    +0.001 A  
DOCKED: ATOM     20  C   UNL     1     -45.522 -18.271  11.887 -0.13 +0.00    +0.029 A  
DOCKED: ATOM     21  C   UNL     1     -44.133 -18.185  11.969 -0.07 +0.00    +0.140 A  
DOCKED: ATOM     22  C   UNL     1     -43.446 -18.898  12.951 -0.08 +0.00    +0.029 A  
DOCKED: ATOM     23  F   UNL     1     -43.458 -17.417  11.104 -0.00 -0.00    -0.204 F  
DOCKED: ATOM     24  C   UNL     1     -44.149 -19.698  13.853 -0.11 +0.00    +0.001 A  
DOCKED: ENDBRANCH   2  18
DOCKED: TORSDOF 5
DOCKED: TER
DOCKED: ENDMDL
________________________________________________________________________________


    FINAL DOCKED STATE:
    ________________________


Run:   275 / 512
Time taken for this run:   0.002s

DOCKED: MODEL        275
DOCKED: USER    Run = 275
DOCKED: USER
DOCKED: USER    Estimated Free Energy of Binding    =  -3.64 kcal/mol  [=(1)+(2)+(3)-(4)]
DOCKED: USER
DOCKED: USER    (1) Final Intermolecular Energy     =  -5.13 kcal/mol
DOCKED: USER        vdW + Hbond + desolv Energy     =  -5.13 kcal/mol
DOCKED: USER        Electrostatic Energy            =  +0.00 kcal/mol
DOCKED: USER        Moving Ligand-Fixed Receptor    =  -5.13 kcal/mol
DOCKED: USER        Moving Ligand-Moving Receptor   =  +0.00 kcal/mol
DOCKED: USER    (2) Final Total Internal Energy     =  -1.59 kcal/mol
DOCKED: USER    (3) Torsional Free Energy           =  +1.49 kcal/mol
DOCKED: USER    (4) Unbound System's Energy         =  -1.59 kcal/mol
DOCKED: USER
DOCKED: USER
DOCKED: REMARK  5 active torsions:
DOCKED: REMARK  status: ('A' for Active; 'I' for Inactive)
DOCKED: REMARK    1  A    between atoms: C_2  and  C_19 
DOCKED: REMARK    2  A    between atoms: C_2  and  C_11 
DOCKED: REMARK    3  A    between atoms: C_19  and  C_20 
DOCKED: REMARK    4  A    between atoms: C_20  and  C_21 
DOCKED: REMARK    5  A    between atoms: C_21  and  N_22 
DOCKED: USER                              x       y       z     vdW  Elec       q    Type
DOCKED: USER                           _______ _______ _______ _____ _____    ______ ____
DOCKED: ROOT
DOCKED: ATOM      1  O   UNL     1     -50.713 -22.430  16.082 +0.00 -0.00    -0.346 OA 
DOCKED: ATOM      2  C   UNL     1     -49.275 -22.645  15.914 -0.09 +0.00    +0.130 C  
DOCKED: ATOM      3  C   UNL     1     -49.153 -23.196  14.523 -0.20 +0.00    +0.004 A  
DOCKED: ATOM      4  C   UNL     1     -50.397 -23.194  13.909 -0.21 +0.00    +0.006 A  
DOCKED: ATOM      5  C   UNL     1     -51.412 -22.637  14.832 -0.09 +0.00    +0.169 C  
DOCKED: ATOM      6  C   UNL     1     -48.029 -23.653  13.851 -0.34 -0.00    -0.001 A  
DOCKED: ATOM      7  C   UNL     1     -50.562 -23.648  12.612 -0.32 +0.00    +0.008 A  
DOCKED: ATOM      8  C   UNL     1     -48.179 -24.119  12.543 -0.30 +0.00    +0.010 A  
DOCKED: ATOM      9  C   UNL     1     -49.440 -24.116  11.927 -0.39 +0.00    +0.068 A  
DOCKED: ATOM     10  N   UNL     1     -49.683 -24.983   9.498 -1.59 -0.00    -0.191 NA 
DOCKED: ATOM     11  C   UNL     1     -49.574 -24.595  10.588 -0.53 +0.00    +0.101 C  
DOCKED: ENDROOT
DOCKED: BRANCH   2  12
DOCKED: ATOM     12  C   UNL     1     -48.564 -21.307  16.086 -0.07 +0.00    +0.038 C  
DOCKED: BRANCH  12  13
DOCKED: ATOM     13  C   UNL     1     -49.532 -20.217  16.540 -0.03 +0.00    +0.038 C  
DOCKED: BRANCH  13  14
DOCKED: ATOM     14  C   UNL     1     -49.488 -20.038  18.057 -0.00 +0.00    +0.251 C  
DOCKED: BRANCH  14  15
DOCKED: ATOM     15  N   UNL     1     -49.940 -21.253  18.724 -0.01 +0.00    +0.141 N  
DOCKED: ATOM     16  C   UNL     1     -49.347 -21.361  20.058 -0.00 +0.00    +0.285 C  
DOCKED: ATOM     17  C   UNL     1     -51.401 -21.279  18.814 +0.00 +0.00    +0.285 C  
DOCKED: ENDBRANCH  14  15
DOCKED: ENDBRANCH  13  14
DOCKED: ENDBRANCH  12  13
DOCKED: ENDBRANCH   2  12
DOCKED: BRANCH   2  18
DOCKED: ATOM     18  C   UNL     1     -48.853 -23.617  16.964 -0.14 +0.00    +0.006 A  
DOCKED: ATOM     19  C   UNL     1     -49.808 -24.401  17.612 -0.16 +0.00    +0.001 A  
DOCKED: ATOM     20  C   UNL     1     -49.412 -25.310  18.594 -0.09 +0.00    +0.029 A  
DOCKED: ATOM     21  C   UNL     1     -48.064 -25.435  18.926 -0.19 +0.00    +0.140 A  
DOCKED: ATOM     22  C   UNL     1     -47.110 -24.651  18.278 -0.15 +0.00    +0.029 A  
DOCKED: ATOM     23  F   UNL     1     -47.685 -26.308  19.868 -0.08 -0.00    -0.204 F  
DOCKED: ATOM     24  C   UNL     1     -47.504 -23.741  17.296 -0.15 +0.00    +0.001 A  
DOCKED: ENDBRANCH   2  18
DOCKED: TORSDOF 5
DOCKED: TER
DOCKED: ENDMDL
________________________________________________________________________________


    FINAL DOCKED STATE:
    ________________________


Run:   276 / 512
Time taken for this run:   0.002s

DOCKED: MODEL        276
DOCKED: USER    Run = 276
DOCKED: USER
DOCKED: USER    Estimated Free Energy of Binding    =  -4.03 kcal/mol  [=(1)+(2)+(3)-(4)]
DOCKED: USER
DOCKED: USER    (1) Final Intermolecular Energy     =  -5.52 kcal/mol
DOCKED: USER        vdW + Hbond + desolv Energy     =  -5.52 kcal/mol
DOCKED: USER        Electrostatic Energy            =  +0.00 kcal/mol
DOCKED: USER        Moving Ligand-Fixed Receptor    =  -5.52 kcal/mol
DOCKED: USER        Moving Ligand-Moving Receptor   =  +0.00 kcal/mol
DOCKED: USER    (2) Final Total Internal Energy     =  -1.26 kcal/mol
DOCKED: USER    (3) Torsional Free Energy           =  +1.49 kcal/mol
DOCKED: USER    (4) Unbound System's Energy         =  -1.26 kcal/mol
DOCKED: USER
DOCKED: USER
DOCKED: REMARK  5 active torsions:
DOCKED: REMARK  status: ('A' for Active; 'I' for Inactive)
DOCKED: REMARK    1  A    between atoms: C_2  and  C_19 
DOCKED: REMARK    2  A    between atoms: C_2  and  C_11 
DOCKED: REMARK    3  A    between atoms: C_19  and  C_20 
DOCKED: REMARK    4  A    between atoms: C_20  and  C_21 
DOCKED: REMARK    5  A    between atoms: C_21  and  N_22 
DOCKED: USER                              x       y       z     vdW  Elec       q    Type
DOCKED: USER                           _______ _______ _______ _____ _____    ______ ____
DOCKED: ROOT
DOCKED: ATOM      1  O   UNL     1     -46.998 -19.824  14.865 -0.03 -0.00    -0.346 OA 
DOCKED: ATOM      2  C   UNL     1     -46.270 -21.032  15.256 -0.12 +0.00    +0.130 C  
DOCKED: ATOM      3  C   UNL     1     -47.063 -22.146  14.635 -0.21 +0.00    +0.004 A  
DOCKED: ATOM      4  C   UNL     1     -48.089 -21.617  13.866 -0.25 +0.00    +0.006 A  
DOCKED: ATOM      5  C   UNL     1     -48.040 -20.138  13.912 -0.17 +0.00    +0.169 C  
DOCKED: ATOM      6  C   UNL     1     -46.884 -23.518  14.735 -0.24 -0.00    -0.001 A  
DOCKED: ATOM      7  C   UNL     1     -48.969 -22.434  13.177 -0.32 +0.00    +0.008 A  
DOCKED: ATOM      8  C   UNL     1     -47.765 -24.356  14.050 -0.37 +0.00    +0.010 A  
DOCKED: ATOM      9  C   UNL     1     -48.802 -23.816  13.274 -0.31 +0.00    +0.068 A  
DOCKED: ATOM     10  N   UNL     1     -50.418 -25.399  12.011 -2.47 -0.00    -0.191 NA 
DOCKED: ATOM     11  C   UNL     1     -49.694 -24.689  12.578 -0.31 +0.00    +0.101 C  
DOCKED: ENDROOT
DOCKED: BRANCH   2  12
DOCKED: ATOM     12  C   UNL     1     -44.851 -20.939  14.709 -0.12 +0.00    +0.038 C  
DOCKED: BRANCH  12  13
DOCKED: ATOM     13  C   UNL     1     -44.491 -19.502  14.335 -0.10 +0.00    +0.038 C  
DOCKED: BRANCH  13  14
DOCKED: ATOM     14  C   UNL     1     -44.067 -19.406  12.871 -0.08 +0.00    +0.251 C  
DOCKED: BRANCH  14  15
DOCKED: ATOM     15  N   UNL     1     -44.680 -18.243  12.240 -0.08 +0.00    +0.141 N  
DOCKED: ATOM     16  C   UNL     1     -45.244 -18.599  10.938 -0.10 +0.00    +0.285 C  
DOCKED: ATOM     17  C   UNL     1     -45.716 -17.674  13.104 -0.06 +0.00    +0.285 C  
DOCKED: ENDBRANCH  14  15
DOCKED: ENDBRANCH  13  14
DOCKED: ENDBRANCH  12  13
DOCKED: ENDBRANCH   2  12
DOCKED: BRANCH   2  18
DOCKED: ATOM     18  C   UNL     1     -46.271 -21.079  16.747 -0.05 +0.00    +0.006 A  
DOCKED: ATOM     19  C   UNL     1     -47.055 -20.182  17.472 -0.02 +0.00    +0.001 A  
DOCKED: ATOM     20  C   UNL     1     -47.055 -20.226  18.866 -0.00 +0.00    +0.029 A  
DOCKED: ATOM     21  C   UNL     1     -46.272 -21.166  19.534 -0.01 +0.00    +0.140 A  
DOCKED: ATOM     22  C   UNL     1     -45.488 -22.063  18.809 -0.04 +0.00    +0.029 A  
DOCKED: ATOM     23  F   UNL     1     -46.273 -21.209  20.873 +0.00 -0.00    -0.204 F  
DOCKED: ATOM     24  C   UNL     1     -45.487 -22.020  17.414 -0.08 +0.00    +0.001 A  
DOCKED: ENDBRANCH   2  18
DOCKED: TORSDOF 5
DOCKED: TER
DOCKED: ENDMDL
________________________________________________________________________________


    FINAL DOCKED STATE:
    ________________________


Run:   277 / 512
Time taken for this run:   0.002s

DOCKED: MODEL        277
DOCKED: USER    Run = 277
DOCKED: USER
DOCKED: USER    Estimated Free Energy of Binding    =  -4.38 kcal/mol  [=(1)+(2)+(3)-(4)]
DOCKED: USER
DOCKED: USER    (1) Final Intermolecular Energy     =  -5.87 kcal/mol
DOCKED: USER        vdW + Hbond + desolv Energy     =  -5.87 kcal/mol
DOCKED: USER        Electrostatic Energy            =  +0.00 kcal/mol
DOCKED: USER        Moving Ligand-Fixed Receptor    =  -5.87 kcal/mol
DOCKED: USER        Moving Ligand-Moving Receptor   =  +0.00 kcal/mol
DOCKED: USER    (2) Final Total Internal Energy     =  -1.14 kcal/mol
DOCKED: USER    (3) Torsional Free Energy           =  +1.49 kcal/mol
DOCKED: USER    (4) Unbound System's Energy         =  -1.14 kcal/mol
DOCKED: USER
DOCKED: USER
DOCKED: REMARK  5 active torsions:
DOCKED: REMARK  status: ('A' for Active; 'I' for Inactive)
DOCKED: REMARK    1  A    between atoms: C_2  and  C_19 
DOCKED: REMARK    2  A    between atoms: C_2  and  C_11 
DOCKED: REMARK    3  A    between atoms: C_19  and  C_20 
DOCKED: REMARK    4  A    between atoms: C_20  and  C_21 
DOCKED: REMARK    5  A    between atoms: C_21  and  N_22 
DOCKED: USER                              x       y       z     vdW  Elec       q    Type
DOCKED: USER                           _______ _______ _______ _____ _____    ______ ____
DOCKED: ROOT
DOCKED: ATOM      1  O   UNL     1     -45.394 -21.726  15.547 -0.08 -0.00    -0.346 OA 
DOCKED: ATOM      2  C   UNL     1     -46.252 -20.767  14.850 -0.13 +0.00    +0.130 C  
DOCKED: ATOM      3  C   UNL     1     -47.254 -21.631  14.140 -0.19 +0.00    +0.004 A  
DOCKED: ATOM      4  C   UNL     1     -47.055 -22.960  14.489 -0.25 +0.00    +0.006 A  
DOCKED: ATOM      5  C   UNL     1     -45.934 -23.065  15.449 -0.08 +0.00    +0.169 C  
DOCKED: ATOM      6  C   UNL     1     -48.267 -21.269  13.265 -0.28 -0.00    -0.001 A  
DOCKED: ATOM      7  C   UNL     1     -47.854 -23.967  13.976 -0.35 +0.00    +0.008 A  
DOCKED: ATOM      8  C   UNL     1     -49.079 -22.274  12.735 -0.33 +0.00    +0.010 A  
DOCKED: ATOM      9  C   UNL     1     -48.873 -23.616  13.089 -0.31 +0.00    +0.068 A  
DOCKED: ATOM     10  N   UNL     1     -50.401 -25.455  12.091 -2.56 -0.00    -0.191 NA 
DOCKED: ATOM     11  C   UNL     1     -49.715 -24.630  12.538 -0.36 +0.00    +0.101 C  
DOCKED: ENDROOT
DOCKED: BRANCH   2  12
DOCKED: ATOM     12  C   UNL     1     -46.889 -19.848  15.885 -0.05 +0.00    +0.038 C  
DOCKED: BRANCH  12  13
DOCKED: ATOM     13  C   UNL     1     -48.082 -19.094  15.301 -0.06 +0.00    +0.038 C  
DOCKED: BRANCH  13  14
DOCKED: ATOM     14  C   UNL     1     -49.361 -19.405  16.077 -0.02 +0.00    +0.251 C  
DOCKED: BRANCH  14  15
DOCKED: ATOM     15  N   UNL     1     -50.188 -20.348  15.333 -0.05 +0.00    +0.141 N  
DOCKED: ATOM     16  C   UNL     1     -50.886 -21.254  16.247 -0.01 +0.00    +0.285 C  
DOCKED: ATOM     17  C   UNL     1     -51.151 -19.636  14.490 -0.10 +0.00    +0.285 C  
DOCKED: ENDBRANCH  14  15
DOCKED: ENDBRANCH  13  14
DOCKED: ENDBRANCH  12  13
DOCKED: ENDBRANCH   2  12
DOCKED: BRANCH   2  18
DOCKED: ATOM     18  C   UNL     1     -45.378 -20.001  13.914 -0.10 +0.00    +0.006 A  
DOCKED: ATOM     19  C   UNL     1     -43.992 -20.128  13.992 -0.10 +0.00    +0.001 A  
DOCKED: ATOM     20  C   UNL     1     -43.176 -19.410  13.117 -0.09 +0.00    +0.029 A  
DOCKED: ATOM     21  C   UNL     1     -43.748 -18.568  12.164 -0.07 +0.00    +0.140 A  
DOCKED: ATOM     22  C   UNL     1     -45.134 -18.441  12.086 -0.13 +0.00    +0.029 A  
DOCKED: ATOM     23  F   UNL     1     -42.965 -17.880  11.323 -0.00 -0.00    -0.204 F  
DOCKED: ATOM     24  C   UNL     1     -45.951 -19.158  12.962 -0.16 +0.00    +0.001 A  
DOCKED: ENDBRANCH   2  18
DOCKED: TORSDOF 5
DOCKED: TER
DOCKED: ENDMDL
________________________________________________________________________________


    FINAL DOCKED STATE:
    ________________________


Run:   278 / 512
Time taken for this run:   0.002s

DOCKED: MODEL        278
DOCKED: USER    Run = 278
DOCKED: USER
DOCKED: USER    Estimated Free Energy of Binding    =  -5.55 kcal/mol  [=(1)+(2)+(3)-(4)]
DOCKED: USER
DOCKED: USER    (1) Final Intermolecular Energy     =  -7.04 kcal/mol
DOCKED: USER        vdW + Hbond + desolv Energy     =  -7.04 kcal/mol
DOCKED: USER        Electrostatic Energy            =  +0.00 kcal/mol
DOCKED: USER        Moving Ligand-Fixed Receptor    =  -7.04 kcal/mol
DOCKED: USER        Moving Ligand-Moving Receptor   =  +0.00 kcal/mol
DOCKED: USER    (2) Final Total Internal Energy     =  -0.90 kcal/mol
DOCKED: USER    (3) Torsional Free Energy           =  +1.49 kcal/mol
DOCKED: USER    (4) Unbound System's Energy         =  -0.90 kcal/mol
DOCKED: USER
DOCKED: USER
DOCKED: REMARK  5 active torsions:
DOCKED: REMARK  status: ('A' for Active; 'I' for Inactive)
DOCKED: REMARK    1  A    between atoms: C_2  and  C_19 
DOCKED: REMARK    2  A    between atoms: C_2  and  C_11 
DOCKED: REMARK    3  A    between atoms: C_19  and  C_20 
DOCKED: REMARK    4  A    between atoms: C_20  and  C_21 
DOCKED: REMARK    5  A    between atoms: C_21  and  N_22 
DOCKED: USER                              x       y       z     vdW  Elec       q    Type
DOCKED: USER                           _______ _______ _______ _____ _____    ______ ____
DOCKED: ROOT
DOCKED: ATOM      1  O   UNL     1     -51.671 -22.596  15.060 -0.00 -0.00    -0.346 OA 
DOCKED: ATOM      2  C   UNL     1     -50.223 -22.572  14.844 -0.11 +0.00    +0.130 C  
DOCKED: ATOM      3  C   UNL     1     -50.067 -22.983  13.409 -0.25 +0.00    +0.004 A  
DOCKED: ATOM      4  C   UNL     1     -51.318 -23.121  12.824 -0.28 +0.00    +0.006 A  
DOCKED: ATOM      5  C   UNL     1     -52.373 -22.804  13.813 -0.17 +0.00    +0.169 C  
DOCKED: ATOM      6  C   UNL     1     -48.910 -23.205  12.676 -0.37 -0.00    -0.001 A  
DOCKED: ATOM      7  C   UNL     1     -51.456 -23.488  11.496 -0.25 +0.00    +0.008 A  
DOCKED: ATOM      8  C   UNL     1     -49.033 -23.579  11.337 -0.29 +0.00    +0.010 A  
DOCKED: ATOM      9  C   UNL     1     -50.300 -23.720  10.750 -0.37 +0.00    +0.068 A  
DOCKED: ATOM     10  N   UNL     1     -50.492 -24.412   8.261 -2.88 -0.00    -0.191 NA 
DOCKED: ATOM     11  C   UNL     1     -50.406 -24.102   9.377 -0.28 +0.00    +0.101 C  
DOCKED: ENDROOT
DOCKED: BRANCH   2  12
DOCKED: ATOM     12  C   UNL     1     -49.718 -21.161  15.117 -0.11 +0.00    +0.038 C  
DOCKED: BRANCH  12  13
DOCKED: ATOM     13  C   UNL     1     -49.399 -20.423  13.817 -0.23 +0.00    +0.038 C  
DOCKED: BRANCH  13  14
DOCKED: ATOM     14  C   UNL     1     -50.608 -19.630  13.325 -0.13 +0.00    +0.251 C  
DOCKED: BRANCH  14  15
DOCKED: ATOM     15  N   UNL     1     -50.252 -18.228  13.137 -0.20 +0.00    +0.141 N  
DOCKED: ATOM     16  C   UNL     1     -51.127 -17.363  13.930 -0.10 +0.00    +0.285 C  
DOCKED: ATOM     17  C   UNL     1     -48.852 -17.999  13.494 -0.11 +0.00    +0.285 C  
DOCKED: ENDBRANCH  14  15
DOCKED: ENDBRANCH  13  14
DOCKED: ENDBRANCH  12  13
DOCKED: ENDBRANCH   2  12
DOCKED: BRANCH   2  18
DOCKED: ATOM     18  C   UNL     1     -49.624 -23.552  15.798 -0.15 +0.00    +0.006 A  
DOCKED: ATOM     19  C   UNL     1     -49.966 -23.508  17.149 -0.11 +0.00    +0.001 A  
DOCKED: ATOM     20  C   UNL     1     -49.405 -24.424  18.039 -0.16 +0.00    +0.029 A  
DOCKED: ATOM     21  C   UNL     1     -48.503 -25.382  17.577 -0.08 +0.00    +0.140 A  
DOCKED: ATOM     22  C   UNL     1     -48.161 -25.425  16.226 -0.05 +0.00    +0.029 A  
DOCKED: ATOM     23  F   UNL     1     -47.966 -26.263  18.432 -0.09 -0.00    -0.204 F  
DOCKED: ATOM     24  C   UNL     1     -48.722 -24.509  15.335 -0.28 +0.00    +0.001 A  
DOCKED: ENDBRANCH   2  18
DOCKED: TORSDOF 5
DOCKED: TER
DOCKED: ENDMDL
________________________________________________________________________________


    FINAL DOCKED STATE:
    ________________________


Run:   279 / 512
Time taken for this run:   0.002s

DOCKED: MODEL        279
DOCKED: USER    Run = 279
DOCKED: USER
DOCKED: USER    Estimated Free Energy of Binding    =  -4.18 kcal/mol  [=(1)+(2)+(3)-(4)]
DOCKED: USER
DOCKED: USER    (1) Final Intermolecular Energy     =  -5.67 kcal/mol
DOCKED: USER        vdW + Hbond + desolv Energy     =  -5.67 kcal/mol
DOCKED: USER        Electrostatic Energy            =  +0.00 kcal/mol
DOCKED: USER        Moving Ligand-Fixed Receptor    =  -5.67 kcal/mol
DOCKED: USER        Moving Ligand-Moving Receptor   =  +0.00 kcal/mol
DOCKED: USER    (2) Final Total Internal Energy     =  -1.15 kcal/mol
DOCKED: USER    (3) Torsional Free Energy           =  +1.49 kcal/mol
DOCKED: USER    (4) Unbound System's Energy         =  -1.15 kcal/mol
DOCKED: USER
DOCKED: USER
DOCKED: REMARK  5 active torsions:
DOCKED: REMARK  status: ('A' for Active; 'I' for Inactive)
DOCKED: REMARK    1  A    between atoms: C_2  and  C_19 
DOCKED: REMARK    2  A    between atoms: C_2  and  C_11 
DOCKED: REMARK    3  A    between atoms: C_19  and  C_20 
DOCKED: REMARK    4  A    between atoms: C_20  and  C_21 
DOCKED: REMARK    5  A    between atoms: C_21  and  N_22 
DOCKED: USER                              x       y       z     vdW  Elec       q    Type
DOCKED: USER                           _______ _______ _______ _____ _____    ______ ____
DOCKED: ROOT
DOCKED: ATOM      1  O   UNL     1     -45.682 -21.663  15.869 -0.06 -0.00    -0.346 OA 
DOCKED: ATOM      2  C   UNL     1     -46.390 -20.730  14.992 -0.12 +0.00    +0.130 C  
DOCKED: ATOM      3  C   UNL     1     -47.341 -21.607  14.228 -0.21 +0.00    +0.004 A  
DOCKED: ATOM      4  C   UNL     1     -47.262 -22.908  14.704 -0.25 +0.00    +0.006 A  
DOCKED: ATOM      5  C   UNL     1     -46.279 -22.980  15.808 -0.11 +0.00    +0.169 C  
DOCKED: ATOM      6  C   UNL     1     -48.213 -21.276  13.201 -0.28 -0.00    -0.001 A  
DOCKED: ATOM      7  C   UNL     1     -48.044 -23.918  14.172 -0.33 +0.00    +0.008 A  
DOCKED: ATOM      8  C   UNL     1     -49.005 -22.285  12.651 -0.33 +0.00    +0.010 A  
DOCKED: ATOM      9  C   UNL     1     -48.921 -23.599  13.134 -0.31 +0.00    +0.068 A  
DOCKED: ATOM     10  N   UNL     1     -50.410 -25.448  12.094 -2.56 -0.00    -0.191 NA 
DOCKED: ATOM     11  C   UNL     1     -49.742 -24.619  12.560 -0.36 +0.00    +0.101 C  
DOCKED: ENDROOT
DOCKED: BRANCH   2  12
DOCKED: ATOM     12  C   UNL     1     -47.102 -19.698  15.858 -0.05 +0.00    +0.038 C  
DOCKED: BRANCH  12  13
DOCKED: ATOM     13  C   UNL     1     -48.496 -20.174  16.260 -0.04 +0.00    +0.038 C  
DOCKED: BRANCH  13  14
DOCKED: ATOM     14  C   UNL     1     -48.426 -21.153  17.430 -0.01 +0.00    +0.251 C  
DOCKED: BRANCH  14  15
DOCKED: ATOM     15  N   UNL     1     -49.704 -21.199  18.131 -0.01 +0.00    +0.141 N  
DOCKED: ATOM     16  C   UNL     1     -49.815 -20.086  19.075 -0.00 +0.00    +0.285 C  
DOCKED: ATOM     17  C   UNL     1     -50.816 -21.168  17.178 -0.00 +0.00    +0.285 C  
DOCKED: ENDBRANCH  14  15
DOCKED: ENDBRANCH  13  14
DOCKED: ENDBRANCH  12  13
DOCKED: ENDBRANCH   2  12
DOCKED: BRANCH   2  18
DOCKED: ATOM     18  C   UNL     1     -45.364 -20.087  14.120 -0.11 +0.00    +0.006 A  
DOCKED: ATOM     19  C   UNL     1     -45.752 -19.150  13.163 -0.15 +0.00    +0.001 A  
DOCKED: ATOM     20  C   UNL     1     -44.791 -18.550  12.348 -0.12 +0.00    +0.029 A  
DOCKED: ATOM     21  C   UNL     1     -43.446 -18.885  12.493 -0.07 +0.00    +0.140 A  
DOCKED: ATOM     22  C   UNL     1     -43.059 -19.822  13.451 -0.09 +0.00    +0.029 A  
DOCKED: ATOM     23  F   UNL     1     -42.524 -18.307  11.712 -0.01 -0.00    -0.204 F  
DOCKED: ATOM     24  C   UNL     1     -44.019 -20.424  14.266 -0.10 +0.00    +0.001 A  
DOCKED: ENDBRANCH   2  18
DOCKED: TORSDOF 5
DOCKED: TER
DOCKED: ENDMDL
________________________________________________________________________________


    FINAL DOCKED STATE:
    ________________________


Run:   280 / 512
Time taken for this run:   0.002s

DOCKED: MODEL        280
DOCKED: USER    Run = 280
DOCKED: USER
DOCKED: USER    Estimated Free Energy of Binding    =  -3.71 kcal/mol  [=(1)+(2)+(3)-(4)]
DOCKED: USER
DOCKED: USER    (1) Final Intermolecular Energy     =  -5.20 kcal/mol
DOCKED: USER        vdW + Hbond + desolv Energy     =  -5.20 kcal/mol
DOCKED: USER        Electrostatic Energy            =  +0.00 kcal/mol
DOCKED: USER        Moving Ligand-Fixed Receptor    =  -5.20 kcal/mol
DOCKED: USER        Moving Ligand-Moving Receptor   =  +0.00 kcal/mol
DOCKED: USER    (2) Final Total Internal Energy     =  -1.50 kcal/mol
DOCKED: USER    (3) Torsional Free Energy           =  +1.49 kcal/mol
DOCKED: USER    (4) Unbound System's Energy         =  -1.50 kcal/mol
DOCKED: USER
DOCKED: USER
DOCKED: REMARK  5 active torsions:
DOCKED: REMARK  status: ('A' for Active; 'I' for Inactive)
DOCKED: REMARK    1  A    between atoms: C_2  and  C_19 
DOCKED: REMARK    2  A    between atoms: C_2  and  C_11 
DOCKED: REMARK    3  A    between atoms: C_19  and  C_20 
DOCKED: REMARK    4  A    between atoms: C_20  and  C_21 
DOCKED: REMARK    5  A    between atoms: C_21  and  N_22 
DOCKED: USER                              x       y       z     vdW  Elec       q    Type
DOCKED: USER                           _______ _______ _______ _____ _____    ______ ____
DOCKED: ROOT
DOCKED: ATOM      1  O   UNL     1     -41.164 -22.381   5.561 -0.02 -0.00    -0.346 OA 
DOCKED: ATOM      2  C   UNL     1     -41.047 -21.486   6.713 -0.08 +0.00    +0.130 C  
DOCKED: ATOM      3  C   UNL     1     -41.449 -22.345   7.877 -0.12 +0.00    +0.004 A  
DOCKED: ATOM      4  C   UNL     1     -41.668 -23.645   7.445 -0.18 +0.00    +0.006 A  
DOCKED: ATOM      5  C   UNL     1     -41.419 -23.739   5.989 -0.04 +0.00    +0.169 C  
DOCKED: ATOM      6  C   UNL     1     -41.596 -22.005   9.214 -0.14 -0.00    -0.001 A  
DOCKED: ATOM      7  C   UNL     1     -42.045 -24.643   8.327 -0.30 +0.00    +0.008 A  
DOCKED: ATOM      8  C   UNL     1     -41.980 -22.999  10.115 -0.23 +0.00    +0.010 A  
DOCKED: ATOM      9  C   UNL     1     -42.203 -24.312   9.673 -0.31 +0.00    +0.068 A  
DOCKED: ATOM     10  N   UNL     1     -42.910 -26.136  11.373 -2.67 -0.00    -0.191 NA 
DOCKED: ATOM     11  C   UNL     1     -42.593 -25.318  10.610 -0.27 +0.00    +0.101 C  
DOCKED: ENDROOT
DOCKED: BRANCH   2  12
DOCKED: ATOM     12  C   UNL     1     -39.605 -21.001   6.803 -0.02 +0.00    +0.038 C  
DOCKED: BRANCH  12  13
DOCKED: ATOM     13  C   UNL     1     -38.768 -21.522   5.636 -0.01 +0.00    +0.038 C  
DOCKED: BRANCH  13  14
DOCKED: ATOM     14  C   UNL     1     -38.852 -20.581   4.436 -0.00 +0.00    +0.251 C  
DOCKED: BRANCH  14  15
DOCKED: ATOM     15  N   UNL     1     -39.304 -21.305   3.254 -0.01 +0.00    +0.141 N  
DOCKED: ATOM     16  C   UNL     1     -39.126 -22.747   3.433 -0.02 +0.00    +0.285 C  
DOCKED: ATOM     17  C   UNL     1     -40.706 -20.998   2.966 -0.05 +0.00    +0.285 C  
DOCKED: ENDBRANCH  14  15
DOCKED: ENDBRANCH  13  14
DOCKED: ENDBRANCH  12  13
DOCKED: ENDBRANCH   2  12
DOCKED: BRANCH   2  18
DOCKED: ATOM     18  C   UNL     1     -41.984 -20.349   6.479 -0.11 +0.00    +0.006 A  
DOCKED: ATOM     19  C   UNL     1     -41.500 -19.138   5.984 -0.04 +0.00    +0.001 A  
DOCKED: ATOM     20  C   UNL     1     -42.378 -18.075   5.766 -0.05 +0.00    +0.029 A  
DOCKED: ATOM     21  C   UNL     1     -43.736 -18.224   6.041 -0.12 +0.00    +0.140 A  
DOCKED: ATOM     22  C   UNL     1     -44.219 -19.436   6.536 -0.18 +0.00    +0.029 A  
DOCKED: ATOM     23  F   UNL     1     -44.578 -17.205   5.830 -0.05 -0.00    -0.204 F  
DOCKED: ATOM     24  C   UNL     1     -43.342 -20.499   6.755 -0.19 +0.00    +0.001 A  
DOCKED: ENDBRANCH   2  18
DOCKED: TORSDOF 5
DOCKED: TER
DOCKED: ENDMDL
________________________________________________________________________________


    FINAL DOCKED STATE:
    ________________________


Run:   281 / 512
Time taken for this run:   0.002s

DOCKED: MODEL        281
DOCKED: USER    Run = 281
DOCKED: USER
DOCKED: USER    Estimated Free Energy of Binding    =  -4.40 kcal/mol  [=(1)+(2)+(3)-(4)]
DOCKED: USER
DOCKED: USER    (1) Final Intermolecular Energy     =  -5.89 kcal/mol
DOCKED: USER        vdW + Hbond + desolv Energy     =  -5.89 kcal/mol
DOCKED: USER        Electrostatic Energy            =  +0.00 kcal/mol
DOCKED: USER        Moving Ligand-Fixed Receptor    =  -5.89 kcal/mol
DOCKED: USER        Moving Ligand-Moving Receptor   =  +0.00 kcal/mol
DOCKED: USER    (2) Final Total Internal Energy     =  -1.05 kcal/mol
DOCKED: USER    (3) Torsional Free Energy           =  +1.49 kcal/mol
DOCKED: USER    (4) Unbound System's Energy         =  -1.05 kcal/mol
DOCKED: USER
DOCKED: USER
DOCKED: REMARK  5 active torsions:
DOCKED: REMARK  status: ('A' for Active; 'I' for Inactive)
DOCKED: REMARK    1  A    between atoms: C_2  and  C_19 
DOCKED: REMARK    2  A    between atoms: C_2  and  C_11 
DOCKED: REMARK    3  A    between atoms: C_19  and  C_20 
DOCKED: REMARK    4  A    between atoms: C_20  and  C_21 
DOCKED: REMARK    5  A    between atoms: C_21  and  N_22 
DOCKED: USER                              x       y       z     vdW  Elec       q    Type
DOCKED: USER                           _______ _______ _______ _____ _____    ______ ____
DOCKED: ROOT
DOCKED: ATOM      1  O   UNL     1     -47.859 -18.899  13.462 -0.07 -0.00    -0.346 OA 
DOCKED: ATOM      2  C   UNL     1     -49.202 -18.973  14.039 -0.15 +0.00    +0.130 C  
DOCKED: ATOM      3  C   UNL     1     -49.667 -20.358  13.691 -0.22 +0.00    +0.004 A  
DOCKED: ATOM      4  C   UNL     1     -48.640 -21.053  13.068 -0.26 +0.00    +0.006 A  
DOCKED: ATOM      5  C   UNL     1     -47.438 -20.194  12.973 -0.13 +0.00    +0.169 C  
DOCKED: ATOM      6  C   UNL     1     -50.896 -20.959  13.918 -0.21 -0.00    -0.001 A  
DOCKED: ATOM      7  C   UNL     1     -48.805 -22.362  12.649 -0.33 +0.00    +0.008 A  
DOCKED: ATOM      8  C   UNL     1     -51.081 -22.277  13.498 -0.22 +0.00    +0.010 A  
DOCKED: ATOM      9  C   UNL     1     -50.040 -22.975  12.867 -0.26 +0.00    +0.068 A  
DOCKED: ATOM     10  N   UNL     1     -50.414 -25.422  12.103 -2.56 -0.00    -0.191 NA 
DOCKED: ATOM     11  C   UNL     1     -50.247 -24.324  12.445 -0.36 +0.00    +0.101 C  
DOCKED: ENDROOT
DOCKED: BRANCH   2  12
DOCKED: ATOM     12  C   UNL     1     -49.096 -18.743  15.542 -0.05 +0.00    +0.038 C  
DOCKED: BRANCH  12  13
DOCKED: ATOM     13  C   UNL     1     -50.383 -19.145  16.259 -0.03 +0.00    +0.038 C  
DOCKED: BRANCH  13  14
DOCKED: ATOM     14  C   UNL     1     -50.477 -18.482  17.632 -0.00 +0.00    +0.251 C  
DOCKED: BRANCH  14  15
DOCKED: ATOM     15  N   UNL     1     -51.543 -17.488  17.643 -0.01 +0.00    +0.141 N  
DOCKED: ATOM     16  C   UNL     1     -51.082 -16.229  17.054 -0.00 +0.00    +0.285 C  
DOCKED: ATOM     17  C   UNL     1     -52.718 -17.983  16.924 +0.00 +0.00    +0.285 C  
DOCKED: ENDBRANCH  14  15
DOCKED: ENDBRANCH  13  14
DOCKED: ENDBRANCH  12  13
DOCKED: ENDBRANCH   2  12
DOCKED: BRANCH   2  18
DOCKED: ATOM     18  C   UNL     1     -50.016 -17.906  13.387 -0.19 +0.00    +0.006 A  
DOCKED: ATOM     19  C   UNL     1     -49.390 -16.922  12.622 -0.16 +0.00    +0.001 A  
DOCKED: ATOM     20  C   UNL     1     -50.153 -15.925  12.013 -0.16 +0.00    +0.029 A  
DOCKED: ATOM     21  C   UNL     1     -51.538 -15.912  12.169 -0.11 +0.00    +0.140 A  
DOCKED: ATOM     22  C   UNL     1     -52.163 -16.897  12.934 -0.17 +0.00    +0.029 A  
DOCKED: ATOM     23  F   UNL     1     -52.270 -14.955  11.583 -0.02 -0.00    -0.204 F  
DOCKED: ATOM     24  C   UNL     1     -51.401 -17.895  13.544 -0.21 +0.00    +0.001 A  
DOCKED: ENDBRANCH   2  18
DOCKED: TORSDOF 5
DOCKED: TER
DOCKED: ENDMDL
________________________________________________________________________________


    FINAL DOCKED STATE:
    ________________________


Run:   282 / 512
Time taken for this run:   0.002s

DOCKED: MODEL        282
DOCKED: USER    Run = 282
DOCKED: USER
DOCKED: USER    Estimated Free Energy of Binding    =  -5.10 kcal/mol  [=(1)+(2)+(3)-(4)]
DOCKED: USER
DOCKED: USER    (1) Final Intermolecular Energy     =  -6.59 kcal/mol
DOCKED: USER        vdW + Hbond + desolv Energy     =  -6.59 kcal/mol
DOCKED: USER        Electrostatic Energy            =  +0.00 kcal/mol
DOCKED: USER        Moving Ligand-Fixed Receptor    =  -6.59 kcal/mol
DOCKED: USER        Moving Ligand-Moving Receptor   =  +0.00 kcal/mol
DOCKED: USER    (2) Final Total Internal Energy     =  -1.07 kcal/mol
DOCKED: USER    (3) Torsional Free Energy           =  +1.49 kcal/mol
DOCKED: USER    (4) Unbound System's Energy         =  -1.07 kcal/mol
DOCKED: USER
DOCKED: USER
DOCKED: REMARK  5 active torsions:
DOCKED: REMARK  status: ('A' for Active; 'I' for Inactive)
DOCKED: REMARK    1  A    between atoms: C_2  and  C_19 
DOCKED: REMARK    2  A    between atoms: C_2  and  C_11 
DOCKED: REMARK    3  A    between atoms: C_19  and  C_20 
DOCKED: REMARK    4  A    between atoms: C_20  and  C_21 
DOCKED: REMARK    5  A    between atoms: C_21  and  N_22 
DOCKED: USER                              x       y       z     vdW  Elec       q    Type
DOCKED: USER                           _______ _______ _______ _____ _____    ______ ____
DOCKED: ROOT
DOCKED: ATOM      1  O   UNL     1     -47.692 -24.704  15.058 -0.17 -0.00    -0.346 OA 
DOCKED: ATOM      2  C   UNL     1     -48.642 -23.590  15.047 -0.19 +0.00    +0.130 C  
DOCKED: ATOM      3  C   UNL     1     -49.143 -23.560  13.632 -0.30 +0.00    +0.004 A  
DOCKED: ATOM      4  C   UNL     1     -48.612 -24.629  12.926 -0.40 +0.00    +0.006 A  
DOCKED: ATOM      5  C   UNL     1     -47.746 -25.437  13.813 -0.15 +0.00    +0.169 C  
DOCKED: ATOM      6  C   UNL     1     -50.010 -22.664  13.023 -0.29 -0.00    -0.001 A  
DOCKED: ATOM      7  C   UNL     1     -48.923 -24.837  11.592 -0.46 +0.00    +0.008 A  
DOCKED: ATOM      8  C   UNL     1     -50.329 -22.857  11.678 +0.05 +0.00    +0.010 A  
DOCKED: ATOM      9  C   UNL     1     -49.788 -23.939  10.967 -0.43 +0.00    +0.068 A  
DOCKED: ATOM     10  N   UNL     1     -50.406 -24.272   8.473 -2.81 -0.00    -0.191 NA 
DOCKED: ATOM     11  C   UNL     1     -50.128 -24.122   9.591 -0.42 +0.00    +0.101 C  
DOCKED: ENDROOT
DOCKED: BRANCH   2  12
DOCKED: ATOM     12  C   UNL     1     -49.741 -23.883  16.061 -0.19 +0.00    +0.038 C  
DOCKED: BRANCH  12  13
DOCKED: ATOM     13  C   UNL     1     -51.128 -23.726  15.439 -0.18 +0.00    +0.038 C  
DOCKED: BRANCH  13  14
DOCKED: ATOM     14  C   UNL     1     -51.808 -22.450  15.930 -0.02 +0.00    +0.251 C  
DOCKED: BRANCH  14  15
DOCKED: ATOM     15  N   UNL     1     -51.036 -21.846  17.009 -0.02 +0.00    +0.141 N  
DOCKED: ATOM     16  C   UNL     1     -50.566 -20.513  16.625 -0.01 +0.00    +0.285 C  
DOCKED: ATOM     17  C   UNL     1     -51.833 -21.769  18.235 +0.00 +0.00    +0.285 C  
DOCKED: ENDBRANCH  14  15
DOCKED: ENDBRANCH  13  14
DOCKED: ENDBRANCH  12  13
DOCKED: ENDBRANCH   2  12
DOCKED: BRANCH   2  18
DOCKED: ATOM     18  C   UNL     1     -47.879 -22.363  15.420 -0.15 +0.00    +0.006 A  
DOCKED: ATOM     19  C   UNL     1     -47.674 -21.356  14.477 -0.19 +0.00    +0.001 A  
DOCKED: ATOM     20  C   UNL     1     -46.960 -20.209  14.827 -0.11 +0.00    +0.029 A  
DOCKED: ATOM     21  C   UNL     1     -46.454 -20.070  16.119 -0.03 +0.00    +0.140 A  
DOCKED: ATOM     22  C   UNL     1     -46.660 -21.077  17.061 -0.04 +0.00    +0.029 A  
DOCKED: ATOM     23  F   UNL     1     -45.771 -18.968  16.455 +0.00 -0.00    -0.204 F  
DOCKED: ATOM     24  C   UNL     1     -47.373 -22.225  16.712 -0.09 +0.00    +0.001 A  
DOCKED: ENDBRANCH   2  18
DOCKED: TORSDOF 5
DOCKED: TER
DOCKED: ENDMDL
________________________________________________________________________________


    FINAL DOCKED STATE:
    ________________________


Run:   283 / 512
Time taken for this run:   0.002s

DOCKED: MODEL        283
DOCKED: USER    Run = 283
DOCKED: USER
DOCKED: USER    Estimated Free Energy of Binding    =  -3.98 kcal/mol  [=(1)+(2)+(3)-(4)]
DOCKED: USER
DOCKED: USER    (1) Final Intermolecular Energy     =  -5.47 kcal/mol
DOCKED: USER        vdW + Hbond + desolv Energy     =  -5.47 kcal/mol
DOCKED: USER        Electrostatic Energy            =  +0.00 kcal/mol
DOCKED: USER        Moving Ligand-Fixed Receptor    =  -5.47 kcal/mol
DOCKED: USER        Moving Ligand-Moving Receptor   =  +0.00 kcal/mol
DOCKED: USER    (2) Final Total Internal Energy     =  -1.47 kcal/mol
DOCKED: USER    (3) Torsional Free Energy           =  +1.49 kcal/mol
DOCKED: USER    (4) Unbound System's Energy         =  -1.47 kcal/mol
DOCKED: USER
DOCKED: USER
DOCKED: REMARK  5 active torsions:
DOCKED: REMARK  status: ('A' for Active; 'I' for Inactive)
DOCKED: REMARK    1  A    between atoms: C_2  and  C_19 
DOCKED: REMARK    2  A    between atoms: C_2  and  C_11 
DOCKED: REMARK    3  A    between atoms: C_19  and  C_20 
DOCKED: REMARK    4  A    between atoms: C_20  and  C_21 
DOCKED: REMARK    5  A    between atoms: C_21  and  N_22 
DOCKED: USER                              x       y       z     vdW  Elec       q    Type
DOCKED: USER                           _______ _______ _______ _____ _____    ______ ____
DOCKED: ROOT
DOCKED: ATOM      1  O   UNL     1     -46.716 -20.873  15.907 -0.02 -0.00    -0.346 OA 
DOCKED: ATOM      2  C   UNL     1     -47.418 -20.161  14.839 -0.11 +0.00    +0.130 C  
DOCKED: ATOM      3  C   UNL     1     -48.065 -21.257  14.041 -0.22 +0.00    +0.004 A  
DOCKED: ATOM      4  C   UNL     1     -47.844 -22.478  14.661 -0.22 +0.00    +0.006 A  
DOCKED: ATOM      5  C   UNL     1     -47.060 -22.279  15.900 -0.12 +0.00    +0.169 C  
DOCKED: ATOM      6  C   UNL     1     -48.799 -21.177  12.867 -0.26 -0.00    -0.001 A  
DOCKED: ATOM      7  C   UNL     1     -48.342 -23.656  14.130 -0.31 +0.00    +0.008 A  
DOCKED: ATOM      8  C   UNL     1     -49.304 -22.356  12.317 -0.33 +0.00    +0.010 A  
DOCKED: ATOM      9  C   UNL     1     -49.078 -23.589  12.946 -0.31 +0.00    +0.068 A  
DOCKED: ATOM     10  N   UNL     1     -50.035 -25.758  11.901 -2.50 -0.00    -0.191 NA 
DOCKED: ATOM     11  C   UNL     1     -49.605 -24.786  12.370 -0.33 +0.00    +0.101 C  
DOCKED: ENDROOT
DOCKED: BRANCH   2  12
DOCKED: ATOM     12  C   UNL     1     -48.429 -19.214  15.474 -0.06 +0.00    +0.038 C  
DOCKED: BRANCH  12  13
DOCKED: ATOM     13  C   UNL     1     -49.403 -19.964  16.380 -0.04 +0.00    +0.038 C  
DOCKED: BRANCH  13  14
DOCKED: ATOM     14  C   UNL     1     -50.731 -20.217  15.670 -0.03 +0.00    +0.251 C  
DOCKED: BRANCH  14  15
DOCKED: ATOM     15  N   UNL     1     -51.359 -21.428  16.184 -0.03 +0.00    +0.141 N  
DOCKED: ATOM     16  C   UNL     1     -51.546 -22.407  15.112 -0.03 +0.00    +0.285 C  
DOCKED: ATOM     17  C   UNL     1     -50.558 -22.005  17.264 -0.01 +0.00    +0.285 C  
DOCKED: ENDBRANCH  14  15
DOCKED: ENDBRANCH  13  14
DOCKED: ENDBRANCH  12  13
DOCKED: ENDBRANCH   2  12
DOCKED: BRANCH   2  18
DOCKED: ATOM     18  C   UNL     1     -46.388 -19.409  14.065 -0.13 +0.00    +0.006 A  
DOCKED: ATOM     19  C   UNL     1     -45.133 -19.975  13.842 -0.08 +0.00    +0.001 A  
DOCKED: ATOM     20  C   UNL     1     -44.170 -19.270  13.118 -0.11 +0.00    +0.029 A  
DOCKED: ATOM     21  C   UNL     1     -44.463 -18.002  12.619 -0.06 +0.00    +0.140 A  
DOCKED: ATOM     22  C   UNL     1     -45.718 -17.436  12.843 -0.08 +0.00    +0.029 A  
DOCKED: ATOM     23  F   UNL     1     -43.539 -17.326  11.924 -0.00 -0.00    -0.204 F  
DOCKED: ATOM     24  C   UNL     1     -46.682 -18.140  13.567 -0.11 +0.00    +0.001 A  
DOCKED: ENDBRANCH   2  18
DOCKED: TORSDOF 5
DOCKED: TER
DOCKED: ENDMDL
________________________________________________________________________________


    FINAL DOCKED STATE:
    ________________________


Run:   284 / 512
Time taken for this run:   0.002s

DOCKED: MODEL        284
DOCKED: USER    Run = 284
DOCKED: USER
DOCKED: USER    Estimated Free Energy of Binding    =  -4.08 kcal/mol  [=(1)+(2)+(3)-(4)]
DOCKED: USER
DOCKED: USER    (1) Final Intermolecular Energy     =  -5.57 kcal/mol
DOCKED: USER        vdW + Hbond + desolv Energy     =  -5.57 kcal/mol
DOCKED: USER        Electrostatic Energy            =  +0.00 kcal/mol
DOCKED: USER        Moving Ligand-Fixed Receptor    =  -5.57 kcal/mol
DOCKED: USER        Moving Ligand-Moving Receptor   =  +0.00 kcal/mol
DOCKED: USER    (2) Final Total Internal Energy     =  -1.25 kcal/mol
DOCKED: USER    (3) Torsional Free Energy           =  +1.49 kcal/mol
DOCKED: USER    (4) Unbound System's Energy         =  -1.25 kcal/mol
DOCKED: USER
DOCKED: USER
DOCKED: REMARK  5 active torsions:
DOCKED: REMARK  status: ('A' for Active; 'I' for Inactive)
DOCKED: REMARK    1  A    between atoms: C_2  and  C_19 
DOCKED: REMARK    2  A    between atoms: C_2  and  C_11 
DOCKED: REMARK    3  A    between atoms: C_19  and  C_20 
DOCKED: REMARK    4  A    between atoms: C_20  and  C_21 
DOCKED: REMARK    5  A    between atoms: C_21  and  N_22 
DOCKED: USER                              x       y       z     vdW  Elec       q    Type
DOCKED: USER                           _______ _______ _______ _____ _____    ______ ____
DOCKED: ROOT
DOCKED: ATOM      1  O   UNL     1     -43.974 -15.227   6.503 -0.04 -0.00    -0.346 OA 
DOCKED: ATOM      2  C   UNL     1     -43.144 -15.336   5.303 -0.07 +0.00    +0.130 C  
DOCKED: ATOM      3  C   UNL     1     -43.945 -14.632   4.246 -0.16 +0.00    +0.004 A  
DOCKED: ATOM      4  C   UNL     1     -45.080 -14.074   4.816 -0.25 +0.00    +0.006 A  
DOCKED: ATOM      5  C   UNL     1     -45.103 -14.354   6.269 -0.04 +0.00    +0.169 C  
DOCKED: ATOM      6  C   UNL     1     -43.684 -14.488   2.892 -0.15 -0.00    -0.001 A  
DOCKED: ATOM      7  C   UNL     1     -45.991 -13.360   4.056 -0.36 +0.00    +0.008 A  
DOCKED: ATOM      8  C   UNL     1     -44.595 -13.774   2.111 -0.23 +0.00    +0.010 A  
DOCKED: ATOM      9  C   UNL     1     -45.742 -13.213   2.690 -0.26 +0.00    +0.068 A  
DOCKED: ATOM     10  N   UNL     1     -47.410 -11.891   1.213 -2.56 -0.00    -0.191 NA 
DOCKED: ATOM     11  C   UNL     1     -46.662 -12.484   1.876 -0.36 +0.00    +0.101 C  
DOCKED: ENDROOT
DOCKED: BRANCH   2  12
DOCKED: ATOM     12  C   UNL     1     -41.805 -14.663   5.580 -0.04 +0.00    +0.038 C  
DOCKED: BRANCH  12  13
DOCKED: ATOM     13  C   UNL     1     -41.991 -13.210   6.014 -0.11 +0.00    +0.038 C  
DOCKED: BRANCH  13  14
DOCKED: ATOM     14  C   UNL     1     -40.826 -12.342   5.544 -0.03 +0.00    +0.251 C  
DOCKED: BRANCH  14  15
DOCKED: ATOM     15  N   UNL     1     -41.322 -11.141   4.883 -0.05 +0.00    +0.141 N  
DOCKED: ATOM     16  C   UNL     1     -42.414 -11.470   3.965 -0.05 +0.00    +0.285 C  
DOCKED: ATOM     17  C   UNL     1     -41.770 -10.157   5.871 -0.09 +0.00    +0.285 C  
DOCKED: ENDBRANCH  14  15
DOCKED: ENDBRANCH  13  14
DOCKED: ENDBRANCH  12  13
DOCKED: ENDBRANCH   2  12
DOCKED: BRANCH   2  18
DOCKED: ATOM     18  C   UNL     1     -42.967 -16.792   5.026 -0.07 +0.00    +0.006 A  
DOCKED: ATOM     19  C   UNL     1     -44.041 -17.667   5.184 -0.19 +0.00    +0.001 A  
DOCKED: ATOM     20  C   UNL     1     -43.874 -19.028   4.925 -0.19 +0.00    +0.029 A  
DOCKED: ATOM     21  C   UNL     1     -42.635 -19.511   4.507 -0.14 +0.00    +0.140 A  
DOCKED: ATOM     22  C   UNL     1     -41.562 -18.635   4.348 -0.04 +0.00    +0.029 A  
DOCKED: ATOM     23  F   UNL     1     -42.476 -20.817   4.256 -0.09 -0.00    -0.204 F  
DOCKED: ATOM     24  C   UNL     1     -41.727 -17.274   4.608 -0.02 +0.00    +0.001 A  
DOCKED: ENDBRANCH   2  18
DOCKED: TORSDOF 5
DOCKED: TER
DOCKED: ENDMDL
________________________________________________________________________________


    FINAL DOCKED STATE:
    ________________________


Run:   285 / 512
Time taken for this run:   0.002s

DOCKED: MODEL        285
DOCKED: USER    Run = 285
DOCKED: USER
DOCKED: USER    Estimated Free Energy of Binding    =  -4.15 kcal/mol  [=(1)+(2)+(3)-(4)]
DOCKED: USER
DOCKED: USER    (1) Final Intermolecular Energy     =  -5.64 kcal/mol
DOCKED: USER        vdW + Hbond + desolv Energy     =  -5.64 kcal/mol
DOCKED: USER        Electrostatic Energy            =  +0.00 kcal/mol
DOCKED: USER        Moving Ligand-Fixed Receptor    =  -5.64 kcal/mol
DOCKED: USER        Moving Ligand-Moving Receptor   =  +0.00 kcal/mol
DOCKED: USER    (2) Final Total Internal Energy     =  -1.25 kcal/mol
DOCKED: USER    (3) Torsional Free Energy           =  +1.49 kcal/mol
DOCKED: USER    (4) Unbound System's Energy         =  -1.25 kcal/mol
DOCKED: USER
DOCKED: USER
DOCKED: REMARK  5 active torsions:
DOCKED: REMARK  status: ('A' for Active; 'I' for Inactive)
DOCKED: REMARK    1  A    between atoms: C_2  and  C_19 
DOCKED: REMARK    2  A    between atoms: C_2  and  C_11 
DOCKED: REMARK    3  A    between atoms: C_19  and  C_20 
DOCKED: REMARK    4  A    between atoms: C_20  and  C_21 
DOCKED: REMARK    5  A    between atoms: C_21  and  N_22 
DOCKED: USER                              x       y       z     vdW  Elec       q    Type
DOCKED: USER                           _______ _______ _______ _____ _____    ______ ____
DOCKED: ROOT
DOCKED: ATOM      1  O   UNL     1     -46.466 -20.290  14.714 -0.06 -0.00    -0.346 OA 
DOCKED: ATOM      2  C   UNL     1     -47.850 -19.821  14.636 -0.11 +0.00    +0.130 C  
DOCKED: ATOM      3  C   UNL     1     -48.595 -20.992  14.061 -0.21 +0.00    +0.004 A  
DOCKED: ATOM      4  C   UNL     1     -47.734 -22.072  13.927 -0.25 +0.00    +0.006 A  
DOCKED: ATOM      5  C   UNL     1     -46.384 -21.702  14.407 -0.02 +0.00    +0.169 C  
DOCKED: ATOM      6  C   UNL     1     -49.929 -21.095  13.698 -0.23 -0.00    -0.001 A  
DOCKED: ATOM      7  C   UNL     1     -48.173 -23.284  13.423 -0.33 +0.00    +0.008 A  
DOCKED: ATOM      8  C   UNL     1     -50.387 -22.310  13.185 -0.25 +0.00    +0.010 A  
DOCKED: ATOM      9  C   UNL     1     -49.513 -23.399  13.048 -0.28 +0.00    +0.068 A  
DOCKED: ATOM     10  N   UNL     1     -50.395 -25.642  12.097 -2.55 -0.00    -0.191 NA 
DOCKED: ATOM     11  C   UNL     1     -49.999 -24.636  12.523 -0.36 +0.00    +0.101 C  
DOCKED: ENDROOT
DOCKED: BRANCH   2  12
DOCKED: ATOM     12  C   UNL     1     -48.315 -19.453  16.040 -0.04 +0.00    +0.038 C  
DOCKED: BRANCH  12  13
DOCKED: ATOM     13  C   UNL     1     -47.619 -20.307  17.098 -0.03 +0.00    +0.038 C  
DOCKED: BRANCH  13  14
DOCKED: ATOM     14  C   UNL     1     -48.438 -21.555  17.423 -0.02 +0.00    +0.251 C  
DOCKED: BRANCH  14  15
DOCKED: ATOM     15  N   UNL     1     -47.683 -22.443  18.300 -0.04 +0.00    +0.141 N  
DOCKED: ATOM     16  C   UNL     1     -47.750 -23.823  17.818 -0.09 +0.00    +0.285 C  
DOCKED: ATOM     17  C   UNL     1     -46.289 -22.006  18.399 -0.02 +0.00    +0.285 C  
DOCKED: ENDBRANCH  14  15
DOCKED: ENDBRANCH  13  14
DOCKED: ENDBRANCH  12  13
DOCKED: ENDBRANCH   2  12
DOCKED: BRANCH   2  18
DOCKED: ATOM     18  C   UNL     1     -47.857 -18.630  13.737 -0.14 +0.00    +0.006 A  
DOCKED: ATOM     19  C   UNL     1     -49.067 -18.068  13.334 -0.17 +0.00    +0.001 A  
DOCKED: ATOM     20  C   UNL     1     -49.072 -16.954  12.493 -0.14 +0.00    +0.029 A  
DOCKED: ATOM     21  C   UNL     1     -47.868 -16.404  12.058 -0.09 +0.00    +0.140 A  
DOCKED: ATOM     22  C   UNL     1     -46.657 -16.967  12.461 -0.09 +0.00    +0.029 A  
DOCKED: ATOM     23  F   UNL     1     -47.873 -15.334  11.252 -0.02 -0.00    -0.204 F  
DOCKED: ATOM     24  C   UNL     1     -46.651 -18.081  13.302 -0.12 +0.00    +0.001 A  
DOCKED: ENDBRANCH   2  18
DOCKED: TORSDOF 5
DOCKED: TER
DOCKED: ENDMDL
________________________________________________________________________________


    FINAL DOCKED STATE:
    ________________________


Run:   286 / 512
Time taken for this run:   0.002s

DOCKED: MODEL        286
DOCKED: USER    Run = 286
DOCKED: USER
DOCKED: USER    Estimated Free Energy of Binding    =  -5.13 kcal/mol  [=(1)+(2)+(3)-(4)]
DOCKED: USER
DOCKED: USER    (1) Final Intermolecular Energy     =  -6.62 kcal/mol
DOCKED: USER        vdW + Hbond + desolv Energy     =  -6.62 kcal/mol
DOCKED: USER        Electrostatic Energy            =  +0.00 kcal/mol
DOCKED: USER        Moving Ligand-Fixed Receptor    =  -6.62 kcal/mol
DOCKED: USER        Moving Ligand-Moving Receptor   =  +0.00 kcal/mol
DOCKED: USER    (2) Final Total Internal Energy     =  -1.28 kcal/mol
DOCKED: USER    (3) Torsional Free Energy           =  +1.49 kcal/mol
DOCKED: USER    (4) Unbound System's Energy         =  -1.28 kcal/mol
DOCKED: USER
DOCKED: USER
DOCKED: REMARK  5 active torsions:
DOCKED: REMARK  status: ('A' for Active; 'I' for Inactive)
DOCKED: REMARK    1  A    between atoms: C_2  and  C_19 
DOCKED: REMARK    2  A    between atoms: C_2  and  C_11 
DOCKED: REMARK    3  A    between atoms: C_19  and  C_20 
DOCKED: REMARK    4  A    between atoms: C_20  and  C_21 
DOCKED: REMARK    5  A    between atoms: C_21  and  N_22 
DOCKED: USER                              x       y       z     vdW  Elec       q    Type
DOCKED: USER                           _______ _______ _______ _____ _____    ______ ____
DOCKED: ROOT
DOCKED: ATOM      1  O   UNL     1     -47.735 -23.353  14.785 -0.10 -0.00    -0.346 OA 
DOCKED: ATOM      2  C   UNL     1     -49.189 -23.276  14.935 -0.16 +0.00    +0.130 C  
DOCKED: ATOM      3  C   UNL     1     -49.707 -23.492  13.543 -0.27 +0.00    +0.004 A  
DOCKED: ATOM      4  C   UNL     1     -48.650 -23.777  12.690 -0.38 +0.00    +0.006 A  
DOCKED: ATOM      5  C   UNL     1     -47.379 -23.783  13.450 -0.10 +0.00    +0.169 C  
DOCKED: ATOM      6  C   UNL     1     -51.010 -23.450  13.070 -0.27 -0.00    -0.001 A  
DOCKED: ATOM      7  C   UNL     1     -48.856 -24.025  11.344 -0.19 +0.00    +0.008 A  
DOCKED: ATOM      8  C   UNL     1     -51.235 -23.693  11.714 -0.34 +0.00    +0.010 A  
DOCKED: ATOM      9  C   UNL     1     -50.163 -23.979  10.856 -0.42 +0.00    +0.068 A  
DOCKED: ATOM     10  N   UNL     1     -50.614 -24.431   8.345 -2.90 -0.00    -0.191 NA 
DOCKED: ATOM     11  C   UNL     1     -50.411 -24.228   9.471 -0.28 +0.00    +0.101 C  
DOCKED: ENDROOT
DOCKED: BRANCH   2  12
DOCKED: ATOM     12  C   UNL     1     -49.632 -24.363  15.908 -0.24 +0.00    +0.038 C  
DOCKED: BRANCH  12  13
DOCKED: ATOM     13  C   UNL     1     -48.432 -25.078  16.527 -0.26 +0.00    +0.038 C  
DOCKED: BRANCH  13  14
DOCKED: ATOM     14  C   UNL     1     -48.544 -25.122  18.050 -0.15 +0.00    +0.251 C  
DOCKED: BRANCH  14  15
DOCKED: ATOM     15  N   UNL     1     -47.557 -24.236  18.656 -0.12 +0.00    +0.141 N  
DOCKED: ATOM     16  C   UNL     1     -46.293 -24.942  18.869 -0.07 +0.00    +0.285 C  
DOCKED: ATOM     17  C   UNL     1     -47.344 -23.053  17.822 -0.06 +0.00    +0.285 C  
DOCKED: ENDBRANCH  14  15
DOCKED: ENDBRANCH  13  14
DOCKED: ENDBRANCH  12  13
DOCKED: ENDBRANCH   2  12
DOCKED: BRANCH   2  18
DOCKED: ATOM     18  C   UNL     1     -49.501 -21.917  15.468 -0.09 +0.00    +0.006 A  
DOCKED: ATOM     19  C   UNL     1     -50.569 -21.742  16.347 -0.05 +0.00    +0.001 A  
DOCKED: ATOM     20  C   UNL     1     -50.860 -20.471  16.844 -0.02 +0.00    +0.029 A  
DOCKED: ATOM     21  C   UNL     1     -50.083 -19.378  16.462 -0.01 +0.00    +0.140 A  
DOCKED: ATOM     22  C   UNL     1     -49.015 -19.555  15.583 -0.05 +0.00    +0.029 A  
DOCKED: ATOM     23  F   UNL     1     -50.361 -18.159  16.941 +0.00 -0.00    -0.204 F  
DOCKED: ATOM     24  C   UNL     1     -48.723 -20.825  15.085 -0.10 +0.00    +0.001 A  
DOCKED: ENDBRANCH   2  18
DOCKED: TORSDOF 5
DOCKED: TER
DOCKED: ENDMDL
________________________________________________________________________________


    FINAL DOCKED STATE:
    ________________________


Run:   287 / 512
Time taken for this run:   0.002s

DOCKED: MODEL        287
DOCKED: USER    Run = 287
DOCKED: USER
DOCKED: USER    Estimated Free Energy of Binding    =  -5.49 kcal/mol  [=(1)+(2)+(3)-(4)]
DOCKED: USER
DOCKED: USER    (1) Final Intermolecular Energy     =  -6.98 kcal/mol
DOCKED: USER        vdW + Hbond + desolv Energy     =  -6.98 kcal/mol
DOCKED: USER        Electrostatic Energy            =  +0.00 kcal/mol
DOCKED: USER        Moving Ligand-Fixed Receptor    =  -6.98 kcal/mol
DOCKED: USER        Moving Ligand-Moving Receptor   =  +0.00 kcal/mol
DOCKED: USER    (2) Final Total Internal Energy     =  -1.37 kcal/mol
DOCKED: USER    (3) Torsional Free Energy           =  +1.49 kcal/mol
DOCKED: USER    (4) Unbound System's Energy         =  -1.37 kcal/mol
DOCKED: USER
DOCKED: USER
DOCKED: REMARK  5 active torsions:
DOCKED: REMARK  status: ('A' for Active; 'I' for Inactive)
DOCKED: REMARK    1  A    between atoms: C_2  and  C_19 
DOCKED: REMARK    2  A    between atoms: C_2  and  C_11 
DOCKED: REMARK    3  A    between atoms: C_19  and  C_20 
DOCKED: REMARK    4  A    between atoms: C_20  and  C_21 
DOCKED: REMARK    5  A    between atoms: C_21  and  N_22 
DOCKED: USER                              x       y       z     vdW  Elec       q    Type
DOCKED: USER                           _______ _______ _______ _____ _____    ______ ____
DOCKED: ROOT
DOCKED: ATOM      1  O   UNL     1     -48.549 -21.559  14.615 -0.04 -0.00    -0.346 OA 
DOCKED: ATOM      2  C   UNL     1     -48.061 -22.939  14.606 -0.22 +0.00    +0.130 C  
DOCKED: ATOM      3  C   UNL     1     -48.530 -23.478  13.286 -0.35 +0.00    +0.004 A  
DOCKED: ATOM      4  C   UNL     1     -49.137 -22.465  12.557 -0.35 +0.00    +0.006 A  
DOCKED: ATOM      5  C   UNL     1     -49.100 -21.201  13.326 -0.23 +0.00    +0.169 C  
DOCKED: ATOM      6  C   UNL     1     -48.419 -24.760  12.768 -0.38 -0.00    -0.001 A  
DOCKED: ATOM      7  C   UNL     1     -49.654 -22.697  11.294 -0.08 +0.00    +0.008 A  
DOCKED: ATOM      8  C   UNL     1     -48.940 -25.011  11.497 -0.44 +0.00    +0.010 A  
DOCKED: ATOM      9  C   UNL     1     -49.554 -23.984  10.764 -0.44 +0.00    +0.068 A  
DOCKED: ATOM     10  N   UNL     1     -50.505 -24.483   8.406 -2.74 -0.00    -0.191 NA 
DOCKED: ATOM     11  C   UNL     1     -50.079 -24.259   9.464 -0.41 +0.00    +0.101 C  
DOCKED: ENDROOT
DOCKED: BRANCH   2  12
DOCKED: ATOM     12  C   UNL     1     -46.542 -22.914  14.731 -0.25 +0.00    +0.038 C  
DOCKED: BRANCH  12  13
DOCKED: ATOM     13  C   UNL     1     -46.057 -21.618  15.379 -0.17 +0.00    +0.038 C  
DOCKED: BRANCH  13  14
DOCKED: ATOM     14  C   UNL     1     -46.030 -21.742  16.902 -0.05 +0.00    +0.251 C  
DOCKED: BRANCH  14  15
DOCKED: ATOM     15  N   UNL     1     -46.669 -20.585  17.516 -0.01 +0.00    +0.141 N  
DOCKED: ATOM     16  C   UNL     1     -45.741 -19.902  18.419 -0.00 +0.00    +0.285 C  
DOCKED: ATOM     17  C   UNL     1     -47.155 -19.659  16.492 -0.01 +0.00    +0.285 C  
DOCKED: ENDBRANCH  14  15
DOCKED: ENDBRANCH  13  14
DOCKED: ENDBRANCH  12  13
DOCKED: ENDBRANCH   2  12
DOCKED: BRANCH   2  18
DOCKED: ATOM     18  C   UNL     1     -48.685 -23.630  15.772 -0.18 +0.00    +0.006 A  
DOCKED: ATOM     19  C   UNL     1     -50.014 -23.371  16.105 -0.12 +0.00    +0.001 A  
DOCKED: ATOM     20  C   UNL     1     -50.597 -24.017  17.196 -0.12 +0.00    +0.029 A  
DOCKED: ATOM     21  C   UNL     1     -49.851 -24.921  17.951 -0.04 +0.00    +0.140 A  
DOCKED: ATOM     22  C   UNL     1     -48.522 -25.180  17.617 -0.19 +0.00    +0.029 A  
DOCKED: ATOM     23  F   UNL     1     -50.412 -25.543  18.997 -0.03 -0.00    -0.204 F  
DOCKED: ATOM     24  C   UNL     1     -47.938 -24.533  16.527 -0.11 +0.00    +0.001 A  
DOCKED: ENDBRANCH   2  18
DOCKED: TORSDOF 5
DOCKED: TER
DOCKED: ENDMDL
________________________________________________________________________________


    FINAL DOCKED STATE:
    ________________________


Run:   288 / 512
Time taken for this run:   0.002s

DOCKED: MODEL        288
DOCKED: USER    Run = 288
DOCKED: USER
DOCKED: USER    Estimated Free Energy of Binding    =  -4.13 kcal/mol  [=(1)+(2)+(3)-(4)]
DOCKED: USER
DOCKED: USER    (1) Final Intermolecular Energy     =  -5.62 kcal/mol
DOCKED: USER        vdW + Hbond + desolv Energy     =  -5.62 kcal/mol
DOCKED: USER        Electrostatic Energy            =  +0.00 kcal/mol
DOCKED: USER        Moving Ligand-Fixed Receptor    =  -5.62 kcal/mol
DOCKED: USER        Moving Ligand-Moving Receptor   =  +0.00 kcal/mol
DOCKED: USER    (2) Final Total Internal Energy     =  -1.47 kcal/mol
DOCKED: USER    (3) Torsional Free Energy           =  +1.49 kcal/mol
DOCKED: USER    (4) Unbound System's Energy         =  -1.47 kcal/mol
DOCKED: USER
DOCKED: USER
DOCKED: REMARK  5 active torsions:
DOCKED: REMARK  status: ('A' for Active; 'I' for Inactive)
DOCKED: REMARK    1  A    between atoms: C_2  and  C_19 
DOCKED: REMARK    2  A    between atoms: C_2  and  C_11 
DOCKED: REMARK    3  A    between atoms: C_19  and  C_20 
DOCKED: REMARK    4  A    between atoms: C_20  and  C_21 
DOCKED: REMARK    5  A    between atoms: C_21  and  N_22 
DOCKED: USER                              x       y       z     vdW  Elec       q    Type
DOCKED: USER                           _______ _______ _______ _____ _____    ______ ____
DOCKED: ROOT
DOCKED: ATOM      1  O   UNL     1     -39.878 -21.170   6.461 +0.01 -0.00    -0.346 OA 
DOCKED: ATOM      2  C   UNL     1     -41.203 -20.678   6.837 -0.06 +0.00    +0.130 C  
DOCKED: ATOM      3  C   UNL     1     -41.771 -21.782   7.681 -0.13 +0.00    +0.004 A  
DOCKED: ATOM      4  C   UNL     1     -40.814 -22.770   7.863 -0.09 +0.00    +0.006 A  
DOCKED: ATOM      5  C   UNL     1     -39.561 -22.388   7.175 -0.02 +0.00    +0.169 C  
DOCKED: ATOM      6  C   UNL     1     -43.031 -21.898   8.251 -0.27 -0.00    -0.001 A  
DOCKED: ATOM      7  C   UNL     1     -41.081 -23.903   8.613 -0.16 +0.00    +0.008 A  
DOCKED: ATOM      8  C   UNL     1     -43.317 -23.036   9.006 -0.31 +0.00    +0.010 A  
DOCKED: ATOM      9  C   UNL     1     -42.347 -24.033   9.186 -0.29 +0.00    +0.068 A  
DOCKED: ATOM     10  N   UNL     1     -42.910 -26.132  10.598 -2.55 -0.00    -0.191 NA 
DOCKED: ATOM     11  C   UNL     1     -42.658 -25.191   9.964 -0.39 +0.00    +0.101 C  
DOCKED: ENDROOT
DOCKED: BRANCH   2  12
DOCKED: ATOM     12  C   UNL     1     -41.033 -19.372   7.605 -0.03 +0.00    +0.038 C  
DOCKED: BRANCH  12  13
DOCKED: ATOM     13  C   UNL     1     -40.203 -19.575   8.872 -0.02 +0.00    +0.038 C  
DOCKED: BRANCH  13  14
DOCKED: ATOM     14  C   UNL     1     -41.097 -19.646  10.109 -0.02 +0.00    +0.251 C  
DOCKED: BRANCH  14  15
DOCKED: ATOM     15  N   UNL     1     -40.519 -20.545  11.101 -0.03 +0.00    +0.141 N  
DOCKED: ATOM     16  C   UNL     1     -41.470 -21.599  11.458 -0.07 +0.00    +0.285 C  
DOCKED: ATOM     17  C   UNL     1     -39.275 -21.132  10.602 -0.00 +0.00    +0.285 C  
DOCKED: ENDBRANCH  14  15
DOCKED: ENDBRANCH  13  14
DOCKED: ENDBRANCH  12  13
DOCKED: ENDBRANCH   2  12
DOCKED: BRANCH   2  18
DOCKED: ATOM     18  C   UNL     1     -41.964 -20.462   5.572 -0.13 +0.00    +0.006 A  
DOCKED: ATOM     19  C   UNL     1     -42.956 -19.484   5.513 -0.17 +0.00    +0.001 A  
DOCKED: ATOM     20  C   UNL     1     -43.667 -19.284   4.329 -0.22 +0.00    +0.029 A  
DOCKED: ATOM     21  C   UNL     1     -43.384 -20.061   3.206 -0.20 +0.00    +0.140 A  
DOCKED: ATOM     22  C   UNL     1     -42.392 -21.039   3.266 -0.18 +0.00    +0.029 A  
DOCKED: ATOM     23  F   UNL     1     -44.065 -19.868   2.069 -0.14 -0.00    -0.204 F  
DOCKED: ATOM     24  C   UNL     1     -41.681 -21.240   4.450 -0.14 +0.00    +0.001 A  
DOCKED: ENDBRANCH   2  18
DOCKED: TORSDOF 5
DOCKED: TER
DOCKED: ENDMDL
________________________________________________________________________________


    FINAL DOCKED STATE:
    ________________________


Run:   289 / 512
Time taken for this run:   0.002s

DOCKED: MODEL        289
DOCKED: USER    Run = 289
DOCKED: USER
DOCKED: USER    Estimated Free Energy of Binding    =  -4.04 kcal/mol  [=(1)+(2)+(3)-(4)]
DOCKED: USER
DOCKED: USER    (1) Final Intermolecular Energy     =  -5.53 kcal/mol
DOCKED: USER        vdW + Hbond + desolv Energy     =  -5.53 kcal/mol
DOCKED: USER        Electrostatic Energy            =  +0.00 kcal/mol
DOCKED: USER        Moving Ligand-Fixed Receptor    =  -5.53 kcal/mol
DOCKED: USER        Moving Ligand-Moving Receptor   =  +0.00 kcal/mol
DOCKED: USER    (2) Final Total Internal Energy     =  -1.40 kcal/mol
DOCKED: USER    (3) Torsional Free Energy           =  +1.49 kcal/mol
DOCKED: USER    (4) Unbound System's Energy         =  -1.40 kcal/mol
DOCKED: USER
DOCKED: USER
DOCKED: REMARK  5 active torsions:
DOCKED: REMARK  status: ('A' for Active; 'I' for Inactive)
DOCKED: REMARK    1  A    between atoms: C_2  and  C_19 
DOCKED: REMARK    2  A    between atoms: C_2  and  C_11 
DOCKED: REMARK    3  A    between atoms: C_19  and  C_20 
DOCKED: REMARK    4  A    between atoms: C_20  and  C_21 
DOCKED: REMARK    5  A    between atoms: C_21  and  N_22 
DOCKED: USER                              x       y       z     vdW  Elec       q    Type
DOCKED: USER                           _______ _______ _______ _____ _____    ______ ____
DOCKED: ROOT
DOCKED: ATOM      1  O   UNL     1     -48.444 -18.979  14.061 -0.05 -0.00    -0.346 OA 
DOCKED: ATOM      2  C   UNL     1     -47.403 -19.892  14.537 -0.12 +0.00    +0.130 C  
DOCKED: ATOM      3  C   UNL     1     -47.887 -21.245  14.102 -0.21 +0.00    +0.004 A  
DOCKED: ATOM      4  C   UNL     1     -49.044 -21.109  13.349 -0.26 +0.00    +0.006 A  
DOCKED: ATOM      5  C   UNL     1     -49.395 -19.676  13.223 -0.16 +0.00    +0.169 C  
DOCKED: ATOM      6  C   UNL     1     -47.339 -22.497  14.345 -0.25 -0.00    -0.001 A  
DOCKED: ATOM      7  C   UNL     1     -49.693 -22.210  12.819 -0.30 +0.00    +0.008 A  
DOCKED: ATOM      8  C   UNL     1     -47.985 -23.618  13.821 -0.33 +0.00    +0.010 A  
DOCKED: ATOM      9  C   UNL     1     -49.155 -23.475  13.061 -0.30 +0.00    +0.068 A  
DOCKED: ATOM     10  N   UNL     1     -50.325 -25.577  12.099 -2.55 -0.00    -0.191 NA 
DOCKED: ATOM     11  C   UNL     1     -49.801 -24.634  12.531 -0.36 +0.00    +0.101 C  
DOCKED: ENDROOT
DOCKED: BRANCH   2  12
DOCKED: ATOM     12  C   UNL     1     -46.082 -19.497  13.888 -0.15 +0.00    +0.038 C  
DOCKED: BRANCH  12  13
DOCKED: ATOM     13  C   UNL     1     -46.282 -19.053  12.441 -0.16 +0.00    +0.038 C  
DOCKED: BRANCH  13  14
DOCKED: ATOM     14  C   UNL     1     -46.143 -17.538  12.307 -0.08 +0.00    +0.251 C  
DOCKED: BRANCH  14  15
DOCKED: ATOM     15  N   UNL     1     -47.243 -16.865  12.988 -0.07 +0.00    +0.141 N  
DOCKED: ATOM     16  C   UNL     1     -46.732 -15.917  13.980 -0.01 +0.00    +0.285 C  
DOCKED: ATOM     17  C   UNL     1     -48.103 -16.178  12.025 -0.08 +0.00    +0.285 C  
DOCKED: ENDBRANCH  14  15
DOCKED: ENDBRANCH  13  14
DOCKED: ENDBRANCH  12  13
DOCKED: ENDBRANCH   2  12
DOCKED: BRANCH   2  18
DOCKED: ATOM     18  C   UNL     1     -47.340 -19.745  16.020 -0.04 +0.00    +0.006 A  
DOCKED: ATOM     19  C   UNL     1     -48.357 -20.271  16.816 -0.03 +0.00    +0.001 A  
DOCKED: ATOM     20  C   UNL     1     -48.296 -20.133  18.204 -0.00 +0.00    +0.029 A  
DOCKED: ATOM     21  C   UNL     1     -47.220 -19.471  18.792 -0.00 +0.00    +0.140 A  
DOCKED: ATOM     22  C   UNL     1     -46.203 -18.946  17.996 -0.00 +0.00    +0.029 A  
DOCKED: ATOM     23  F   UNL     1     -47.161 -19.340  20.124 +0.00 -0.00    -0.204 F  
DOCKED: ATOM     24  C   UNL     1     -46.263 -19.083  16.608 -0.02 +0.00    +0.001 A  
DOCKED: ENDBRANCH   2  18
DOCKED: TORSDOF 5
DOCKED: TER
DOCKED: ENDMDL
________________________________________________________________________________


    FINAL DOCKED STATE:
    ________________________


Run:   290 / 512
Time taken for this run:   0.002s

DOCKED: MODEL        290
DOCKED: USER    Run = 290
DOCKED: USER
DOCKED: USER    Estimated Free Energy of Binding    =  -3.94 kcal/mol  [=(1)+(2)+(3)-(4)]
DOCKED: USER
DOCKED: USER    (1) Final Intermolecular Energy     =  -5.43 kcal/mol
DOCKED: USER        vdW + Hbond + desolv Energy     =  -5.43 kcal/mol
DOCKED: USER        Electrostatic Energy            =  +0.00 kcal/mol
DOCKED: USER        Moving Ligand-Fixed Receptor    =  -5.43 kcal/mol
DOCKED: USER        Moving Ligand-Moving Receptor   =  +0.00 kcal/mol
DOCKED: USER    (2) Final Total Internal Energy     =  -1.15 kcal/mol
DOCKED: USER    (3) Torsional Free Energy           =  +1.49 kcal/mol
DOCKED: USER    (4) Unbound System's Energy         =  -1.15 kcal/mol
DOCKED: USER
DOCKED: USER
DOCKED: REMARK  5 active torsions:
DOCKED: REMARK  status: ('A' for Active; 'I' for Inactive)
DOCKED: REMARK    1  A    between atoms: C_2  and  C_19 
DOCKED: REMARK    2  A    between atoms: C_2  and  C_11 
DOCKED: REMARK    3  A    between atoms: C_19  and  C_20 
DOCKED: REMARK    4  A    between atoms: C_20  and  C_21 
DOCKED: REMARK    5  A    between atoms: C_21  and  N_22 
DOCKED: USER                              x       y       z     vdW  Elec       q    Type
DOCKED: USER                           _______ _______ _______ _____ _____    ______ ____
DOCKED: ROOT
DOCKED: ATOM      1  O   UNL     1     -42.374 -15.247   4.501 +0.01 -0.00    -0.346 OA 
DOCKED: ATOM      2  C   UNL     1     -42.778 -14.071   5.274 -0.08 +0.00    +0.130 C  
DOCKED: ATOM      3  C   UNL     1     -43.825 -13.421   4.417 -0.16 +0.00    +0.004 A  
DOCKED: ATOM      4  C   UNL     1     -44.078 -14.213   3.306 -0.17 +0.00    +0.006 A  
DOCKED: ATOM      5  C   UNL     1     -43.238 -15.430   3.356 -0.10 +0.00    +0.169 C  
DOCKED: ATOM      6  C   UNL     1     -44.508 -12.229   4.612 -0.09 -0.00    -0.001 A  
DOCKED: ATOM      7  C   UNL     1     -45.013 -13.842   2.355 -0.17 +0.00    +0.008 A  
DOCKED: ATOM      8  C   UNL     1     -45.450 -11.839   3.659 -0.34 +0.00    +0.010 A  
DOCKED: ATOM      9  C   UNL     1     -45.702 -12.642   2.536 -0.36 +0.00    +0.068 A  
DOCKED: ATOM     10  N   UNL     1     -47.461 -11.891   0.789 -2.35 -0.00    -0.191 NA 
DOCKED: ATOM     11  C   UNL     1     -46.671 -12.227   1.572 -0.34 +0.00    +0.101 C  
DOCKED: ENDROOT
DOCKED: BRANCH   2  12
DOCKED: ATOM     12  C   UNL     1     -43.319 -14.540   6.619 -0.13 +0.00    +0.038 C  
DOCKED: BRANCH  12  13
DOCKED: ATOM     13  C   UNL     1     -44.104 -15.843   6.480 -0.13 +0.00    +0.038 C  
DOCKED: BRANCH  13  14
DOCKED: ATOM     14  C   UNL     1     -45.565 -15.569   6.126 -0.19 +0.00    +0.251 C  
DOCKED: BRANCH  14  15
DOCKED: ATOM     15  N   UNL     1     -46.385 -15.556   7.332 -0.21 +0.00    +0.141 N  
DOCKED: ATOM     16  C   UNL     1     -47.389 -14.493   7.261 -0.18 +0.00    +0.285 C  
DOCKED: ATOM     17  C   UNL     1     -47.033 -16.853   7.529 -0.19 +0.00    +0.285 C  
DOCKED: ENDBRANCH  14  15
DOCKED: ENDBRANCH  13  14
DOCKED: ENDBRANCH  12  13
DOCKED: ENDBRANCH   2  12
DOCKED: BRANCH   2  18
DOCKED: ATOM     18  C   UNL     1     -41.561 -13.225   5.448 -0.06 +0.00    +0.006 A  
DOCKED: ATOM     19  C   UNL     1     -41.284 -12.650   6.688 -0.10 +0.00    +0.001 A  
DOCKED: ATOM     20  C   UNL     1     -40.146 -11.859   6.850 -0.05 +0.00    +0.029 A  
DOCKED: ATOM     21  C   UNL     1     -39.288 -11.645   5.773 -0.01 +0.00    +0.140 A  
DOCKED: ATOM     22  C   UNL     1     -39.565 -12.220   4.533 -0.01 +0.00    +0.029 A  
DOCKED: ATOM     23  F   UNL     1     -38.194 -10.887   5.929 +0.00 -0.00    -0.204 F  
DOCKED: ATOM     24  C   UNL     1     -40.703 -13.012   4.370 -0.02 +0.00    +0.001 A  
DOCKED: ENDBRANCH   2  18
DOCKED: TORSDOF 5
DOCKED: TER
DOCKED: ENDMDL
________________________________________________________________________________


    FINAL DOCKED STATE:
    ________________________


Run:   291 / 512
Time taken for this run:   0.002s

DOCKED: MODEL        291
DOCKED: USER    Run = 291
DOCKED: USER
DOCKED: USER    Estimated Free Energy of Binding    =  -5.47 kcal/mol  [=(1)+(2)+(3)-(4)]
DOCKED: USER
DOCKED: USER    (1) Final Intermolecular Energy     =  -6.96 kcal/mol
DOCKED: USER        vdW + Hbond + desolv Energy     =  -6.96 kcal/mol
DOCKED: USER        Electrostatic Energy            =  +0.00 kcal/mol
DOCKED: USER        Moving Ligand-Fixed Receptor    =  -6.96 kcal/mol
DOCKED: USER        Moving Ligand-Moving Receptor   =  +0.00 kcal/mol
DOCKED: USER    (2) Final Total Internal Energy     =  -1.14 kcal/mol
DOCKED: USER    (3) Torsional Free Energy           =  +1.49 kcal/mol
DOCKED: USER    (4) Unbound System's Energy         =  -1.14 kcal/mol
DOCKED: USER
DOCKED: USER
DOCKED: REMARK  5 active torsions:
DOCKED: REMARK  status: ('A' for Active; 'I' for Inactive)
DOCKED: REMARK    1  A    between atoms: C_2  and  C_19 
DOCKED: REMARK    2  A    between atoms: C_2  and  C_11 
DOCKED: REMARK    3  A    between atoms: C_19  and  C_20 
DOCKED: REMARK    4  A    between atoms: C_20  and  C_21 
DOCKED: REMARK    5  A    between atoms: C_21  and  N_22 
DOCKED: USER                              x       y       z     vdW  Elec       q    Type
DOCKED: USER                           _______ _______ _______ _____ _____    ______ ____
DOCKED: ROOT
DOCKED: ATOM      1  O   UNL     1     -47.828 -24.096  14.832 -0.13 -0.00    -0.346 OA 
DOCKED: ATOM      2  C   UNL     1     -49.175 -23.526  14.879 -0.18 +0.00    +0.130 C  
DOCKED: ATOM      3  C   UNL     1     -49.675 -23.666  13.471 -0.28 +0.00    +0.004 A  
DOCKED: ATOM      4  C   UNL     1     -48.740 -24.355  12.710 -0.41 +0.00    +0.006 A  
DOCKED: ATOM      5  C   UNL     1     -47.581 -24.724  13.553 -0.33 +0.00    +0.169 C  
DOCKED: ATOM      6  C   UNL     1     -50.866 -23.228  12.910 -0.28 -0.00    -0.001 A  
DOCKED: ATOM      7  C   UNL     1     -48.960 -24.625  11.370 -0.44 +0.00    +0.008 A  
DOCKED: ATOM      8  C   UNL     1     -51.100 -23.489  11.558 -0.29 +0.00    +0.010 A  
DOCKED: ATOM      9  C   UNL     1     -50.152 -24.184  10.793 -0.43 +0.00    +0.068 A  
DOCKED: ATOM     10  N   UNL     1     -50.621 -24.657   8.289 -2.73 -0.00    -0.191 NA 
DOCKED: ATOM     11  C   UNL     1     -50.410 -24.444   9.412 -0.32 +0.00    +0.101 C  
DOCKED: ENDROOT
DOCKED: BRANCH   2  12
DOCKED: ATOM     12  C   UNL     1     -50.001 -24.322  15.883 -0.22 +0.00    +0.038 C  
DOCKED: BRANCH  12  13
DOCKED: ATOM     13  C   UNL     1     -49.166 -24.723  17.098 -0.22 +0.00    +0.038 C  
DOCKED: BRANCH  13  14
DOCKED: ATOM     14  C   UNL     1     -50.053 -24.981  18.314 -0.06 +0.00    +0.251 C  
DOCKED: BRANCH  14  15
DOCKED: ATOM     15  N   UNL     1     -51.441 -24.657  18.007 -0.11 +0.00    +0.141 N  
DOCKED: ATOM     16  C   UNL     1     -52.304 -25.819  18.229 -0.08 +0.00    +0.285 C  
DOCKED: ATOM     17  C   UNL     1     -51.897 -23.524  18.814 -0.01 +0.00    +0.285 C  
DOCKED: ENDBRANCH  14  15
DOCKED: ENDBRANCH  13  14
DOCKED: ENDBRANCH  12  13
DOCKED: ENDBRANCH   2  12
DOCKED: BRANCH   2  18
DOCKED: ATOM     18  C   UNL     1     -49.032 -22.104  15.307 -0.11 +0.00    +0.006 A  
DOCKED: ATOM     19  C   UNL     1     -47.824 -21.435  15.111 -0.14 +0.00    +0.001 A  
DOCKED: ATOM     20  C   UNL     1     -47.692 -20.105  15.512 -0.06 +0.00    +0.029 A  
DOCKED: ATOM     21  C   UNL     1     -48.766 -19.446  16.108 -0.02 +0.00    +0.140 A  
DOCKED: ATOM     22  C   UNL     1     -49.974 -20.115  16.303 -0.03 +0.00    +0.029 A  
DOCKED: ATOM     23  F   UNL     1     -48.639 -18.169  16.491 +0.00 -0.00    -0.204 F  
DOCKED: ATOM     24  C   UNL     1     -50.108 -21.446  15.903 -0.06 +0.00    +0.001 A  
DOCKED: ENDBRANCH   2  18
DOCKED: TORSDOF 5
DOCKED: TER
DOCKED: ENDMDL
________________________________________________________________________________


    FINAL DOCKED STATE:
    ________________________


Run:   292 / 512
Time taken for this run:   0.002s

DOCKED: MODEL        292
DOCKED: USER    Run = 292
DOCKED: USER
DOCKED: USER    Estimated Free Energy of Binding    =  -3.04 kcal/mol  [=(1)+(2)+(3)-(4)]
DOCKED: USER
DOCKED: USER    (1) Final Intermolecular Energy     =  -4.54 kcal/mol
DOCKED: USER        vdW + Hbond + desolv Energy     =  -4.54 kcal/mol
DOCKED: USER        Electrostatic Energy            =  +0.00 kcal/mol
DOCKED: USER        Moving Ligand-Fixed Receptor    =  -4.54 kcal/mol
DOCKED: USER        Moving Ligand-Moving Receptor   =  +0.00 kcal/mol
DOCKED: USER    (2) Final Total Internal Energy     =  -1.25 kcal/mol
DOCKED: USER    (3) Torsional Free Energy           =  +1.49 kcal/mol
DOCKED: USER    (4) Unbound System's Energy         =  -1.25 kcal/mol
DOCKED: USER
DOCKED: USER
DOCKED: REMARK  5 active torsions:
DOCKED: REMARK  status: ('A' for Active; 'I' for Inactive)
DOCKED: REMARK    1  A    between atoms: C_2  and  C_19 
DOCKED: REMARK    2  A    between atoms: C_2  and  C_11 
DOCKED: REMARK    3  A    between atoms: C_19  and  C_20 
DOCKED: REMARK    4  A    between atoms: C_20  and  C_21 
DOCKED: REMARK    5  A    between atoms: C_21  and  N_22 
DOCKED: USER                              x       y       z     vdW  Elec       q    Type
DOCKED: USER                           _______ _______ _______ _____ _____    ______ ____
DOCKED: ROOT
DOCKED: ATOM      1  O   UNL     1     -41.507 -12.854   4.699 -0.00 -0.00    -0.346 OA 
DOCKED: ATOM      2  C   UNL     1     -41.380 -12.567   3.269 -0.03 +0.00    +0.130 C  
DOCKED: ATOM      3  C   UNL     1     -42.799 -12.560   2.777 -0.10 +0.00    +0.004 A  
DOCKED: ATOM      4  C   UNL     1     -43.666 -12.718   3.849 -0.17 +0.00    +0.006 A  
DOCKED: ATOM      5  C   UNL     1     -42.894 -12.826   5.108 -0.11 +0.00    +0.169 C  
DOCKED: ATOM      6  C   UNL     1     -43.283 -12.414   1.486 -0.16 -0.00    -0.001 A  
DOCKED: ATOM      7  C   UNL     1     -45.038 -12.740   3.669 -0.30 +0.00    +0.008 A  
DOCKED: ATOM      8  C   UNL     1     -44.664 -12.438   1.287 -0.30 +0.00    +0.010 A  
DOCKED: ATOM      9  C   UNL     1     -45.537 -12.600   2.373 -0.35 +0.00    +0.068 A  
DOCKED: ATOM     10  N   UNL     1     -48.096 -12.635   1.969 -2.46 -0.00    -0.191 NA 
DOCKED: ATOM     11  C   UNL     1     -46.949 -12.620   2.150 -0.32 +0.00    +0.101 C  
DOCKED: ENDROOT
DOCKED: BRANCH   2  12
DOCKED: ATOM     12  C   UNL     1     -40.689 -11.219   3.107 -0.05 +0.00    +0.038 C  
DOCKED: BRANCH  12  13
DOCKED: ATOM     13  C   UNL     1     -40.505 -10.521   4.454 -0.05 +0.00    +0.038 C  
DOCKED: BRANCH  13  14
DOCKED: ATOM     14  C   UNL     1     -39.248 -11.020   5.163 -0.00 +0.00    +0.251 C  
DOCKED: BRANCH  14  15
DOCKED: ATOM     15  N   UNL     1     -39.456 -11.045   6.606 -0.02 +0.00    +0.141 N  
DOCKED: ATOM     16  C   UNL     1     -40.751 -10.456   6.951 -0.06 +0.00    +0.285 C  
DOCKED: ATOM     17  C   UNL     1     -39.370 -12.415   7.116 -0.01 +0.00    +0.285 C  
DOCKED: ENDBRANCH  14  15
DOCKED: ENDBRANCH  13  14
DOCKED: ENDBRANCH  12  13
DOCKED: ENDBRANCH   2  12
DOCKED: BRANCH   2  18
DOCKED: ATOM     18  C   UNL     1     -40.564 -13.666   2.675 -0.01 +0.00    +0.006 A  
DOCKED: ATOM     19  C   UNL     1     -41.015 -14.330   1.535 -0.02 +0.00    +0.001 A  
DOCKED: ATOM     20  C   UNL     1     -40.250 -15.357   0.980 -0.01 +0.00    +0.029 A  
DOCKED: ATOM     21  C   UNL     1     -39.037 -15.718   1.565 -0.00 +0.00    +0.140 A  
DOCKED: ATOM     22  C   UNL     1     -38.587 -15.053   2.705 -0.00 +0.00    +0.029 A  
DOCKED: ATOM     23  F   UNL     1     -38.303 -16.703   1.031 +0.00 -0.00    -0.204 F  
DOCKED: ATOM     24  C   UNL     1     -39.351 -14.025   3.261 -0.00 +0.00    +0.001 A  
DOCKED: ENDBRANCH   2  18
DOCKED: TORSDOF 5
DOCKED: TER
DOCKED: ENDMDL
________________________________________________________________________________


    FINAL DOCKED STATE:
    ________________________


Run:   293 / 512
Time taken for this run:   0.002s

DOCKED: MODEL        293
DOCKED: USER    Run = 293
DOCKED: USER
DOCKED: USER    Estimated Free Energy of Binding    =  -4.19 kcal/mol  [=(1)+(2)+(3)-(4)]
DOCKED: USER
DOCKED: USER    (1) Final Intermolecular Energy     =  -5.68 kcal/mol
DOCKED: USER        vdW + Hbond + desolv Energy     =  -5.68 kcal/mol
DOCKED: USER        Electrostatic Energy            =  +0.00 kcal/mol
DOCKED: USER        Moving Ligand-Fixed Receptor    =  -5.68 kcal/mol
DOCKED: USER        Moving Ligand-Moving Receptor   =  +0.00 kcal/mol
DOCKED: USER    (2) Final Total Internal Energy     =  -1.29 kcal/mol
DOCKED: USER    (3) Torsional Free Energy           =  +1.49 kcal/mol
DOCKED: USER    (4) Unbound System's Energy         =  -1.29 kcal/mol
DOCKED: USER
DOCKED: USER
DOCKED: REMARK  5 active torsions:
DOCKED: REMARK  status: ('A' for Active; 'I' for Inactive)
DOCKED: REMARK    1  A    between atoms: C_2  and  C_19 
DOCKED: REMARK    2  A    between atoms: C_2  and  C_11 
DOCKED: REMARK    3  A    between atoms: C_19  and  C_20 
DOCKED: REMARK    4  A    between atoms: C_20  and  C_21 
DOCKED: REMARK    5  A    between atoms: C_21  and  N_22 
DOCKED: USER                              x       y       z     vdW  Elec       q    Type
DOCKED: USER                           _______ _______ _______ _____ _____    ______ ____
DOCKED: ROOT
DOCKED: ATOM      1  O   UNL     1     -45.869 -21.349  15.205 -0.08 -0.00    -0.346 OA 
DOCKED: ATOM      2  C   UNL     1     -47.003 -20.546  14.744 -0.13 +0.00    +0.130 C  
DOCKED: ATOM      3  C   UNL     1     -47.888 -21.540  14.050 -0.23 +0.00    +0.004 A  
DOCKED: ATOM      4  C   UNL     1     -47.363 -22.816  14.197 -0.25 +0.00    +0.006 A  
DOCKED: ATOM      5  C   UNL     1     -46.119 -22.758  14.997 -0.17 +0.00    +0.169 C  
DOCKED: ATOM      6  C   UNL     1     -49.070 -21.334  13.354 -0.27 -0.00    -0.001 A  
DOCKED: ATOM      7  C   UNL     1     -47.993 -23.922  13.653 -0.36 +0.00    +0.008 A  
DOCKED: ATOM      8  C   UNL     1     -49.716 -22.438  12.796 -0.31 +0.00    +0.010 A  
DOCKED: ATOM      9  C   UNL     1     -49.180 -23.726  12.945 -0.31 +0.00    +0.068 A  
DOCKED: ATOM     10  N   UNL     1     -50.406 -25.756  11.901 -2.45 -0.00    -0.191 NA 
DOCKED: ATOM     11  C   UNL     1     -49.856 -24.845  12.369 -0.32 +0.00    +0.101 C  
DOCKED: ENDROOT
DOCKED: BRANCH   2  12
DOCKED: ATOM     12  C   UNL     1     -47.667 -19.907  15.958 -0.05 +0.00    +0.038 C  
DOCKED: BRANCH  12  13
DOCKED: ATOM     13  C   UNL     1     -46.695 -19.002  16.712 -0.02 +0.00    +0.038 C  
DOCKED: BRANCH  13  14
DOCKED: ATOM     14  C   UNL     1     -46.217 -19.663  18.004 -0.00 +0.00    +0.251 C  
DOCKED: BRANCH  14  15
DOCKED: ATOM     15  N   UNL     1     -47.111 -20.754  18.375 -0.01 +0.00    +0.141 N  
DOCKED: ATOM     16  C   UNL     1     -46.432 -22.044  18.245 -0.03 +0.00    +0.285 C  
DOCKED: ATOM     17  C   UNL     1     -47.602 -20.575  19.742 -0.00 +0.00    +0.285 C  
DOCKED: ENDBRANCH  14  15
DOCKED: ENDBRANCH  13  14
DOCKED: ENDBRANCH  12  13
DOCKED: ENDBRANCH   2  12
DOCKED: BRANCH   2  18
DOCKED: ATOM     18  C   UNL     1     -46.457 -19.509  13.821 -0.15 +0.00    +0.006 A  
DOCKED: ATOM     19  C   UNL     1     -47.297 -18.521  13.308 -0.15 +0.00    +0.001 A  
DOCKED: ATOM     20  C   UNL     1     -46.785 -17.552  12.444 -0.10 +0.00    +0.029 A  
DOCKED: ATOM     21  C   UNL     1     -45.435 -17.572  12.095 -0.08 +0.00    +0.140 A  
DOCKED: ATOM     22  C   UNL     1     -44.596 -18.561  12.609 -0.10 +0.00    +0.029 A  
DOCKED: ATOM     23  F   UNL     1     -44.943 -16.641  11.268 -0.01 -0.00    -0.204 F  
DOCKED: ATOM     24  C   UNL     1     -45.107 -19.531  13.473 -0.11 +0.00    +0.001 A  
DOCKED: ENDBRANCH   2  18
DOCKED: TORSDOF 5
DOCKED: TER
DOCKED: ENDMDL
________________________________________________________________________________


    FINAL DOCKED STATE:
    ________________________


Run:   294 / 512
Time taken for this run:   0.002s

DOCKED: MODEL        294
DOCKED: USER    Run = 294
DOCKED: USER
DOCKED: USER    Estimated Free Energy of Binding    =  -3.93 kcal/mol  [=(1)+(2)+(3)-(4)]
DOCKED: USER
DOCKED: USER    (1) Final Intermolecular Energy     =  -5.42 kcal/mol
DOCKED: USER        vdW + Hbond + desolv Energy     =  -5.42 kcal/mol
DOCKED: USER        Electrostatic Energy            =  +0.00 kcal/mol
DOCKED: USER        Moving Ligand-Fixed Receptor    =  -5.42 kcal/mol
DOCKED: USER        Moving Ligand-Moving Receptor   =  +0.00 kcal/mol
DOCKED: USER    (2) Final Total Internal Energy     =  -1.48 kcal/mol
DOCKED: USER    (3) Torsional Free Energy           =  +1.49 kcal/mol
DOCKED: USER    (4) Unbound System's Energy         =  -1.48 kcal/mol
DOCKED: USER
DOCKED: USER
DOCKED: REMARK  5 active torsions:
DOCKED: REMARK  status: ('A' for Active; 'I' for Inactive)
DOCKED: REMARK    1  A    between atoms: C_2  and  C_19 
DOCKED: REMARK    2  A    between atoms: C_2  and  C_11 
DOCKED: REMARK    3  A    between atoms: C_19  and  C_20 
DOCKED: REMARK    4  A    between atoms: C_20  and  C_21 
DOCKED: REMARK    5  A    between atoms: C_21  and  N_22 
DOCKED: USER                              x       y       z     vdW  Elec       q    Type
DOCKED: USER                           _______ _______ _______ _____ _____    ______ ____
DOCKED: ROOT
DOCKED: ATOM      1  O   UNL     1     -47.897 -19.076  13.637 -0.07 -0.00    -0.346 OA 
DOCKED: ATOM      2  C   UNL     1     -48.985 -19.360  14.574 -0.11 +0.00    +0.130 C  
DOCKED: ATOM      3  C   UNL     1     -49.463 -20.724  14.168 -0.19 +0.00    +0.004 A  
DOCKED: ATOM      4  C   UNL     1     -48.649 -21.223  13.161 -0.28 +0.00    +0.006 A  
DOCKED: ATOM      5  C   UNL     1     -47.585 -20.245  12.844 -0.10 +0.00    +0.169 C  
DOCKED: ATOM      6  C   UNL     1     -50.526 -21.468  14.659 -0.14 -0.00    -0.001 A  
DOCKED: ATOM      7  C   UNL     1     -48.871 -22.473  12.609 -0.34 +0.00    +0.008 A  
DOCKED: ATOM      8  C   UNL     1     -50.765 -22.729  14.110 -0.18 +0.00    +0.010 A  
DOCKED: ATOM      9  C   UNL     1     -49.941 -23.229  13.090 -0.25 +0.00    +0.068 A  
DOCKED: ATOM     10  N   UNL     1     -50.409 -25.575  12.096 -2.56 -0.00    -0.191 NA 
DOCKED: ATOM     11  C   UNL     1     -50.199 -24.523  12.542 -0.35 +0.00    +0.101 C  
DOCKED: ENDROOT
DOCKED: BRANCH   2  12
DOCKED: ATOM     12  C   UNL     1     -48.423 -19.325  15.991 -0.04 +0.00    +0.038 C  
DOCKED: BRANCH  12  13
DOCKED: ATOM     13  C   UNL     1     -47.076 -20.042  16.073 -0.05 +0.00    +0.038 C  
DOCKED: BRANCH  13  14
DOCKED: ATOM     14  C   UNL     1     -47.137 -21.214  17.051 -0.02 +0.00    +0.251 C  
DOCKED: BRANCH  14  15
DOCKED: ATOM     15  N   UNL     1     -47.994 -22.270  16.524 -0.06 +0.00    +0.141 N  
DOCKED: ATOM     16  C   UNL     1     -47.203 -23.450  16.174 -0.05 +0.00    +0.285 C  
DOCKED: ATOM     17  C   UNL     1     -49.032 -22.624  17.495 -0.03 +0.00    +0.285 C  
DOCKED: ENDBRANCH  14  15
DOCKED: ENDBRANCH  13  14
DOCKED: ENDBRANCH  12  13
DOCKED: ENDBRANCH   2  12
DOCKED: BRANCH   2  18
DOCKED: ATOM     18  C   UNL     1     -50.016 -18.299  14.379 -0.13 +0.00    +0.006 A  
DOCKED: ATOM     19  C   UNL     1     -50.574 -18.094  13.117 -0.19 +0.00    +0.001 A  
DOCKED: ATOM     20  C   UNL     1     -51.538 -17.102  12.935 -0.17 +0.00    +0.029 A  
DOCKED: ATOM     21  C   UNL     1     -51.944 -16.318  14.014 -0.06 +0.00    +0.140 A  
DOCKED: ATOM     22  C   UNL     1     -51.386 -16.524  15.276 -0.03 +0.00    +0.029 A  
DOCKED: ATOM     23  F   UNL     1     -52.871 -15.367  13.840 +0.01 -0.00    -0.204 F  
DOCKED: ATOM     24  C   UNL     1     -50.421 -17.516  15.459 -0.04 +0.00    +0.001 A  
DOCKED: ENDBRANCH   2  18
DOCKED: TORSDOF 5
DOCKED: TER
DOCKED: ENDMDL
________________________________________________________________________________


    FINAL DOCKED STATE:
    ________________________


Run:   295 / 512
Time taken for this run:   0.002s

DOCKED: MODEL        295
DOCKED: USER    Run = 295
DOCKED: USER
DOCKED: USER    Estimated Free Energy of Binding    =  -4.01 kcal/mol  [=(1)+(2)+(3)-(4)]
DOCKED: USER
DOCKED: USER    (1) Final Intermolecular Energy     =  -5.50 kcal/mol
DOCKED: USER        vdW + Hbond + desolv Energy     =  -5.50 kcal/mol
DOCKED: USER        Electrostatic Energy            =  +0.00 kcal/mol
DOCKED: USER        Moving Ligand-Fixed Receptor    =  -5.50 kcal/mol
DOCKED: USER        Moving Ligand-Moving Receptor   =  +0.00 kcal/mol
DOCKED: USER    (2) Final Total Internal Energy     =  -1.51 kcal/mol
DOCKED: USER    (3) Torsional Free Energy           =  +1.49 kcal/mol
DOCKED: USER    (4) Unbound System's Energy         =  -1.51 kcal/mol
DOCKED: USER
DOCKED: USER
DOCKED: REMARK  5 active torsions:
DOCKED: REMARK  status: ('A' for Active; 'I' for Inactive)
DOCKED: REMARK    1  A    between atoms: C_2  and  C_19 
DOCKED: REMARK    2  A    between atoms: C_2  and  C_11 
DOCKED: REMARK    3  A    between atoms: C_19  and  C_20 
DOCKED: REMARK    4  A    between atoms: C_20  and  C_21 
DOCKED: REMARK    5  A    between atoms: C_21  and  N_22 
DOCKED: USER                              x       y       z     vdW  Elec       q    Type
DOCKED: USER                           _______ _______ _______ _____ _____    ______ ____
DOCKED: ROOT
DOCKED: ATOM      1  O   UNL     1     -51.018 -19.174  14.661 -0.04 -0.00    -0.346 OA 
DOCKED: ATOM      2  C   UNL     1     -49.720 -19.193  13.984 -0.18 +0.00    +0.130 C  
DOCKED: ATOM      3  C   UNL     1     -49.590 -20.608  13.497 -0.23 +0.00    +0.004 A  
DOCKED: ATOM      4  C   UNL     1     -50.757 -21.306  13.773 -0.21 +0.00    +0.006 A  
DOCKED: ATOM      5  C   UNL     1     -51.731 -20.413  14.440 -0.14 +0.00    +0.169 C  
DOCKED: ATOM      6  C   UNL     1     -48.528 -21.224  12.851 -0.27 -0.00    -0.001 A  
DOCKED: ATOM      7  C   UNL     1     -50.902 -22.636  13.420 -0.23 +0.00    +0.008 A  
DOCKED: ATOM      8  C   UNL     1     -48.657 -22.567  12.492 -0.32 +0.00    +0.010 A  
DOCKED: ATOM      9  C   UNL     1     -49.838 -23.269  12.775 -0.28 +0.00    +0.068 A  
DOCKED: ATOM     10  N   UNL     1     -50.046 -25.759  12.090 -2.61 -0.00    -0.191 NA 
DOCKED: ATOM     11  C   UNL     1     -49.953 -24.642  12.398 -0.38 +0.00    +0.101 C  
DOCKED: ENDROOT
DOCKED: BRANCH   2  12
DOCKED: ATOM     12  C   UNL     1     -49.752 -18.176  12.850 -0.15 +0.00    +0.038 C  
DOCKED: BRANCH  12  13
DOCKED: ATOM     13  C   UNL     1     -49.769 -16.745  13.386 -0.15 +0.00    +0.038 C  
DOCKED: BRANCH  13  14
DOCKED: ATOM     14  C   UNL     1     -51.195 -16.292  13.694 -0.07 +0.00    +0.251 C  
DOCKED: BRANCH  14  15
DOCKED: ATOM     15  N   UNL     1     -51.497 -16.491  15.106 -0.03 +0.00    +0.141 N  
DOCKED: ATOM     16  C   UNL     1     -51.052 -15.341  15.896 -0.00 +0.00    +0.285 C  
DOCKED: ATOM     17  C   UNL     1     -52.930 -16.715  15.300 -0.01 +0.00    +0.285 C  
DOCKED: ENDBRANCH  14  15
DOCKED: ENDBRANCH  13  14
DOCKED: ENDBRANCH  12  13
DOCKED: ENDBRANCH   2  12
DOCKED: BRANCH   2  18
DOCKED: ATOM     18  C   UNL     1     -48.691 -18.832  15.003 -0.07 +0.00    +0.006 A  
DOCKED: ATOM     19  C   UNL     1     -47.362 -18.660  14.620 -0.08 +0.00    +0.001 A  
DOCKED: ATOM     20  C   UNL     1     -46.401 -18.323  15.574 -0.03 +0.00    +0.029 A  
DOCKED: ATOM     21  C   UNL     1     -46.770 -18.158  16.908 -0.00 +0.00    +0.140 A  
DOCKED: ATOM     22  C   UNL     1     -48.100 -18.330  17.290 -0.01 +0.00    +0.029 A  
DOCKED: ATOM     23  F   UNL     1     -45.848 -17.833  17.823 +0.00 -0.00    -0.204 F  
DOCKED: ATOM     24  C   UNL     1     -49.062 -18.668  16.337 -0.02 +0.00    +0.001 A  
DOCKED: ENDBRANCH   2  18
DOCKED: TORSDOF 5
DOCKED: TER
DOCKED: ENDMDL
________________________________________________________________________________


    FINAL DOCKED STATE:
    ________________________


Run:   296 / 512
Time taken for this run:   0.002s

DOCKED: MODEL        296
DOCKED: USER    Run = 296
DOCKED: USER
DOCKED: USER    Estimated Free Energy of Binding    =  -5.28 kcal/mol  [=(1)+(2)+(3)-(4)]
DOCKED: USER
DOCKED: USER    (1) Final Intermolecular Energy     =  -6.77 kcal/mol
DOCKED: USER        vdW + Hbond + desolv Energy     =  -6.77 kcal/mol
DOCKED: USER        Electrostatic Energy            =  +0.00 kcal/mol
DOCKED: USER        Moving Ligand-Fixed Receptor    =  -6.77 kcal/mol
DOCKED: USER        Moving Ligand-Moving Receptor   =  +0.00 kcal/mol
DOCKED: USER    (2) Final Total Internal Energy     =  -0.98 kcal/mol
DOCKED: USER    (3) Torsional Free Energy           =  +1.49 kcal/mol
DOCKED: USER    (4) Unbound System's Energy         =  -0.98 kcal/mol
DOCKED: USER
DOCKED: USER
DOCKED: REMARK  5 active torsions:
DOCKED: REMARK  status: ('A' for Active; 'I' for Inactive)
DOCKED: REMARK    1  A    between atoms: C_2  and  C_19 
DOCKED: REMARK    2  A    between atoms: C_2  and  C_11 
DOCKED: REMARK    3  A    between atoms: C_19  and  C_20 
DOCKED: REMARK    4  A    between atoms: C_20  and  C_21 
DOCKED: REMARK    5  A    between atoms: C_21  and  N_22 
DOCKED: USER                              x       y       z     vdW  Elec       q    Type
DOCKED: USER                           _______ _______ _______ _____ _____    ______ ____
DOCKED: ROOT
DOCKED: ATOM      1  O   UNL     1     -48.457 -21.527  15.330 -0.02 -0.00    -0.346 OA 
DOCKED: ATOM      2  C   UNL     1     -47.980 -22.910  15.301 -0.17 +0.00    +0.130 C  
DOCKED: ATOM      3  C   UNL     1     -48.404 -23.408  13.949 -0.31 +0.00    +0.004 A  
DOCKED: ATOM      4  C   UNL     1     -48.974 -22.370  13.227 -0.31 +0.00    +0.006 A  
DOCKED: ATOM      5  C   UNL     1     -48.955 -21.128  14.032 -0.18 +0.00    +0.169 C  
DOCKED: ATOM      6  C   UNL     1     -48.284 -24.676  13.399 -0.37 -0.00    -0.001 A  
DOCKED: ATOM      7  C   UNL     1     -49.445 -22.561  11.939 -0.29 +0.00    +0.008 A  
DOCKED: ATOM      8  C   UNL     1     -48.758 -24.886  12.103 -0.43 +0.00    +0.010 A  
DOCKED: ATOM      9  C   UNL     1     -49.335 -23.834  11.377 -0.40 +0.00    +0.068 A  
DOCKED: ATOM     10  N   UNL     1     -50.201 -24.257   8.972 -2.12 -0.00    -0.191 NA 
DOCKED: ATOM     11  C   UNL     1     -49.814 -24.067  10.051 -0.51 +0.00    +0.101 C  
DOCKED: ENDROOT
DOCKED: BRANCH   2  12
DOCKED: ATOM     12  C   UNL     1     -46.467 -22.903  15.483 -0.21 +0.00    +0.038 C  
DOCKED: BRANCH  12  13
DOCKED: ATOM     13  C   UNL     1     -45.819 -21.750  14.720 -0.12 +0.00    +0.038 C  
DOCKED: BRANCH  13  14
DOCKED: ATOM     14  C   UNL     1     -44.442 -21.418  15.291 -0.09 +0.00    +0.251 C  
DOCKED: BRANCH  14  15
DOCKED: ATOM     15  N   UNL     1     -43.394 -21.972  14.442 -0.11 +0.00    +0.141 N  
DOCKED: ATOM     16  C   UNL     1     -42.136 -21.249  14.636 -0.05 +0.00    +0.285 C  
DOCKED: ATOM     17  C   UNL     1     -43.207 -23.397  14.718 -0.11 +0.00    +0.285 C  
DOCKED: ENDBRANCH  14  15
DOCKED: ENDBRANCH  13  14
DOCKED: ENDBRANCH  12  13
DOCKED: ENDBRANCH   2  12
DOCKED: BRANCH   2  18
DOCKED: ATOM     18  C   UNL     1     -48.654 -23.628  16.423 -0.16 +0.00    +0.006 A  
DOCKED: ATOM     19  C   UNL     1     -50.044 -23.735  16.445 -0.14 +0.00    +0.001 A  
DOCKED: ATOM     20  C   UNL     1     -50.673 -24.406  17.495 -0.13 +0.00    +0.029 A  
DOCKED: ATOM     21  C   UNL     1     -49.912 -24.968  18.519 -0.10 +0.00    +0.140 A  
DOCKED: ATOM     22  C   UNL     1     -48.522 -24.860  18.495 -0.20 +0.00    +0.029 A  
DOCKED: ATOM     23  F   UNL     1     -50.516 -25.614  19.525 -0.04 -0.00    -0.204 F  
DOCKED: ATOM     24  C   UNL     1     -47.891 -24.189  17.446 -0.19 +0.00    +0.001 A  
DOCKED: ENDBRANCH   2  18
DOCKED: TORSDOF 5
DOCKED: TER
DOCKED: ENDMDL
________________________________________________________________________________


    FINAL DOCKED STATE:
    ________________________


Run:   297 / 512
Time taken for this run:   0.002s

DOCKED: MODEL        297
DOCKED: USER    Run = 297
DOCKED: USER
DOCKED: USER    Estimated Free Energy of Binding    =  -4.11 kcal/mol  [=(1)+(2)+(3)-(4)]
DOCKED: USER
DOCKED: USER    (1) Final Intermolecular Energy     =  -5.60 kcal/mol
DOCKED: USER        vdW + Hbond + desolv Energy     =  -5.60 kcal/mol
DOCKED: USER        Electrostatic Energy            =  +0.00 kcal/mol
DOCKED: USER        Moving Ligand-Fixed Receptor    =  -5.60 kcal/mol
DOCKED: USER        Moving Ligand-Moving Receptor   =  +0.00 kcal/mol
DOCKED: USER    (2) Final Total Internal Energy     =  -1.53 kcal/mol
DOCKED: USER    (3) Torsional Free Energy           =  +1.49 kcal/mol
DOCKED: USER    (4) Unbound System's Energy         =  -1.53 kcal/mol
DOCKED: USER
DOCKED: USER
DOCKED: REMARK  5 active torsions:
DOCKED: REMARK  status: ('A' for Active; 'I' for Inactive)
DOCKED: REMARK    1  A    between atoms: C_2  and  C_19 
DOCKED: REMARK    2  A    between atoms: C_2  and  C_11 
DOCKED: REMARK    3  A    between atoms: C_19  and  C_20 
DOCKED: REMARK    4  A    between atoms: C_20  and  C_21 
DOCKED: REMARK    5  A    between atoms: C_21  and  N_22 
DOCKED: USER                              x       y       z     vdW  Elec       q    Type
DOCKED: USER                           _______ _______ _______ _____ _____    ______ ____
DOCKED: ROOT
DOCKED: ATOM      1  O   UNL     1     -48.633 -19.100  14.722 -0.02 -0.00    -0.346 OA 
DOCKED: ATOM      2  C   UNL     1     -50.090 -19.132  14.583 -0.12 +0.00    +0.130 C  
DOCKED: ATOM      3  C   UNL     1     -50.366 -20.492  14.010 -0.21 +0.00    +0.004 A  
DOCKED: ATOM      4  C   UNL     1     -49.184 -21.215  13.932 -0.22 +0.00    +0.006 A  
DOCKED: ATOM      5  C   UNL     1     -48.063 -20.402  14.452 -0.13 +0.00    +0.169 C  
DOCKED: ATOM      6  C   UNL     1     -51.569 -21.049  13.601 -0.23 -0.00    -0.001 A  
DOCKED: ATOM      7  C   UNL     1     -49.163 -22.510  13.443 -0.28 +0.00    +0.008 A  
DOCKED: ATOM      8  C   UNL     1     -51.563 -22.352  13.101 -0.22 +0.00    +0.010 A  
DOCKED: ATOM      9  C   UNL     1     -50.366 -23.079  13.023 -0.23 +0.00    +0.068 A  
DOCKED: ATOM     10  N   UNL     1     -50.390 -25.498  12.094 -2.56 -0.00    -0.191 NA 
DOCKED: ATOM     11  C   UNL     1     -50.379 -24.413  12.510 -0.35 +0.00    +0.101 C  
DOCKED: ENDROOT
DOCKED: BRANCH   2  12
DOCKED: ATOM     12  C   UNL     1     -50.711 -18.931  15.960 -0.04 +0.00    +0.038 C  
DOCKED: BRANCH  12  13
DOCKED: ATOM     13  C   UNL     1     -49.810 -18.087  16.859 -0.01 +0.00    +0.038 C  
DOCKED: BRANCH  13  14
DOCKED: ATOM     14  C   UNL     1     -50.083 -16.597  16.668 -0.00 +0.00    +0.251 C  
DOCKED: BRANCH  14  15
DOCKED: ATOM     15  N   UNL     1     -48.829 -15.859  16.570 -0.00 +0.00    +0.141 N  
DOCKED: ATOM     16  C   UNL     1     -47.697 -16.780  16.457 -0.00 +0.00    +0.285 C  
DOCKED: ATOM     17  C   UNL     1     -48.857 -14.946  15.426 -0.00 +0.00    +0.285 C  
DOCKED: ENDBRANCH  14  15
DOCKED: ENDBRANCH  13  14
DOCKED: ENDBRANCH  12  13
DOCKED: ENDBRANCH   2  12
DOCKED: BRANCH   2  18
DOCKED: ATOM     18  C   UNL     1     -50.464 -18.024  13.656 -0.20 +0.00    +0.006 A  
DOCKED: ATOM     19  C   UNL     1     -51.789 -17.596  13.581 -0.19 +0.00    +0.001 A  
DOCKED: ATOM     20  C   UNL     1     -52.138 -16.560  12.714 -0.15 +0.00    +0.029 A  
DOCKED: ATOM     21  C   UNL     1     -51.162 -15.953  11.924 -0.09 +0.00    +0.140 A  
DOCKED: ATOM     22  C   UNL     1     -49.837 -16.382  12.000 -0.14 +0.00    +0.029 A  
DOCKED: ATOM     23  F   UNL     1     -51.497 -14.958  11.093 -0.03 -0.00    -0.204 F  
DOCKED: ATOM     24  C   UNL     1     -49.487 -17.418  12.867 -0.17 +0.00    +0.001 A  
DOCKED: ENDBRANCH   2  18
DOCKED: TORSDOF 5
DOCKED: TER
DOCKED: ENDMDL
________________________________________________________________________________


    FINAL DOCKED STATE:
    ________________________


Run:   298 / 512
Time taken for this run:   0.002s

DOCKED: MODEL        298
DOCKED: USER    Run = 298
DOCKED: USER
DOCKED: USER    Estimated Free Energy of Binding    =  -5.77 kcal/mol  [=(1)+(2)+(3)-(4)]
DOCKED: USER
DOCKED: USER    (1) Final Intermolecular Energy     =  -7.26 kcal/mol
DOCKED: USER        vdW + Hbond + desolv Energy     =  -7.26 kcal/mol
DOCKED: USER        Electrostatic Energy            =  +0.00 kcal/mol
DOCKED: USER        Moving Ligand-Fixed Receptor    =  -7.26 kcal/mol
DOCKED: USER        Moving Ligand-Moving Receptor   =  +0.00 kcal/mol
DOCKED: USER    (2) Final Total Internal Energy     =  -1.32 kcal/mol
DOCKED: USER    (3) Torsional Free Energy           =  +1.49 kcal/mol
DOCKED: USER    (4) Unbound System's Energy         =  -1.32 kcal/mol
DOCKED: USER
DOCKED: USER
DOCKED: REMARK  5 active torsions:
DOCKED: REMARK  status: ('A' for Active; 'I' for Inactive)
DOCKED: REMARK    1  A    between atoms: C_2  and  C_19 
DOCKED: REMARK    2  A    between atoms: C_2  and  C_11 
DOCKED: REMARK    3  A    between atoms: C_19  and  C_20 
DOCKED: REMARK    4  A    between atoms: C_20  and  C_21 
DOCKED: REMARK    5  A    between atoms: C_21  and  N_22 
DOCKED: USER                              x       y       z     vdW  Elec       q    Type
DOCKED: USER                           _______ _______ _______ _____ _____    ______ ____
DOCKED: ROOT
DOCKED: ATOM      1  O   UNL     1     -48.377 -21.600  14.700 -0.04 -0.00    -0.346 OA 
DOCKED: ATOM      2  C   UNL     1     -47.949 -22.999  14.648 -0.22 +0.00    +0.130 C  
DOCKED: ATOM      3  C   UNL     1     -48.445 -23.477  13.314 -0.34 +0.00    +0.004 A  
DOCKED: ATOM      4  C   UNL     1     -49.008 -22.416  12.618 -0.34 +0.00    +0.006 A  
DOCKED: ATOM      5  C   UNL     1     -48.914 -21.179  13.425 -0.23 +0.00    +0.169 C  
DOCKED: ATOM      6  C   UNL     1     -48.392 -24.746  12.756 -0.39 -0.00    -0.001 A  
DOCKED: ATOM      7  C   UNL     1     -49.539 -22.587  11.350 -0.01 +0.00    +0.008 A  
DOCKED: ATOM      8  C   UNL     1     -48.926 -24.935  11.481 -0.44 +0.00    +0.010 A  
DOCKED: ATOM      9  C   UNL     1     -49.496 -23.860  10.781 -0.42 +0.00    +0.068 A  
DOCKED: ATOM     10  N   UNL     1     -50.474 -24.245   8.413 -2.91 -0.00    -0.191 NA 
DOCKED: ATOM     11  C   UNL     1     -50.036 -24.073   9.475 -0.44 +0.00    +0.101 C  
DOCKED: ENDROOT
DOCKED: BRANCH   2  12
DOCKED: ATOM     12  C   UNL     1     -46.431 -23.044  14.768 -0.24 +0.00    +0.038 C  
DOCKED: BRANCH  12  13
DOCKED: ATOM     13  C   UNL     1     -45.884 -21.772  15.412 -0.17 +0.00    +0.038 C  
DOCKED: BRANCH  13  14
DOCKED: ATOM     14  C   UNL     1     -45.521 -20.732  14.354 -0.02 +0.00    +0.251 C  
DOCKED: BRANCH  14  15
DOCKED: ATOM     15  N   UNL     1     -45.719 -19.385  14.877 -0.06 +0.00    +0.141 N  
DOCKED: ATOM     16  C   UNL     1     -46.373 -18.536  13.880 -0.07 +0.00    +0.285 C  
DOCKED: ATOM     17  C   UNL     1     -46.509 -19.422  16.109 -0.02 +0.00    +0.285 C  
DOCKED: ENDBRANCH  14  15
DOCKED: ENDBRANCH  13  14
DOCKED: ENDBRANCH  12  13
DOCKED: ENDBRANCH   2  12
DOCKED: BRANCH   2  18
DOCKED: ATOM     18  C   UNL     1     -48.601 -23.697  15.795 -0.19 +0.00    +0.006 A  
DOCKED: ATOM     19  C   UNL     1     -47.928 -23.817  17.010 -0.17 +0.00    +0.001 A  
DOCKED: ATOM     20  C   UNL     1     -48.538 -24.471  18.082 -0.18 +0.00    +0.029 A  
DOCKED: ATOM     21  C   UNL     1     -49.819 -25.002  17.936 -0.03 +0.00    +0.140 A  
DOCKED: ATOM     22  C   UNL     1     -50.491 -24.881  16.721 -0.08 +0.00    +0.029 A  
DOCKED: ATOM     23  F   UNL     1     -50.405 -25.627  18.966 -0.03 -0.00    -0.204 F  
DOCKED: ATOM     24  C   UNL     1     -49.882 -24.228  15.648 -0.21 +0.00    +0.001 A  
DOCKED: ENDBRANCH   2  18
DOCKED: TORSDOF 5
DOCKED: TER
DOCKED: ENDMDL
________________________________________________________________________________


    FINAL DOCKED STATE:
    ________________________


Run:   299 / 512
Time taken for this run:   0.002s

DOCKED: MODEL        299
DOCKED: USER    Run = 299
DOCKED: USER
DOCKED: USER    Estimated Free Energy of Binding    =  -4.87 kcal/mol  [=(1)+(2)+(3)-(4)]
DOCKED: USER
DOCKED: USER    (1) Final Intermolecular Energy     =  -6.36 kcal/mol
DOCKED: USER        vdW + Hbond + desolv Energy     =  -6.36 kcal/mol
DOCKED: USER        Electrostatic Energy            =  +0.00 kcal/mol
DOCKED: USER        Moving Ligand-Fixed Receptor    =  -6.36 kcal/mol
DOCKED: USER        Moving Ligand-Moving Receptor   =  +0.00 kcal/mol
DOCKED: USER    (2) Final Total Internal Energy     =  -1.00 kcal/mol
DOCKED: USER    (3) Torsional Free Energy           =  +1.49 kcal/mol
DOCKED: USER    (4) Unbound System's Energy         =  -1.00 kcal/mol
DOCKED: USER
DOCKED: USER
DOCKED: REMARK  5 active torsions:
DOCKED: REMARK  status: ('A' for Active; 'I' for Inactive)
DOCKED: REMARK    1  A    between atoms: C_2  and  C_19 
DOCKED: REMARK    2  A    between atoms: C_2  and  C_11 
DOCKED: REMARK    3  A    between atoms: C_19  and  C_20 
DOCKED: REMARK    4  A    between atoms: C_20  and  C_21 
DOCKED: REMARK    5  A    between atoms: C_21  and  N_22 
DOCKED: USER                              x       y       z     vdW  Elec       q    Type
DOCKED: USER                           _______ _______ _______ _____ _____    ______ ____
DOCKED: ROOT
DOCKED: ATOM      1  O   UNL     1     -48.375 -21.671  14.607 -0.05 -0.00    -0.346 OA 
DOCKED: ATOM      2  C   UNL     1     -49.764 -22.105  14.761 -0.12 +0.00    +0.130 C  
DOCKED: ATOM      3  C   UNL     1     -50.131 -22.628  13.402 -0.25 +0.00    +0.004 A  
DOCKED: ATOM      4  C   UNL     1     -49.017 -22.599  12.575 -0.35 +0.00    +0.006 A  
DOCKED: ATOM      5  C   UNL     1     -47.851 -22.074  13.320 -0.17 +0.00    +0.169 C  
DOCKED: ATOM      6  C   UNL     1     -51.349 -23.103  12.939 -0.27 -0.00    -0.001 A  
DOCKED: ATOM      7  C   UNL     1     -49.083 -23.035  11.263 -0.18 +0.00    +0.008 A  
DOCKED: ATOM      8  C   UNL     1     -51.432 -23.543  11.617 -0.30 +0.00    +0.010 A  
DOCKED: ATOM      9  C   UNL     1     -50.305 -23.510  10.784 -0.33 +0.00    +0.068 A  
DOCKED: ATOM     10  N   UNL     1     -50.492 -24.339   8.336 -2.92 -0.00    -0.191 NA 
DOCKED: ATOM     11  C   UNL     1     -50.408 -23.966   9.434 -0.26 +0.00    +0.101 C  
DOCKED: ENDROOT
DOCKED: BRANCH   2  12
DOCKED: ATOM     12  C   UNL     1     -49.818 -23.176  15.844 -0.14 +0.00    +0.038 C  
DOCKED: BRANCH  12  13
DOCKED: ATOM     13  C   UNL     1     -48.595 -23.107  16.756 -0.13 +0.00    +0.038 C  
DOCKED: BRANCH  13  14
DOCKED: ATOM     14  C   UNL     1     -48.161 -24.503  17.200 -0.15 +0.00    +0.251 C  
DOCKED: BRANCH  14  15
DOCKED: ATOM     15  N   UNL     1     -48.594 -24.757  18.569 -0.15 +0.00    +0.141 N  
DOCKED: ATOM     16  C   UNL     1     -49.963 -25.274  18.590 +0.03 +0.00    +0.285 C  
DOCKED: ATOM     17  C   UNL     1     -47.686 -25.696  19.231 -0.17 +0.00    +0.285 C  
DOCKED: ENDBRANCH  14  15
DOCKED: ENDBRANCH  13  14
DOCKED: ENDBRANCH  12  13
DOCKED: ENDBRANCH   2  12
DOCKED: BRANCH   2  18
DOCKED: ATOM     18  C   UNL     1     -50.556 -20.903  15.154 -0.09 +0.00    +0.006 A  
DOCKED: ATOM     19  C   UNL     1     -50.535 -19.762  14.353 -0.17 +0.00    +0.001 A  
DOCKED: ATOM     20  C   UNL     1     -51.276 -18.638  14.722 -0.11 +0.00    +0.029 A  
DOCKED: ATOM     21  C   UNL     1     -52.036 -18.657  15.890 -0.02 +0.00    +0.140 A  
DOCKED: ATOM     22  C   UNL     1     -52.057 -19.799  16.691 -0.03 +0.00    +0.029 A  
DOCKED: ATOM     23  F   UNL     1     -52.749 -17.579  16.243 +0.01 -0.00    -0.204 F  
DOCKED: ATOM     24  C   UNL     1     -51.316 -20.923  16.323 -0.04 +0.00    +0.001 A  
DOCKED: ENDBRANCH   2  18
DOCKED: TORSDOF 5
DOCKED: TER
DOCKED: ENDMDL
________________________________________________________________________________


    FINAL DOCKED STATE:
    ________________________


Run:   300 / 512
Time taken for this run:   0.002s

DOCKED: MODEL        300
DOCKED: USER    Run = 300
DOCKED: USER
DOCKED: USER    Estimated Free Energy of Binding    =  -4.72 kcal/mol  [=(1)+(2)+(3)-(4)]
DOCKED: USER
DOCKED: USER    (1) Final Intermolecular Energy     =  -6.21 kcal/mol
DOCKED: USER        vdW + Hbond + desolv Energy     =  -6.21 kcal/mol
DOCKED: USER        Electrostatic Energy            =  +0.00 kcal/mol
DOCKED: USER        Moving Ligand-Fixed Receptor    =  -6.21 kcal/mol
DOCKED: USER        Moving Ligand-Moving Receptor   =  +0.00 kcal/mol
DOCKED: USER    (2) Final Total Internal Energy     =  -1.03 kcal/mol
DOCKED: USER    (3) Torsional Free Energy           =  +1.49 kcal/mol
DOCKED: USER    (4) Unbound System's Energy         =  -1.03 kcal/mol
DOCKED: USER
DOCKED: USER
DOCKED: REMARK  5 active torsions:
DOCKED: REMARK  status: ('A' for Active; 'I' for Inactive)
DOCKED: REMARK    1  A    between atoms: C_2  and  C_19 
DOCKED: REMARK    2  A    between atoms: C_2  and  C_11 
DOCKED: REMARK    3  A    between atoms: C_19  and  C_20 
DOCKED: REMARK    4  A    between atoms: C_20  and  C_21 
DOCKED: REMARK    5  A    between atoms: C_21  and  N_22 
DOCKED: USER                              x       y       z     vdW  Elec       q    Type
DOCKED: USER                           _______ _______ _______ _____ _____    ______ ____
DOCKED: ROOT
DOCKED: ATOM      1  O   UNL     1     -51.427 -22.889  14.979 -0.00 -0.00    -0.346 OA 
DOCKED: ATOM      2  C   UNL     1     -50.268 -22.137  14.496 -0.13 +0.00    +0.130 C  
DOCKED: ATOM      3  C   UNL     1     -50.133 -22.566  13.064 -0.28 +0.00    +0.004 A  
DOCKED: ATOM      4  C   UNL     1     -51.186 -23.404  12.726 -0.29 +0.00    +0.006 A  
DOCKED: ATOM      5  C   UNL     1     -52.086 -23.575  13.889 -0.17 +0.00    +0.169 C  
DOCKED: ATOM      6  C   UNL     1     -49.162 -22.233  12.131 -0.29 -0.00    -0.001 A  
DOCKED: ATOM      7  C   UNL     1     -51.303 -23.938  11.454 -0.34 +0.00    +0.008 A  
DOCKED: ATOM      8  C   UNL     1     -49.263 -22.767  10.845 -0.16 +0.00    +0.010 A  
DOCKED: ATOM      9  C   UNL     1     -50.329 -23.615  10.509 -0.34 +0.00    +0.068 A  
DOCKED: ATOM     10  N   UNL     1     -50.490 -24.586   8.112 -2.75 -0.00    -0.191 NA 
DOCKED: ATOM     11  C   UNL     1     -50.417 -24.151   9.187 -0.24 +0.00    +0.101 C  
DOCKED: ENDROOT
DOCKED: BRANCH   2  12
DOCKED: ATOM     12  C   UNL     1     -50.563 -20.648  14.644 -0.16 +0.00    +0.038 C  
DOCKED: BRANCH  12  13
DOCKED: ATOM     13  C   UNL     1     -49.486 -19.798  13.972 -0.21 +0.00    +0.038 C  
DOCKED: BRANCH  13  14
DOCKED: ATOM     14  C   UNL     1     -48.571 -19.150  15.010 -0.05 +0.00    +0.251 C  
DOCKED: BRANCH  14  15
DOCKED: ATOM     15  N   UNL     1     -49.361 -18.437  16.007 -0.02 +0.00    +0.141 N  
DOCKED: ATOM     16  C   UNL     1     -49.195 -19.044  17.328 -0.00 +0.00    +0.285 C  
DOCKED: ATOM     17  C   UNL     1     -48.983 -17.023  16.047 -0.00 +0.00    +0.285 C  
DOCKED: ENDBRANCH  14  15
DOCKED: ENDBRANCH  13  14
DOCKED: ENDBRANCH  12  13
DOCKED: ENDBRANCH   2  12
DOCKED: BRANCH   2  18
DOCKED: ATOM     18  C   UNL     1     -49.104 -22.541  15.337 -0.12 +0.00    +0.006 A  
DOCKED: ATOM     19  C   UNL     1     -47.858 -22.753  14.746 -0.23 +0.00    +0.001 A  
DOCKED: ATOM     20  C   UNL     1     -46.770 -23.131  15.534 -0.18 +0.00    +0.029 A  
DOCKED: ATOM     21  C   UNL     1     -46.929 -23.297  16.909 -0.07 +0.00    +0.140 A  
DOCKED: ATOM     22  C   UNL     1     -48.175 -23.085  17.499 -0.10 +0.00    +0.029 A  
DOCKED: ATOM     23  F   UNL     1     -45.884 -23.659  17.665 -0.02 -0.00    -0.204 F  
DOCKED: ATOM     24  C   UNL     1     -49.264 -22.707  16.712 -0.08 +0.00    +0.001 A  
DOCKED: ENDBRANCH   2  18
DOCKED: TORSDOF 5
DOCKED: TER
DOCKED: ENDMDL
________________________________________________________________________________


    FINAL DOCKED STATE:
    ________________________


Run:   301 / 512
Time taken for this run:   0.002s

DOCKED: MODEL        301
DOCKED: USER    Run = 301
DOCKED: USER
DOCKED: USER    Estimated Free Energy of Binding    =  -4.23 kcal/mol  [=(1)+(2)+(3)-(4)]
DOCKED: USER
DOCKED: USER    (1) Final Intermolecular Energy     =  -5.72 kcal/mol
DOCKED: USER        vdW + Hbond + desolv Energy     =  -5.72 kcal/mol
DOCKED: USER        Electrostatic Energy            =  +0.00 kcal/mol
DOCKED: USER        Moving Ligand-Fixed Receptor    =  -5.72 kcal/mol
DOCKED: USER        Moving Ligand-Moving Receptor   =  +0.00 kcal/mol
DOCKED: USER    (2) Final Total Internal Energy     =  -1.42 kcal/mol
DOCKED: USER    (3) Torsional Free Energy           =  +1.49 kcal/mol
DOCKED: USER    (4) Unbound System's Energy         =  -1.42 kcal/mol
DOCKED: USER
DOCKED: USER
DOCKED: REMARK  5 active torsions:
DOCKED: REMARK  status: ('A' for Active; 'I' for Inactive)
DOCKED: REMARK    1  A    between atoms: C_2  and  C_19 
DOCKED: REMARK    2  A    between atoms: C_2  and  C_11 
DOCKED: REMARK    3  A    between atoms: C_19  and  C_20 
DOCKED: REMARK    4  A    between atoms: C_20  and  C_21 
DOCKED: REMARK    5  A    between atoms: C_21  and  N_22 
DOCKED: USER                              x       y       z     vdW  Elec       q    Type
DOCKED: USER                           _______ _______ _______ _____ _____    ______ ____
DOCKED: ROOT
DOCKED: ATOM      1  O   UNL     1     -47.151 -19.743  14.632 -0.04 -0.00    -0.346 OA 
DOCKED: ATOM      2  C   UNL     1     -48.592 -19.520  14.511 -0.12 +0.00    +0.130 C  
DOCKED: ATOM      3  C   UNL     1     -49.110 -20.813  13.951 -0.21 +0.00    +0.004 A  
DOCKED: ATOM      4  C   UNL     1     -48.075 -21.732  13.864 -0.25 +0.00    +0.006 A  
DOCKED: ATOM      5  C   UNL     1     -46.821 -21.125  14.365 -0.15 +0.00    +0.169 C  
DOCKED: ATOM      6  C   UNL     1     -50.398 -21.152  13.561 -0.23 -0.00    -0.001 A  
DOCKED: ATOM      7  C   UNL     1     -48.287 -23.013  13.383 -0.32 +0.00    +0.008 A  
DOCKED: ATOM      8  C   UNL     1     -50.627 -22.438  13.069 -0.24 +0.00    +0.010 A  
DOCKED: ATOM      9  C   UNL     1     -49.576 -23.364  12.981 -0.28 +0.00    +0.068 A  
DOCKED: ATOM     10  N   UNL     1     -50.037 -25.745  12.069 -2.60 -0.00    -0.191 NA 
DOCKED: ATOM     11  C   UNL     1     -49.830 -24.677  12.478 -0.35 +0.00    +0.101 C  
DOCKED: ENDROOT
DOCKED: BRANCH   2  12
DOCKED: ATOM     12  C   UNL     1     -49.150 -19.206  15.894 -0.04 +0.00    +0.038 C  
DOCKED: BRANCH  12  13
DOCKED: ATOM     13  C   UNL     1     -48.342 -18.110  16.585 -0.02 +0.00    +0.038 C  
DOCKED: BRANCH  13  14
DOCKED: ATOM     14  C   UNL     1     -47.312 -18.707  17.542 -0.00 +0.00    +0.251 C  
DOCKED: BRANCH  14  15
DOCKED: ATOM     15  N   UNL     1     -46.010 -18.801  16.891 -0.01 +0.00    +0.141 N  
DOCKED: ATOM     16  C   UNL     1     -45.612 -17.503  16.343 -0.00 +0.00    +0.285 C  
DOCKED: ATOM     17  C   UNL     1     -44.998 -19.288  17.830 -0.00 +0.00    +0.285 C  
DOCKED: ENDBRANCH  14  15
DOCKED: ENDBRANCH  13  14
DOCKED: ENDBRANCH  12  13
DOCKED: ENDBRANCH   2  12
DOCKED: BRANCH   2  18
DOCKED: ATOM     18  C   UNL     1     -48.778 -18.367  13.581 -0.16 +0.00    +0.006 A  
DOCKED: ATOM     19  C   UNL     1     -47.673 -17.789  12.959 -0.12 +0.00    +0.001 A  
DOCKED: ATOM     20  C   UNL     1     -47.849 -16.711  12.090 -0.10 +0.00    +0.029 A  
DOCKED: ATOM     21  C   UNL     1     -49.128 -16.214  11.845 -0.12 +0.00    +0.140 A  
DOCKED: ATOM     22  C   UNL     1     -50.233 -16.793  12.468 -0.15 +0.00    +0.029 A  
DOCKED: ATOM     23  F   UNL     1     -49.296 -15.181  11.009 -0.03 -0.00    -0.204 F  
DOCKED: ATOM     24  C   UNL     1     -50.059 -17.871  13.337 -0.20 +0.00    +0.001 A  
DOCKED: ENDBRANCH   2  18
DOCKED: TORSDOF 5
DOCKED: TER
DOCKED: ENDMDL
________________________________________________________________________________


    FINAL DOCKED STATE:
    ________________________


Run:   302 / 512
Time taken for this run:   0.002s

DOCKED: MODEL        302
DOCKED: USER    Run = 302
DOCKED: USER
DOCKED: USER    Estimated Free Energy of Binding    =  -5.64 kcal/mol  [=(1)+(2)+(3)-(4)]
DOCKED: USER
DOCKED: USER    (1) Final Intermolecular Energy     =  -7.14 kcal/mol
DOCKED: USER        vdW + Hbond + desolv Energy     =  -7.14 kcal/mol
DOCKED: USER        Electrostatic Energy            =  +0.00 kcal/mol
DOCKED: USER        Moving Ligand-Fixed Receptor    =  -7.14 kcal/mol
DOCKED: USER        Moving Ligand-Moving Receptor   =  +0.00 kcal/mol
DOCKED: USER    (2) Final Total Internal Energy     =  -1.16 kcal/mol
DOCKED: USER    (3) Torsional Free Energy           =  +1.49 kcal/mol
DOCKED: USER    (4) Unbound System's Energy         =  -1.16 kcal/mol
DOCKED: USER
DOCKED: USER
DOCKED: REMARK  5 active torsions:
DOCKED: REMARK  status: ('A' for Active; 'I' for Inactive)
DOCKED: REMARK    1  A    between atoms: C_2  and  C_19 
DOCKED: REMARK    2  A    between atoms: C_2  and  C_11 
DOCKED: REMARK    3  A    between atoms: C_19  and  C_20 
DOCKED: REMARK    4  A    between atoms: C_20  and  C_21 
DOCKED: REMARK    5  A    between atoms: C_21  and  N_22 
DOCKED: USER                              x       y       z     vdW  Elec       q    Type
DOCKED: USER                           _______ _______ _______ _____ _____    ______ ____
DOCKED: ROOT
DOCKED: ATOM      1  O   UNL     1     -48.324 -23.083  14.663 -0.07 -0.00    -0.346 OA 
DOCKED: ATOM      2  C   UNL     1     -49.695 -23.591  14.731 -0.17 +0.00    +0.130 C  
DOCKED: ATOM      3  C   UNL     1     -50.077 -23.789  13.293 -0.28 +0.00    +0.004 A  
DOCKED: ATOM      4  C   UNL     1     -48.984 -23.524  12.479 -0.39 +0.00    +0.006 A  
DOCKED: ATOM      5  C   UNL     1     -47.818 -23.150  13.310 -0.23 +0.00    +0.169 C  
DOCKED: ATOM      6  C   UNL     1     -51.290 -24.183  12.749 -0.30 -0.00    -0.001 A  
DOCKED: ATOM      7  C   UNL     1     -49.067 -23.638  11.102 -0.23 +0.00    +0.008 A  
DOCKED: ATOM      8  C   UNL     1     -51.391 -24.299  11.361 -0.33 +0.00    +0.010 A  
DOCKED: ATOM      9  C   UNL     1     -50.285 -24.028  10.542 -0.41 +0.00    +0.068 A  
DOCKED: ATOM     10  N   UNL     1     -50.505 -24.257   7.971 -3.12 -0.00    -0.191 NA 
DOCKED: ATOM     11  C   UNL     1     -50.406 -24.153   9.124 -0.28 +0.00    +0.101 C  
DOCKED: ENDROOT
DOCKED: BRANCH   2  12
DOCKED: ATOM     12  C   UNL     1     -49.689 -24.891  15.528 -0.29 +0.00    +0.038 C  
DOCKED: BRANCH  12  13
DOCKED: ATOM     13  C   UNL     1     -48.519 -24.938  16.509 -0.29 +0.00    +0.038 C  
DOCKED: BRANCH  13  14
DOCKED: ATOM     14  C   UNL     1     -48.592 -23.783  17.506 -0.10 +0.00    +0.251 C  
DOCKED: BRANCH  14  15
DOCKED: ATOM     15  N   UNL     1     -48.076 -24.201  18.804 -0.11 +0.00    +0.141 N  
DOCKED: ATOM     16  C   UNL     1     -49.076 -23.985  19.851 -0.03 +0.00    +0.285 C  
DOCKED: ATOM     17  C   UNL     1     -47.673 -25.608  18.770 -0.16 +0.00    +0.285 C  
DOCKED: ENDBRANCH  14  15
DOCKED: ENDBRANCH  13  14
DOCKED: ENDBRANCH  12  13
DOCKED: ENDBRANCH   2  12
DOCKED: BRANCH   2  18
DOCKED: ATOM     18  C   UNL     1     -50.514 -22.546  15.412 -0.10 +0.00    +0.006 A  
DOCKED: ATOM     19  C   UNL     1     -51.673 -22.907  16.098 -0.09 +0.00    +0.001 A  
DOCKED: ATOM     20  C   UNL     1     -52.438 -21.928  16.734 -0.05 +0.00    +0.029 A  
DOCKED: ATOM     21  C   UNL     1     -52.043 -20.592  16.684 -0.01 +0.00    +0.140 A  
DOCKED: ATOM     22  C   UNL     1     -50.884 -20.232  15.998 -0.04 +0.00    +0.029 A  
DOCKED: ATOM     23  F   UNL     1     -52.777 -19.654  17.296 +0.01 -0.00    -0.204 F  
DOCKED: ATOM     24  C   UNL     1     -50.118 -21.210  15.361 -0.08 +0.00    +0.001 A  
DOCKED: ENDBRANCH   2  18
DOCKED: TORSDOF 5
DOCKED: TER
DOCKED: ENDMDL
________________________________________________________________________________


    FINAL DOCKED STATE:
    ________________________


Run:   303 / 512
Time taken for this run:   0.002s

DOCKED: MODEL        303
DOCKED: USER    Run = 303
DOCKED: USER
DOCKED: USER    Estimated Free Energy of Binding    =  -4.33 kcal/mol  [=(1)+(2)+(3)-(4)]
DOCKED: USER
DOCKED: USER    (1) Final Intermolecular Energy     =  -5.83 kcal/mol
DOCKED: USER        vdW + Hbond + desolv Energy     =  -5.83 kcal/mol
DOCKED: USER        Electrostatic Energy            =  +0.00 kcal/mol
DOCKED: USER        Moving Ligand-Fixed Receptor    =  -5.83 kcal/mol
DOCKED: USER        Moving Ligand-Moving Receptor   =  +0.00 kcal/mol
DOCKED: USER    (2) Final Total Internal Energy     =  -1.49 kcal/mol
DOCKED: USER    (3) Torsional Free Energy           =  +1.49 kcal/mol
DOCKED: USER    (4) Unbound System's Energy         =  -1.49 kcal/mol
DOCKED: USER
DOCKED: USER
DOCKED: REMARK  5 active torsions:
DOCKED: REMARK  status: ('A' for Active; 'I' for Inactive)
DOCKED: REMARK    1  A    between atoms: C_2  and  C_19 
DOCKED: REMARK    2  A    between atoms: C_2  and  C_11 
DOCKED: REMARK    3  A    between atoms: C_19  and  C_20 
DOCKED: REMARK    4  A    between atoms: C_20  and  C_21 
DOCKED: REMARK    5  A    between atoms: C_21  and  N_22 
DOCKED: USER                              x       y       z     vdW  Elec       q    Type
DOCKED: USER                           _______ _______ _______ _____ _____    ______ ____
DOCKED: ROOT
DOCKED: ATOM      1  O   UNL     1     -47.312 -19.656  14.630 -0.03 -0.00    -0.346 OA 
DOCKED: ATOM      2  C   UNL     1     -48.760 -19.476  14.516 -0.12 +0.00    +0.130 C  
DOCKED: ATOM      3  C   UNL     1     -49.242 -20.785  13.962 -0.21 +0.00    +0.004 A  
DOCKED: ATOM      4  C   UNL     1     -48.180 -21.673  13.871 -0.25 +0.00    +0.006 A  
DOCKED: ATOM      5  C   UNL     1     -46.942 -21.028  14.363 -0.15 +0.00    +0.169 C  
DOCKED: ATOM      6  C   UNL     1     -50.521 -21.163  13.579 -0.23 -0.00    -0.001 A  
DOCKED: ATOM      7  C   UNL     1     -48.357 -22.961  13.393 -0.32 +0.00    +0.008 A  
DOCKED: ATOM      8  C   UNL     1     -50.714 -22.456  13.092 -0.24 +0.00    +0.010 A  
DOCKED: ATOM      9  C   UNL     1     -49.638 -23.351  13.000 -0.27 +0.00    +0.068 A  
DOCKED: ATOM     10  N   UNL     1     -50.032 -25.746  12.095 -2.61 -0.00    -0.191 NA 
DOCKED: ATOM     11  C   UNL     1     -49.855 -24.672  12.500 -0.35 +0.00    +0.101 C  
DOCKED: ENDROOT
DOCKED: BRANCH   2  12
DOCKED: ATOM     12  C   UNL     1     -49.319 -19.176  15.902 -0.04 +0.00    +0.038 C  
DOCKED: BRANCH  12  13
DOCKED: ATOM     13  C   UNL     1     -48.523 -19.893  16.991 -0.02 +0.00    +0.038 C  
DOCKED: BRANCH  13  14
DOCKED: ATOM     14  C   UNL     1     -49.385 -20.929  17.709 -0.01 +0.00    +0.251 C  
DOCKED: BRANCH  14  15
DOCKED: ATOM     15  N   UNL     1     -49.593 -22.094  16.857 -0.03 +0.00    +0.141 N  
DOCKED: ATOM     16  C   UNL     1     -48.588 -23.121  17.132 -0.05 +0.00    +0.285 C  
DOCKED: ATOM     17  C   UNL     1     -50.939 -22.638  17.046 -0.01 +0.00    +0.285 C  
DOCKED: ENDBRANCH  14  15
DOCKED: ENDBRANCH  13  14
DOCKED: ENDBRANCH  12  13
DOCKED: ENDBRANCH   2  12
DOCKED: BRANCH   2  18
DOCKED: ATOM     18  C   UNL     1     -48.985 -18.331  13.586 -0.17 +0.00    +0.006 A  
DOCKED: ATOM     19  C   UNL     1     -47.901 -17.724  12.953 -0.12 +0.00    +0.001 A  
DOCKED: ATOM     20  C   UNL     1     -48.114 -16.654  12.083 -0.10 +0.00    +0.029 A  
DOCKED: ATOM     21  C   UNL     1     -49.408 -16.193  11.847 -0.12 +0.00    +0.140 A  
DOCKED: ATOM     22  C   UNL     1     -50.492 -16.801  12.480 -0.14 +0.00    +0.029 A  
DOCKED: ATOM     23  F   UNL     1     -49.612 -15.167  11.010 -0.03 -0.00    -0.204 F  
DOCKED: ATOM     24  C   UNL     1     -50.281 -17.872  13.351 -0.20 +0.00    +0.001 A  
DOCKED: ENDBRANCH   2  18
DOCKED: TORSDOF 5
DOCKED: TER
DOCKED: ENDMDL
________________________________________________________________________________


    FINAL DOCKED STATE:
    ________________________


Run:   304 / 512
Time taken for this run:   0.002s

DOCKED: MODEL        304
DOCKED: USER    Run = 304
DOCKED: USER
DOCKED: USER    Estimated Free Energy of Binding    =  -4.32 kcal/mol  [=(1)+(2)+(3)-(4)]
DOCKED: USER
DOCKED: USER    (1) Final Intermolecular Energy     =  -5.81 kcal/mol
DOCKED: USER        vdW + Hbond + desolv Energy     =  -5.81 kcal/mol
DOCKED: USER        Electrostatic Energy            =  +0.00 kcal/mol
DOCKED: USER        Moving Ligand-Fixed Receptor    =  -5.81 kcal/mol
DOCKED: USER        Moving Ligand-Moving Receptor   =  +0.00 kcal/mol
DOCKED: USER    (2) Final Total Internal Energy     =  -1.44 kcal/mol
DOCKED: USER    (3) Torsional Free Energy           =  +1.49 kcal/mol
DOCKED: USER    (4) Unbound System's Energy         =  -1.44 kcal/mol
DOCKED: USER
DOCKED: USER
DOCKED: REMARK  5 active torsions:
DOCKED: REMARK  status: ('A' for Active; 'I' for Inactive)
DOCKED: REMARK    1  A    between atoms: C_2  and  C_19 
DOCKED: REMARK    2  A    between atoms: C_2  and  C_11 
DOCKED: REMARK    3  A    between atoms: C_19  and  C_20 
DOCKED: REMARK    4  A    between atoms: C_20  and  C_21 
DOCKED: REMARK    5  A    between atoms: C_21  and  N_22 
DOCKED: USER                              x       y       z     vdW  Elec       q    Type
DOCKED: USER                           _______ _______ _______ _____ _____    ______ ____
DOCKED: ROOT
DOCKED: ATOM      1  O   UNL     1     -45.789 -21.389  15.128 -0.08 -0.00    -0.346 OA 
DOCKED: ATOM      2  C   UNL     1     -46.956 -20.591  14.751 -0.13 +0.00    +0.130 C  
DOCKED: ATOM      3  C   UNL     1     -47.858 -21.575  14.063 -0.23 +0.00    +0.004 A  
DOCKED: ATOM      4  C   UNL     1     -47.306 -22.846  14.138 -0.24 +0.00    +0.006 A  
DOCKED: ATOM      5  C   UNL     1     -46.026 -22.794  14.880 -0.13 +0.00    +0.169 C  
DOCKED: ATOM      6  C   UNL     1     -49.075 -21.364  13.432 -0.27 -0.00    -0.001 A  
DOCKED: ATOM      7  C   UNL     1     -47.944 -23.943  13.585 -0.36 +0.00    +0.008 A  
DOCKED: ATOM      8  C   UNL     1     -49.729 -22.460  12.866 -0.31 +0.00    +0.010 A  
DOCKED: ATOM      9  C   UNL     1     -49.166 -23.742  12.942 -0.31 +0.00    +0.068 A  
DOCKED: ATOM     10  N   UNL     1     -50.408 -25.755  11.884 -2.44 -0.00    -0.191 NA 
DOCKED: ATOM     11  C   UNL     1     -49.851 -24.852  12.358 -0.32 +0.00    +0.101 C  
DOCKED: ENDROOT
DOCKED: BRANCH   2  12
DOCKED: ATOM     12  C   UNL     1     -47.571 -20.007  16.017 -0.05 +0.00    +0.038 C  
DOCKED: BRANCH  12  13
DOCKED: ATOM     13  C   UNL     1     -48.625 -20.943  16.608 -0.05 +0.00    +0.038 C  
DOCKED: BRANCH  13  14
DOCKED: ATOM     14  C   UNL     1     -48.038 -21.789  17.736 -0.02 +0.00    +0.251 C  
DOCKED: BRANCH  14  15
DOCKED: ATOM     15  N   UNL     1     -48.771 -23.043  17.863 -0.05 +0.00    +0.141 N  
DOCKED: ATOM     16  C   UNL     1     -49.927 -23.058  16.966 -0.03 +0.00    +0.285 C  
DOCKED: ATOM     17  C   UNL     1     -47.896 -24.182  17.583 -0.12 +0.00    +0.285 C  
DOCKED: ENDBRANCH  14  15
DOCKED: ENDBRANCH  13  14
DOCKED: ENDBRANCH  12  13
DOCKED: ENDBRANCH   2  12
DOCKED: BRANCH   2  18
DOCKED: ATOM     18  C   UNL     1     -46.472 -19.512  13.841 -0.15 +0.00    +0.006 A  
DOCKED: ATOM     19  C   UNL     1     -47.308 -18.443  13.521 -0.13 +0.00    +0.001 A  
DOCKED: ATOM     20  C   UNL     1     -46.854 -17.435  12.670 -0.10 +0.00    +0.029 A  
DOCKED: ATOM     21  C   UNL     1     -45.565 -17.497  12.141 -0.07 +0.00    +0.140 A  
DOCKED: ATOM     22  C   UNL     1     -44.730 -18.566  12.461 -0.11 +0.00    +0.029 A  
DOCKED: ATOM     23  F   UNL     1     -45.129 -16.528  11.325 -0.01 -0.00    -0.204 F  
DOCKED: ATOM     24  C   UNL     1     -45.183 -19.576  13.312 -0.10 +0.00    +0.001 A  
DOCKED: ENDBRANCH   2  18
DOCKED: TORSDOF 5
DOCKED: TER
DOCKED: ENDMDL
________________________________________________________________________________


    FINAL DOCKED STATE:
    ________________________


Run:   305 / 512
Time taken for this run:   0.002s

DOCKED: MODEL        305
DOCKED: USER    Run = 305
DOCKED: USER
DOCKED: USER    Estimated Free Energy of Binding    =  -4.31 kcal/mol  [=(1)+(2)+(3)-(4)]
DOCKED: USER
DOCKED: USER    (1) Final Intermolecular Energy     =  -5.80 kcal/mol
DOCKED: USER        vdW + Hbond + desolv Energy     =  -5.80 kcal/mol
DOCKED: USER        Electrostatic Energy            =  +0.00 kcal/mol
DOCKED: USER        Moving Ligand-Fixed Receptor    =  -5.80 kcal/mol
DOCKED: USER        Moving Ligand-Moving Receptor   =  +0.00 kcal/mol
DOCKED: USER    (2) Final Total Internal Energy     =  -1.39 kcal/mol
DOCKED: USER    (3) Torsional Free Energy           =  +1.49 kcal/mol
DOCKED: USER    (4) Unbound System's Energy         =  -1.39 kcal/mol
DOCKED: USER
DOCKED: USER
DOCKED: REMARK  5 active torsions:
DOCKED: REMARK  status: ('A' for Active; 'I' for Inactive)
DOCKED: REMARK    1  A    between atoms: C_2  and  C_19 
DOCKED: REMARK    2  A    between atoms: C_2  and  C_11 
DOCKED: REMARK    3  A    between atoms: C_19  and  C_20 
DOCKED: REMARK    4  A    between atoms: C_20  and  C_21 
DOCKED: REMARK    5  A    between atoms: C_21  and  N_22 
DOCKED: USER                              x       y       z     vdW  Elec       q    Type
DOCKED: USER                           _______ _______ _______ _____ _____    ______ ____
DOCKED: ROOT
DOCKED: ATOM      1  O   UNL     1     -45.816 -20.780  14.895 -0.07 -0.00    -0.346 OA 
DOCKED: ATOM      2  C   UNL     1     -47.018 -20.041  14.507 -0.13 +0.00    +0.130 C  
DOCKED: ATOM      3  C   UNL     1     -47.911 -21.092  13.915 -0.23 +0.00    +0.004 A  
DOCKED: ATOM      4  C   UNL     1     -47.319 -22.340  14.053 -0.21 +0.00    +0.006 A  
DOCKED: ATOM      5  C   UNL     1     -46.018 -22.204  14.746 -0.10 +0.00    +0.169 C  
DOCKED: ATOM      6  C   UNL     1     -49.154 -20.957  13.313 -0.26 -0.00    -0.001 A  
DOCKED: ATOM      7  C   UNL     1     -47.941 -23.488  13.593 -0.33 +0.00    +0.008 A  
DOCKED: ATOM      8  C   UNL     1     -49.792 -22.105  12.840 -0.28 +0.00    +0.010 A  
DOCKED: ATOM      9  C   UNL     1     -49.189 -23.364  12.980 -0.30 +0.00    +0.068 A  
DOCKED: ATOM     10  N   UNL     1     -50.403 -25.475  12.096 -2.56 -0.00    -0.191 NA 
DOCKED: ATOM     11  C   UNL     1     -49.858 -24.528  12.492 -0.37 +0.00    +0.101 C  
DOCKED: ENDROOT
DOCKED: BRANCH   2  12
DOCKED: ATOM     12  C   UNL     1     -47.610 -19.393  15.753 -0.05 +0.00    +0.038 C  
DOCKED: BRANCH  12  13
DOCKED: ATOM     13  C   UNL     1     -48.697 -20.268  16.373 -0.04 +0.00    +0.038 C  
DOCKED: BRANCH  13  14
DOCKED: ATOM     14  C   UNL     1     -48.094 -21.318  17.303 -0.02 +0.00    +0.251 C  
DOCKED: BRANCH  14  15
DOCKED: ATOM     15  N   UNL     1     -48.450 -22.659  16.854 -0.06 +0.00    +0.141 N  
DOCKED: ATOM     16  C   UNL     1     -47.458 -23.636  17.307 -0.08 +0.00    +0.285 C  
DOCKED: ATOM     17  C   UNL     1     -49.782 -23.027  17.335 -0.03 +0.00    +0.285 C  
DOCKED: ENDBRANCH  14  15
DOCKED: ENDBRANCH  13  14
DOCKED: ENDBRANCH  12  13
DOCKED: ENDBRANCH   2  12
DOCKED: BRANCH   2  18
DOCKED: ATOM     18  C   UNL     1     -46.595 -19.010  13.514 -0.15 +0.00    +0.006 A  
DOCKED: ATOM     19  C   UNL     1     -45.313 -19.054  12.967 -0.14 +0.00    +0.001 A  
DOCKED: ATOM     20  C   UNL     1     -44.919 -18.090  12.039 -0.11 +0.00    +0.029 A  
DOCKED: ATOM     21  C   UNL     1     -45.807 -17.085  11.658 -0.07 +0.00    +0.140 A  
DOCKED: ATOM     22  C   UNL     1     -47.089 -17.042  12.205 -0.09 +0.00    +0.029 A  
DOCKED: ATOM     23  F   UNL     1     -45.429 -16.161  10.765 -0.01 -0.00    -0.204 F  
DOCKED: ATOM     24  C   UNL     1     -47.484 -18.006  13.134 -0.13 +0.00    +0.001 A  
DOCKED: ENDBRANCH   2  18
DOCKED: TORSDOF 5
DOCKED: TER
DOCKED: ENDMDL
________________________________________________________________________________


    FINAL DOCKED STATE:
    ________________________


Run:   306 / 512
Time taken for this run:   0.002s

DOCKED: MODEL        306
DOCKED: USER    Run = 306
DOCKED: USER
DOCKED: USER    Estimated Free Energy of Binding    =  -4.24 kcal/mol  [=(1)+(2)+(3)-(4)]
DOCKED: USER
DOCKED: USER    (1) Final Intermolecular Energy     =  -5.73 kcal/mol
DOCKED: USER        vdW + Hbond + desolv Energy     =  -5.73 kcal/mol
DOCKED: USER        Electrostatic Energy            =  +0.00 kcal/mol
DOCKED: USER        Moving Ligand-Fixed Receptor    =  -5.73 kcal/mol
DOCKED: USER        Moving Ligand-Moving Receptor   =  +0.00 kcal/mol
DOCKED: USER    (2) Final Total Internal Energy     =  -1.29 kcal/mol
DOCKED: USER    (3) Torsional Free Energy           =  +1.49 kcal/mol
DOCKED: USER    (4) Unbound System's Energy         =  -1.29 kcal/mol
DOCKED: USER
DOCKED: USER
DOCKED: REMARK  5 active torsions:
DOCKED: REMARK  status: ('A' for Active; 'I' for Inactive)
DOCKED: REMARK    1  A    between atoms: C_2  and  C_19 
DOCKED: REMARK    2  A    between atoms: C_2  and  C_11 
DOCKED: REMARK    3  A    between atoms: C_19  and  C_20 
DOCKED: REMARK    4  A    between atoms: C_20  and  C_21 
DOCKED: REMARK    5  A    between atoms: C_21  and  N_22 
DOCKED: USER                              x       y       z     vdW  Elec       q    Type
DOCKED: USER                           _______ _______ _______ _____ _____    ______ ____
DOCKED: ROOT
DOCKED: ATOM      1  O   UNL     1     -45.733 -21.746  15.380 -0.08 -0.00    -0.346 OA 
DOCKED: ATOM      2  C   UNL     1     -46.709 -20.842  14.768 -0.14 +0.00    +0.130 C  
DOCKED: ATOM      3  C   UNL     1     -47.622 -21.760  14.009 -0.23 +0.00    +0.004 A  
DOCKED: ATOM      4  C   UNL     1     -47.268 -23.079  14.254 -0.26 +0.00    +0.006 A  
DOCKED: ATOM      5  C   UNL     1     -46.122 -23.126  15.189 -0.13 +0.00    +0.169 C  
DOCKED: ATOM      6  C   UNL     1     -48.689 -21.453  13.177 -0.29 -0.00    -0.001 A  
DOCKED: ATOM      7  C   UNL     1     -47.960 -24.130  13.677 -0.37 +0.00    +0.008 A  
DOCKED: ATOM      8  C   UNL     1     -49.394 -22.501  12.583 -0.34 +0.00    +0.010 A  
DOCKED: ATOM      9  C   UNL     1     -49.031 -23.833  12.833 -0.33 +0.00    +0.068 A  
DOCKED: ATOM     10  N   UNL     1     -50.364 -25.756  11.720 -2.36 -0.00    -0.191 NA 
DOCKED: ATOM     11  C   UNL     1     -49.766 -24.894  12.218 -0.36 +0.00    +0.101 C  
DOCKED: ENDROOT
DOCKED: BRANCH   2  12
DOCKED: ATOM     12  C   UNL     1     -47.422 -20.079  15.878 -0.06 +0.00    +0.038 C  
DOCKED: BRANCH  12  13
DOCKED: ATOM     13  C   UNL     1     -46.427 -19.463  16.859 -0.02 +0.00    +0.038 C  
DOCKED: BRANCH  13  14
DOCKED: ATOM     14  C   UNL     1     -46.734 -19.890  18.294 -0.00 +0.00    +0.251 C  
DOCKED: BRANCH  14  15
DOCKED: ATOM     15  N   UNL     1     -45.787 -20.908  18.734 -0.01 +0.00    +0.141 N  
DOCKED: ATOM     16  C   UNL     1     -46.346 -22.248  18.547 -0.03 +0.00    +0.285 C  
DOCKED: ATOM     17  C   UNL     1     -44.521 -20.780  18.012 -0.01 +0.00    +0.285 C  
DOCKED: ENDBRANCH  14  15
DOCKED: ENDBRANCH  13  14
DOCKED: ENDBRANCH  12  13
DOCKED: ENDBRANCH   2  12
DOCKED: BRANCH   2  18
DOCKED: ATOM     18  C   UNL     1     -45.947 -19.915  13.881 -0.13 +0.00    +0.006 A  
DOCKED: ATOM     19  C   UNL     1     -46.600 -19.250  12.844 -0.17 +0.00    +0.001 A  
DOCKED: ATOM     20  C   UNL     1     -45.887 -18.384  12.014 -0.13 +0.00    +0.029 A  
DOCKED: ATOM     21  C   UNL     1     -44.523 -18.183  12.224 -0.08 +0.00    +0.140 A  
DOCKED: ATOM     22  C   UNL     1     -43.871 -18.848  13.262 -0.08 +0.00    +0.029 A  
DOCKED: ATOM     23  F   UNL     1     -43.839 -17.350  11.429 -0.00 -0.00    -0.204 F  
DOCKED: ATOM     24  C   UNL     1     -44.583 -19.715  14.092 -0.11 +0.00    +0.001 A  
DOCKED: ENDBRANCH   2  18
DOCKED: TORSDOF 5
DOCKED: TER
DOCKED: ENDMDL
________________________________________________________________________________


    FINAL DOCKED STATE:
    ________________________


Run:   307 / 512
Time taken for this run:   0.002s

DOCKED: MODEL        307
DOCKED: USER    Run = 307
DOCKED: USER
DOCKED: USER    Estimated Free Energy of Binding    =  -4.43 kcal/mol  [=(1)+(2)+(3)-(4)]
DOCKED: USER
DOCKED: USER    (1) Final Intermolecular Energy     =  -5.92 kcal/mol
DOCKED: USER        vdW + Hbond + desolv Energy     =  -5.92 kcal/mol
DOCKED: USER        Electrostatic Energy            =  +0.00 kcal/mol
DOCKED: USER        Moving Ligand-Fixed Receptor    =  -5.92 kcal/mol
DOCKED: USER        Moving Ligand-Moving Receptor   =  +0.00 kcal/mol
DOCKED: USER    (2) Final Total Internal Energy     =  -1.21 kcal/mol
DOCKED: USER    (3) Torsional Free Energy           =  +1.49 kcal/mol
DOCKED: USER    (4) Unbound System's Energy         =  -1.21 kcal/mol
DOCKED: USER
DOCKED: USER
DOCKED: REMARK  5 active torsions:
DOCKED: REMARK  status: ('A' for Active; 'I' for Inactive)
DOCKED: REMARK    1  A    between atoms: C_2  and  C_19 
DOCKED: REMARK    2  A    between atoms: C_2  and  C_11 
DOCKED: REMARK    3  A    between atoms: C_19  and  C_20 
DOCKED: REMARK    4  A    between atoms: C_20  and  C_21 
DOCKED: REMARK    5  A    between atoms: C_21  and  N_22 
DOCKED: USER                              x       y       z     vdW  Elec       q    Type
DOCKED: USER                           _______ _______ _______ _____ _____    ______ ____
DOCKED: ROOT
DOCKED: ATOM      1  O   UNL     1     -47.850 -18.993  13.522 -0.07 -0.00    -0.346 OA 
DOCKED: ATOM      2  C   UNL     1     -49.207 -19.060  14.066 -0.15 +0.00    +0.130 C  
DOCKED: ATOM      3  C   UNL     1     -49.671 -20.441  13.704 -0.22 +0.00    +0.004 A  
DOCKED: ATOM      4  C   UNL     1     -48.634 -21.141  13.106 -0.27 +0.00    +0.006 A  
DOCKED: ATOM      5  C   UNL     1     -47.425 -20.290  13.042 -0.13 +0.00    +0.169 C  
DOCKED: ATOM      6  C   UNL     1     -50.910 -21.034  13.900 -0.21 -0.00    -0.001 A  
DOCKED: ATOM      7  C   UNL     1     -48.797 -22.449  12.681 -0.34 +0.00    +0.008 A  
DOCKED: ATOM      8  C   UNL     1     -51.092 -22.351  13.473 -0.22 +0.00    +0.010 A  
DOCKED: ATOM      9  C   UNL     1     -50.041 -23.054  12.867 -0.26 +0.00    +0.068 A  
DOCKED: ATOM     10  N   UNL     1     -50.411 -25.498  12.091 -2.56 -0.00    -0.191 NA 
DOCKED: ATOM     11  C   UNL     1     -50.245 -24.402  12.439 -0.36 +0.00    +0.101 C  
DOCKED: ENDROOT
DOCKED: BRANCH   2  12
DOCKED: ATOM     12  C   UNL     1     -49.136 -18.832  15.571 -0.05 +0.00    +0.038 C  
DOCKED: BRANCH  12  13
DOCKED: ATOM     13  C   UNL     1     -47.690 -18.711  16.048 -0.03 +0.00    +0.038 C  
DOCKED: BRANCH  13  14
DOCKED: ATOM     14  C   UNL     1     -47.365 -17.275  16.456 -0.00 +0.00    +0.251 C  
DOCKED: BRANCH  14  15
DOCKED: ATOM     15  N   UNL     1     -46.004 -16.932  16.063 -0.00 +0.00    +0.141 N  
DOCKED: ATOM     16  C   UNL     1     -45.774 -17.263  14.656 -0.01 +0.00    +0.285 C  
DOCKED: ATOM     17  C   UNL     1     -45.742 -15.511  16.298 +0.00 +0.00    +0.285 C  
DOCKED: ENDBRANCH  14  15
DOCKED: ENDBRANCH  13  14
DOCKED: ENDBRANCH  12  13
DOCKED: ENDBRANCH   2  12
DOCKED: BRANCH   2  18
DOCKED: ATOM     18  C   UNL     1     -49.998 -17.987  13.396 -0.19 +0.00    +0.006 A  
DOCKED: ATOM     19  C   UNL     1     -49.348 -17.006  12.647 -0.16 +0.00    +0.001 A  
DOCKED: ATOM     20  C   UNL     1     -50.089 -16.003  12.021 -0.16 +0.00    +0.029 A  
DOCKED: ATOM     21  C   UNL     1     -51.478 -15.982  12.144 -0.11 +0.00    +0.140 A  
DOCKED: ATOM     22  C   UNL     1     -52.127 -16.963  12.893 -0.17 +0.00    +0.029 A  
DOCKED: ATOM     23  F   UNL     1     -52.189 -15.020  11.542 -0.02 -0.00    -0.204 F  
DOCKED: ATOM     24  C   UNL     1     -51.387 -17.967  13.520 -0.21 +0.00    +0.001 A  
DOCKED: ENDBRANCH   2  18
DOCKED: TORSDOF 5
DOCKED: TER
DOCKED: ENDMDL
________________________________________________________________________________


    FINAL DOCKED STATE:
    ________________________


Run:   308 / 512
Time taken for this run:   0.002s

DOCKED: MODEL        308
DOCKED: USER    Run = 308
DOCKED: USER
DOCKED: USER    Estimated Free Energy of Binding    =  -4.24 kcal/mol  [=(1)+(2)+(3)-(4)]
DOCKED: USER
DOCKED: USER    (1) Final Intermolecular Energy     =  -5.73 kcal/mol
DOCKED: USER        vdW + Hbond + desolv Energy     =  -5.73 kcal/mol
DOCKED: USER        Electrostatic Energy            =  +0.00 kcal/mol
DOCKED: USER        Moving Ligand-Fixed Receptor    =  -5.73 kcal/mol
DOCKED: USER        Moving Ligand-Moving Receptor   =  +0.00 kcal/mol
DOCKED: USER    (2) Final Total Internal Energy     =  -1.54 kcal/mol
DOCKED: USER    (3) Torsional Free Energy           =  +1.49 kcal/mol
DOCKED: USER    (4) Unbound System's Energy         =  -1.54 kcal/mol
DOCKED: USER
DOCKED: USER
DOCKED: REMARK  5 active torsions:
DOCKED: REMARK  status: ('A' for Active; 'I' for Inactive)
DOCKED: REMARK    1  A    between atoms: C_2  and  C_19 
DOCKED: REMARK    2  A    between atoms: C_2  and  C_11 
DOCKED: REMARK    3  A    between atoms: C_19  and  C_20 
DOCKED: REMARK    4  A    between atoms: C_20  and  C_21 
DOCKED: REMARK    5  A    between atoms: C_21  and  N_22 
DOCKED: USER                              x       y       z     vdW  Elec       q    Type
DOCKED: USER                           _______ _______ _______ _____ _____    ______ ____
DOCKED: ROOT
DOCKED: ATOM      1  O   UNL     1     -47.970 -19.360  14.095 -0.05 -0.00    -0.346 OA 
DOCKED: ATOM      2  C   UNL     1     -49.365 -19.545  14.498 -0.13 +0.00    +0.130 C  
DOCKED: ATOM      3  C   UNL     1     -49.723 -20.894  13.945 -0.21 +0.00    +0.004 A  
DOCKED: ATOM      4  C   UNL     1     -48.602 -21.477  13.372 -0.28 +0.00    +0.006 A  
DOCKED: ATOM      5  C   UNL     1     -47.438 -20.574  13.516 -0.18 +0.00    +0.169 C  
DOCKED: ATOM      6  C   UNL     1     -50.942 -21.557  13.957 -0.20 -0.00    -0.001 A  
DOCKED: ATOM      7  C   UNL     1     -48.659 -22.733  12.792 -0.34 +0.00    +0.008 A  
DOCKED: ATOM      8  C   UNL     1     -51.017 -22.822  13.372 -0.23 +0.00    +0.010 A  
DOCKED: ATOM      9  C   UNL     1     -49.881 -23.407  12.793 -0.28 +0.00    +0.068 A  
DOCKED: ATOM     10  N   UNL     1     -50.053 -25.759  11.720 -2.38 -0.00    -0.191 NA 
DOCKED: ATOM     11  C   UNL     1     -49.976 -24.704  12.201 -0.40 +0.00    +0.101 C  
DOCKED: ENDROOT
DOCKED: BRANCH   2  12
DOCKED: ATOM     12  C   UNL     1     -49.439 -19.489  16.020 -0.04 +0.00    +0.038 C  
DOCKED: BRANCH  12  13
DOCKED: ATOM     13  C   UNL     1     -48.138 -18.961  16.621 -0.02 +0.00    +0.038 C  
DOCKED: BRANCH  13  14
DOCKED: ATOM     14  C   UNL     1     -48.286 -17.505  17.059 -0.00 +0.00    +0.251 C  
DOCKED: BRANCH  14  15
DOCKED: ATOM     15  N   UNL     1     -48.253 -16.622  15.900 -0.01 +0.00    +0.141 N  
DOCKED: ATOM     16  C   UNL     1     -48.678 -15.270  16.269 -0.00 +0.00    +0.285 C  
DOCKED: ATOM     17  C   UNL     1     -46.912 -16.590  15.313 -0.00 +0.00    +0.285 C  
DOCKED: ENDBRANCH  14  15
DOCKED: ENDBRANCH  13  14
DOCKED: ENDBRANCH  12  13
DOCKED: ENDBRANCH   2  12
DOCKED: BRANCH   2  18
DOCKED: ATOM     18  C   UNL     1     -50.149 -18.436  13.880 -0.19 +0.00    +0.006 A  
DOCKED: ATOM     19  C   UNL     1     -49.543 -17.587  12.955 -0.17 +0.00    +0.001 A  
DOCKED: ATOM     20  C   UNL     1     -50.277 -16.550  12.377 -0.14 +0.00    +0.029 A  
DOCKED: ATOM     21  C   UNL     1     -51.614 -16.364  12.726 -0.12 +0.00    +0.140 A  
DOCKED: ATOM     22  C   UNL     1     -52.219 -17.214  13.651 -0.16 +0.00    +0.029 A  
DOCKED: ATOM     23  F   UNL     1     -52.319 -15.369  12.170 -0.02 -0.00    -0.204 F  
DOCKED: ATOM     24  C   UNL     1     -51.486 -18.251  14.229 -0.16 +0.00    +0.001 A  
DOCKED: ENDBRANCH   2  18
DOCKED: TORSDOF 5
DOCKED: TER
DOCKED: ENDMDL
________________________________________________________________________________


    FINAL DOCKED STATE:
    ________________________


Run:   309 / 512
Time taken for this run:   0.002s

DOCKED: MODEL        309
DOCKED: USER    Run = 309
DOCKED: USER
DOCKED: USER    Estimated Free Energy of Binding    =  -5.59 kcal/mol  [=(1)+(2)+(3)-(4)]
DOCKED: USER
DOCKED: USER    (1) Final Intermolecular Energy     =  -7.08 kcal/mol
DOCKED: USER        vdW + Hbond + desolv Energy     =  -7.08 kcal/mol
DOCKED: USER        Electrostatic Energy            =  +0.00 kcal/mol
DOCKED: USER        Moving Ligand-Fixed Receptor    =  -7.08 kcal/mol
DOCKED: USER        Moving Ligand-Moving Receptor   =  +0.00 kcal/mol
DOCKED: USER    (2) Final Total Internal Energy     =  -1.46 kcal/mol
DOCKED: USER    (3) Torsional Free Energy           =  +1.49 kcal/mol
DOCKED: USER    (4) Unbound System's Energy         =  -1.46 kcal/mol
DOCKED: USER
DOCKED: USER
DOCKED: REMARK  5 active torsions:
DOCKED: REMARK  status: ('A' for Active; 'I' for Inactive)
DOCKED: REMARK    1  A    between atoms: C_2  and  C_19 
DOCKED: REMARK    2  A    between atoms: C_2  and  C_11 
DOCKED: REMARK    3  A    between atoms: C_19  and  C_20 
DOCKED: REMARK    4  A    between atoms: C_20  and  C_21 
DOCKED: REMARK    5  A    between atoms: C_21  and  N_22 
DOCKED: USER                              x       y       z     vdW  Elec       q    Type
DOCKED: USER                           _______ _______ _______ _____ _____    ______ ____
DOCKED: ROOT
DOCKED: ATOM      1  O   UNL     1     -48.468 -23.099  14.866 -0.05 -0.00    -0.346 OA 
DOCKED: ATOM      2  C   UNL     1     -49.859 -23.554  14.864 -0.16 +0.00    +0.130 C  
DOCKED: ATOM      3  C   UNL     1     -50.196 -23.674  13.406 -0.27 +0.00    +0.004 A  
DOCKED: ATOM      4  C   UNL     1     -49.066 -23.418  12.643 -0.38 +0.00    +0.006 A  
DOCKED: ATOM      5  C   UNL     1     -47.916 -23.129  13.529 -0.25 +0.00    +0.169 C  
DOCKED: ATOM      6  C   UNL     1     -51.404 -23.995  12.804 -0.30 -0.00    -0.001 A  
DOCKED: ATOM      7  C   UNL     1     -49.103 -23.470  11.260 -0.28 +0.00    +0.008 A  
DOCKED: ATOM      8  C   UNL     1     -51.459 -24.047  11.410 -0.31 +0.00    +0.010 A  
DOCKED: ATOM      9  C   UNL     1     -50.314 -23.786  10.642 -0.38 +0.00    +0.068 A  
DOCKED: ATOM     10  N   UNL     1     -50.449 -23.896   8.057 -3.16 -0.00    -0.191 NA 
DOCKED: ATOM     11  C   UNL     1     -50.389 -23.846   9.217 -0.27 +0.00    +0.101 C  
DOCKED: ENDROOT
DOCKED: BRANCH   2  12
DOCKED: ATOM     12  C   UNL     1     -49.933 -24.885  15.602 -0.27 +0.00    +0.038 C  
DOCKED: BRANCH  12  13
DOCKED: ATOM     13  C   UNL     1     -48.543 -25.384  15.992 -0.29 +0.00    +0.038 C  
DOCKED: BRANCH  13  14
DOCKED: ATOM     14  C   UNL     1     -48.159 -24.904  17.390 -0.17 +0.00    +0.251 C  
DOCKED: BRANCH  14  15
DOCKED: ATOM     15  N   UNL     1     -49.296 -24.259  18.035 -0.11 +0.00    +0.141 N  
DOCKED: ATOM     16  C   UNL     1     -49.802 -25.083  19.134 -0.09 +0.00    +0.285 C  
DOCKED: ATOM     17  C   UNL     1     -48.925 -22.931  18.527 -0.02 +0.00    +0.285 C  
DOCKED: ENDBRANCH  14  15
DOCKED: ENDBRANCH  13  14
DOCKED: ENDBRANCH  12  13
DOCKED: ENDBRANCH   2  12
DOCKED: BRANCH   2  18
DOCKED: ATOM     18  C   UNL     1     -50.661 -22.506  15.562 -0.09 +0.00    +0.006 A  
DOCKED: ATOM     19  C   UNL     1     -50.408 -21.157  15.317 -0.09 +0.00    +0.001 A  
DOCKED: ATOM     20  C   UNL     1     -51.158 -20.179  15.971 -0.04 +0.00    +0.029 A  
DOCKED: ATOM     21  C   UNL     1     -52.160 -20.550  16.867 -0.01 +0.00    +0.140 A  
DOCKED: ATOM     22  C   UNL     1     -52.412 -21.900  17.111 -0.04 +0.00    +0.029 A  
DOCKED: ATOM     23  F   UNL     1     -52.881 -19.611  17.492 +0.01 -0.00    -0.204 F  
DOCKED: ATOM     24  C   UNL     1     -51.662 -22.879  16.458 -0.07 +0.00    +0.001 A  
DOCKED: ENDBRANCH   2  18
DOCKED: TORSDOF 5
DOCKED: TER
DOCKED: ENDMDL
________________________________________________________________________________


    FINAL DOCKED STATE:
    ________________________


Run:   310 / 512
Time taken for this run:   0.002s

DOCKED: MODEL        310
DOCKED: USER    Run = 310
DOCKED: USER
DOCKED: USER    Estimated Free Energy of Binding    =  -3.72 kcal/mol  [=(1)+(2)+(3)-(4)]
DOCKED: USER
DOCKED: USER    (1) Final Intermolecular Energy     =  -5.21 kcal/mol
DOCKED: USER        vdW + Hbond + desolv Energy     =  -5.21 kcal/mol
DOCKED: USER        Electrostatic Energy            =  +0.00 kcal/mol
DOCKED: USER        Moving Ligand-Fixed Receptor    =  -5.21 kcal/mol
DOCKED: USER        Moving Ligand-Moving Receptor   =  +0.00 kcal/mol
DOCKED: USER    (2) Final Total Internal Energy     =  -1.30 kcal/mol
DOCKED: USER    (3) Torsional Free Energy           =  +1.49 kcal/mol
DOCKED: USER    (4) Unbound System's Energy         =  -1.30 kcal/mol
DOCKED: USER
DOCKED: USER
DOCKED: REMARK  5 active torsions:
DOCKED: REMARK  status: ('A' for Active; 'I' for Inactive)
DOCKED: REMARK    1  A    between atoms: C_2  and  C_19 
DOCKED: REMARK    2  A    between atoms: C_2  and  C_11 
DOCKED: REMARK    3  A    between atoms: C_19  and  C_20 
DOCKED: REMARK    4  A    between atoms: C_20  and  C_21 
DOCKED: REMARK    5  A    between atoms: C_21  and  N_22 
DOCKED: USER                              x       y       z     vdW  Elec       q    Type
DOCKED: USER                           _______ _______ _______ _____ _____    ______ ____
DOCKED: ROOT
DOCKED: ATOM      1  O   UNL     1     -47.726 -19.069  13.727 -0.06 -0.00    -0.346 OA 
DOCKED: ATOM      2  C   UNL     1     -48.594 -19.492  14.827 -0.09 +0.00    +0.130 C  
DOCKED: ATOM      3  C   UNL     1     -49.093 -20.840  14.394 -0.16 +0.00    +0.004 A  
DOCKED: ATOM      4  C   UNL     1     -48.480 -21.205  13.204 -0.28 +0.00    +0.006 A  
DOCKED: ATOM      5  C   UNL     1     -47.536 -20.146  12.779 -0.03 +0.00    +0.169 C  
DOCKED: ATOM      6  C   UNL     1     -50.008 -21.681  15.009 -0.11 -0.00    -0.001 A  
DOCKED: ATOM      7  C   UNL     1     -48.761 -22.413  12.589 -0.33 +0.00    +0.008 A  
DOCKED: ATOM      8  C   UNL     1     -50.306 -22.901  14.399 -0.16 +0.00    +0.010 A  
DOCKED: ATOM      9  C   UNL     1     -49.685 -23.265  13.195 -0.25 +0.00    +0.068 A  
DOCKED: ATOM     10  N   UNL     1     -50.256 -25.539  12.093 -2.53 -0.00    -0.191 NA 
DOCKED: ATOM     11  C   UNL     1     -50.000 -24.519  12.587 -0.35 +0.00    +0.101 C  
DOCKED: ENDROOT
DOCKED: BRANCH   2  12
DOCKED: ATOM     12  C   UNL     1     -47.761 -19.550  16.103 -0.04 +0.00    +0.038 C  
DOCKED: BRANCH  12  13
DOCKED: ATOM     13  C   UNL     1     -46.309 -19.918  15.804 -0.06 +0.00    +0.038 C  
DOCKED: BRANCH  13  14
DOCKED: ATOM     14  C   UNL     1     -45.753 -20.864  16.866 -0.03 +0.00    +0.251 C  
DOCKED: BRANCH  14  15
DOCKED: ATOM     15  N   UNL     1     -46.360 -22.183  16.738 -0.07 +0.00    +0.141 N  
DOCKED: ATOM     16  C   UNL     1     -46.254 -22.668  15.361 -0.13 +0.00    +0.285 C  
DOCKED: ATOM     17  C   UNL     1     -45.732 -23.132  17.660 -0.06 +0.00    +0.285 C  
DOCKED: ENDBRANCH  14  15
DOCKED: ENDBRANCH  13  14
DOCKED: ENDBRANCH  12  13
DOCKED: ENDBRANCH   2  12
DOCKED: BRANCH   2  18
DOCKED: ATOM     18  C   UNL     1     -49.682 -18.477  14.939 -0.08 +0.00    +0.006 A  
DOCKED: ATOM     19  C   UNL     1     -49.669 -17.554  15.984 -0.02 +0.00    +0.001 A  
DOCKED: ATOM     20  C   UNL     1     -50.687 -16.606  16.089 -0.02 +0.00    +0.029 A  
DOCKED: ATOM     21  C   UNL     1     -51.716 -16.582  15.148 -0.02 +0.00    +0.140 A  
DOCKED: ATOM     22  C   UNL     1     -51.728 -17.505  14.103 -0.14 +0.00    +0.029 A  
DOCKED: ATOM     23  F   UNL     1     -52.692 -15.670  15.247 +0.01 -0.00    -0.204 F  
DOCKED: ATOM     24  C   UNL     1     -50.710 -18.454  13.998 -0.19 +0.00    +0.001 A  
DOCKED: ENDBRANCH   2  18
DOCKED: TORSDOF 5
DOCKED: TER
DOCKED: ENDMDL
________________________________________________________________________________


    FINAL DOCKED STATE:
    ________________________


Run:   311 / 512
Time taken for this run:   0.002s

DOCKED: MODEL        311
DOCKED: USER    Run = 311
DOCKED: USER
DOCKED: USER    Estimated Free Energy of Binding    =  -3.97 kcal/mol  [=(1)+(2)+(3)-(4)]
DOCKED: USER
DOCKED: USER    (1) Final Intermolecular Energy     =  -5.46 kcal/mol
DOCKED: USER        vdW + Hbond + desolv Energy     =  -5.46 kcal/mol
DOCKED: USER        Electrostatic Energy            =  +0.00 kcal/mol
DOCKED: USER        Moving Ligand-Fixed Receptor    =  -5.46 kcal/mol
DOCKED: USER        Moving Ligand-Moving Receptor   =  +0.00 kcal/mol
DOCKED: USER    (2) Final Total Internal Energy     =  -1.31 kcal/mol
DOCKED: USER    (3) Torsional Free Energy           =  +1.49 kcal/mol
DOCKED: USER    (4) Unbound System's Energy         =  -1.31 kcal/mol
DOCKED: USER
DOCKED: USER
DOCKED: REMARK  5 active torsions:
DOCKED: REMARK  status: ('A' for Active; 'I' for Inactive)
DOCKED: REMARK    1  A    between atoms: C_2  and  C_19 
DOCKED: REMARK    2  A    between atoms: C_2  and  C_11 
DOCKED: REMARK    3  A    between atoms: C_19  and  C_20 
DOCKED: REMARK    4  A    between atoms: C_20  and  C_21 
DOCKED: REMARK    5  A    between atoms: C_21  and  N_22 
DOCKED: USER                              x       y       z     vdW  Elec       q    Type
DOCKED: USER                           _______ _______ _______ _____ _____    ______ ____
DOCKED: ROOT
DOCKED: ATOM      1  O   UNL     1     -48.472 -20.342  16.341 -0.00 -0.00    -0.346 OA 
DOCKED: ATOM      2  C   UNL     1     -47.983 -20.041  14.995 -0.09 +0.00    +0.130 C  
DOCKED: ATOM      3  C   UNL     1     -48.427 -21.220  14.179 -0.20 +0.00    +0.004 A  
DOCKED: ATOM      4  C   UNL     1     -49.197 -22.067  14.963 -0.13 +0.00    +0.006 A  
DOCKED: ATOM      5  C   UNL     1     -49.325 -21.510  16.328 -0.04 +0.00    +0.169 C  
DOCKED: ATOM      6  C   UNL     1     -48.179 -21.514  12.846 -0.24 -0.00    -0.001 A  
DOCKED: ATOM      7  C   UNL     1     -49.740 -23.232  14.448 -0.18 +0.00    +0.008 A  
DOCKED: ATOM      8  C   UNL     1     -48.716 -22.687  12.313 -0.29 +0.00    +0.010 A  
DOCKED: ATOM      9  C   UNL     1     -49.492 -23.542  13.110 -0.28 +0.00    +0.068 A  
DOCKED: ATOM     10  N   UNL     1     -50.477 -25.709  12.087 -2.51 -0.00    -0.191 NA 
DOCKED: ATOM     11  C   UNL     1     -50.035 -24.737  12.546 -0.31 +0.00    +0.101 C  
DOCKED: ENDROOT
DOCKED: BRANCH   2  12
DOCKED: ATOM     12  C   UNL     1     -48.611 -18.730  14.535 -0.11 +0.00    +0.038 C  
DOCKED: BRANCH  12  13
DOCKED: ATOM     13  C   UNL     1     -49.929 -18.972  13.801 -0.21 +0.00    +0.038 C  
DOCKED: BRANCH  13  14
DOCKED: ATOM     14  C   UNL     1     -51.061 -19.258  14.786 -0.08 +0.00    +0.251 C  
DOCKED: BRANCH  14  15
DOCKED: ATOM     15  N   UNL     1     -52.076 -20.099  14.162 -0.15 +0.00    +0.141 N  
DOCKED: ATOM     16  C   UNL     1     -52.660 -21.016  15.142 -0.04 +0.00    +0.285 C  
DOCKED: ATOM     17  C   UNL     1     -53.121 -19.278  13.550 -0.14 +0.00    +0.285 C  
DOCKED: ENDBRANCH  14  15
DOCKED: ENDBRANCH  13  14
DOCKED: ENDBRANCH  12  13
DOCKED: ENDBRANCH   2  12
DOCKED: BRANCH   2  18
DOCKED: ATOM     18  C   UNL     1     -46.498 -19.923  15.086 -0.09 +0.00    +0.006 A  
DOCKED: ATOM     19  C   UNL     1     -45.706 -21.071  15.078 -0.14 +0.00    +0.001 A  
DOCKED: ATOM     20  C   UNL     1     -44.318 -20.959  15.164 -0.11 +0.00    +0.029 A  
DOCKED: ATOM     21  C   UNL     1     -43.724 -19.702  15.256 -0.04 +0.00    +0.140 A  
DOCKED: ATOM     22  C   UNL     1     -44.516 -18.554  15.263 -0.03 +0.00    +0.029 A  
DOCKED: ATOM     23  F   UNL     1     -42.391 -19.595  15.337 -0.00 -0.00    -0.204 F  
DOCKED: ATOM     24  C   UNL     1     -45.905 -18.664  15.178 -0.04 +0.00    +0.001 A  
DOCKED: ENDBRANCH   2  18
DOCKED: TORSDOF 5
DOCKED: TER
DOCKED: ENDMDL
________________________________________________________________________________


    FINAL DOCKED STATE:
    ________________________


Run:   312 / 512
Time taken for this run:   0.002s

DOCKED: MODEL        312
DOCKED: USER    Run = 312
DOCKED: USER
DOCKED: USER    Estimated Free Energy of Binding    =  -4.16 kcal/mol  [=(1)+(2)+(3)-(4)]
DOCKED: USER
DOCKED: USER    (1) Final Intermolecular Energy     =  -5.65 kcal/mol
DOCKED: USER        vdW + Hbond + desolv Energy     =  -5.65 kcal/mol
DOCKED: USER        Electrostatic Energy            =  +0.00 kcal/mol
DOCKED: USER        Moving Ligand-Fixed Receptor    =  -5.65 kcal/mol
DOCKED: USER        Moving Ligand-Moving Receptor   =  +0.00 kcal/mol
DOCKED: USER    (2) Final Total Internal Energy     =  -1.39 kcal/mol
DOCKED: USER    (3) Torsional Free Energy           =  +1.49 kcal/mol
DOCKED: USER    (4) Unbound System's Energy         =  -1.39 kcal/mol
DOCKED: USER
DOCKED: USER
DOCKED: REMARK  5 active torsions:
DOCKED: REMARK  status: ('A' for Active; 'I' for Inactive)
DOCKED: REMARK    1  A    between atoms: C_2  and  C_19 
DOCKED: REMARK    2  A    between atoms: C_2  and  C_11 
DOCKED: REMARK    3  A    between atoms: C_19  and  C_20 
DOCKED: REMARK    4  A    between atoms: C_20  and  C_21 
DOCKED: REMARK    5  A    between atoms: C_21  and  N_22 
DOCKED: USER                              x       y       z     vdW  Elec       q    Type
DOCKED: USER                           _______ _______ _______ _____ _____    ______ ____
DOCKED: ROOT
DOCKED: ATOM      1  O   UNL     1     -40.366 -23.963   4.669 -0.02 -0.00    -0.346 OA 
DOCKED: ATOM      2  C   UNL     1     -40.492 -22.781   5.522 -0.09 +0.00    +0.130 C  
DOCKED: ATOM      3  C   UNL     1     -41.054 -23.321   6.805 -0.12 +0.00    +0.004 A  
DOCKED: ATOM      4  C   UNL     1     -41.138 -24.705   6.731 -0.16 +0.00    +0.006 A  
DOCKED: ATOM      5  C   UNL     1     -40.634 -25.170   5.420 -0.09 +0.00    +0.169 C  
DOCKED: ATOM      6  C   UNL     1     -41.448 -22.645   7.950 -0.13 -0.00    -0.001 A  
DOCKED: ATOM      7  C   UNL     1     -41.621 -25.455   7.790 -0.28 +0.00    +0.008 A  
DOCKED: ATOM      8  C   UNL     1     -41.941 -23.386   9.025 -0.24 +0.00    +0.010 A  
DOCKED: ATOM      9  C   UNL     1     -42.026 -24.784   8.945 -0.30 +0.00    +0.068 A  
DOCKED: ATOM     10  N   UNL     1     -42.941 -26.131  10.961 -2.65 -0.00    -0.191 NA 
DOCKED: ATOM     11  C   UNL     1     -42.531 -25.527  10.057 -0.41 +0.00    +0.101 C  
DOCKED: ENDROOT
DOCKED: BRANCH   2  12
DOCKED: ATOM     12  C   UNL     1     -39.110 -22.161   5.695 -0.02 +0.00    +0.038 C  
DOCKED: BRANCH  12  13
DOCKED: ATOM     13  C   UNL     1     -38.034 -23.234   5.848 -0.01 +0.00    +0.038 C  
DOCKED: BRANCH  13  14
DOCKED: ATOM     14  C   UNL     1     -37.280 -23.071   7.166 -0.00 +0.00    +0.251 C  
DOCKED: BRANCH  14  15
DOCKED: ATOM     15  N   UNL     1     -38.130 -23.454   8.287 -0.02 +0.00    +0.141 N  
DOCKED: ATOM     16  C   UNL     1     -38.171 -24.910   8.431 -0.04 +0.00    +0.285 C  
DOCKED: ATOM     17  C   UNL     1     -37.659 -22.834   9.527 -0.00 +0.00    +0.285 C  
DOCKED: ENDBRANCH  14  15
DOCKED: ENDBRANCH  13  14
DOCKED: ENDBRANCH  12  13
DOCKED: ENDBRANCH   2  12
DOCKED: BRANCH   2  18
DOCKED: ATOM     18  C   UNL     1     -41.421 -21.840   4.831 -0.12 +0.00    +0.006 A  
DOCKED: ATOM     19  C   UNL     1     -41.724 -22.025   3.483 -0.13 +0.00    +0.001 A  
DOCKED: ATOM     20  C   UNL     1     -42.593 -21.144   2.837 -0.19 +0.00    +0.029 A  
DOCKED: ATOM     21  C   UNL     1     -43.158 -20.081   3.541 -0.19 +0.00    +0.140 A  
DOCKED: ATOM     22  C   UNL     1     -42.855 -19.897   4.889 -0.18 +0.00    +0.029 A  
DOCKED: ATOM     23  F   UNL     1     -43.994 -19.237   2.922 -0.13 -0.00    -0.204 F  
DOCKED: ATOM     24  C   UNL     1     -41.986 -20.777   5.536 -0.13 +0.00    +0.001 A  
DOCKED: ENDBRANCH   2  18
DOCKED: TORSDOF 5
DOCKED: TER
DOCKED: ENDMDL
________________________________________________________________________________


    FINAL DOCKED STATE:
    ________________________


Run:   313 / 512
Time taken for this run:   0.002s

DOCKED: MODEL        313
DOCKED: USER    Run = 313
DOCKED: USER
DOCKED: USER    Estimated Free Energy of Binding    =  -4.66 kcal/mol  [=(1)+(2)+(3)-(4)]
DOCKED: USER
DOCKED: USER    (1) Final Intermolecular Energy     =  -6.15 kcal/mol
DOCKED: USER        vdW + Hbond + desolv Energy     =  -6.15 kcal/mol
DOCKED: USER        Electrostatic Energy            =  +0.00 kcal/mol
DOCKED: USER        Moving Ligand-Fixed Receptor    =  -6.15 kcal/mol
DOCKED: USER        Moving Ligand-Moving Receptor   =  +0.00 kcal/mol
DOCKED: USER    (2) Final Total Internal Energy     =  -1.41 kcal/mol
DOCKED: USER    (3) Torsional Free Energy           =  +1.49 kcal/mol
DOCKED: USER    (4) Unbound System's Energy         =  -1.41 kcal/mol
DOCKED: USER
DOCKED: USER
DOCKED: REMARK  5 active torsions:
DOCKED: REMARK  status: ('A' for Active; 'I' for Inactive)
DOCKED: REMARK    1  A    between atoms: C_2  and  C_19 
DOCKED: REMARK    2  A    between atoms: C_2  and  C_11 
DOCKED: REMARK    3  A    between atoms: C_19  and  C_20 
DOCKED: REMARK    4  A    between atoms: C_20  and  C_21 
DOCKED: REMARK    5  A    between atoms: C_21  and  N_22 
DOCKED: USER                              x       y       z     vdW  Elec       q    Type
DOCKED: USER                           _______ _______ _______ _____ _____    ______ ____
DOCKED: ROOT
DOCKED: ATOM      1  O   UNL     1     -48.626 -24.104  15.806 -0.08 -0.00    -0.346 OA 
DOCKED: ATOM      2  C   UNL     1     -48.430 -22.766  15.247 -0.15 +0.00    +0.130 C  
DOCKED: ATOM      3  C   UNL     1     -48.805 -22.921  13.801 -0.28 +0.00    +0.004 A  
DOCKED: ATOM      4  C   UNL     1     -49.279 -24.206  13.577 -0.31 +0.00    +0.006 A  
DOCKED: ATOM      5  C   UNL     1     -49.264 -24.975  14.842 -0.12 +0.00    +0.169 C  
DOCKED: ATOM      6  C   UNL     1     -48.742 -21.996  12.770 -0.32 -0.00    -0.001 A  
DOCKED: ATOM      7  C   UNL     1     -49.700 -24.610  12.322 -0.41 +0.00    +0.008 A  
DOCKED: ATOM      8  C   UNL     1     -49.159 -22.389  11.497 -0.09 +0.00    +0.010 A  
DOCKED: ATOM      9  C   UNL     1     -49.636 -23.690  11.275 -0.40 +0.00    +0.068 A  
DOCKED: ATOM     10  N   UNL     1     -50.407 -24.386   8.901 -2.29 -0.00    -0.191 NA 
DOCKED: ATOM     11  C   UNL     1     -50.061 -24.074   9.966 -0.50 +0.00    +0.101 C  
DOCKED: ENDROOT
DOCKED: BRANCH   2  12
DOCKED: ATOM     12  C   UNL     1     -49.335 -21.793  15.994 -0.08 +0.00    +0.038 C  
DOCKED: BRANCH  12  13
DOCKED: ATOM     13  C   UNL     1     -50.580 -21.452  15.177 -0.11 +0.00    +0.038 C  
DOCKED: BRANCH  13  14
DOCKED: ATOM     14  C   UNL     1     -51.733 -22.396  15.513 -0.03 +0.00    +0.251 C  
DOCKED: BRANCH  14  15
DOCKED: ATOM     15  N   UNL     1     -52.738 -22.366  14.456 -0.12 +0.00    +0.141 N  
DOCKED: ATOM     16  C   UNL     1     -52.571 -21.176  13.620 -0.13 +0.00    +0.285 C  
DOCKED: ATOM     17  C   UNL     1     -52.660 -23.577  13.637 -0.09 +0.00    +0.285 C  
DOCKED: ENDBRANCH  14  15
DOCKED: ENDBRANCH  13  14
DOCKED: ENDBRANCH  12  13
DOCKED: ENDBRANCH   2  12
DOCKED: BRANCH   2  18
DOCKED: ATOM     18  C   UNL     1     -46.991 -22.419  15.441 -0.18 +0.00    +0.006 A  
DOCKED: ATOM     19  C   UNL     1     -45.999 -23.243  14.913 -0.06 +0.00    +0.001 A  
DOCKED: ATOM     20  C   UNL     1     -44.654 -22.918  15.095 -0.14 +0.00    +0.029 A  
DOCKED: ATOM     21  C   UNL     1     -44.304 -21.769  15.803 -0.10 +0.00    +0.140 A  
DOCKED: ATOM     22  C   UNL     1     -45.298 -20.945  16.331 -0.07 +0.00    +0.029 A  
DOCKED: ATOM     23  F   UNL     1     -43.014 -21.456  15.977 -0.01 -0.00    -0.204 F  
DOCKED: ATOM     24  C   UNL     1     -46.643 -21.270  16.150 -0.08 +0.00    +0.001 A  
DOCKED: ENDBRANCH   2  18
DOCKED: TORSDOF 5
DOCKED: TER
DOCKED: ENDMDL
________________________________________________________________________________


    FINAL DOCKED STATE:
    ________________________


Run:   314 / 512
Time taken for this run:   0.002s

DOCKED: MODEL        314
DOCKED: USER    Run = 314
DOCKED: USER
DOCKED: USER    Estimated Free Energy of Binding    =  -4.28 kcal/mol  [=(1)+(2)+(3)-(4)]
DOCKED: USER
DOCKED: USER    (1) Final Intermolecular Energy     =  -5.78 kcal/mol
DOCKED: USER        vdW + Hbond + desolv Energy     =  -5.78 kcal/mol
DOCKED: USER        Electrostatic Energy            =  +0.00 kcal/mol
DOCKED: USER        Moving Ligand-Fixed Receptor    =  -5.78 kcal/mol
DOCKED: USER        Moving Ligand-Moving Receptor   =  +0.00 kcal/mol
DOCKED: USER    (2) Final Total Internal Energy     =  -1.20 kcal/mol
DOCKED: USER    (3) Torsional Free Energy           =  +1.49 kcal/mol
DOCKED: USER    (4) Unbound System's Energy         =  -1.20 kcal/mol
DOCKED: USER
DOCKED: USER
DOCKED: REMARK  5 active torsions:
DOCKED: REMARK  status: ('A' for Active; 'I' for Inactive)
DOCKED: REMARK    1  A    between atoms: C_2  and  C_19 
DOCKED: REMARK    2  A    between atoms: C_2  and  C_11 
DOCKED: REMARK    3  A    between atoms: C_19  and  C_20 
DOCKED: REMARK    4  A    between atoms: C_20  and  C_21 
DOCKED: REMARK    5  A    between atoms: C_21  and  N_22 
DOCKED: USER                              x       y       z     vdW  Elec       q    Type
DOCKED: USER                           _______ _______ _______ _____ _____    ______ ____
DOCKED: ROOT
DOCKED: ATOM      1  O   UNL     1     -47.813 -19.111  14.174 -0.04 -0.00    -0.346 OA 
DOCKED: ATOM      2  C   UNL     1     -49.270 -19.051  14.300 -0.13 +0.00    +0.130 C  
DOCKED: ATOM      3  C   UNL     1     -49.727 -20.400  13.826 -0.21 +0.00    +0.004 A  
DOCKED: ATOM      4  C   UNL     1     -48.625 -21.200  13.559 -0.26 +0.00    +0.006 A  
DOCKED: ATOM      5  C   UNL     1     -47.380 -20.451  13.845 -0.18 +0.00    +0.169 C  
DOCKED: ATOM      6  C   UNL     1     -51.016 -20.885  13.657 -0.22 -0.00    -0.001 A  
DOCKED: ATOM      7  C   UNL     1     -48.771 -22.501  13.111 -0.32 +0.00    +0.008 A  
DOCKED: ATOM      8  C   UNL     1     -51.179 -22.194  13.202 -0.22 +0.00    +0.010 A  
DOCKED: ATOM      9  C   UNL     1     -50.062 -22.998  12.931 -0.25 +0.00    +0.068 A  
DOCKED: ATOM     10  N   UNL     1     -50.401 -25.426  12.093 -2.56 -0.00    -0.191 NA 
DOCKED: ATOM     11  C   UNL     1     -50.249 -24.337  12.468 -0.36 +0.00    +0.101 C  
DOCKED: ENDROOT
DOCKED: BRANCH   2  12
DOCKED: ATOM     12  C   UNL     1     -49.618 -18.785  15.760 -0.04 +0.00    +0.038 C  
DOCKED: BRANCH  12  13
DOCKED: ATOM     13  C   UNL     1     -49.219 -17.371  16.178 -0.02 +0.00    +0.038 C  
DOCKED: BRANCH  13  14
DOCKED: ATOM     14  C   UNL     1     -47.701 -17.207  16.185 -0.00 +0.00    +0.251 C  
DOCKED: BRANCH  14  15
DOCKED: ATOM     15  N   UNL     1     -47.159 -17.555  17.493 -0.00 +0.00    +0.141 N  
DOCKED: ATOM     16  C   UNL     1     -48.115 -17.227  18.552 +0.00 +0.00    +0.285 C  
DOCKED: ATOM     17  C   UNL     1     -46.811 -18.976  17.546 -0.00 +0.00    +0.285 C  
DOCKED: ENDBRANCH  14  15
DOCKED: ENDBRANCH  13  14
DOCKED: ENDBRANCH  12  13
DOCKED: ENDBRANCH   2  12
DOCKED: BRANCH   2  18
DOCKED: ATOM     18  C   UNL     1     -49.737 -17.937  13.423 -0.18 +0.00    +0.006 A  
DOCKED: ATOM     19  C   UNL     1     -48.815 -17.201  12.680 -0.13 +0.00    +0.001 A  
DOCKED: ATOM     20  C   UNL     1     -49.254 -16.160  11.861 -0.15 +0.00    +0.029 A  
DOCKED: ATOM     21  C   UNL     1     -50.613 -15.857  11.786 -0.11 +0.00    +0.140 A  
DOCKED: ATOM     22  C   UNL     1     -51.534 -16.594  12.529 -0.13 +0.00    +0.029 A  
DOCKED: ATOM     23  F   UNL     1     -51.034 -14.859  10.998 -0.03 -0.00    -0.204 F  
DOCKED: ATOM     24  C   UNL     1     -51.097 -17.635  13.349 -0.21 +0.00    +0.001 A  
DOCKED: ENDBRANCH   2  18
DOCKED: TORSDOF 5
DOCKED: TER
DOCKED: ENDMDL
________________________________________________________________________________


    FINAL DOCKED STATE:
    ________________________


Run:   315 / 512
Time taken for this run:   0.002s

DOCKED: MODEL        315
DOCKED: USER    Run = 315
DOCKED: USER
DOCKED: USER    Estimated Free Energy of Binding    =  -4.04 kcal/mol  [=(1)+(2)+(3)-(4)]
DOCKED: USER
DOCKED: USER    (1) Final Intermolecular Energy     =  -5.53 kcal/mol
DOCKED: USER        vdW + Hbond + desolv Energy     =  -5.53 kcal/mol
DOCKED: USER        Electrostatic Energy            =  +0.00 kcal/mol
DOCKED: USER        Moving Ligand-Fixed Receptor    =  -5.53 kcal/mol
DOCKED: USER        Moving Ligand-Moving Receptor   =  +0.00 kcal/mol
DOCKED: USER    (2) Final Total Internal Energy     =  -1.18 kcal/mol
DOCKED: USER    (3) Torsional Free Energy           =  +1.49 kcal/mol
DOCKED: USER    (4) Unbound System's Energy         =  -1.18 kcal/mol
DOCKED: USER
DOCKED: USER
DOCKED: REMARK  5 active torsions:
DOCKED: REMARK  status: ('A' for Active; 'I' for Inactive)
DOCKED: REMARK    1  A    between atoms: C_2  and  C_19 
DOCKED: REMARK    2  A    between atoms: C_2  and  C_11 
DOCKED: REMARK    3  A    between atoms: C_19  and  C_20 
DOCKED: REMARK    4  A    between atoms: C_20  and  C_21 
DOCKED: REMARK    5  A    between atoms: C_21  and  N_22 
DOCKED: USER                              x       y       z     vdW  Elec       q    Type
DOCKED: USER                           _______ _______ _______ _____ _____    ______ ____
DOCKED: ROOT
DOCKED: ATOM      1  O   UNL     1     -50.198 -19.165  14.764 -0.03 -0.00    -0.346 OA 
DOCKED: ATOM      2  C   UNL     1     -48.793 -19.557  14.642 -0.11 +0.00    +0.130 C  
DOCKED: ATOM      3  C   UNL     1     -48.855 -20.949  14.083 -0.20 +0.00    +0.004 A  
DOCKED: ATOM      4  C   UNL     1     -50.174 -21.282  13.805 -0.22 +0.00    +0.006 A  
DOCKED: ATOM      5  C   UNL     1     -51.061 -20.147  14.145 -0.17 +0.00    +0.169 C  
DOCKED: ATOM      6  C   UNL     1     -47.827 -21.844  13.829 -0.25 -0.00    -0.001 A  
DOCKED: ATOM      7  C   UNL     1     -50.508 -22.515  13.272 -0.25 +0.00    +0.008 A  
DOCKED: ATOM      8  C   UNL     1     -48.148 -23.093  13.295 -0.32 +0.00    +0.010 A  
DOCKED: ATOM      9  C   UNL     1     -49.483 -23.427  13.018 -0.28 +0.00    +0.068 A  
DOCKED: ATOM     10  N   UNL     1     -50.045 -25.752  12.023 -2.57 -0.00    -0.191 NA 
DOCKED: ATOM     11  C   UNL     1     -49.793 -24.709  12.470 -0.34 +0.00    +0.101 C  
DOCKED: ENDROOT
DOCKED: BRANCH   2  12
DOCKED: ATOM     12  C   UNL     1     -48.097 -18.573  13.709 -0.15 +0.00    +0.038 C  
DOCKED: BRANCH  12  13
DOCKED: ATOM     13  C   UNL     1     -49.106 -17.793  12.869 -0.15 +0.00    +0.038 C  
DOCKED: BRANCH  13  14
DOCKED: ATOM     14  C   UNL     1     -49.404 -16.431  13.492 -0.08 +0.00    +0.251 C  
DOCKED: BRANCH  14  15
DOCKED: ATOM     15  N   UNL     1     -50.426 -15.733  12.721 -0.10 +0.00    +0.141 N  
DOCKED: ATOM     16  C   UNL     1     -50.036 -15.639  11.313 -0.11 +0.00    +0.285 C  
DOCKED: ATOM     17  C   UNL     1     -51.718 -16.410  12.845 -0.11 +0.00    +0.285 C  
DOCKED: ENDBRANCH  14  15
DOCKED: ENDBRANCH  13  14
DOCKED: ENDBRANCH  12  13
DOCKED: ENDBRANCH   2  12
DOCKED: BRANCH   2  18
DOCKED: ATOM     18  C   UNL     1     -48.205 -19.507  16.013 -0.04 +0.00    +0.006 A  
DOCKED: ATOM     19  C   UNL     1     -47.566 -18.350  16.455 -0.02 +0.00    +0.001 A  
DOCKED: ATOM     20  C   UNL     1     -47.016 -18.304  17.737 -0.00 +0.00    +0.029 A  
DOCKED: ATOM     21  C   UNL     1     -47.107 -19.415  18.574 -0.00 +0.00    +0.140 A  
DOCKED: ATOM     22  C   UNL     1     -47.748 -20.572  18.131 -0.01 +0.00    +0.029 A  
DOCKED: ATOM     23  F   UNL     1     -46.582 -19.371  19.805 +0.00 -0.00    -0.204 F  
DOCKED: ATOM     24  C   UNL     1     -48.297 -20.619  16.849 -0.03 +0.00    +0.001 A  
DOCKED: ENDBRANCH   2  18
DOCKED: TORSDOF 5
DOCKED: TER
DOCKED: ENDMDL
________________________________________________________________________________


    FINAL DOCKED STATE:
    ________________________


Run:   316 / 512
Time taken for this run:   0.002s

DOCKED: MODEL        316
DOCKED: USER    Run = 316
DOCKED: USER
DOCKED: USER    Estimated Free Energy of Binding    =  -4.59 kcal/mol  [=(1)+(2)+(3)-(4)]
DOCKED: USER
DOCKED: USER    (1) Final Intermolecular Energy     =  -6.08 kcal/mol
DOCKED: USER        vdW + Hbond + desolv Energy     =  -6.08 kcal/mol
DOCKED: USER        Electrostatic Energy            =  +0.00 kcal/mol
DOCKED: USER        Moving Ligand-Fixed Receptor    =  -6.08 kcal/mol
DOCKED: USER        Moving Ligand-Moving Receptor   =  +0.00 kcal/mol
DOCKED: USER    (2) Final Total Internal Energy     =  -1.41 kcal/mol
DOCKED: USER    (3) Torsional Free Energy           =  +1.49 kcal/mol
DOCKED: USER    (4) Unbound System's Energy         =  -1.41 kcal/mol
DOCKED: USER
DOCKED: USER
DOCKED: REMARK  5 active torsions:
DOCKED: REMARK  status: ('A' for Active; 'I' for Inactive)
DOCKED: REMARK    1  A    between atoms: C_2  and  C_19 
DOCKED: REMARK    2  A    between atoms: C_2  and  C_11 
DOCKED: REMARK    3  A    between atoms: C_19  and  C_20 
DOCKED: REMARK    4  A    between atoms: C_20  and  C_21 
DOCKED: REMARK    5  A    between atoms: C_21  and  N_22 
DOCKED: USER                              x       y       z     vdW  Elec       q    Type
DOCKED: USER                           _______ _______ _______ _____ _____    ______ ____
DOCKED: ROOT
DOCKED: ATOM      1  O   UNL     1     -48.013 -24.190  15.887 -0.09 -0.00    -0.346 OA 
DOCKED: ATOM      2  C   UNL     1     -47.985 -22.813  15.392 -0.16 +0.00    +0.130 C  
DOCKED: ATOM      3  C   UNL     1     -48.437 -22.934  13.966 -0.28 +0.00    +0.004 A  
DOCKED: ATOM      4  C   UNL     1     -48.798 -24.247  13.700 -0.35 +0.00    +0.006 A  
DOCKED: ATOM      5  C   UNL     1     -48.625 -25.071  14.917 -0.19 +0.00    +0.169 C  
DOCKED: ATOM      6  C   UNL     1     -48.532 -21.958  12.985 -0.32 -0.00    -0.001 A  
DOCKED: ATOM      7  C   UNL     1     -49.259 -24.629  12.452 -0.42 +0.00    +0.008 A  
DOCKED: ATOM      8  C   UNL     1     -48.991 -22.328  11.720 -0.17 +0.00    +0.010 A  
DOCKED: ATOM      9  C   UNL     1     -49.353 -23.657  11.455 -0.39 +0.00    +0.068 A  
DOCKED: ATOM     10  N   UNL     1     -50.207 -24.310   9.098 -2.03 -0.00    -0.191 NA 
DOCKED: ATOM     11  C   UNL     1     -49.824 -24.018  10.155 -0.52 +0.00    +0.101 C  
DOCKED: ENDROOT
DOCKED: BRANCH   2  12
DOCKED: ATOM     12  C   UNL     1     -48.929 -21.974  16.245 -0.08 +0.00    +0.038 C  
DOCKED: BRANCH  12  13
DOCKED: ATOM     13  C   UNL     1     -50.374 -22.452  16.110 -0.09 +0.00    +0.038 C  
DOCKED: BRANCH  13  14
DOCKED: ATOM     14  C   UNL     1     -51.330 -21.272  15.941 -0.02 +0.00    +0.251 C  
DOCKED: BRANCH  14  15
DOCKED: ATOM     15  N   UNL     1     -51.986 -21.334  14.640 -0.10 +0.00    +0.141 N  
DOCKED: ATOM     16  C   UNL     1     -51.391 -20.369  13.715 -0.14 +0.00    +0.285 C  
DOCKED: ATOM     17  C   UNL     1     -51.904 -22.686  14.085 -0.08 +0.00    +0.285 C  
DOCKED: ENDBRANCH  14  15
DOCKED: ENDBRANCH  13  14
DOCKED: ENDBRANCH  12  13
DOCKED: ENDBRANCH   2  12
DOCKED: BRANCH   2  18
DOCKED: ATOM     18  C   UNL     1     -46.577 -22.333  15.517 -0.18 +0.00    +0.006 A  
DOCKED: ATOM     19  C   UNL     1     -46.314 -21.086  16.082 -0.08 +0.00    +0.001 A  
DOCKED: ATOM     20  C   UNL     1     -44.997 -20.638  16.198 -0.06 +0.00    +0.029 A  
DOCKED: ATOM     21  C   UNL     1     -43.947 -21.438  15.751 -0.08 +0.00    +0.140 A  
DOCKED: ATOM     22  C   UNL     1     -44.211 -22.686  15.186 -0.17 +0.00    +0.029 A  
DOCKED: ATOM     23  F   UNL     1     -42.683 -21.009  15.864 -0.00 -0.00    -0.204 F  
DOCKED: ATOM     24  C   UNL     1     -45.528 -23.134  15.069 -0.10 +0.00    +0.001 A  
DOCKED: ENDBRANCH   2  18
DOCKED: TORSDOF 5
DOCKED: TER
DOCKED: ENDMDL
________________________________________________________________________________


    FINAL DOCKED STATE:
    ________________________


Run:   317 / 512
Time taken for this run:   0.002s

DOCKED: MODEL        317
DOCKED: USER    Run = 317
DOCKED: USER
DOCKED: USER    Estimated Free Energy of Binding    =  -4.90 kcal/mol  [=(1)+(2)+(3)-(4)]
DOCKED: USER
DOCKED: USER    (1) Final Intermolecular Energy     =  -6.39 kcal/mol
DOCKED: USER        vdW + Hbond + desolv Energy     =  -6.39 kcal/mol
DOCKED: USER        Electrostatic Energy            =  +0.00 kcal/mol
DOCKED: USER        Moving Ligand-Fixed Receptor    =  -6.39 kcal/mol
DOCKED: USER        Moving Ligand-Moving Receptor   =  +0.00 kcal/mol
DOCKED: USER    (2) Final Total Internal Energy     =  -0.90 kcal/mol
DOCKED: USER    (3) Torsional Free Energy           =  +1.49 kcal/mol
DOCKED: USER    (4) Unbound System's Energy         =  -0.90 kcal/mol
DOCKED: USER
DOCKED: USER
DOCKED: REMARK  5 active torsions:
DOCKED: REMARK  status: ('A' for Active; 'I' for Inactive)
DOCKED: REMARK    1  A    between atoms: C_2  and  C_19 
DOCKED: REMARK    2  A    between atoms: C_2  and  C_11 
DOCKED: REMARK    3  A    between atoms: C_19  and  C_20 
DOCKED: REMARK    4  A    between atoms: C_20  and  C_21 
DOCKED: REMARK    5  A    between atoms: C_21  and  N_22 
DOCKED: USER                              x       y       z     vdW  Elec       q    Type
DOCKED: USER                           _______ _______ _______ _____ _____    ______ ____
DOCKED: ROOT
DOCKED: ATOM      1  O   UNL     1     -50.831 -22.739  15.179 -0.00 -0.00    -0.346 OA 
DOCKED: ATOM      2  C   UNL     1     -49.740 -21.995  14.547 -0.13 +0.00    +0.130 C  
DOCKED: ATOM      3  C   UNL     1     -49.748 -22.483  13.127 -0.29 +0.00    +0.004 A  
DOCKED: ATOM      4  C   UNL     1     -50.818 -23.346  12.936 -0.28 +0.00    +0.006 A  
DOCKED: ATOM      5  C   UNL     1     -51.588 -23.477  14.192 -0.15 +0.00    +0.169 C  
DOCKED: ATOM      6  C   UNL     1     -48.884 -22.178  12.086 -0.26 -0.00    -0.001 A  
DOCKED: ATOM      7  C   UNL     1     -51.057 -23.934  11.706 -0.37 +0.00    +0.008 A  
DOCKED: ATOM      8  C   UNL     1     -49.110 -22.767  10.840 +0.11 +0.00    +0.010 A  
DOCKED: ATOM      9  C   UNL     1     -50.191 -23.640  10.652 -0.37 +0.00    +0.068 A  
DOCKED: ATOM     10  N   UNL     1     -50.585 -24.711   8.326 -2.62 -0.00    -0.191 NA 
DOCKED: ATOM     11  C   UNL     1     -50.408 -24.231   9.369 -0.29 +0.00    +0.101 C  
DOCKED: ENDROOT
DOCKED: BRANCH   2  12
DOCKED: ATOM     12  C   UNL     1     -50.041 -20.505  14.665 -0.15 +0.00    +0.038 C  
DOCKED: BRANCH  12  13
DOCKED: ATOM     13  C   UNL     1     -51.080 -20.064  13.637 -0.25 +0.00    +0.038 C  
DOCKED: BRANCH  13  14
DOCKED: ATOM     14  C   UNL     1     -51.039 -18.552  13.427 -0.17 +0.00    +0.251 C  
DOCKED: BRANCH  14  15
DOCKED: ATOM     15  N   UNL     1     -52.387 -17.998  13.461 -0.18 +0.00    +0.141 N  
DOCKED: ATOM     16  C   UNL     1     -53.078 -18.395  14.688 -0.06 +0.00    +0.285 C  
DOCKED: ATOM     17  C   UNL     1     -52.348 -16.538  13.351 -0.09 +0.00    +0.285 C  
DOCKED: ENDBRANCH  14  15
DOCKED: ENDBRANCH  13  14
DOCKED: ENDBRANCH  12  13
DOCKED: ENDBRANCH   2  12
DOCKED: BRANCH   2  18
DOCKED: ATOM     18  C   UNL     1     -48.489 -22.351  15.278 -0.14 +0.00    +0.006 A  
DOCKED: ATOM     19  C   UNL     1     -47.254 -22.239  14.640 -0.22 +0.00    +0.001 A  
DOCKED: ATOM     20  C   UNL     1     -46.084 -22.572  15.324 -0.19 +0.00    +0.029 A  
DOCKED: ATOM     21  C   UNL     1     -46.151 -23.017  16.644 -0.05 +0.00    +0.140 A  
DOCKED: ATOM     22  C   UNL     1     -47.386 -23.128  17.281 -0.11 +0.00    +0.029 A  
DOCKED: ATOM     23  F   UNL     1     -45.028 -23.335  17.301 -0.02 -0.00    -0.204 F  
DOCKED: ATOM     24  C   UNL     1     -48.557 -22.795  16.598 -0.10 +0.00    +0.001 A  
DOCKED: ENDBRANCH   2  18
DOCKED: TORSDOF 5
DOCKED: TER
DOCKED: ENDMDL
________________________________________________________________________________


    FINAL DOCKED STATE:
    ________________________


Run:   318 / 512
Time taken for this run:   0.002s

DOCKED: MODEL        318
DOCKED: USER    Run = 318
DOCKED: USER
DOCKED: USER    Estimated Free Energy of Binding    =  -4.71 kcal/mol  [=(1)+(2)+(3)-(4)]
DOCKED: USER
DOCKED: USER    (1) Final Intermolecular Energy     =  -6.20 kcal/mol
DOCKED: USER        vdW + Hbond + desolv Energy     =  -6.20 kcal/mol
DOCKED: USER        Electrostatic Energy            =  +0.00 kcal/mol
DOCKED: USER        Moving Ligand-Fixed Receptor    =  -6.20 kcal/mol
DOCKED: USER        Moving Ligand-Moving Receptor   =  +0.00 kcal/mol
DOCKED: USER    (2) Final Total Internal Energy     =  -1.15 kcal/mol
DOCKED: USER    (3) Torsional Free Energy           =  +1.49 kcal/mol
DOCKED: USER    (4) Unbound System's Energy         =  -1.15 kcal/mol
DOCKED: USER
DOCKED: USER
DOCKED: REMARK  5 active torsions:
DOCKED: REMARK  status: ('A' for Active; 'I' for Inactive)
DOCKED: REMARK    1  A    between atoms: C_2  and  C_19 
DOCKED: REMARK    2  A    between atoms: C_2  and  C_11 
DOCKED: REMARK    3  A    between atoms: C_19  and  C_20 
DOCKED: REMARK    4  A    between atoms: C_20  and  C_21 
DOCKED: REMARK    5  A    between atoms: C_21  and  N_22 
DOCKED: USER                              x       y       z     vdW  Elec       q    Type
DOCKED: USER                           _______ _______ _______ _____ _____    ______ ____
DOCKED: ROOT
DOCKED: ATOM      1  O   UNL     1     -42.595 -15.686   4.885 +0.01 -0.00    -0.346 OA 
DOCKED: ATOM      2  C   UNL     1     -43.810 -15.622   5.698 -0.10 +0.00    +0.130 C  
DOCKED: ATOM      3  C   UNL     1     -44.752 -14.795   4.872 -0.22 +0.00    +0.004 A  
DOCKED: ATOM      4  C   UNL     1     -44.168 -14.505   3.647 -0.18 +0.00    +0.006 A  
DOCKED: ATOM      5  C   UNL     1     -42.825 -15.121   3.573 -0.06 +0.00    +0.169 C  
DOCKED: ATOM      6  C   UNL     1     -46.029 -14.344   5.176 -0.30 -0.00    -0.001 A  
DOCKED: ATOM      7  C   UNL     1     -44.833 -13.757   2.691 -0.24 +0.00    +0.008 A  
DOCKED: ATOM      8  C   UNL     1     -46.711 -13.585   4.223 -0.37 +0.00    +0.010 A  
DOCKED: ATOM      9  C   UNL     1     -46.115 -13.293   2.987 -0.21 +0.00    +0.068 A  
DOCKED: ATOM     10  N   UNL     1     -47.410 -11.884   1.240 -2.56 -0.00    -0.191 NA 
DOCKED: ATOM     11  C   UNL     1     -46.829 -12.515   2.024 -0.33 +0.00    +0.101 C  
DOCKED: ENDROOT
DOCKED: BRANCH   2  12
DOCKED: ATOM     12  C   UNL     1     -44.313 -17.042   5.928 -0.17 +0.00    +0.038 C  
DOCKED: BRANCH  12  13
DOCKED: ATOM     13  C   UNL     1     -44.608 -17.749   4.607 -0.20 +0.00    +0.038 C  
DOCKED: BRANCH  13  14
DOCKED: ATOM     14  C   UNL     1     -43.777 -19.023   4.468 -0.18 +0.00    +0.251 C  
DOCKED: BRANCH  14  15
DOCKED: ATOM     15  N   UNL     1     -43.389 -19.226   3.077 -0.22 +0.00    +0.141 N  
DOCKED: ATOM     16  C   UNL     1     -42.486 -18.163   2.633 -0.07 +0.00    +0.285 C  
DOCKED: ATOM     17  C   UNL     1     -42.756 -20.535   2.905 -0.18 +0.00    +0.285 C  
DOCKED: ENDBRANCH  14  15
DOCKED: ENDBRANCH  13  14
DOCKED: ENDBRANCH  12  13
DOCKED: ENDBRANCH   2  12
DOCKED: BRANCH   2  18
DOCKED: ATOM     18  C   UNL     1     -43.439 -14.967   6.987 -0.11 +0.00    +0.006 A  
DOCKED: ATOM     19  C   UNL     1     -42.280 -14.197   7.068 -0.10 +0.00    +0.001 A  
DOCKED: ATOM     20  C   UNL     1     -41.933 -13.585   8.274 -0.09 +0.00    +0.029 A  
DOCKED: ATOM     21  C   UNL     1     -42.746 -13.744   9.395 -0.02 +0.00    +0.140 A  
DOCKED: ATOM     22  C   UNL     1     -43.906 -14.515   9.313 -0.13 +0.00    +0.029 A  
DOCKED: ATOM     23  F   UNL     1     -42.414 -13.156  10.551 -0.03 -0.00    -0.204 F  
DOCKED: ATOM     24  C   UNL     1     -44.253 -15.127   8.108 -0.14 +0.00    +0.001 A  
DOCKED: ENDBRANCH   2  18
DOCKED: TORSDOF 5
DOCKED: TER
DOCKED: ENDMDL
________________________________________________________________________________


    FINAL DOCKED STATE:
    ________________________


Run:   319 / 512
Time taken for this run:   0.002s

DOCKED: MODEL        319
DOCKED: USER    Run = 319
DOCKED: USER
DOCKED: USER    Estimated Free Energy of Binding    =  -5.06 kcal/mol  [=(1)+(2)+(3)-(4)]
DOCKED: USER
DOCKED: USER    (1) Final Intermolecular Energy     =  -6.55 kcal/mol
DOCKED: USER        vdW + Hbond + desolv Energy     =  -6.55 kcal/mol
DOCKED: USER        Electrostatic Energy            =  +0.00 kcal/mol
DOCKED: USER        Moving Ligand-Fixed Receptor    =  -6.55 kcal/mol
DOCKED: USER        Moving Ligand-Moving Receptor   =  +0.00 kcal/mol
DOCKED: USER    (2) Final Total Internal Energy     =  -1.31 kcal/mol
DOCKED: USER    (3) Torsional Free Energy           =  +1.49 kcal/mol
DOCKED: USER    (4) Unbound System's Energy         =  -1.31 kcal/mol
DOCKED: USER
DOCKED: USER
DOCKED: REMARK  5 active torsions:
DOCKED: REMARK  status: ('A' for Active; 'I' for Inactive)
DOCKED: REMARK    1  A    between atoms: C_2  and  C_19 
DOCKED: REMARK    2  A    between atoms: C_2  and  C_11 
DOCKED: REMARK    3  A    between atoms: C_19  and  C_20 
DOCKED: REMARK    4  A    between atoms: C_20  and  C_21 
DOCKED: REMARK    5  A    between atoms: C_21  and  N_22 
DOCKED: USER                              x       y       z     vdW  Elec       q    Type
DOCKED: USER                           _______ _______ _______ _____ _____    ______ ____
DOCKED: ROOT
DOCKED: ATOM      1  O   UNL     1     -48.544 -22.121  14.537 -0.05 -0.00    -0.346 OA 
DOCKED: ATOM      2  C   UNL     1     -49.859 -22.753  14.655 -0.13 +0.00    +0.130 C  
DOCKED: ATOM      3  C   UNL     1     -50.193 -23.153  13.247 -0.27 +0.00    +0.004 A  
DOCKED: ATOM      4  C   UNL     1     -49.117 -22.876  12.415 -0.37 +0.00    +0.006 A  
DOCKED: ATOM      5  C   UNL     1     -48.009 -22.294  13.204 -0.20 +0.00    +0.169 C  
DOCKED: ATOM      6  C   UNL     1     -51.351 -23.728  12.745 -0.30 -0.00    -0.001 A  
DOCKED: ATOM      7  C   UNL     1     -49.163 -23.157  11.060 -0.20 +0.00    +0.008 A  
DOCKED: ATOM      8  C   UNL     1     -51.414 -24.013  11.380 -0.31 +0.00    +0.010 A  
DOCKED: ATOM      9  C   UNL     1     -50.325 -23.729  10.542 -0.36 +0.00    +0.068 A  
DOCKED: ATOM     10  N   UNL     1     -50.474 -24.276   8.014 -3.06 -0.00    -0.191 NA 
DOCKED: ATOM     11  C   UNL     1     -50.407 -24.030   9.148 -0.28 +0.00    +0.101 C  
DOCKED: ENDROOT
DOCKED: BRANCH   2  12
DOCKED: ATOM     12  C   UNL     1     -49.739 -23.944  15.598 -0.21 +0.00    +0.038 C  
DOCKED: BRANCH  12  13
DOCKED: ATOM     13  C   UNL     1     -48.405 -23.935  16.341 -0.21 +0.00    +0.038 C  
DOCKED: BRANCH  13  14
DOCKED: ATOM     14  C   UNL     1     -48.586 -23.489  17.791 -0.07 +0.00    +0.251 C  
DOCKED: BRANCH  14  15
DOCKED: ATOM     15  N   UNL     1     -47.742 -22.334  18.075 -0.04 +0.00    +0.141 N  
DOCKED: ATOM     16  C   UNL     1     -46.836 -22.619  19.189 -0.03 +0.00    +0.285 C  
DOCKED: ATOM     17  C   UNL     1     -46.980 -21.947  16.887 -0.04 +0.00    +0.285 C  
DOCKED: ENDBRANCH  14  15
DOCKED: ENDBRANCH  13  14
DOCKED: ENDBRANCH  12  13
DOCKED: ENDBRANCH   2  12
DOCKED: BRANCH   2  18
DOCKED: ATOM     18  C   UNL     1     -50.790 -21.723  15.203 -0.10 +0.00    +0.006 A  
DOCKED: ATOM     19  C   UNL     1     -51.718 -22.074  16.183 -0.06 +0.00    +0.001 A  
DOCKED: ATOM     20  C   UNL     1     -52.588 -21.111  16.694 -0.04 +0.00    +0.029 A  
DOCKED: ATOM     21  C   UNL     1     -52.528 -19.799  16.226 -0.02 +0.00    +0.140 A  
DOCKED: ATOM     22  C   UNL     1     -51.600 -19.449  15.246 -0.08 +0.00    +0.029 A  
DOCKED: ATOM     23  F   UNL     1     -53.362 -18.874  16.718 +0.01 -0.00    -0.204 F  
DOCKED: ATOM     24  C   UNL     1     -50.729 -20.412  14.734 -0.13 +0.00    +0.001 A  
DOCKED: ENDBRANCH   2  18
DOCKED: TORSDOF 5
DOCKED: TER
DOCKED: ENDMDL
________________________________________________________________________________


    FINAL DOCKED STATE:
    ________________________


Run:   320 / 512
Time taken for this run:   0.002s

DOCKED: MODEL        320
DOCKED: USER    Run = 320
DOCKED: USER
DOCKED: USER    Estimated Free Energy of Binding    =  -4.19 kcal/mol  [=(1)+(2)+(3)-(4)]
DOCKED: USER
DOCKED: USER    (1) Final Intermolecular Energy     =  -5.68 kcal/mol
DOCKED: USER        vdW + Hbond + desolv Energy     =  -5.68 kcal/mol
DOCKED: USER        Electrostatic Energy            =  +0.00 kcal/mol
DOCKED: USER        Moving Ligand-Fixed Receptor    =  -5.68 kcal/mol
DOCKED: USER        Moving Ligand-Moving Receptor   =  +0.00 kcal/mol
DOCKED: USER    (2) Final Total Internal Energy     =  -1.40 kcal/mol
DOCKED: USER    (3) Torsional Free Energy           =  +1.49 kcal/mol
DOCKED: USER    (4) Unbound System's Energy         =  -1.40 kcal/mol
DOCKED: USER
DOCKED: USER
DOCKED: REMARK  5 active torsions:
DOCKED: REMARK  status: ('A' for Active; 'I' for Inactive)
DOCKED: REMARK    1  A    between atoms: C_2  and  C_19 
DOCKED: REMARK    2  A    between atoms: C_2  and  C_11 
DOCKED: REMARK    3  A    between atoms: C_19  and  C_20 
DOCKED: REMARK    4  A    between atoms: C_20  and  C_21 
DOCKED: REMARK    5  A    between atoms: C_21  and  N_22 
DOCKED: USER                              x       y       z     vdW  Elec       q    Type
DOCKED: USER                           _______ _______ _______ _____ _____    ______ ____
DOCKED: ROOT
DOCKED: ATOM      1  O   UNL     1     -40.200 -23.591   4.888 -0.01 -0.00    -0.346 OA 
DOCKED: ATOM      2  C   UNL     1     -40.457 -22.447   5.765 -0.08 +0.00    +0.130 C  
DOCKED: ATOM      3  C   UNL     1     -41.047 -23.066   6.999 -0.12 +0.00    +0.004 A  
DOCKED: ATOM      4  C   UNL     1     -41.027 -24.449   6.883 -0.15 +0.00    +0.006 A  
DOCKED: ATOM      5  C   UNL     1     -40.420 -24.836   5.590 -0.09 +0.00    +0.169 C  
DOCKED: ATOM      6  C   UNL     1     -41.551 -22.454   8.137 -0.13 -0.00    -0.001 A  
DOCKED: ATOM      7  C   UNL     1     -41.511 -25.263   7.893 -0.26 +0.00    +0.008 A  
DOCKED: ATOM      8  C   UNL     1     -42.046 -23.262   9.163 -0.25 +0.00    +0.010 A  
DOCKED: ATOM      9  C   UNL     1     -42.026 -24.659   9.041 -0.30 +0.00    +0.068 A  
DOCKED: ATOM     10  N   UNL     1     -42.948 -26.129  10.965 -2.64 -0.00    -0.191 NA 
DOCKED: ATOM     11  C   UNL     1     -42.535 -25.470  10.102 -0.41 +0.00    +0.101 C  
DOCKED: ENDROOT
DOCKED: BRANCH   2  12
DOCKED: ATOM     12  C   UNL     1     -39.136 -21.737   6.031 -0.02 +0.00    +0.038 C  
DOCKED: BRANCH  12  13
DOCKED: ATOM     13  C   UNL     1     -37.981 -22.731   6.140 -0.01 +0.00    +0.038 C  
DOCKED: BRANCH  13  14
DOCKED: ATOM     14  C   UNL     1     -37.677 -23.061   7.600 -0.00 +0.00    +0.251 C  
DOCKED: BRANCH  14  15
DOCKED: ATOM     15  N   UNL     1     -38.065 -24.434   7.900 -0.04 +0.00    +0.141 N  
DOCKED: ATOM     16  C   UNL     1     -37.118 -25.380   7.307 -0.03 +0.00    +0.285 C  
DOCKED: ATOM     17  C   UNL     1     -38.149 -24.641   9.347 -0.04 +0.00    +0.285 C  
DOCKED: ENDBRANCH  14  15
DOCKED: ENDBRANCH  13  14
DOCKED: ENDBRANCH  12  13
DOCKED: ENDBRANCH   2  12
DOCKED: BRANCH   2  18
DOCKED: ATOM     18  C   UNL     1     -41.414 -21.554   5.048 -0.12 +0.00    +0.006 A  
DOCKED: ATOM     19  C   UNL     1     -42.071 -20.538   5.740 -0.13 +0.00    +0.001 A  
DOCKED: ATOM     20  C   UNL     1     -42.966 -19.704   5.069 -0.18 +0.00    +0.029 A  
DOCKED: ATOM     21  C   UNL     1     -43.201 -19.886   3.707 -0.19 +0.00    +0.140 A  
DOCKED: ATOM     22  C   UNL     1     -42.543 -20.902   3.014 -0.21 +0.00    +0.029 A  
DOCKED: ATOM     23  F   UNL     1     -44.058 -19.084   3.062 -0.13 -0.00    -0.204 F  
DOCKED: ATOM     24  C   UNL     1     -41.648 -21.737   3.685 -0.14 +0.00    +0.001 A  
DOCKED: ENDBRANCH   2  18
DOCKED: TORSDOF 5
DOCKED: TER
DOCKED: ENDMDL
________________________________________________________________________________


    FINAL DOCKED STATE:
    ________________________


Run:   321 / 512
Time taken for this run:   0.002s

DOCKED: MODEL        321
DOCKED: USER    Run = 321
DOCKED: USER
DOCKED: USER    Estimated Free Energy of Binding    =  -4.86 kcal/mol  [=(1)+(2)+(3)-(4)]
DOCKED: USER
DOCKED: USER    (1) Final Intermolecular Energy     =  -6.35 kcal/mol
DOCKED: USER        vdW + Hbond + desolv Energy     =  -6.35 kcal/mol
DOCKED: USER        Electrostatic Energy            =  +0.00 kcal/mol
DOCKED: USER        Moving Ligand-Fixed Receptor    =  -6.35 kcal/mol
DOCKED: USER        Moving Ligand-Moving Receptor   =  +0.00 kcal/mol
DOCKED: USER    (2) Final Total Internal Energy     =  -1.12 kcal/mol
DOCKED: USER    (3) Torsional Free Energy           =  +1.49 kcal/mol
DOCKED: USER    (4) Unbound System's Energy         =  -1.12 kcal/mol
DOCKED: USER
DOCKED: USER
DOCKED: REMARK  5 active torsions:
DOCKED: REMARK  status: ('A' for Active; 'I' for Inactive)
DOCKED: REMARK    1  A    between atoms: C_2  and  C_19 
DOCKED: REMARK    2  A    between atoms: C_2  and  C_11 
DOCKED: REMARK    3  A    between atoms: C_19  and  C_20 
DOCKED: REMARK    4  A    between atoms: C_20  and  C_21 
DOCKED: REMARK    5  A    between atoms: C_21  and  N_22 
DOCKED: USER                              x       y       z     vdW  Elec       q    Type
DOCKED: USER                           _______ _______ _______ _____ _____    ______ ____
DOCKED: ROOT
DOCKED: ATOM      1  O   UNL     1     -48.391 -23.906  15.484 -0.07 -0.00    -0.346 OA 
DOCKED: ATOM      2  C   UNL     1     -48.301 -22.589  14.850 -0.17 +0.00    +0.130 C  
DOCKED: ATOM      3  C   UNL     1     -48.749 -22.838  13.439 -0.31 +0.00    +0.004 A  
DOCKED: ATOM      4  C   UNL     1     -49.164 -24.155  13.306 -0.34 +0.00    +0.006 A  
DOCKED: ATOM      5  C   UNL     1     -49.034 -24.856  14.603 -0.07 +0.00    +0.169 C  
DOCKED: ATOM      6  C   UNL     1     -48.796 -21.965  12.362 -0.26 -0.00    -0.001 A  
DOCKED: ATOM      7  C   UNL     1     -49.634 -24.644  12.099 -0.45 +0.00    +0.008 A  
DOCKED: ATOM      8  C   UNL     1     -49.263 -22.444  11.137 +0.10 +0.00    +0.010 A  
DOCKED: ATOM      9  C   UNL     1     -49.680 -23.777  11.007 -0.42 +0.00    +0.068 A  
DOCKED: ATOM     10  N   UNL     1     -50.547 -24.633   8.720 -2.37 -0.00    -0.191 NA 
DOCKED: ATOM     11  C   UNL     1     -50.157 -24.249   9.746 -0.44 +0.00    +0.101 C  
DOCKED: ENDROOT
DOCKED: BRANCH   2  12
DOCKED: ATOM     12  C   UNL     1     -49.214 -21.628  15.602 -0.09 +0.00    +0.038 C  
DOCKED: BRANCH  12  13
DOCKED: ATOM     13  C   UNL     1     -50.637 -21.664  15.049 -0.12 +0.00    +0.038 C  
DOCKED: BRANCH  13  14
DOCKED: ATOM     14  C   UNL     1     -50.937 -20.415  14.223 -0.13 +0.00    +0.251 C  
DOCKED: BRANCH  14  15
DOCKED: ATOM     15  N   UNL     1     -52.360 -20.102  14.274 -0.14 +0.00    +0.141 N  
DOCKED: ATOM     16  C   UNL     1     -53.145 -21.168  13.649 -0.15 +0.00    +0.285 C  
DOCKED: ATOM     17  C   UNL     1     -52.794 -19.897  15.657 -0.02 +0.00    +0.285 C  
DOCKED: ENDBRANCH  14  15
DOCKED: ENDBRANCH  13  14
DOCKED: ENDBRANCH  12  13
DOCKED: ENDBRANCH   2  12
DOCKED: BRANCH   2  18
DOCKED: ATOM     18  C   UNL     1     -46.875 -22.159  14.941 -0.20 +0.00    +0.006 A  
DOCKED: ATOM     19  C   UNL     1     -45.882 -23.093  15.233 -0.14 +0.00    +0.001 A  
DOCKED: ATOM     20  C   UNL     1     -44.549 -22.689  15.317 -0.17 +0.00    +0.029 A  
DOCKED: ATOM     21  C   UNL     1     -44.211 -21.353  15.109 -0.10 +0.00    +0.140 A  
DOCKED: ATOM     22  C   UNL     1     -45.204 -20.419  14.816 -0.11 +0.00    +0.029 A  
DOCKED: ATOM     23  F   UNL     1     -42.931 -20.966  15.188 -0.01 -0.00    -0.204 F  
DOCKED: ATOM     24  C   UNL     1     -46.538 -20.822  14.732 -0.15 +0.00    +0.001 A  
DOCKED: ENDBRANCH   2  18
DOCKED: TORSDOF 5
DOCKED: TER
DOCKED: ENDMDL
________________________________________________________________________________


    FINAL DOCKED STATE:
    ________________________


Run:   322 / 512
Time taken for this run:   0.002s

DOCKED: MODEL        322
DOCKED: USER    Run = 322
DOCKED: USER
DOCKED: USER    Estimated Free Energy of Binding    =  -5.06 kcal/mol  [=(1)+(2)+(3)-(4)]
DOCKED: USER
DOCKED: USER    (1) Final Intermolecular Energy     =  -6.55 kcal/mol
DOCKED: USER        vdW + Hbond + desolv Energy     =  -6.55 kcal/mol
DOCKED: USER        Electrostatic Energy            =  +0.00 kcal/mol
DOCKED: USER        Moving Ligand-Fixed Receptor    =  -6.55 kcal/mol
DOCKED: USER        Moving Ligand-Moving Receptor   =  +0.00 kcal/mol
DOCKED: USER    (2) Final Total Internal Energy     =  -1.33 kcal/mol
DOCKED: USER    (3) Torsional Free Energy           =  +1.49 kcal/mol
DOCKED: USER    (4) Unbound System's Energy         =  -1.33 kcal/mol
DOCKED: USER
DOCKED: USER
DOCKED: REMARK  5 active torsions:
DOCKED: REMARK  status: ('A' for Active; 'I' for Inactive)
DOCKED: REMARK    1  A    between atoms: C_2  and  C_19 
DOCKED: REMARK    2  A    between atoms: C_2  and  C_11 
DOCKED: REMARK    3  A    between atoms: C_19  and  C_20 
DOCKED: REMARK    4  A    between atoms: C_20  and  C_21 
DOCKED: REMARK    5  A    between atoms: C_21  and  N_22 
DOCKED: USER                              x       y       z     vdW  Elec       q    Type
DOCKED: USER                           _______ _______ _______ _____ _____    ______ ____
DOCKED: ROOT
DOCKED: ATOM      1  O   UNL     1     -47.587 -24.483  15.275 -0.11 -0.00    -0.346 OA 
DOCKED: ATOM      2  C   UNL     1     -48.382 -23.264  15.123 -0.18 +0.00    +0.130 C  
DOCKED: ATOM      3  C   UNL     1     -48.908 -23.350  13.719 -0.30 +0.00    +0.004 A  
DOCKED: ATOM      4  C   UNL     1     -48.538 -24.563  13.156 -0.38 +0.00    +0.006 A  
DOCKED: ATOM      5  C   UNL     1     -47.765 -25.358  14.136 -0.19 +0.00    +0.169 C  
DOCKED: ATOM      6  C   UNL     1     -49.663 -22.433  13.002 -0.31 -0.00    -0.001 A  
DOCKED: ATOM      7  C   UNL     1     -48.904 -24.899  11.863 -0.46 +0.00    +0.008 A  
DOCKED: ATOM      8  C   UNL     1     -50.035 -22.755  11.696 -0.11 +0.00    +0.010 A  
DOCKED: ATOM      9  C   UNL     1     -49.658 -23.982  11.130 -0.43 +0.00    +0.068 A  
DOCKED: ATOM     10  N   UNL     1     -50.371 -24.549   8.704 -2.36 -0.00    -0.191 NA 
DOCKED: ATOM     11  C   UNL     1     -50.050 -24.295   9.792 -0.49 +0.00    +0.101 C  
DOCKED: ENDROOT
DOCKED: BRANCH   2  12
DOCKED: ATOM     12  C   UNL     1     -49.488 -23.274  16.172 -0.14 +0.00    +0.038 C  
DOCKED: BRANCH  12  13
DOCKED: ATOM     13  C   UNL     1     -49.842 -24.699  16.593 -0.20 +0.00    +0.038 C  
DOCKED: BRANCH  13  14
DOCKED: ATOM     14  C   UNL     1     -49.754 -24.862  18.109 -0.07 +0.00    +0.251 C  
DOCKED: BRANCH  14  15
DOCKED: ATOM     15  N   UNL     1     -48.476 -24.360  18.600 -0.12 +0.00    +0.141 N  
DOCKED: ATOM     16  C   UNL     1     -48.584 -23.956  20.003 -0.03 +0.00    +0.285 C  
DOCKED: ATOM     17  C   UNL     1     -47.429 -25.371  18.442 -0.14 +0.00    +0.285 C  
DOCKED: ENDBRANCH  14  15
DOCKED: ENDBRANCH  13  14
DOCKED: ENDBRANCH  12  13
DOCKED: ENDBRANCH   2  12
DOCKED: BRANCH   2  18
DOCKED: ATOM     18  C   UNL     1     -47.457 -22.111  15.327 -0.16 +0.00    +0.006 A  
DOCKED: ATOM     19  C   UNL     1     -46.790 -21.551  14.238 -0.11 +0.00    +0.001 A  
DOCKED: ATOM     20  C   UNL     1     -45.925 -20.474  14.431 -0.13 +0.00    +0.029 A  
DOCKED: ATOM     21  C   UNL     1     -45.728 -19.957  15.711 -0.04 +0.00    +0.140 A  
DOCKED: ATOM     22  C   UNL     1     -46.396 -20.518  16.800 -0.03 +0.00    +0.029 A  
DOCKED: ATOM     23  F   UNL     1     -44.899 -18.922  15.895 -0.00 -0.00    -0.204 F  
DOCKED: ATOM     24  C   UNL     1     -47.261 -21.596  16.608 -0.07 +0.00    +0.001 A  
DOCKED: ENDBRANCH   2  18
DOCKED: TORSDOF 5
DOCKED: TER
DOCKED: ENDMDL
________________________________________________________________________________


    FINAL DOCKED STATE:
    ________________________


Run:   323 / 512
Time taken for this run:   0.002s

DOCKED: MODEL        323
DOCKED: USER    Run = 323
DOCKED: USER
DOCKED: USER    Estimated Free Energy of Binding    =  -3.87 kcal/mol  [=(1)+(2)+(3)-(4)]
DOCKED: USER
DOCKED: USER    (1) Final Intermolecular Energy     =  -5.36 kcal/mol
DOCKED: USER        vdW + Hbond + desolv Energy     =  -5.36 kcal/mol
DOCKED: USER        Electrostatic Energy            =  +0.00 kcal/mol
DOCKED: USER        Moving Ligand-Fixed Receptor    =  -5.36 kcal/mol
DOCKED: USER        Moving Ligand-Moving Receptor   =  +0.00 kcal/mol
DOCKED: USER    (2) Final Total Internal Energy     =  -1.24 kcal/mol
DOCKED: USER    (3) Torsional Free Energy           =  +1.49 kcal/mol
DOCKED: USER    (4) Unbound System's Energy         =  -1.24 kcal/mol
DOCKED: USER
DOCKED: USER
DOCKED: REMARK  5 active torsions:
DOCKED: REMARK  status: ('A' for Active; 'I' for Inactive)
DOCKED: REMARK    1  A    between atoms: C_2  and  C_19 
DOCKED: REMARK    2  A    between atoms: C_2  and  C_11 
DOCKED: REMARK    3  A    between atoms: C_19  and  C_20 
DOCKED: REMARK    4  A    between atoms: C_20  and  C_21 
DOCKED: REMARK    5  A    between atoms: C_21  and  N_22 
DOCKED: USER                              x       y       z     vdW  Elec       q    Type
DOCKED: USER                           _______ _______ _______ _____ _____    ______ ____
DOCKED: ROOT
DOCKED: ATOM      1  O   UNL     1     -44.526 -15.416   7.430 -0.05 -0.00    -0.346 OA 
DOCKED: ATOM      2  C   UNL     1     -45.908 -15.431   6.950 -0.24 +0.00    +0.130 C  
DOCKED: ATOM      3  C   UNL     1     -45.888 -14.504   5.768 -0.29 +0.00    +0.004 A  
DOCKED: ATOM      4  C   UNL     1     -44.588 -14.083   5.527 -0.17 +0.00    +0.006 A  
DOCKED: ATOM      5  C   UNL     1     -43.669 -14.703   6.508 -0.11 +0.00    +0.169 C  
DOCKED: ATOM      6  C   UNL     1     -46.935 -14.077   4.964 -0.30 -0.00    -0.001 A  
DOCKED: ATOM      7  C   UNL     1     -44.291 -13.223   4.483 -0.20 +0.00    +0.008 A  
DOCKED: ATOM      8  C   UNL     1     -46.652 -13.206   3.911 -0.40 +0.00    +0.010 A  
DOCKED: ATOM      9  C   UNL     1     -45.337 -12.782   3.672 -0.29 +0.00    +0.068 A  
DOCKED: ATOM     10  N   UNL     1     -44.846 -11.169   1.704 -0.77 -0.00    -0.191 NA 
DOCKED: ATOM     11  C   UNL     1     -45.066 -11.892   2.587 -0.36 +0.00    +0.101 C  
DOCKED: ENDROOT
DOCKED: BRANCH   2  12
DOCKED: ATOM     12  C   UNL     1     -46.273 -16.862   6.575 -0.13 +0.00    +0.038 C  
DOCKED: BRANCH  12  13
DOCKED: ATOM     13  C   UNL     1     -46.098 -17.810   7.760 -0.25 +0.00    +0.038 C  
DOCKED: BRANCH  13  14
DOCKED: ATOM     14  C   UNL     1     -44.841 -18.662   7.600 -0.16 +0.00    +0.251 C  
DOCKED: BRANCH  14  15
DOCKED: ATOM     15  N   UNL     1     -44.325 -19.056   8.906 -0.13 +0.00    +0.141 N  
DOCKED: ATOM     16  C   UNL     1     -43.556 -20.297   8.805 -0.14 +0.00    +0.285 C  
DOCKED: ATOM     17  C   UNL     1     -43.498 -17.991   9.476 -0.03 +0.00    +0.285 C  
DOCKED: ENDBRANCH  14  15
DOCKED: ENDBRANCH  13  14
DOCKED: ENDBRANCH  12  13
DOCKED: ENDBRANCH   2  12
DOCKED: BRANCH   2  18
DOCKED: ATOM     18  C   UNL     1     -46.764 -14.931   8.066 -0.28 +0.00    +0.006 A  
DOCKED: ATOM     19  C   UNL     1     -46.177 -14.318   9.172 -0.22 +0.00    +0.001 A  
DOCKED: ATOM     20  C   UNL     1     -46.978 -13.851  10.215 -0.20 +0.00    +0.029 A  
DOCKED: ATOM     21  C   UNL     1     -48.363 -13.999  10.150 -0.14 +0.00    +0.140 A  
DOCKED: ATOM     22  C   UNL     1     -48.949 -14.612   9.043 -0.26 +0.00    +0.029 A  
DOCKED: ATOM     23  F   UNL     1     -49.132 -13.549  11.151 +0.00 -0.00    -0.204 F  
DOCKED: ATOM     24  C   UNL     1     -48.148 -15.079   8.000 -0.23 +0.00    +0.001 A  
DOCKED: ENDBRANCH   2  18
DOCKED: TORSDOF 5
DOCKED: TER
DOCKED: ENDMDL
________________________________________________________________________________


    FINAL DOCKED STATE:
    ________________________


Run:   324 / 512
Time taken for this run:   0.002s

DOCKED: MODEL        324
DOCKED: USER    Run = 324
DOCKED: USER
DOCKED: USER    Estimated Free Energy of Binding    =  -4.48 kcal/mol  [=(1)+(2)+(3)-(4)]
DOCKED: USER
DOCKED: USER    (1) Final Intermolecular Energy     =  -5.97 kcal/mol
DOCKED: USER        vdW + Hbond + desolv Energy     =  -5.97 kcal/mol
DOCKED: USER        Electrostatic Energy            =  +0.00 kcal/mol
DOCKED: USER        Moving Ligand-Fixed Receptor    =  -5.97 kcal/mol
DOCKED: USER        Moving Ligand-Moving Receptor   =  +0.00 kcal/mol
DOCKED: USER    (2) Final Total Internal Energy     =  -1.30 kcal/mol
DOCKED: USER    (3) Torsional Free Energy           =  +1.49 kcal/mol
DOCKED: USER    (4) Unbound System's Energy         =  -1.30 kcal/mol
DOCKED: USER
DOCKED: USER
DOCKED: REMARK  5 active torsions:
DOCKED: REMARK  status: ('A' for Active; 'I' for Inactive)
DOCKED: REMARK    1  A    between atoms: C_2  and  C_19 
DOCKED: REMARK    2  A    between atoms: C_2  and  C_11 
DOCKED: REMARK    3  A    between atoms: C_19  and  C_20 
DOCKED: REMARK    4  A    between atoms: C_20  and  C_21 
DOCKED: REMARK    5  A    between atoms: C_21  and  N_22 
DOCKED: USER                              x       y       z     vdW  Elec       q    Type
DOCKED: USER                           _______ _______ _______ _____ _____    ______ ____
DOCKED: ROOT
DOCKED: ATOM      1  O   UNL     1     -48.041 -19.038  13.438 -0.08 -0.00    -0.346 OA 
DOCKED: ATOM      2  C   UNL     1     -49.332 -19.192  14.109 -0.15 +0.00    +0.130 C  
DOCKED: ATOM      3  C   UNL     1     -49.756 -20.589  13.757 -0.22 +0.00    +0.004 A  
DOCKED: ATOM      4  C   UNL     1     -48.746 -21.217  13.041 -0.27 +0.00    +0.006 A  
DOCKED: ATOM      5  C   UNL     1     -47.597 -20.298  12.883 -0.10 +0.00    +0.169 C  
DOCKED: ATOM      6  C   UNL     1     -50.936 -21.255  14.056 -0.20 -0.00    -0.001 A  
DOCKED: ATOM      7  C   UNL     1     -48.881 -22.521  12.598 -0.35 +0.00    +0.008 A  
DOCKED: ATOM      8  C   UNL     1     -51.089 -22.569  13.612 -0.22 +0.00    +0.010 A  
DOCKED: ATOM      9  C   UNL     1     -50.066 -23.199  12.888 -0.26 +0.00    +0.068 A  
DOCKED: ATOM     10  N   UNL     1     -50.380 -25.642  12.084 -2.55 -0.00    -0.191 NA 
DOCKED: ATOM     11  C   UNL     1     -50.240 -24.546  12.444 -0.36 +0.00    +0.101 C  
DOCKED: ENDROOT
DOCKED: BRANCH   2  12
DOCKED: ATOM     12  C   UNL     1     -49.126 -18.995  15.606 -0.05 +0.00    +0.038 C  
DOCKED: BRANCH  12  13
DOCKED: ATOM     13  C   UNL     1     -48.455 -20.211  16.241 -0.04 +0.00    +0.038 C  
DOCKED: BRANCH  13  14
DOCKED: ATOM     14  C   UNL     1     -46.940 -20.028  16.313 -0.02 +0.00    +0.251 C  
DOCKED: BRANCH  14  15
DOCKED: ATOM     15  N   UNL     1     -46.561 -18.725  15.782 -0.02 +0.00    +0.141 N  
DOCKED: ATOM     16  C   UNL     1     -46.425 -17.746  16.862 -0.00 +0.00    +0.285 C  
DOCKED: ATOM     17  C   UNL     1     -45.312 -18.820  15.023 -0.03 +0.00    +0.285 C  
DOCKED: ENDBRANCH  14  15
DOCKED: ENDBRANCH  13  14
DOCKED: ENDBRANCH  12  13
DOCKED: ENDBRANCH   2  12
DOCKED: BRANCH   2  18
DOCKED: ATOM     18  C   UNL     1     -50.242 -18.150  13.549 -0.20 +0.00    +0.006 A  
DOCKED: ATOM     19  C   UNL     1     -49.718 -17.097  12.800 -0.17 +0.00    +0.001 A  
DOCKED: ATOM     20  C   UNL     1     -50.569 -16.123  12.277 -0.15 +0.00    +0.029 A  
DOCKED: ATOM     21  C   UNL     1     -51.943 -16.204  12.503 -0.11 +0.00    +0.140 A  
DOCKED: ATOM     22  C   UNL     1     -52.466 -17.257  13.252 -0.18 +0.00    +0.029 A  
DOCKED: ATOM     23  F   UNL     1     -52.760 -15.270  12.000 -0.02 -0.00    -0.204 F  
DOCKED: ATOM     24  C   UNL     1     -51.615 -18.232  13.776 -0.21 +0.00    +0.001 A  
DOCKED: ENDBRANCH   2  18
DOCKED: TORSDOF 5
DOCKED: TER
DOCKED: ENDMDL
________________________________________________________________________________


    FINAL DOCKED STATE:
    ________________________


Run:   325 / 512
Time taken for this run:   0.002s

DOCKED: MODEL        325
DOCKED: USER    Run = 325
DOCKED: USER
DOCKED: USER    Estimated Free Energy of Binding    =  -6.35 kcal/mol  [=(1)+(2)+(3)-(4)]
DOCKED: USER
DOCKED: USER    (1) Final Intermolecular Energy     =  -7.84 kcal/mol
DOCKED: USER        vdW + Hbond + desolv Energy     =  -7.84 kcal/mol
DOCKED: USER        Electrostatic Energy            =  +0.00 kcal/mol
DOCKED: USER        Moving Ligand-Fixed Receptor    =  -7.84 kcal/mol
DOCKED: USER        Moving Ligand-Moving Receptor   =  +0.00 kcal/mol
DOCKED: USER    (2) Final Total Internal Energy     =  -0.87 kcal/mol
DOCKED: USER    (3) Torsional Free Energy           =  +1.49 kcal/mol
DOCKED: USER    (4) Unbound System's Energy         =  -0.87 kcal/mol
DOCKED: USER
DOCKED: USER
DOCKED: REMARK  5 active torsions:
DOCKED: REMARK  status: ('A' for Active; 'I' for Inactive)
DOCKED: REMARK    1  A    between atoms: C_2  and  C_19 
DOCKED: REMARK    2  A    between atoms: C_2  and  C_11 
DOCKED: REMARK    3  A    between atoms: C_19  and  C_20 
DOCKED: REMARK    4  A    between atoms: C_20  and  C_21 
DOCKED: REMARK    5  A    between atoms: C_21  and  N_22 
DOCKED: USER                              x       y       z     vdW  Elec       q    Type
DOCKED: USER                           _______ _______ _______ _____ _____    ______ ____
DOCKED: ROOT
DOCKED: ATOM      1  O   UNL     1     -47.968 -24.935  14.554 -0.51 -0.00    -0.346 OA 
DOCKED: ATOM      2  C   UNL     1     -49.236 -24.213  14.661 -0.23 +0.00    +0.130 C  
DOCKED: ATOM      3  C   UNL     1     -49.706 -24.098  13.240 -0.31 +0.00    +0.004 A  
DOCKED: ATOM      4  C   UNL     1     -48.841 -24.791  12.405 -0.39 +0.00    +0.006 A  
DOCKED: ATOM      5  C   UNL     1     -47.761 -25.412  13.204 -0.23 +0.00    +0.169 C  
DOCKED: ATOM      6  C   UNL     1     -50.817 -23.444  12.728 -0.30 -0.00    -0.001 A  
DOCKED: ATOM      7  C   UNL     1     -49.051 -24.849  11.038 -0.42 +0.00    +0.008 A  
DOCKED: ATOM      8  C   UNL     1     -51.041 -23.490  11.351 -0.28 +0.00    +0.010 A  
DOCKED: ATOM      9  C   UNL     1     -50.162 -24.189  10.510 -0.43 +0.00    +0.068 A  
DOCKED: ATOM     10  N   UNL     1     -50.610 -24.259   7.959 -3.19 -0.00    -0.191 NA 
DOCKED: ATOM     11  C   UNL     1     -50.409 -24.227   9.103 -0.29 +0.00    +0.101 C  
DOCKED: ENDROOT
DOCKED: BRANCH   2  12
DOCKED: ATOM     12  C   UNL     1     -50.182 -25.026  15.536 -0.27 +0.00    +0.038 C  
DOCKED: BRANCH  12  13
DOCKED: ATOM     13  C   UNL     1     -50.876 -24.146  16.574 -0.17 +0.00    +0.038 C  
DOCKED: BRANCH  13  14
DOCKED: ATOM     14  C   UNL     1     -52.187 -24.777  17.041 -0.08 +0.00    +0.251 C  
DOCKED: BRANCH  14  15
DOCKED: ATOM     15  N   UNL     1     -52.300 -24.695  18.492 -0.09 +0.00    +0.141 N  
DOCKED: ATOM     16  C   UNL     1     -51.417 -25.670  19.135 -0.11 +0.00    +0.285 C  
DOCKED: ATOM     17  C   UNL     1     -51.988 -23.343  18.958 -0.01 +0.00    +0.285 C  
DOCKED: ENDBRANCH  14  15
DOCKED: ENDBRANCH  13  14
DOCKED: ENDBRANCH  12  13
DOCKED: ENDBRANCH   2  12
DOCKED: BRANCH   2  18
DOCKED: ATOM     18  C   UNL     1     -48.933 -22.890  15.281 -0.15 +0.00    +0.006 A  
DOCKED: ATOM     19  C   UNL     1     -47.884 -22.771  16.193 -0.13 +0.00    +0.001 A  
DOCKED: ATOM     20  C   UNL     1     -47.602 -21.534  16.772 -0.05 +0.00    +0.029 A  
DOCKED: ATOM     21  C   UNL     1     -48.368 -20.417  16.440 -0.02 +0.00    +0.140 A  
DOCKED: ATOM     22  C   UNL     1     -49.417 -20.536  15.528 -0.06 +0.00    +0.029 A  
DOCKED: ATOM     23  F   UNL     1     -48.096 -19.229  16.995 +0.00 -0.00    -0.204 F  
DOCKED: ATOM     24  C   UNL     1     -49.700 -21.774  14.948 -0.12 +0.00    +0.001 A  
DOCKED: ENDBRANCH   2  18
DOCKED: TORSDOF 5
DOCKED: TER
DOCKED: ENDMDL
________________________________________________________________________________


    FINAL DOCKED STATE:
    ________________________


Run:   326 / 512
Time taken for this run:   0.002s

DOCKED: MODEL        326
DOCKED: USER    Run = 326
DOCKED: USER
DOCKED: USER    Estimated Free Energy of Binding    =  -3.82 kcal/mol  [=(1)+(2)+(3)-(4)]
DOCKED: USER
DOCKED: USER    (1) Final Intermolecular Energy     =  -5.31 kcal/mol
DOCKED: USER        vdW + Hbond + desolv Energy     =  -5.31 kcal/mol
DOCKED: USER        Electrostatic Energy            =  +0.00 kcal/mol
DOCKED: USER        Moving Ligand-Fixed Receptor    =  -5.31 kcal/mol
DOCKED: USER        Moving Ligand-Moving Receptor   =  +0.00 kcal/mol
DOCKED: USER    (2) Final Total Internal Energy     =  -1.30 kcal/mol
DOCKED: USER    (3) Torsional Free Energy           =  +1.49 kcal/mol
DOCKED: USER    (4) Unbound System's Energy         =  -1.30 kcal/mol
DOCKED: USER
DOCKED: USER
DOCKED: REMARK  5 active torsions:
DOCKED: REMARK  status: ('A' for Active; 'I' for Inactive)
DOCKED: REMARK    1  A    between atoms: C_2  and  C_19 
DOCKED: REMARK    2  A    between atoms: C_2  and  C_11 
DOCKED: REMARK    3  A    between atoms: C_19  and  C_20 
DOCKED: REMARK    4  A    between atoms: C_20  and  C_21 
DOCKED: REMARK    5  A    between atoms: C_21  and  N_22 
DOCKED: USER                              x       y       z     vdW  Elec       q    Type
DOCKED: USER                           _______ _______ _______ _____ _____    ______ ____
DOCKED: ROOT
DOCKED: ATOM      1  O   UNL     1     -39.500 -23.617   5.221 +0.00 -0.00    -0.346 OA 
DOCKED: ATOM      2  C   UNL     1     -40.103 -22.476   5.911 -0.06 +0.00    +0.130 C  
DOCKED: ATOM      3  C   UNL     1     -40.810 -23.095   7.082 -0.10 +0.00    +0.004 A  
DOCKED: ATOM      4  C   UNL     1     -40.543 -24.456   7.122 -0.12 +0.00    +0.006 A  
DOCKED: ATOM      5  C   UNL     1     -39.644 -24.825   6.005 -0.05 +0.00    +0.169 C  
DOCKED: ATOM      6  C   UNL     1     -41.615 -22.499   8.041 -0.14 -0.00    -0.001 A  
DOCKED: ATOM      7  C   UNL     1     -41.071 -25.265   8.113 -0.23 +0.00    +0.008 A  
DOCKED: ATOM      8  C   UNL     1     -42.159 -23.302   9.045 -0.26 +0.00    +0.010 A  
DOCKED: ATOM      9  C   UNL     1     -41.888 -24.678   9.081 -0.28 +0.00    +0.068 A  
DOCKED: ATOM     10  N   UNL     1     -42.909 -26.139  10.961 -2.68 -0.00    -0.191 NA 
DOCKED: ATOM     11  C   UNL     1     -42.452 -25.484  10.117 -0.34 +0.00    +0.101 C  
DOCKED: ENDROOT
DOCKED: BRANCH   2  12
DOCKED: ATOM     12  C   UNL     1     -38.991 -21.520   6.326 -0.01 +0.00    +0.038 C  
DOCKED: BRANCH  12  13
DOCKED: ATOM     13  C   UNL     1     -38.499 -20.689   5.142 -0.00 +0.00    +0.038 C  
DOCKED: BRANCH  13  14
DOCKED: ATOM     14  C   UNL     1     -37.174 -21.227   4.607 -0.00 +0.00    +0.251 C  
DOCKED: BRANCH  14  15
DOCKED: ATOM     15  N   UNL     1     -37.231 -21.364   3.156 -0.00 +0.00    +0.141 N  
DOCKED: ATOM     16  C   UNL     1     -35.956 -20.977   2.550 +0.00 +0.00    +0.285 C  
DOCKED: ATOM     17  C   UNL     1     -37.575 -22.736   2.781 +0.00 +0.00    +0.285 C  
DOCKED: ENDBRANCH  14  15
DOCKED: ENDBRANCH  13  14
DOCKED: ENDBRANCH  12  13
DOCKED: ENDBRANCH   2  12
DOCKED: BRANCH   2  18
DOCKED: ATOM     18  C   UNL     1     -41.037 -21.827   4.945 -0.11 +0.00    +0.006 A  
DOCKED: ATOM     19  C   UNL     1     -41.896 -20.817   5.377 -0.13 +0.00    +0.001 A  
DOCKED: ATOM     20  C   UNL     1     -42.769 -20.211   4.473 -0.18 +0.00    +0.029 A  
DOCKED: ATOM     21  C   UNL     1     -42.782 -20.615   3.139 -0.19 +0.00    +0.140 A  
DOCKED: ATOM     22  C   UNL     1     -41.923 -21.625   2.707 -0.17 +0.00    +0.029 A  
DOCKED: ATOM     23  F   UNL     1     -43.619 -20.032   2.271 -0.12 -0.00    -0.204 F  
DOCKED: ATOM     24  C   UNL     1     -41.049 -22.232   3.611 -0.13 +0.00    +0.001 A  
DOCKED: ENDBRANCH   2  18
DOCKED: TORSDOF 5
DOCKED: TER
DOCKED: ENDMDL
________________________________________________________________________________


    FINAL DOCKED STATE:
    ________________________


Run:   327 / 512
Time taken for this run:   0.002s

DOCKED: MODEL        327
DOCKED: USER    Run = 327
DOCKED: USER
DOCKED: USER    Estimated Free Energy of Binding    =  -3.96 kcal/mol  [=(1)+(2)+(3)-(4)]
DOCKED: USER
DOCKED: USER    (1) Final Intermolecular Energy     =  -5.45 kcal/mol
DOCKED: USER        vdW + Hbond + desolv Energy     =  -5.45 kcal/mol
DOCKED: USER        Electrostatic Energy            =  +0.00 kcal/mol
DOCKED: USER        Moving Ligand-Fixed Receptor    =  -5.45 kcal/mol
DOCKED: USER        Moving Ligand-Moving Receptor   =  +0.00 kcal/mol
DOCKED: USER    (2) Final Total Internal Energy     =  -1.57 kcal/mol
DOCKED: USER    (3) Torsional Free Energy           =  +1.49 kcal/mol
DOCKED: USER    (4) Unbound System's Energy         =  -1.57 kcal/mol
DOCKED: USER
DOCKED: USER
DOCKED: REMARK  5 active torsions:
DOCKED: REMARK  status: ('A' for Active; 'I' for Inactive)
DOCKED: REMARK    1  A    between atoms: C_2  and  C_19 
DOCKED: REMARK    2  A    between atoms: C_2  and  C_11 
DOCKED: REMARK    3  A    between atoms: C_19  and  C_20 
DOCKED: REMARK    4  A    between atoms: C_20  and  C_21 
DOCKED: REMARK    5  A    between atoms: C_21  and  N_22 
DOCKED: USER                              x       y       z     vdW  Elec       q    Type
DOCKED: USER                           _______ _______ _______ _____ _____    ______ ____
DOCKED: ROOT
DOCKED: ATOM      1  O   UNL     1     -46.357 -21.359  16.269 -0.03 -0.00    -0.346 OA 
DOCKED: ATOM      2  C   UNL     1     -46.742 -20.564  15.103 -0.11 +0.00    +0.130 C  
DOCKED: ATOM      3  C   UNL     1     -47.567 -21.510  14.279 -0.21 +0.00    +0.004 A  
DOCKED: ATOM      4  C   UNL     1     -47.732 -22.705  14.965 -0.21 +0.00    +0.006 A  
DOCKED: ATOM      5  C   UNL     1     -47.049 -22.630  16.276 -0.11 +0.00    +0.169 C  
DOCKED: ATOM      6  C   UNL     1     -48.136 -21.324  13.028 -0.25 -0.00    -0.001 A  
DOCKED: ATOM      7  C   UNL     1     -48.462 -23.750  14.426 -0.28 +0.00    +0.008 A  
DOCKED: ATOM      8  C   UNL     1     -48.872 -22.370  12.469 -0.34 +0.00    +0.010 A  
DOCKED: ATOM      9  C   UNL     1     -49.034 -23.577  13.165 -0.30 +0.00    +0.068 A  
DOCKED: ATOM     10  N   UNL     1     -50.410 -25.498  12.102 -2.56 -0.00    -0.191 NA 
DOCKED: ATOM     11  C   UNL     1     -49.793 -24.637  12.579 -0.35 +0.00    +0.101 C  
DOCKED: ENDROOT
DOCKED: BRANCH   2  12
DOCKED: ATOM     12  C   UNL     1     -47.532 -19.353  15.585 -0.06 +0.00    +0.038 C  
DOCKED: BRANCH  12  13
DOCKED: ATOM     13  C   UNL     1     -47.363 -19.139  17.088 -0.01 +0.00    +0.038 C  
DOCKED: BRANCH  13  14
DOCKED: ATOM     14  C   UNL     1     -46.329 -18.052  17.375 -0.00 +0.00    +0.251 C  
DOCKED: BRANCH  14  15
DOCKED: ATOM     15  N   UNL     1     -45.008 -18.476  16.926 -0.01 +0.00    +0.141 N  
DOCKED: ATOM     16  C   UNL     1     -44.147 -17.317  16.687 -0.00 +0.00    +0.285 C  
DOCKED: ATOM     17  C   UNL     1     -44.393 -19.370  17.909 -0.00 +0.00    +0.285 C  
DOCKED: ENDBRANCH  14  15
DOCKED: ENDBRANCH  13  14
DOCKED: ENDBRANCH  12  13
DOCKED: ENDBRANCH   2  12
DOCKED: BRANCH   2  18
DOCKED: ATOM     18  C   UNL     1     -45.481 -20.148  14.422 -0.12 +0.00    +0.006 A  
DOCKED: ATOM     19  C   UNL     1     -44.293 -20.831  14.678 -0.11 +0.00    +0.001 A  
DOCKED: ATOM     20  C   UNL     1     -43.115 -20.441  14.041 -0.10 +0.00    +0.029 A  
DOCKED: ATOM     21  C   UNL     1     -43.126 -19.369  13.149 -0.07 +0.00    +0.140 A  
DOCKED: ATOM     22  C   UNL     1     -44.315 -18.686  12.894 -0.10 +0.00    +0.029 A  
DOCKED: ATOM     23  F   UNL     1     -41.995 -18.996  12.537 -0.01 -0.00    -0.204 F  
DOCKED: ATOM     24  C   UNL     1     -45.494 -19.075  13.531 -0.13 +0.00    +0.001 A  
DOCKED: ENDBRANCH   2  18
DOCKED: TORSDOF 5
DOCKED: TER
DOCKED: ENDMDL
________________________________________________________________________________


    FINAL DOCKED STATE:
    ________________________


Run:   328 / 512
Time taken for this run:   0.002s

DOCKED: MODEL        328
DOCKED: USER    Run = 328
DOCKED: USER
DOCKED: USER    Estimated Free Energy of Binding    =  -3.80 kcal/mol  [=(1)+(2)+(3)-(4)]
DOCKED: USER
DOCKED: USER    (1) Final Intermolecular Energy     =  -5.29 kcal/mol
DOCKED: USER        vdW + Hbond + desolv Energy     =  -5.29 kcal/mol
DOCKED: USER        Electrostatic Energy            =  +0.00 kcal/mol
DOCKED: USER        Moving Ligand-Fixed Receptor    =  -5.29 kcal/mol
DOCKED: USER        Moving Ligand-Moving Receptor   =  +0.00 kcal/mol
DOCKED: USER    (2) Final Total Internal Energy     =  -1.44 kcal/mol
DOCKED: USER    (3) Torsional Free Energy           =  +1.49 kcal/mol
DOCKED: USER    (4) Unbound System's Energy         =  -1.44 kcal/mol
DOCKED: USER
DOCKED: USER
DOCKED: REMARK  5 active torsions:
DOCKED: REMARK  status: ('A' for Active; 'I' for Inactive)
DOCKED: REMARK    1  A    between atoms: C_2  and  C_19 
DOCKED: REMARK    2  A    between atoms: C_2  and  C_11 
DOCKED: REMARK    3  A    between atoms: C_19  and  C_20 
DOCKED: REMARK    4  A    between atoms: C_20  and  C_21 
DOCKED: REMARK    5  A    between atoms: C_21  and  N_22 
DOCKED: USER                              x       y       z     vdW  Elec       q    Type
DOCKED: USER                           _______ _______ _______ _____ _____    ______ ____
DOCKED: ROOT
DOCKED: ATOM      1  O   UNL     1     -47.062 -22.647  17.248 -0.04 -0.00    -0.346 OA 
DOCKED: ATOM      2  C   UNL     1     -46.817 -21.812  16.071 -0.10 +0.00    +0.130 C  
DOCKED: ATOM      3  C   UNL     1     -47.533 -22.531  14.965 -0.21 +0.00    +0.004 A  
DOCKED: ATOM      4  C   UNL     1     -48.220 -23.620  15.483 -0.21 +0.00    +0.006 A  
DOCKED: ATOM      5  C   UNL     1     -48.019 -23.689  16.948 -0.13 +0.00    +0.169 C  
DOCKED: ATOM      6  C   UNL     1     -47.583 -22.238  13.610 -0.19 -0.00    -0.001 A  
DOCKED: ATOM      7  C   UNL     1     -48.971 -24.451  14.670 -0.28 +0.00    +0.008 A  
DOCKED: ATOM      8  C   UNL     1     -48.333 -23.070  12.776 -0.30 +0.00    +0.010 A  
DOCKED: ATOM      9  C   UNL     1     -49.024 -24.170  13.304 -0.31 +0.00    +0.068 A  
DOCKED: ATOM     10  N   UNL     1     -50.410 -25.691  11.730 -2.33 -0.00    -0.191 NA 
DOCKED: ATOM     11  C   UNL     1     -49.788 -25.009  12.436 -0.21 +0.00    +0.101 C  
DOCKED: ENDROOT
DOCKED: BRANCH   2  12
DOCKED: ATOM     12  C   UNL     1     -47.382 -20.422  16.339 -0.05 +0.00    +0.038 C  
DOCKED: BRANCH  12  13
DOCKED: ATOM     13  C   UNL     1     -48.891 -20.470  16.574 -0.04 +0.00    +0.038 C  
DOCKED: BRANCH  13  14
DOCKED: ATOM     14  C   UNL     1     -49.618 -19.466  15.682 -0.03 +0.00    +0.251 C  
DOCKED: BRANCH  14  15
DOCKED: ATOM     15  N   UNL     1     -50.794 -20.082  15.079 -0.06 +0.00    +0.141 N  
DOCKED: ATOM     16  C   UNL     1     -50.648 -20.160  13.625 -0.15 +0.00    +0.285 C  
DOCKED: ATOM     17  C   UNL     1     -51.022 -21.415  15.638 -0.02 +0.00    +0.285 C  
DOCKED: ENDBRANCH  14  15
DOCKED: ENDBRANCH  13  14
DOCKED: ENDBRANCH  12  13
DOCKED: ENDBRANCH   2  12
DOCKED: BRANCH   2  18
DOCKED: ATOM     18  C   UNL     1     -45.339 -21.763  15.871 -0.13 +0.00    +0.006 A  
DOCKED: ATOM     19  C   UNL     1     -44.623 -20.626  16.244 -0.06 +0.00    +0.001 A  
DOCKED: ATOM     20  C   UNL     1     -43.241 -20.581  16.056 -0.05 +0.00    +0.029 A  
DOCKED: ATOM     21  C   UNL     1     -42.577 -21.672  15.498 -0.06 +0.00    +0.140 A  
DOCKED: ATOM     22  C   UNL     1     -43.294 -22.809  15.126 -0.17 +0.00    +0.029 A  
DOCKED: ATOM     23  F   UNL     1     -41.251 -21.630  15.320 +0.00 -0.00    -0.204 F  
DOCKED: ATOM     24  C   UNL     1     -44.677 -22.855  15.313 -0.16 +0.00    +0.001 A  
DOCKED: ENDBRANCH   2  18
DOCKED: TORSDOF 5
DOCKED: TER
DOCKED: ENDMDL
________________________________________________________________________________


    FINAL DOCKED STATE:
    ________________________


Run:   329 / 512
Time taken for this run:   0.002s

DOCKED: MODEL        329
DOCKED: USER    Run = 329
DOCKED: USER
DOCKED: USER    Estimated Free Energy of Binding    =  -4.42 kcal/mol  [=(1)+(2)+(3)-(4)]
DOCKED: USER
DOCKED: USER    (1) Final Intermolecular Energy     =  -5.91 kcal/mol
DOCKED: USER        vdW + Hbond + desolv Energy     =  -5.91 kcal/mol
DOCKED: USER        Electrostatic Energy            =  +0.00 kcal/mol
DOCKED: USER        Moving Ligand-Fixed Receptor    =  -5.91 kcal/mol
DOCKED: USER        Moving Ligand-Moving Receptor   =  +0.00 kcal/mol
DOCKED: USER    (2) Final Total Internal Energy     =  -1.20 kcal/mol
DOCKED: USER    (3) Torsional Free Energy           =  +1.49 kcal/mol
DOCKED: USER    (4) Unbound System's Energy         =  -1.20 kcal/mol
DOCKED: USER
DOCKED: USER
DOCKED: REMARK  5 active torsions:
DOCKED: REMARK  status: ('A' for Active; 'I' for Inactive)
DOCKED: REMARK    1  A    between atoms: C_2  and  C_19 
DOCKED: REMARK    2  A    between atoms: C_2  and  C_11 
DOCKED: REMARK    3  A    between atoms: C_19  and  C_20 
DOCKED: REMARK    4  A    between atoms: C_20  and  C_21 
DOCKED: REMARK    5  A    between atoms: C_21  and  N_22 
DOCKED: USER                              x       y       z     vdW  Elec       q    Type
DOCKED: USER                           _______ _______ _______ _____ _____    ______ ____
DOCKED: ROOT
DOCKED: ATOM      1  O   UNL     1     -46.758 -20.922  15.858 -0.03 -0.00    -0.346 OA 
DOCKED: ATOM      2  C   UNL     1     -47.215 -20.265  14.633 -0.13 +0.00    +0.130 C  
DOCKED: ATOM      3  C   UNL     1     -47.944 -21.349  13.894 -0.24 +0.00    +0.004 A  
DOCKED: ATOM      4  C   UNL     1     -47.996 -22.494  14.676 -0.21 +0.00    +0.006 A  
DOCKED: ATOM      5  C   UNL     1     -47.326 -22.247  15.973 -0.11 +0.00    +0.169 C  
DOCKED: ATOM      6  C   UNL     1     -48.525 -21.321  12.635 -0.19 -0.00    -0.001 A  
DOCKED: ATOM      7  C   UNL     1     -48.622 -23.645  14.229 -0.28 +0.00    +0.008 A  
DOCKED: ATOM      8  C   UNL     1     -49.157 -22.475  12.167 -0.34 +0.00    +0.010 A  
DOCKED: ATOM      9  C   UNL     1     -49.205 -23.631  12.961 -0.31 +0.00    +0.068 A  
DOCKED: ATOM     10  N   UNL     1     -50.389 -25.754  12.065 -2.54 -0.00    -0.191 NA 
DOCKED: ATOM     11  C   UNL     1     -49.857 -24.802  12.467 -0.30 +0.00    +0.101 C  
DOCKED: ENDROOT
DOCKED: BRANCH   2  12
DOCKED: ATOM     12  C   UNL     1     -48.118 -19.099  15.019 -0.08 +0.00    +0.038 C  
DOCKED: BRANCH  12  13
DOCKED: ATOM     13  C   UNL     1     -49.564 -19.553  15.205 -0.09 +0.00    +0.038 C  
DOCKED: BRANCH  13  14
DOCKED: ATOM     14  C   UNL     1     -50.478 -18.919  14.159 -0.14 +0.00    +0.251 C  
DOCKED: BRANCH  14  15
DOCKED: ATOM     15  N   UNL     1     -50.142 -17.512  13.977 -0.10 +0.00    +0.141 N  
DOCKED: ATOM     16  C   UNL     1     -49.576 -17.284  12.646 -0.10 +0.00    +0.285 C  
DOCKED: ATOM     17  C   UNL     1     -51.322 -16.669  14.178 -0.06 +0.00    +0.285 C  
DOCKED: ENDBRANCH  14  15
DOCKED: ENDBRANCH  13  14
DOCKED: ENDBRANCH  12  13
DOCKED: ENDBRANCH   2  12
DOCKED: BRANCH   2  18
DOCKED: ATOM     18  C   UNL     1     -45.998 -19.788  13.914 -0.14 +0.00    +0.006 A  
DOCKED: ATOM     19  C   UNL     1     -44.738 -20.247  14.296 -0.10 +0.00    +0.001 A  
DOCKED: ATOM     20  C   UNL     1     -43.600 -19.799  13.623 -0.10 +0.00    +0.029 A  
DOCKED: ATOM     21  C   UNL     1     -43.724 -18.895  12.569 -0.08 +0.00    +0.140 A  
DOCKED: ATOM     22  C   UNL     1     -44.985 -18.437  12.187 -0.12 +0.00    +0.029 A  
DOCKED: ATOM     23  F   UNL     1     -42.632 -18.468  11.922 -0.01 -0.00    -0.204 F  
DOCKED: ATOM     24  C   UNL     1     -46.123 -18.883  12.860 -0.16 +0.00    +0.001 A  
DOCKED: ENDBRANCH   2  18
DOCKED: TORSDOF 5
DOCKED: TER
DOCKED: ENDMDL
________________________________________________________________________________


    FINAL DOCKED STATE:
    ________________________


Run:   330 / 512
Time taken for this run:   0.002s

DOCKED: MODEL        330
DOCKED: USER    Run = 330
DOCKED: USER
DOCKED: USER    Estimated Free Energy of Binding    =  -4.37 kcal/mol  [=(1)+(2)+(3)-(4)]
DOCKED: USER
DOCKED: USER    (1) Final Intermolecular Energy     =  -5.86 kcal/mol
DOCKED: USER        vdW + Hbond + desolv Energy     =  -5.86 kcal/mol
DOCKED: USER        Electrostatic Energy            =  +0.00 kcal/mol
DOCKED: USER        Moving Ligand-Fixed Receptor    =  -5.86 kcal/mol
DOCKED: USER        Moving Ligand-Moving Receptor   =  +0.00 kcal/mol
DOCKED: USER    (2) Final Total Internal Energy     =  -0.89 kcal/mol
DOCKED: USER    (3) Torsional Free Energy           =  +1.49 kcal/mol
DOCKED: USER    (4) Unbound System's Energy         =  -0.89 kcal/mol
DOCKED: USER
DOCKED: USER
DOCKED: REMARK  5 active torsions:
DOCKED: REMARK  status: ('A' for Active; 'I' for Inactive)
DOCKED: REMARK    1  A    between atoms: C_2  and  C_19 
DOCKED: REMARK    2  A    between atoms: C_2  and  C_11 
DOCKED: REMARK    3  A    between atoms: C_19  and  C_20 
DOCKED: REMARK    4  A    between atoms: C_20  and  C_21 
DOCKED: REMARK    5  A    between atoms: C_21  and  N_22 
DOCKED: USER                              x       y       z     vdW  Elec       q    Type
DOCKED: USER                           _______ _______ _______ _____ _____    ______ ____
DOCKED: ROOT
DOCKED: ATOM      1  O   UNL     1     -40.760 -19.904   7.889 +0.01 -0.00    -0.346 OA 
DOCKED: ATOM      2  C   UNL     1     -42.170 -20.076   7.537 -0.08 +0.00    +0.130 C  
DOCKED: ATOM      3  C   UNL     1     -42.529 -21.408   8.130 -0.18 +0.00    +0.004 A  
DOCKED: ATOM      4  C   UNL     1     -41.453 -21.903   8.853 -0.11 +0.00    +0.006 A  
DOCKED: ATOM      5  C   UNL     1     -40.328 -20.942   8.800 -0.02 +0.00    +0.169 C  
DOCKED: ATOM      6  C   UNL     1     -43.717 -22.119   8.047 -0.28 -0.00    -0.001 A  
DOCKED: ATOM      7  C   UNL     1     -41.523 -23.119   9.509 -0.19 +0.00    +0.008 A  
DOCKED: ATOM      8  C   UNL     1     -43.803 -23.350   8.700 -0.10 +0.00    +0.010 A  
DOCKED: ATOM      9  C   UNL     1     -42.711 -23.847   9.427 -0.29 +0.00    +0.068 A  
DOCKED: ATOM     10  N   UNL     1     -42.906 -26.133  10.632 -2.56 -0.00    -0.191 NA 
DOCKED: ATOM     11  C   UNL     1     -42.818 -25.108  10.091 -0.29 +0.00    +0.101 C  
DOCKED: ENDROOT
DOCKED: BRANCH   2  12
DOCKED: ATOM     12  C   UNL     1     -42.963 -18.924   8.142 -0.08 +0.00    +0.038 C  
DOCKED: BRANCH  12  13
DOCKED: ATOM     13  C   UNL     1     -44.454 -19.050   7.832 -0.22 +0.00    +0.038 C  
DOCKED: BRANCH  13  14
DOCKED: ATOM     14  C   UNL     1     -45.283 -18.147   8.743 -0.12 +0.00    +0.251 C  
DOCKED: BRANCH  14  15
DOCKED: ATOM     15  N   UNL     1     -46.301 -17.444   7.971 -0.18 +0.00    +0.141 N  
DOCKED: ATOM     16  C   UNL     1     -46.804 -16.287   8.714 -0.13 +0.00    +0.285 C  
DOCKED: ATOM     17  C   UNL     1     -45.765 -17.022   6.676 -0.14 +0.00    +0.285 C  
DOCKED: ENDBRANCH  14  15
DOCKED: ENDBRANCH  13  14
DOCKED: ENDBRANCH  12  13
DOCKED: ENDBRANCH   2  12
DOCKED: BRANCH   2  18
DOCKED: ATOM     18  C   UNL     1     -42.252 -20.062   6.047 -0.13 +0.00    +0.006 A  
DOCKED: ATOM     19  C   UNL     1     -41.812 -21.164   5.315 -0.12 +0.00    +0.001 A  
DOCKED: ATOM     20  C   UNL     1     -41.889 -21.150   3.922 -0.15 +0.00    +0.029 A  
DOCKED: ATOM     21  C   UNL     1     -42.406 -20.035   3.263 -0.15 +0.00    +0.140 A  
DOCKED: ATOM     22  C   UNL     1     -42.846 -18.933   3.996 -0.16 +0.00    +0.029 A  
DOCKED: ATOM     23  F   UNL     1     -42.482 -20.022   1.926 -0.04 -0.00    -0.204 F  
DOCKED: ATOM     24  C   UNL     1     -42.769 -18.946   5.390 -0.13 +0.00    +0.001 A  
DOCKED: ENDBRANCH   2  18
DOCKED: TORSDOF 5
DOCKED: TER
DOCKED: ENDMDL
________________________________________________________________________________


    FINAL DOCKED STATE:
    ________________________


Run:   331 / 512
Time taken for this run:   0.002s

DOCKED: MODEL        331
DOCKED: USER    Run = 331
DOCKED: USER
DOCKED: USER    Estimated Free Energy of Binding    =  -3.97 kcal/mol  [=(1)+(2)+(3)-(4)]
DOCKED: USER
DOCKED: USER    (1) Final Intermolecular Energy     =  -5.46 kcal/mol
DOCKED: USER        vdW + Hbond + desolv Energy     =  -5.46 kcal/mol
DOCKED: USER        Electrostatic Energy            =  +0.00 kcal/mol
DOCKED: USER        Moving Ligand-Fixed Receptor    =  -5.46 kcal/mol
DOCKED: USER        Moving Ligand-Moving Receptor   =  +0.00 kcal/mol
DOCKED: USER    (2) Final Total Internal Energy     =  -1.34 kcal/mol
DOCKED: USER    (3) Torsional Free Energy           =  +1.49 kcal/mol
DOCKED: USER    (4) Unbound System's Energy         =  -1.34 kcal/mol
DOCKED: USER
DOCKED: USER
DOCKED: REMARK  5 active torsions:
DOCKED: REMARK  status: ('A' for Active; 'I' for Inactive)
DOCKED: REMARK    1  A    between atoms: C_2  and  C_19 
DOCKED: REMARK    2  A    between atoms: C_2  and  C_11 
DOCKED: REMARK    3  A    between atoms: C_19  and  C_20 
DOCKED: REMARK    4  A    between atoms: C_20  and  C_21 
DOCKED: REMARK    5  A    between atoms: C_21  and  N_22 
DOCKED: USER                              x       y       z     vdW  Elec       q    Type
DOCKED: USER                           _______ _______ _______ _____ _____    ______ ____
DOCKED: ROOT
DOCKED: ATOM      1  O   UNL     1     -46.638 -19.832  14.517 -0.05 -0.00    -0.346 OA 
DOCKED: ATOM      2  C   UNL     1     -46.279 -20.995  15.330 -0.11 +0.00    +0.130 C  
DOCKED: ATOM      3  C   UNL     1     -47.127 -22.101  14.770 -0.21 +0.00    +0.004 A  
DOCKED: ATOM      4  C   UNL     1     -47.826 -21.639  13.664 -0.25 +0.00    +0.006 A  
DOCKED: ATOM      5  C   UNL     1     -47.485 -20.221  13.411 -0.19 +0.00    +0.169 C  
DOCKED: ATOM      6  C   UNL     1     -47.260 -23.414  15.198 -0.23 -0.00    -0.001 A  
DOCKED: ATOM      7  C   UNL     1     -48.680 -22.465  12.954 -0.33 +0.00    +0.008 A  
DOCKED: ATOM      8  C   UNL     1     -48.121 -24.258  14.495 -0.33 +0.00    +0.010 A  
DOCKED: ATOM      9  C   UNL     1     -48.827 -23.786  13.379 -0.30 +0.00    +0.068 A  
DOCKED: ATOM     10  N   UNL     1     -50.413 -25.382  12.094 -2.56 -0.00    -0.191 NA 
DOCKED: ATOM     11  C   UNL     1     -49.702 -24.666  12.671 -0.30 +0.00    +0.101 C  
DOCKED: ENDROOT
DOCKED: BRANCH   2  12
DOCKED: ATOM     12  C   UNL     1     -44.785 -21.254  15.170 -0.14 +0.00    +0.038 C  
DOCKED: BRANCH  12  13
DOCKED: ATOM     13  C   UNL     1     -44.029 -19.967  14.848 -0.09 +0.00    +0.038 C  
DOCKED: BRANCH  13  14
DOCKED: ATOM     14  C   UNL     1     -43.886 -19.776  13.339 -0.07 +0.00    +0.251 C  
DOCKED: BRANCH  14  15
DOCKED: ATOM     15  N   UNL     1     -44.667 -18.627  12.897 -0.08 +0.00    +0.141 N  
DOCKED: ATOM     16  C   UNL     1     -44.073 -17.381  13.383 -0.02 +0.00    +0.285 C  
DOCKED: ATOM     17  C   UNL     1     -44.770 -18.605  11.437 -0.10 +0.00    +0.285 C  
DOCKED: ENDBRANCH  14  15
DOCKED: ENDBRANCH  13  14
DOCKED: ENDBRANCH  12  13
DOCKED: ENDBRANCH   2  12
DOCKED: BRANCH   2  18
DOCKED: ATOM     18  C   UNL     1     -46.619 -20.661  16.744 -0.04 +0.00    +0.006 A  
DOCKED: ATOM     19  C   UNL     1     -46.128 -21.449  17.784 -0.04 +0.00    +0.001 A  
DOCKED: ATOM     20  C   UNL     1     -46.447 -21.136  19.105 -0.01 +0.00    +0.029 A  
DOCKED: ATOM     21  C   UNL     1     -47.256 -20.035  19.385 -0.00 +0.00    +0.140 A  
DOCKED: ATOM     22  C   UNL     1     -47.747 -19.247  18.344 -0.00 +0.00    +0.029 A  
DOCKED: ATOM     23  F   UNL     1     -47.560 -19.733  20.654 +0.00 -0.00    -0.204 F  
DOCKED: ATOM     24  C   UNL     1     -47.428 -19.560  17.022 -0.02 +0.00    +0.001 A  
DOCKED: ENDBRANCH   2  18
DOCKED: TORSDOF 5
DOCKED: TER
DOCKED: ENDMDL
________________________________________________________________________________


    FINAL DOCKED STATE:
    ________________________


Run:   332 / 512
Time taken for this run:   0.002s

DOCKED: MODEL        332
DOCKED: USER    Run = 332
DOCKED: USER
DOCKED: USER    Estimated Free Energy of Binding    =  -3.90 kcal/mol  [=(1)+(2)+(3)-(4)]
DOCKED: USER
DOCKED: USER    (1) Final Intermolecular Energy     =  -5.39 kcal/mol
DOCKED: USER        vdW + Hbond + desolv Energy     =  -5.39 kcal/mol
DOCKED: USER        Electrostatic Energy            =  +0.00 kcal/mol
DOCKED: USER        Moving Ligand-Fixed Receptor    =  -5.39 kcal/mol
DOCKED: USER        Moving Ligand-Moving Receptor   =  +0.00 kcal/mol
DOCKED: USER    (2) Final Total Internal Energy     =  -1.44 kcal/mol
DOCKED: USER    (3) Torsional Free Energy           =  +1.49 kcal/mol
DOCKED: USER    (4) Unbound System's Energy         =  -1.44 kcal/mol
DOCKED: USER
DOCKED: USER
DOCKED: REMARK  5 active torsions:
DOCKED: REMARK  status: ('A' for Active; 'I' for Inactive)
DOCKED: REMARK    1  A    between atoms: C_2  and  C_19 
DOCKED: REMARK    2  A    between atoms: C_2  and  C_11 
DOCKED: REMARK    3  A    between atoms: C_19  and  C_20 
DOCKED: REMARK    4  A    between atoms: C_20  and  C_21 
DOCKED: REMARK    5  A    between atoms: C_21  and  N_22 
DOCKED: USER                              x       y       z     vdW  Elec       q    Type
DOCKED: USER                           _______ _______ _______ _____ _____    ______ ____
DOCKED: ROOT
DOCKED: ATOM      1  O   UNL     1     -41.931 -18.824   7.572 +0.01 -0.00    -0.346 OA 
DOCKED: ATOM      2  C   UNL     1     -43.140 -19.579   7.242 -0.14 +0.00    +0.130 C  
DOCKED: ATOM      3  C   UNL     1     -43.021 -20.828   8.067 -0.20 +0.00    +0.004 A  
DOCKED: ATOM      4  C   UNL     1     -41.900 -20.745   8.880 -0.10 +0.00    +0.006 A  
DOCKED: ATOM      5  C   UNL     1     -41.217 -19.450   8.663 -0.02 +0.00    +0.169 C  
DOCKED: ATOM      6  C   UNL     1     -43.845 -21.944   8.103 -0.30 -0.00    -0.001 A  
DOCKED: ATOM      7  C   UNL     1     -41.562 -21.769   9.749 -0.13 +0.00    +0.008 A  
DOCKED: ATOM      8  C   UNL     1     -43.516 -22.986   8.970 -0.28 +0.00    +0.010 A  
DOCKED: ATOM      9  C   UNL     1     -42.380 -22.899   9.790 -0.22 +0.00    +0.068 A  
DOCKED: ATOM     10  N   UNL     1     -41.801 -24.850  11.393 -1.95 -0.00    -0.191 NA 
DOCKED: ATOM     11  C   UNL     1     -42.060 -23.975  10.674 -0.26 +0.00    +0.101 C  
DOCKED: ENDROOT
DOCKED: BRANCH   2  12
DOCKED: ATOM     12  C   UNL     1     -44.354 -18.736   7.615 -0.19 +0.00    +0.038 C  
DOCKED: BRANCH  12  13
DOCKED: ATOM     13  C   UNL     1     -44.892 -19.113   8.993 -0.22 +0.00    +0.038 C  
DOCKED: BRANCH  13  14
DOCKED: ATOM     14  C   UNL     1     -44.393 -18.144  10.063 -0.08 +0.00    +0.251 C  
DOCKED: BRANCH  14  15
DOCKED: ATOM     15  N   UNL     1     -43.549 -18.841  11.025 -0.08 +0.00    +0.141 N  
DOCKED: ATOM     16  C   UNL     1     -42.517 -17.946  11.551 -0.02 +0.00    +0.285 C  
DOCKED: ATOM     17  C   UNL     1     -44.355 -19.384  12.120 -0.06 +0.00    +0.285 C  
DOCKED: ENDBRANCH  14  15
DOCKED: ENDBRANCH  13  14
DOCKED: ENDBRANCH  12  13
DOCKED: ENDBRANCH   2  12
DOCKED: BRANCH   2  18
DOCKED: ATOM     18  C   UNL     1     -43.101 -19.846   5.774 -0.18 +0.00    +0.006 A  
DOCKED: ATOM     19  C   UNL     1     -42.204 -20.782   5.260 -0.13 +0.00    +0.001 A  
DOCKED: ATOM     20  C   UNL     1     -42.168 -21.030   3.887 -0.16 +0.00    +0.029 A  
DOCKED: ATOM     21  C   UNL     1     -43.028 -20.343   3.031 -0.20 +0.00    +0.140 A  
DOCKED: ATOM     22  C   UNL     1     -43.924 -19.407   3.546 -0.22 +0.00    +0.029 A  
DOCKED: ATOM     23  F   UNL     1     -42.994 -20.583   1.714 -0.08 -0.00    -0.204 F  
DOCKED: ATOM     24  C   UNL     1     -43.961 -19.158   4.919 -0.16 +0.00    +0.001 A  
DOCKED: ENDBRANCH   2  18
DOCKED: TORSDOF 5
DOCKED: TER
DOCKED: ENDMDL
________________________________________________________________________________


    FINAL DOCKED STATE:
    ________________________


Run:   333 / 512
Time taken for this run:   0.002s

DOCKED: MODEL        333
DOCKED: USER    Run = 333
DOCKED: USER
DOCKED: USER    Estimated Free Energy of Binding    =  -4.09 kcal/mol  [=(1)+(2)+(3)-(4)]
DOCKED: USER
DOCKED: USER    (1) Final Intermolecular Energy     =  -5.59 kcal/mol
DOCKED: USER        vdW + Hbond + desolv Energy     =  -5.59 kcal/mol
DOCKED: USER        Electrostatic Energy            =  +0.00 kcal/mol
DOCKED: USER        Moving Ligand-Fixed Receptor    =  -5.59 kcal/mol
DOCKED: USER        Moving Ligand-Moving Receptor   =  +0.00 kcal/mol
DOCKED: USER    (2) Final Total Internal Energy     =  -1.40 kcal/mol
DOCKED: USER    (3) Torsional Free Energy           =  +1.49 kcal/mol
DOCKED: USER    (4) Unbound System's Energy         =  -1.40 kcal/mol
DOCKED: USER
DOCKED: USER
DOCKED: REMARK  5 active torsions:
DOCKED: REMARK  status: ('A' for Active; 'I' for Inactive)
DOCKED: REMARK    1  A    between atoms: C_2  and  C_19 
DOCKED: REMARK    2  A    between atoms: C_2  and  C_11 
DOCKED: REMARK    3  A    between atoms: C_19  and  C_20 
DOCKED: REMARK    4  A    between atoms: C_20  and  C_21 
DOCKED: REMARK    5  A    between atoms: C_21  and  N_22 
DOCKED: USER                              x       y       z     vdW  Elec       q    Type
DOCKED: USER                           _______ _______ _______ _____ _____    ______ ____
DOCKED: ROOT
DOCKED: ATOM      1  O   UNL     1     -47.311 -19.881  15.098 -0.02 -0.00    -0.346 OA 
DOCKED: ATOM      2  C   UNL     1     -48.637 -19.536  14.583 -0.11 +0.00    +0.130 C  
DOCKED: ATOM      3  C   UNL     1     -49.122 -20.811  13.957 -0.21 +0.00    +0.004 A  
DOCKED: ATOM      4  C   UNL     1     -48.203 -21.825  14.190 -0.22 +0.00    +0.006 A  
DOCKED: ATOM      5  C   UNL     1     -47.070 -21.302  14.985 -0.13 +0.00    +0.169 C  
DOCKED: ATOM      6  C   UNL     1     -50.288 -21.057  13.247 -0.20 -0.00    -0.001 A  
DOCKED: ATOM      7  C   UNL     1     -48.414 -23.110  13.721 -0.30 +0.00    +0.008 A  
DOCKED: ATOM      8  C   UNL     1     -50.514 -22.348  12.764 -0.19 +0.00    +0.010 A  
DOCKED: ATOM      9  C   UNL     1     -49.581 -23.369  13.001 -0.28 +0.00    +0.068 A  
DOCKED: ATOM     10  N   UNL     1     -50.033 -25.754  12.095 -2.61 -0.00    -0.191 NA 
DOCKED: ATOM     11  C   UNL     1     -49.830 -24.684  12.500 -0.34 +0.00    +0.101 C  
DOCKED: ENDROOT
DOCKED: BRANCH   2  12
DOCKED: ATOM     12  C   UNL     1     -49.505 -19.081  15.751 -0.05 +0.00    +0.038 C  
DOCKED: BRANCH  12  13
DOCKED: ATOM     13  C   UNL     1     -50.201 -20.264  16.422 -0.04 +0.00    +0.038 C  
DOCKED: BRANCH  13  14
DOCKED: ATOM     14  C   UNL     1     -49.498 -20.649  17.722 -0.00 +0.00    +0.251 C  
DOCKED: BRANCH  14  15
DOCKED: ATOM     15  N   UNL     1     -49.030 -22.029  17.657 -0.02 +0.00    +0.141 N  
DOCKED: ATOM     16  C   UNL     1     -48.684 -22.520  18.991 -0.01 +0.00    +0.285 C  
DOCKED: ATOM     17  C   UNL     1     -50.046 -22.889  17.046 -0.03 +0.00    +0.285 C  
DOCKED: ENDBRANCH  14  15
DOCKED: ENDBRANCH  13  14
DOCKED: ENDBRANCH  12  13
DOCKED: ENDBRANCH   2  12
DOCKED: BRANCH   2  18
DOCKED: ATOM     18  C   UNL     1     -48.448 -18.436  13.592 -0.15 +0.00    +0.006 A  
DOCKED: ATOM     19  C   UNL     1     -47.182 -18.182  13.067 -0.13 +0.00    +0.001 A  
DOCKED: ATOM     20  C   UNL     1     -47.006 -17.153  12.140 -0.09 +0.00    +0.029 A  
DOCKED: ATOM     21  C   UNL     1     -48.096 -16.381  11.741 -0.08 +0.00    +0.140 A  
DOCKED: ATOM     22  C   UNL     1     -49.362 -16.636  12.267 -0.14 +0.00    +0.029 A  
DOCKED: ATOM     23  F   UNL     1     -47.928 -15.395  10.851 -0.03 -0.00    -0.204 F  
DOCKED: ATOM     24  C   UNL     1     -49.539 -17.665  13.194 -0.18 +0.00    +0.001 A  
DOCKED: ENDBRANCH   2  18
DOCKED: TORSDOF 5
DOCKED: TER
DOCKED: ENDMDL
________________________________________________________________________________


    FINAL DOCKED STATE:
    ________________________


Run:   334 / 512
Time taken for this run:   0.002s

DOCKED: MODEL        334
DOCKED: USER    Run = 334
DOCKED: USER
DOCKED: USER    Estimated Free Energy of Binding    =  -3.89 kcal/mol  [=(1)+(2)+(3)-(4)]
DOCKED: USER
DOCKED: USER    (1) Final Intermolecular Energy     =  -5.38 kcal/mol
DOCKED: USER        vdW + Hbond + desolv Energy     =  -5.38 kcal/mol
DOCKED: USER        Electrostatic Energy            =  +0.00 kcal/mol
DOCKED: USER        Moving Ligand-Fixed Receptor    =  -5.38 kcal/mol
DOCKED: USER        Moving Ligand-Moving Receptor   =  +0.00 kcal/mol
DOCKED: USER    (2) Final Total Internal Energy     =  -1.40 kcal/mol
DOCKED: USER    (3) Torsional Free Energy           =  +1.49 kcal/mol
DOCKED: USER    (4) Unbound System's Energy         =  -1.40 kcal/mol
DOCKED: USER
DOCKED: USER
DOCKED: REMARK  5 active torsions:
DOCKED: REMARK  status: ('A' for Active; 'I' for Inactive)
DOCKED: REMARK    1  A    between atoms: C_2  and  C_19 
DOCKED: REMARK    2  A    between atoms: C_2  and  C_11 
DOCKED: REMARK    3  A    between atoms: C_19  and  C_20 
DOCKED: REMARK    4  A    between atoms: C_20  and  C_21 
DOCKED: REMARK    5  A    between atoms: C_21  and  N_22 
DOCKED: USER                              x       y       z     vdW  Elec       q    Type
DOCKED: USER                           _______ _______ _______ _____ _____    ______ ____
DOCKED: ROOT
DOCKED: ATOM      1  O   UNL     1     -50.188 -18.912  14.101 -0.08 -0.00    -0.346 OA 
DOCKED: ATOM      2  C   UNL     1     -48.787 -19.322  14.000 -0.16 +0.00    +0.130 C  
DOCKED: ATOM      3  C   UNL     1     -48.863 -20.767  13.597 -0.24 +0.00    +0.004 A  
DOCKED: ATOM      4  C   UNL     1     -50.186 -21.121  13.378 -0.22 +0.00    +0.006 A  
DOCKED: ATOM      5  C   UNL     1     -51.064 -19.951  13.606 -0.20 +0.00    +0.169 C  
DOCKED: ATOM      6  C   UNL     1     -47.841 -21.689  13.425 -0.23 -0.00    -0.001 A  
DOCKED: ATOM      7  C   UNL     1     -50.534 -22.403  12.988 -0.24 +0.00    +0.008 A  
DOCKED: ATOM      8  C   UNL     1     -48.176 -22.988  13.037 -0.31 +0.00    +0.010 A  
DOCKED: ATOM      9  C   UNL     1     -49.516 -23.342  12.819 -0.30 +0.00    +0.068 A  
DOCKED: ATOM     10  N   UNL     1     -50.102 -25.759  12.093 -2.60 -0.00    -0.191 NA 
DOCKED: ATOM     11  C   UNL     1     -49.839 -24.675  12.419 -0.37 +0.00    +0.101 C  
DOCKED: ENDROOT
DOCKED: BRANCH   2  12
DOCKED: ATOM     12  C   UNL     1     -48.103 -18.450  12.954 -0.07 +0.00    +0.038 C  
DOCKED: BRANCH  12  13
DOCKED: ATOM     13  C   UNL     1     -48.756 -17.072  12.864 -0.15 +0.00    +0.038 C  
DOCKED: BRANCH  13  14
DOCKED: ATOM     14  C   UNL     1     -47.886 -16.007  13.528 -0.04 +0.00    +0.251 C  
DOCKED: BRANCH  14  15
DOCKED: ATOM     15  N   UNL     1     -48.640 -15.306  14.560 -0.01 +0.00    +0.141 N  
DOCKED: ATOM     16  C   UNL     1     -48.874 -13.914  14.174 -0.00 +0.00    +0.285 C  
DOCKED: ATOM     17  C   UNL     1     -49.913 -15.982  14.817 -0.01 +0.00    +0.285 C  
DOCKED: ENDBRANCH  14  15
DOCKED: ENDBRANCH  13  14
DOCKED: ENDBRANCH  12  13
DOCKED: ENDBRANCH   2  12
DOCKED: BRANCH   2  18
DOCKED: ATOM     18  C   UNL     1     -48.176 -19.126  15.347 -0.06 +0.00    +0.006 A  
DOCKED: ATOM     19  C   UNL     1     -48.993 -18.994  16.469 -0.02 +0.00    +0.001 A  
DOCKED: ATOM     20  C   UNL     1     -48.421 -18.810  17.729 -0.00 +0.00    +0.029 A  
DOCKED: ATOM     21  C   UNL     1     -47.034 -18.760  17.864 -0.00 +0.00    +0.140 A  
DOCKED: ATOM     22  C   UNL     1     -46.218 -18.892  16.742 -0.01 +0.00    +0.029 A  
DOCKED: ATOM     23  F   UNL     1     -46.486 -18.585  19.074 -0.00 -0.00    -0.204 F  
DOCKED: ATOM     24  C   UNL     1     -46.789 -19.076  15.481 -0.05 +0.00    +0.001 A  
DOCKED: ENDBRANCH   2  18
DOCKED: TORSDOF 5
DOCKED: TER
DOCKED: ENDMDL
________________________________________________________________________________


    FINAL DOCKED STATE:
    ________________________


Run:   335 / 512
Time taken for this run:   0.002s

DOCKED: MODEL        335
DOCKED: USER    Run = 335
DOCKED: USER
DOCKED: USER    Estimated Free Energy of Binding    =  -4.42 kcal/mol  [=(1)+(2)+(3)-(4)]
DOCKED: USER
DOCKED: USER    (1) Final Intermolecular Energy     =  -5.91 kcal/mol
DOCKED: USER        vdW + Hbond + desolv Energy     =  -5.91 kcal/mol
DOCKED: USER        Electrostatic Energy            =  +0.00 kcal/mol
DOCKED: USER        Moving Ligand-Fixed Receptor    =  -5.91 kcal/mol
DOCKED: USER        Moving Ligand-Moving Receptor   =  +0.00 kcal/mol
DOCKED: USER    (2) Final Total Internal Energy     =  -1.43 kcal/mol
DOCKED: USER    (3) Torsional Free Energy           =  +1.49 kcal/mol
DOCKED: USER    (4) Unbound System's Energy         =  -1.43 kcal/mol
DOCKED: USER
DOCKED: USER
DOCKED: REMARK  5 active torsions:
DOCKED: REMARK  status: ('A' for Active; 'I' for Inactive)
DOCKED: REMARK    1  A    between atoms: C_2  and  C_19 
DOCKED: REMARK    2  A    between atoms: C_2  and  C_11 
DOCKED: REMARK    3  A    between atoms: C_19  and  C_20 
DOCKED: REMARK    4  A    between atoms: C_20  and  C_21 
DOCKED: REMARK    5  A    between atoms: C_21  and  N_22 
DOCKED: USER                              x       y       z     vdW  Elec       q    Type
DOCKED: USER                           _______ _______ _______ _____ _____    ______ ____
DOCKED: ROOT
DOCKED: ATOM      1  O   UNL     1     -45.712 -21.234  15.264 -0.07 -0.00    -0.346 OA 
DOCKED: ATOM      2  C   UNL     1     -46.694 -20.394  14.577 -0.13 +0.00    +0.130 C  
DOCKED: ATOM      3  C   UNL     1     -47.620 -21.381  13.927 -0.22 +0.00    +0.004 A  
DOCKED: ATOM      4  C   UNL     1     -47.265 -22.670  14.301 -0.24 +0.00    +0.006 A  
DOCKED: ATOM      5  C   UNL     1     -46.106 -22.625  15.219 -0.17 +0.00    +0.169 C  
DOCKED: ATOM      6  C   UNL     1     -48.698 -21.156  13.083 -0.27 -0.00    -0.001 A  
DOCKED: ATOM      7  C   UNL     1     -47.967 -23.772  13.843 -0.34 +0.00    +0.008 A  
DOCKED: ATOM      8  C   UNL     1     -49.413 -22.257  12.609 -0.31 +0.00    +0.010 A  
DOCKED: ATOM      9  C   UNL     1     -49.049 -23.558  12.988 -0.31 +0.00    +0.068 A  
DOCKED: ATOM     10  N   UNL     1     -50.401 -25.580  12.095 -2.55 -0.00    -0.191 NA 
DOCKED: ATOM     11  C   UNL     1     -49.795 -24.673  12.495 -0.35 +0.00    +0.101 C  
DOCKED: ENDROOT
DOCKED: BRANCH   2  12
DOCKED: ATOM     12  C   UNL     1     -47.391 -19.519  15.613 -0.06 +0.00    +0.038 C  
DOCKED: BRANCH  12  13
DOCKED: ATOM     13  C   UNL     1     -48.671 -20.176  16.126 -0.05 +0.00    +0.038 C  
DOCKED: BRANCH  13  14
DOCKED: ATOM     14  C   UNL     1     -48.369 -21.162  17.253 -0.01 +0.00    +0.251 C  
DOCKED: BRANCH  14  15
DOCKED: ATOM     15  N   UNL     1     -48.905 -22.480  16.931 -0.04 +0.00    +0.141 N  
DOCKED: ATOM     16  C   UNL     1     -48.467 -23.469  17.917 -0.06 +0.00    +0.285 C  
DOCKED: ATOM     17  C   UNL     1     -50.367 -22.439  16.867 -0.02 +0.00    +0.285 C  
DOCKED: ENDBRANCH  14  15
DOCKED: ENDBRANCH  13  14
DOCKED: ENDBRANCH  12  13
DOCKED: ENDBRANCH   2  12
DOCKED: BRANCH   2  18
DOCKED: ATOM     18  C   UNL     1     -45.944 -19.564  13.589 -0.15 +0.00    +0.006 A  
DOCKED: ATOM     19  C   UNL     1     -44.572 -19.750  13.423 -0.09 +0.00    +0.001 A  
DOCKED: ATOM     20  C   UNL     1     -43.871 -18.973  12.499 -0.10 +0.00    +0.029 A  
DOCKED: ATOM     21  C   UNL     1     -44.543 -18.013  11.744 -0.08 +0.00    +0.140 A  
DOCKED: ATOM     22  C   UNL     1     -45.915 -17.828  11.910 -0.12 +0.00    +0.029 A  
DOCKED: ATOM     23  F   UNL     1     -43.870 -17.269  10.856 -0.00 -0.00    -0.204 F  
DOCKED: ATOM     24  C   UNL     1     -46.617 -18.604  12.834 -0.15 +0.00    +0.001 A  
DOCKED: ENDBRANCH   2  18
DOCKED: TORSDOF 5
DOCKED: TER
DOCKED: ENDMDL
________________________________________________________________________________


    FINAL DOCKED STATE:
    ________________________


Run:   336 / 512
Time taken for this run:   0.002s

DOCKED: MODEL        336
DOCKED: USER    Run = 336
DOCKED: USER
DOCKED: USER    Estimated Free Energy of Binding    =  -4.11 kcal/mol  [=(1)+(2)+(3)-(4)]
DOCKED: USER
DOCKED: USER    (1) Final Intermolecular Energy     =  -5.60 kcal/mol
DOCKED: USER        vdW + Hbond + desolv Energy     =  -5.60 kcal/mol
DOCKED: USER        Electrostatic Energy            =  +0.00 kcal/mol
DOCKED: USER        Moving Ligand-Fixed Receptor    =  -5.60 kcal/mol
DOCKED: USER        Moving Ligand-Moving Receptor   =  +0.00 kcal/mol
DOCKED: USER    (2) Final Total Internal Energy     =  -1.36 kcal/mol
DOCKED: USER    (3) Torsional Free Energy           =  +1.49 kcal/mol
DOCKED: USER    (4) Unbound System's Energy         =  -1.36 kcal/mol
DOCKED: USER
DOCKED: USER
DOCKED: REMARK  5 active torsions:
DOCKED: REMARK  status: ('A' for Active; 'I' for Inactive)
DOCKED: REMARK    1  A    between atoms: C_2  and  C_19 
DOCKED: REMARK    2  A    between atoms: C_2  and  C_11 
DOCKED: REMARK    3  A    between atoms: C_19  and  C_20 
DOCKED: REMARK    4  A    between atoms: C_20  and  C_21 
DOCKED: REMARK    5  A    between atoms: C_21  and  N_22 
DOCKED: USER                              x       y       z     vdW  Elec       q    Type
DOCKED: USER                           _______ _______ _______ _____ _____    ______ ____
DOCKED: ROOT
DOCKED: ATOM      1  O   UNL     1     -39.972 -23.432   4.991 -0.00 -0.00    -0.346 OA 
DOCKED: ATOM      2  C   UNL     1     -40.445 -22.307   5.799 -0.08 +0.00    +0.130 C  
DOCKED: ATOM      3  C   UNL     1     -41.061 -22.963   7.002 -0.11 +0.00    +0.004 A  
DOCKED: ATOM      4  C   UNL     1     -40.860 -24.334   6.940 -0.14 +0.00    +0.006 A  
DOCKED: ATOM      5  C   UNL     1     -40.097 -24.676   5.719 -0.07 +0.00    +0.169 C  
DOCKED: ATOM      6  C   UNL     1     -41.735 -22.389   8.070 -0.15 -0.00    -0.001 A  
DOCKED: ATOM      7  C   UNL     1     -41.327 -25.176   7.935 -0.24 +0.00    +0.008 A  
DOCKED: ATOM      8  C   UNL     1     -42.216 -23.225   9.079 -0.26 +0.00    +0.010 A  
DOCKED: ATOM      9  C   UNL     1     -42.012 -24.612   9.012 -0.29 +0.00    +0.068 A  
DOCKED: ATOM     10  N   UNL     1     -42.912 -26.135  10.905 -2.66 -0.00    -0.191 NA 
DOCKED: ATOM     11  C   UNL     1     -42.509 -25.452  10.056 -0.40 +0.00    +0.101 C  
DOCKED: ENDROOT
DOCKED: BRANCH   2  12
DOCKED: ATOM     12  C   UNL     1     -39.250 -21.429   6.150 -0.01 +0.00    +0.038 C  
DOCKED: BRANCH  12  13
DOCKED: ATOM     13  C   UNL     1     -38.630 -21.838   7.484 -0.01 +0.00    +0.038 C  
DOCKED: BRANCH  13  14
DOCKED: ATOM     14  C   UNL     1     -37.366 -22.669   7.271 -0.00 +0.00    +0.251 C  
DOCKED: BRANCH  14  15
DOCKED: ATOM     15  N   UNL     1     -37.659 -24.088   7.434 -0.02 +0.00    +0.141 N  
DOCKED: ATOM     16  C   UNL     1     -36.532 -24.903   6.976 -0.02 +0.00    +0.285 C  
DOCKED: ATOM     17  C   UNL     1     -37.971 -24.393   8.831 -0.02 +0.00    +0.285 C  
DOCKED: ENDBRANCH  14  15
DOCKED: ENDBRANCH  13  14
DOCKED: ENDBRANCH  12  13
DOCKED: ENDBRANCH   2  12
DOCKED: BRANCH   2  18
DOCKED: ATOM     18  C   UNL     1     -41.437 -21.562   4.971 -0.12 +0.00    +0.006 A  
DOCKED: ATOM     19  C   UNL     1     -42.171 -20.519   5.535 -0.14 +0.00    +0.001 A  
DOCKED: ATOM     20  C   UNL     1     -43.099 -19.823   4.759 -0.18 +0.00    +0.029 A  
DOCKED: ATOM     21  C   UNL     1     -43.290 -20.169   3.422 -0.19 +0.00    +0.140 A  
DOCKED: ATOM     22  C   UNL     1     -42.555 -21.212   2.859 -0.19 +0.00    +0.029 A  
DOCKED: ATOM     23  F   UNL     1     -44.180 -19.499   2.677 -0.14 -0.00    -0.204 F  
DOCKED: ATOM     24  C   UNL     1     -41.627 -21.909   3.634 -0.13 +0.00    +0.001 A  
DOCKED: ENDBRANCH   2  18
DOCKED: TORSDOF 5
DOCKED: TER
DOCKED: ENDMDL
________________________________________________________________________________


    FINAL DOCKED STATE:
    ________________________


Run:   337 / 512
Time taken for this run:   0.002s

DOCKED: MODEL        337
DOCKED: USER    Run = 337
DOCKED: USER
DOCKED: USER    Estimated Free Energy of Binding    =  -4.56 kcal/mol  [=(1)+(2)+(3)-(4)]
DOCKED: USER
DOCKED: USER    (1) Final Intermolecular Energy     =  -6.05 kcal/mol
DOCKED: USER        vdW + Hbond + desolv Energy     =  -6.05 kcal/mol
DOCKED: USER        Electrostatic Energy            =  +0.00 kcal/mol
DOCKED: USER        Moving Ligand-Fixed Receptor    =  -6.05 kcal/mol
DOCKED: USER        Moving Ligand-Moving Receptor   =  +0.00 kcal/mol
DOCKED: USER    (2) Final Total Internal Energy     =  -1.45 kcal/mol
DOCKED: USER    (3) Torsional Free Energy           =  +1.49 kcal/mol
DOCKED: USER    (4) Unbound System's Energy         =  -1.45 kcal/mol
DOCKED: USER
DOCKED: USER
DOCKED: REMARK  5 active torsions:
DOCKED: REMARK  status: ('A' for Active; 'I' for Inactive)
DOCKED: REMARK    1  A    between atoms: C_2  and  C_19 
DOCKED: REMARK    2  A    between atoms: C_2  and  C_11 
DOCKED: REMARK    3  A    between atoms: C_19  and  C_20 
DOCKED: REMARK    4  A    between atoms: C_20  and  C_21 
DOCKED: REMARK    5  A    between atoms: C_21  and  N_22 
DOCKED: USER                              x       y       z     vdW  Elec       q    Type
DOCKED: USER                           _______ _______ _______ _____ _____    ______ ____
DOCKED: ROOT
DOCKED: ATOM      1  O   UNL     1     -47.744 -19.348  14.091 -0.05 -0.00    -0.346 OA 
DOCKED: ATOM      2  C   UNL     1     -49.178 -19.417  14.375 -0.13 +0.00    +0.130 C  
DOCKED: ATOM      3  C   UNL     1     -49.578 -20.777  13.880 -0.21 +0.00    +0.004 A  
DOCKED: ATOM      4  C   UNL     1     -48.453 -21.468  13.452 -0.28 +0.00    +0.006 A  
DOCKED: ATOM      5  C   UNL     1     -47.247 -20.631  13.643 -0.17 +0.00    +0.169 C  
DOCKED: ATOM      6  C   UNL     1     -50.836 -21.361  13.824 -0.21 -0.00    -0.001 A  
DOCKED: ATOM      7  C   UNL     1     -48.545 -22.755  12.952 -0.34 +0.00    +0.008 A  
DOCKED: ATOM      8  C   UNL     1     -50.945 -22.657  13.318 -0.24 +0.00    +0.010 A  
DOCKED: ATOM      9  C   UNL     1     -49.806 -23.351  12.885 -0.27 +0.00    +0.068 A  
DOCKED: ATOM     10  N   UNL     1     -50.044 -25.758  11.956 -2.53 -0.00    -0.191 NA 
DOCKED: ATOM     11  C   UNL     1     -49.937 -24.678  12.372 -0.37 +0.00    +0.101 C  
DOCKED: ENDROOT
DOCKED: BRANCH   2  12
DOCKED: ATOM     12  C   UNL     1     -49.381 -19.249  15.876 -0.04 +0.00    +0.038 C  
DOCKED: BRANCH  12  13
DOCKED: ATOM     13  C   UNL     1     -48.695 -20.366  16.660 -0.04 +0.00    +0.038 C  
DOCKED: BRANCH  13  14
DOCKED: ATOM     14  C   UNL     1     -49.718 -21.346  17.231 -0.01 +0.00    +0.251 C  
DOCKED: BRANCH  14  15
DOCKED: ATOM     15  N   UNL     1     -49.140 -22.680  17.337 -0.04 +0.00    +0.141 N  
DOCKED: ATOM     16  C   UNL     1     -50.049 -23.682  16.778 -0.06 +0.00    +0.285 C  
DOCKED: ATOM     17  C   UNL     1     -47.844 -22.735  16.659 -0.06 +0.00    +0.285 C  
DOCKED: ENDBRANCH  14  15
DOCKED: ENDBRANCH  13  14
DOCKED: ENDBRANCH  12  13
DOCKED: ENDBRANCH   2  12
DOCKED: BRANCH   2  18
DOCKED: ATOM     18  C   UNL     1     -49.828 -18.308  13.617 -0.19 +0.00    +0.006 A  
DOCKED: ATOM     19  C   UNL     1     -49.048 -17.426  12.869 -0.15 +0.00    +0.001 A  
DOCKED: ATOM     20  C   UNL     1     -49.657 -16.389  12.161 -0.16 +0.00    +0.029 A  
DOCKED: ATOM     21  C   UNL     1     -51.042 -16.236  12.200 -0.09 +0.00    +0.140 A  
DOCKED: ATOM     22  C   UNL     1     -51.820 -17.119  12.948 -0.17 +0.00    +0.029 A  
DOCKED: ATOM     23  F   UNL     1     -51.626 -15.242  11.518 -0.03 -0.00    -0.204 F  
DOCKED: ATOM     24  C   UNL     1     -51.213 -18.156  13.658 -0.21 +0.00    +0.001 A  
DOCKED: ENDBRANCH   2  18
DOCKED: TORSDOF 5
DOCKED: TER
DOCKED: ENDMDL
________________________________________________________________________________


    FINAL DOCKED STATE:
    ________________________


Run:   338 / 512
Time taken for this run:   0.002s

DOCKED: MODEL        338
DOCKED: USER    Run = 338
DOCKED: USER
DOCKED: USER    Estimated Free Energy of Binding    =  -5.05 kcal/mol  [=(1)+(2)+(3)-(4)]
DOCKED: USER
DOCKED: USER    (1) Final Intermolecular Energy     =  -6.54 kcal/mol
DOCKED: USER        vdW + Hbond + desolv Energy     =  -6.54 kcal/mol
DOCKED: USER        Electrostatic Energy            =  +0.00 kcal/mol
DOCKED: USER        Moving Ligand-Fixed Receptor    =  -6.54 kcal/mol
DOCKED: USER        Moving Ligand-Moving Receptor   =  +0.00 kcal/mol
DOCKED: USER    (2) Final Total Internal Energy     =  -1.31 kcal/mol
DOCKED: USER    (3) Torsional Free Energy           =  +1.49 kcal/mol
DOCKED: USER    (4) Unbound System's Energy         =  -1.31 kcal/mol
DOCKED: USER
DOCKED: USER
DOCKED: REMARK  5 active torsions:
DOCKED: REMARK  status: ('A' for Active; 'I' for Inactive)
DOCKED: REMARK    1  A    between atoms: C_2  and  C_19 
DOCKED: REMARK    2  A    between atoms: C_2  and  C_11 
DOCKED: REMARK    3  A    between atoms: C_19  and  C_20 
DOCKED: REMARK    4  A    between atoms: C_20  and  C_21 
DOCKED: REMARK    5  A    between atoms: C_21  and  N_22 
DOCKED: USER                              x       y       z     vdW  Elec       q    Type
DOCKED: USER                           _______ _______ _______ _____ _____    ______ ____
DOCKED: ROOT
DOCKED: ATOM      1  O   UNL     1     -47.569 -24.430  15.442 -0.08 -0.00    -0.346 OA 
DOCKED: ATOM      2  C   UNL     1     -47.770 -23.027  15.080 -0.20 +0.00    +0.130 C  
DOCKED: ATOM      3  C   UNL     1     -48.346 -23.091  13.695 -0.31 +0.00    +0.004 A  
DOCKED: ATOM      4  C   UNL     1     -48.558 -24.416  13.339 -0.38 +0.00    +0.006 A  
DOCKED: ATOM      5  C   UNL     1     -48.156 -25.306  14.451 -0.07 +0.00    +0.169 C  
DOCKED: ATOM      6  C   UNL     1     -48.666 -22.060  12.824 -0.32 -0.00    -0.001 A  
DOCKED: ATOM      7  C   UNL     1     -49.091 -24.754  12.106 -0.46 +0.00    +0.008 A  
DOCKED: ATOM      8  C   UNL     1     -49.200 -22.386  11.575 -0.15 +0.00    +0.010 A  
DOCKED: ATOM      9  C   UNL     1     -49.411 -23.726  11.219 -0.40 +0.00    +0.068 A  
DOCKED: ATOM     10  N   UNL     1     -50.408 -24.295   8.896 -2.33 -0.00    -0.191 NA 
DOCKED: ATOM     11  C   UNL     1     -49.961 -24.040   9.938 -0.51 +0.00    +0.101 C  
DOCKED: ENDROOT
DOCKED: BRANCH   2  12
DOCKED: ATOM     12  C   UNL     1     -48.724 -22.400  16.090 -0.11 +0.00    +0.038 C  
DOCKED: BRANCH  12  13
DOCKED: ATOM     13  C   UNL     1     -49.256 -23.441  17.073 -0.13 +0.00    +0.038 C  
DOCKED: BRANCH  13  14
DOCKED: ATOM     14  C   UNL     1     -48.367 -23.531  18.312 -0.07 +0.00    +0.251 C  
DOCKED: BRANCH  14  15
DOCKED: ATOM     15  N   UNL     1     -47.712 -24.833  18.371 -0.19 +0.00    +0.141 N  
DOCKED: ATOM     16  C   UNL     1     -46.264 -24.675  18.517 +0.03 +0.00    +0.285 C  
DOCKED: ATOM     17  C   UNL     1     -48.249 -25.630  19.475 -0.15 +0.00    +0.285 C  
DOCKED: ENDBRANCH  14  15
DOCKED: ENDBRANCH  13  14
DOCKED: ENDBRANCH  12  13
DOCKED: ENDBRANCH   2  12
DOCKED: BRANCH   2  18
DOCKED: ATOM     18  C   UNL     1     -46.432 -22.368  15.123 -0.20 +0.00    +0.006 A  
DOCKED: ATOM     19  C   UNL     1     -46.238 -21.142  14.489 -0.12 +0.00    +0.001 A  
DOCKED: ATOM     20  C   UNL     1     -44.985 -20.527  14.530 -0.10 +0.00    +0.029 A  
DOCKED: ATOM     21  C   UNL     1     -43.930 -21.140  15.205 -0.09 +0.00    +0.140 A  
DOCKED: ATOM     22  C   UNL     1     -44.125 -22.366  15.839 -0.14 +0.00    +0.029 A  
DOCKED: ATOM     23  F   UNL     1     -42.729 -20.549  15.246 -0.01 -0.00    -0.204 F  
DOCKED: ATOM     24  C   UNL     1     -45.377 -22.982  15.798 -0.07 +0.00    +0.001 A  
DOCKED: ENDBRANCH   2  18
DOCKED: TORSDOF 5
DOCKED: TER
DOCKED: ENDMDL
________________________________________________________________________________


    FINAL DOCKED STATE:
    ________________________


Run:   339 / 512
Time taken for this run:   0.002s

DOCKED: MODEL        339
DOCKED: USER    Run = 339
DOCKED: USER
DOCKED: USER    Estimated Free Energy of Binding    =  -5.36 kcal/mol  [=(1)+(2)+(3)-(4)]
DOCKED: USER
DOCKED: USER    (1) Final Intermolecular Energy     =  -6.85 kcal/mol
DOCKED: USER        vdW + Hbond + desolv Energy     =  -6.85 kcal/mol
DOCKED: USER        Electrostatic Energy            =  +0.00 kcal/mol
DOCKED: USER        Moving Ligand-Fixed Receptor    =  -6.85 kcal/mol
DOCKED: USER        Moving Ligand-Moving Receptor   =  +0.00 kcal/mol
DOCKED: USER    (2) Final Total Internal Energy     =  -0.81 kcal/mol
DOCKED: USER    (3) Torsional Free Energy           =  +1.49 kcal/mol
DOCKED: USER    (4) Unbound System's Energy         =  -0.81 kcal/mol
DOCKED: USER
DOCKED: USER
DOCKED: REMARK  5 active torsions:
DOCKED: REMARK  status: ('A' for Active; 'I' for Inactive)
DOCKED: REMARK    1  A    between atoms: C_2  and  C_19 
DOCKED: REMARK    2  A    between atoms: C_2  and  C_11 
DOCKED: REMARK    3  A    between atoms: C_19  and  C_20 
DOCKED: REMARK    4  A    between atoms: C_20  and  C_21 
DOCKED: REMARK    5  A    between atoms: C_21  and  N_22 
DOCKED: USER                              x       y       z     vdW  Elec       q    Type
DOCKED: USER                           _______ _______ _______ _____ _____    ______ ____
DOCKED: ROOT
DOCKED: ATOM      1  O   UNL     1     -51.507 -23.039  14.892 -0.01 -0.00    -0.346 OA 
DOCKED: ATOM      2  C   UNL     1     -50.340 -22.274  14.448 -0.13 +0.00    +0.130 C  
DOCKED: ATOM      3  C   UNL     1     -50.184 -22.662  13.006 -0.28 +0.00    +0.004 A  
DOCKED: ATOM      4  C   UNL     1     -51.233 -23.488  12.628 -0.30 +0.00    +0.006 A  
DOCKED: ATOM      5  C   UNL     1     -52.150 -23.691  13.772 -0.17 +0.00    +0.169 C  
DOCKED: ATOM      6  C   UNL     1     -49.199 -22.303  12.098 -0.30 -0.00    -0.001 A  
DOCKED: ATOM      7  C   UNL     1     -51.331 -23.984  11.340 -0.32 +0.00    +0.008 A  
DOCKED: ATOM      8  C   UNL     1     -49.281 -22.799  10.796 -0.19 +0.00    +0.010 A  
DOCKED: ATOM      9  C   UNL     1     -50.342 -23.635  10.419 -0.33 +0.00    +0.068 A  
DOCKED: ATOM     10  N   UNL     1     -50.468 -24.534   7.992 -2.81 -0.00    -0.191 NA 
DOCKED: ATOM     11  C   UNL     1     -50.411 -24.131   9.081 -0.28 +0.00    +0.101 C  
DOCKED: ENDROOT
DOCKED: BRANCH   2  12
DOCKED: ATOM     12  C   UNL     1     -50.636 -20.791  14.635 -0.16 +0.00    +0.038 C  
DOCKED: BRANCH  12  13
DOCKED: ATOM     13  C   UNL     1     -49.790 -19.932  13.697 -0.23 +0.00    +0.038 C  
DOCKED: BRANCH  13  14
DOCKED: ATOM     14  C   UNL     1     -50.501 -18.622  13.362 -0.17 +0.00    +0.251 C  
DOCKED: BRANCH  14  15
DOCKED: ATOM     15  N   UNL     1     -49.615 -17.489  13.602 -0.12 +0.00    +0.141 N  
DOCKED: ATOM     16  C   UNL     1     -48.252 -17.948  13.874 -0.08 +0.00    +0.285 C  
DOCKED: ATOM     17  C   UNL     1     -49.624 -16.575  12.458 -0.12 +0.00    +0.285 C  
DOCKED: ENDBRANCH  14  15
DOCKED: ENDBRANCH  13  14
DOCKED: ENDBRANCH  12  13
DOCKED: ENDBRANCH   2  12
DOCKED: BRANCH   2  18
DOCKED: ATOM     18  C   UNL     1     -49.189 -22.705  15.294 -0.13 +0.00    +0.006 A  
DOCKED: ATOM     19  C   UNL     1     -47.902 -22.258  14.999 -0.18 +0.00    +0.001 A  
DOCKED: ATOM     20  C   UNL     1     -46.826 -22.661  15.791 -0.16 +0.00    +0.029 A  
DOCKED: ATOM     21  C   UNL     1     -47.039 -23.511  16.875 -0.06 +0.00    +0.140 A  
DOCKED: ATOM     22  C   UNL     1     -48.326 -23.957  17.170 -0.17 +0.00    +0.029 A  
DOCKED: ATOM     23  F   UNL     1     -46.006 -23.897  17.636 +0.00 -0.00    -0.204 F  
DOCKED: ATOM     24  C   UNL     1     -49.403 -23.555  16.379 -0.14 +0.00    +0.001 A  
DOCKED: ENDBRANCH   2  18
DOCKED: TORSDOF 5
DOCKED: TER
DOCKED: ENDMDL
________________________________________________________________________________


    FINAL DOCKED STATE:
    ________________________


Run:   340 / 512
Time taken for this run:   0.002s

DOCKED: MODEL        340
DOCKED: USER    Run = 340
DOCKED: USER
DOCKED: USER    Estimated Free Energy of Binding    =  -4.73 kcal/mol  [=(1)+(2)+(3)-(4)]
DOCKED: USER
DOCKED: USER    (1) Final Intermolecular Energy     =  -6.22 kcal/mol
DOCKED: USER        vdW + Hbond + desolv Energy     =  -6.22 kcal/mol
DOCKED: USER        Electrostatic Energy            =  +0.00 kcal/mol
DOCKED: USER        Moving Ligand-Fixed Receptor    =  -6.22 kcal/mol
DOCKED: USER        Moving Ligand-Moving Receptor   =  +0.00 kcal/mol
DOCKED: USER    (2) Final Total Internal Energy     =  -1.05 kcal/mol
DOCKED: USER    (3) Torsional Free Energy           =  +1.49 kcal/mol
DOCKED: USER    (4) Unbound System's Energy         =  -1.05 kcal/mol
DOCKED: USER
DOCKED: USER
DOCKED: REMARK  5 active torsions:
DOCKED: REMARK  status: ('A' for Active; 'I' for Inactive)
DOCKED: REMARK    1  A    between atoms: C_2  and  C_19 
DOCKED: REMARK    2  A    between atoms: C_2  and  C_11 
DOCKED: REMARK    3  A    between atoms: C_19  and  C_20 
DOCKED: REMARK    4  A    between atoms: C_20  and  C_21 
DOCKED: REMARK    5  A    between atoms: C_21  and  N_22 
DOCKED: USER                              x       y       z     vdW  Elec       q    Type
DOCKED: USER                           _______ _______ _______ _____ _____    ______ ____
DOCKED: ROOT
DOCKED: ATOM      1  O   UNL     1     -43.305 -15.243   6.586 -0.02 -0.00    -0.346 OA 
DOCKED: ATOM      2  C   UNL     1     -44.698 -15.383   7.013 -0.15 +0.00    +0.130 C  
DOCKED: ATOM      3  C   UNL     1     -45.477 -14.695   5.930 -0.25 +0.00    +0.004 A  
DOCKED: ATOM      4  C   UNL     1     -44.617 -14.296   4.917 -0.22 +0.00    +0.006 A  
DOCKED: ATOM      5  C   UNL     1     -43.231 -14.696   5.249 -0.08 +0.00    +0.169 C  
DOCKED: ATOM      6  C   UNL     1     -46.840 -14.453   5.842 -0.24 -0.00    -0.001 A  
DOCKED: ATOM      7  C   UNL     1     -45.084 -13.640   3.791 -0.27 +0.00    +0.008 A  
DOCKED: ATOM      8  C   UNL     1     -47.327 -13.790   4.714 -0.33 +0.00    +0.010 A  
DOCKED: ATOM      9  C   UNL     1     -46.453 -13.386   3.694 -0.31 +0.00    +0.068 A  
DOCKED: ATOM     10  N   UNL     1     -47.390 -12.161   1.612 -2.44 -0.00    -0.191 NA 
DOCKED: ATOM     11  C   UNL     1     -46.969 -12.710   2.546 -0.37 +0.00    +0.101 C  
DOCKED: ENDROOT
DOCKED: BRANCH   2  12
DOCKED: ATOM     12  C   UNL     1     -45.021 -16.868   7.126 -0.17 +0.00    +0.038 C  
DOCKED: BRANCH  12  13
DOCKED: ATOM     13  C   UNL     1     -43.754 -17.719   7.085 -0.10 +0.00    +0.038 C  
DOCKED: BRANCH  13  14
DOCKED: ATOM     14  C   UNL     1     -43.185 -17.926   8.488 -0.03 +0.00    +0.251 C  
DOCKED: BRANCH  14  15
DOCKED: ATOM     15  N   UNL     1     -44.108 -18.712   9.298 -0.09 +0.00    +0.141 N  
DOCKED: ATOM     16  C   UNL     1     -45.044 -17.839  10.007 -0.08 +0.00    +0.285 C  
DOCKED: ATOM     17  C   UNL     1     -44.837 -19.670   8.465 -0.20 +0.00    +0.285 C  
DOCKED: ENDBRANCH  14  15
DOCKED: ENDBRANCH  13  14
DOCKED: ENDBRANCH  12  13
DOCKED: ENDBRANCH   2  12
DOCKED: BRANCH   2  18
DOCKED: ATOM     18  C   UNL     1     -44.818 -14.703   8.337 -0.17 +0.00    +0.006 A  
DOCKED: ATOM     19  C   UNL     1     -46.075 -14.361   8.832 -0.21 +0.00    +0.001 A  
DOCKED: ATOM     20  C   UNL     1     -46.186 -13.726  10.070 -0.19 +0.00    +0.029 A  
DOCKED: ATOM     21  C   UNL     1     -45.040 -13.434  10.809 -0.07 +0.00    +0.140 A  
DOCKED: ATOM     22  C   UNL     1     -43.783 -13.777  10.312 -0.05 +0.00    +0.029 A  
DOCKED: ATOM     23  F   UNL     1     -45.147 -12.826  11.997 -0.04 -0.00    -0.204 F  
DOCKED: ATOM     24  C   UNL     1     -43.671 -14.412   9.075 -0.12 +0.00    +0.001 A  
DOCKED: ENDBRANCH   2  18
DOCKED: TORSDOF 5
DOCKED: TER
DOCKED: ENDMDL
________________________________________________________________________________


    FINAL DOCKED STATE:
    ________________________


Run:   341 / 512
Time taken for this run:   0.002s

DOCKED: MODEL        341
DOCKED: USER    Run = 341
DOCKED: USER
DOCKED: USER    Estimated Free Energy of Binding    =  -4.20 kcal/mol  [=(1)+(2)+(3)-(4)]
DOCKED: USER
DOCKED: USER    (1) Final Intermolecular Energy     =  -5.69 kcal/mol
DOCKED: USER        vdW + Hbond + desolv Energy     =  -5.69 kcal/mol
DOCKED: USER        Electrostatic Energy            =  +0.00 kcal/mol
DOCKED: USER        Moving Ligand-Fixed Receptor    =  -5.69 kcal/mol
DOCKED: USER        Moving Ligand-Moving Receptor   =  +0.00 kcal/mol
DOCKED: USER    (2) Final Total Internal Energy     =  -1.44 kcal/mol
DOCKED: USER    (3) Torsional Free Energy           =  +1.49 kcal/mol
DOCKED: USER    (4) Unbound System's Energy         =  -1.44 kcal/mol
DOCKED: USER
DOCKED: USER
DOCKED: REMARK  5 active torsions:
DOCKED: REMARK  status: ('A' for Active; 'I' for Inactive)
DOCKED: REMARK    1  A    between atoms: C_2  and  C_19 
DOCKED: REMARK    2  A    between atoms: C_2  and  C_11 
DOCKED: REMARK    3  A    between atoms: C_19  and  C_20 
DOCKED: REMARK    4  A    between atoms: C_20  and  C_21 
DOCKED: REMARK    5  A    between atoms: C_21  and  N_22 
DOCKED: USER                              x       y       z     vdW  Elec       q    Type
DOCKED: USER                           _______ _______ _______ _____ _____    ______ ____
DOCKED: ROOT
DOCKED: ATOM      1  O   UNL     1     -45.409 -15.721   7.380 -0.06 -0.00    -0.346 OA 
DOCKED: ATOM      2  C   UNL     1     -44.197 -15.187   6.758 -0.13 +0.00    +0.130 C  
DOCKED: ATOM      3  C   UNL     1     -44.704 -14.465   5.543 -0.21 +0.00    +0.004 A  
DOCKED: ATOM      4  C   UNL     1     -46.092 -14.489   5.532 -0.30 +0.00    +0.006 A  
DOCKED: ATOM      5  C   UNL     1     -46.592 -15.206   6.726 -0.25 +0.00    +0.169 C  
DOCKED: ATOM      6  C   UNL     1     -43.995 -13.828   4.535 -0.17 -0.00    -0.001 A  
DOCKED: ATOM      7  C   UNL     1     -46.815 -13.885   4.517 -0.31 +0.00    +0.008 A  
DOCKED: ATOM      8  C   UNL     1     -44.710 -13.218   3.502 -0.25 +0.00    +0.010 A  
DOCKED: ATOM      9  C   UNL     1     -46.112 -13.246   3.494 -0.32 +0.00    +0.068 A  
DOCKED: ATOM     10  N   UNL     1     -47.408 -12.100   1.565 -2.47 -0.00    -0.191 NA 
DOCKED: ATOM     11  C   UNL     1     -46.827 -12.615   2.430 -0.41 +0.00    +0.101 C  
DOCKED: ENDROOT
DOCKED: BRANCH   2  12
DOCKED: ATOM     12  C   UNL     1     -43.510 -14.261   7.754 -0.15 +0.00    +0.038 C  
DOCKED: BRANCH  12  13
DOCKED: ATOM     13  C   UNL     1     -44.020 -14.495   9.175 -0.14 +0.00    +0.038 C  
DOCKED: BRANCH  13  14
DOCKED: ATOM     14  C   UNL     1     -42.986 -15.243  10.014 -0.05 +0.00    +0.251 C  
DOCKED: BRANCH  14  15
DOCKED: ATOM     15  N   UNL     1     -43.622 -16.327  10.754 -0.02 +0.00    +0.141 N  
DOCKED: ATOM     16  C   UNL     1     -45.049 -16.059  10.936 -0.04 +0.00    +0.285 C  
DOCKED: ATOM     17  C   UNL     1     -43.429 -17.604  10.066 -0.03 +0.00    +0.285 C  
DOCKED: ENDBRANCH  14  15
DOCKED: ENDBRANCH  13  14
DOCKED: ENDBRANCH  12  13
DOCKED: ENDBRANCH   2  12
DOCKED: BRANCH   2  18
DOCKED: ATOM     18  C   UNL     1     -43.329 -16.354   6.420 -0.06 +0.00    +0.006 A  
DOCKED: ATOM     19  C   UNL     1     -41.960 -16.300   6.674 -0.02 +0.00    +0.001 A  
DOCKED: ATOM     20  C   UNL     1     -41.150 -17.391   6.358 -0.01 +0.00    +0.029 A  
DOCKED: ATOM     21  C   UNL     1     -41.710 -18.534   5.790 -0.02 +0.00    +0.140 A  
DOCKED: ATOM     22  C   UNL     1     -43.081 -18.587   5.536 -0.13 +0.00    +0.029 A  
DOCKED: ATOM     23  F   UNL     1     -40.933 -19.583   5.488 -0.00 -0.00    -0.204 F  
DOCKED: ATOM     24  C   UNL     1     -43.892 -17.496   5.852 -0.14 +0.00    +0.001 A  
DOCKED: ENDBRANCH   2  18
DOCKED: TORSDOF 5
DOCKED: TER
DOCKED: ENDMDL
________________________________________________________________________________


    FINAL DOCKED STATE:
    ________________________


Run:   342 / 512
Time taken for this run:   0.002s

DOCKED: MODEL        342
DOCKED: USER    Run = 342
DOCKED: USER
DOCKED: USER    Estimated Free Energy of Binding    =  -6.37 kcal/mol  [=(1)+(2)+(3)-(4)]
DOCKED: USER
DOCKED: USER    (1) Final Intermolecular Energy     =  -7.86 kcal/mol
DOCKED: USER        vdW + Hbond + desolv Energy     =  -7.86 kcal/mol
DOCKED: USER        Electrostatic Energy            =  +0.00 kcal/mol
DOCKED: USER        Moving Ligand-Fixed Receptor    =  -7.86 kcal/mol
DOCKED: USER        Moving Ligand-Moving Receptor   =  +0.00 kcal/mol
DOCKED: USER    (2) Final Total Internal Energy     =  -0.91 kcal/mol
DOCKED: USER    (3) Torsional Free Energy           =  +1.49 kcal/mol
DOCKED: USER    (4) Unbound System's Energy         =  -0.91 kcal/mol
DOCKED: USER
DOCKED: USER
DOCKED: REMARK  5 active torsions:
DOCKED: REMARK  status: ('A' for Active; 'I' for Inactive)
DOCKED: REMARK    1  A    between atoms: C_2  and  C_19 
DOCKED: REMARK    2  A    between atoms: C_2  and  C_11 
DOCKED: REMARK    3  A    between atoms: C_19  and  C_20 
DOCKED: REMARK    4  A    between atoms: C_20  and  C_21 
DOCKED: REMARK    5  A    between atoms: C_21  and  N_22 
DOCKED: USER                              x       y       z     vdW  Elec       q    Type
DOCKED: USER                           _______ _______ _______ _____ _____    ______ ____
DOCKED: ROOT
DOCKED: ATOM      1  O   UNL     1     -47.154 -24.993  14.417 -0.21 -0.00    -0.346 OA 
DOCKED: ATOM      2  C   UNL     1     -47.884 -23.726  14.479 -0.28 +0.00    +0.130 C  
DOCKED: ATOM      3  C   UNL     1     -48.585 -23.651  13.154 -0.36 +0.00    +0.004 A  
DOCKED: ATOM      4  C   UNL     1     -48.365 -24.821  12.441 -0.39 +0.00    +0.006 A  
DOCKED: ATOM      5  C   UNL     1     -47.526 -25.744  13.239 -0.17 +0.00    +0.169 C  
DOCKED: ATOM      6  C   UNL     1     -49.365 -22.632  12.626 -0.35 -0.00    -0.001 A  
DOCKED: ATOM      7  C   UNL     1     -48.909 -25.012  11.183 -0.39 +0.00    +0.008 A  
DOCKED: ATOM      8  C   UNL     1     -49.917 -22.807  11.355 -0.03 +0.00    +0.010 A  
DOCKED: ATOM      9  C   UNL     1     -49.690 -23.992  10.638 -0.45 +0.00    +0.068 A  
DOCKED: ATOM     10  N   UNL     1     -50.734 -24.287   8.285 -3.08 -0.00    -0.191 NA 
DOCKED: ATOM     11  C   UNL     1     -50.265 -24.154   9.340 -0.30 +0.00    +0.101 C  
DOCKED: ENDROOT
DOCKED: BRANCH   2  12
DOCKED: ATOM     12  C   UNL     1     -48.849 -23.783  15.658 -0.22 +0.00    +0.038 C  
DOCKED: BRANCH  12  13
DOCKED: ATOM     13  C   UNL     1     -48.176 -24.363  16.901 -0.23 +0.00    +0.038 C  
DOCKED: BRANCH  13  14
DOCKED: ATOM     14  C   UNL     1     -49.187 -24.569  18.027 -0.12 +0.00    +0.251 C  
DOCKED: BRANCH  14  15
DOCKED: ATOM     15  N   UNL     1     -48.507 -24.982  19.249 -0.14 +0.00    +0.141 N  
DOCKED: ATOM     16  C   UNL     1     -49.420 -25.722  20.122 -0.12 +0.00    +0.285 C  
DOCKED: ATOM     17  C   UNL     1     -47.332 -25.797  18.936 -0.06 +0.00    +0.285 C  
DOCKED: ENDBRANCH  14  15
DOCKED: ENDBRANCH  13  14
DOCKED: ENDBRANCH  12  13
DOCKED: ENDBRANCH   2  12
DOCKED: BRANCH   2  18
DOCKED: ATOM     18  C   UNL     1     -46.871 -22.647  14.664 -0.23 +0.00    +0.006 A  
DOCKED: ATOM     19  C   UNL     1     -47.178 -21.334  14.306 -0.19 +0.00    +0.001 A  
DOCKED: ATOM     20  C   UNL     1     -46.229 -20.326  14.479 -0.13 +0.00    +0.029 A  
DOCKED: ATOM     21  C   UNL     1     -44.976 -20.631  15.009 -0.09 +0.00    +0.140 A  
DOCKED: ATOM     22  C   UNL     1     -44.670 -21.943  15.366 -0.15 +0.00    +0.029 A  
DOCKED: ATOM     23  F   UNL     1     -44.066 -19.662  15.176 -0.01 -0.00    -0.204 F  
DOCKED: ATOM     24  C   UNL     1     -45.618 -22.953  15.193 -0.15 +0.00    +0.001 A  
DOCKED: ENDBRANCH   2  18
DOCKED: TORSDOF 5
DOCKED: TER
DOCKED: ENDMDL
________________________________________________________________________________


    FINAL DOCKED STATE:
    ________________________


Run:   343 / 512
Time taken for this run:   0.002s

DOCKED: MODEL        343
DOCKED: USER    Run = 343
DOCKED: USER
DOCKED: USER    Estimated Free Energy of Binding    =  -3.28 kcal/mol  [=(1)+(2)+(3)-(4)]
DOCKED: USER
DOCKED: USER    (1) Final Intermolecular Energy     =  -4.77 kcal/mol
DOCKED: USER        vdW + Hbond + desolv Energy     =  -4.77 kcal/mol
DOCKED: USER        Electrostatic Energy            =  +0.00 kcal/mol
DOCKED: USER        Moving Ligand-Fixed Receptor    =  -4.77 kcal/mol
DOCKED: USER        Moving Ligand-Moving Receptor   =  +0.00 kcal/mol
DOCKED: USER    (2) Final Total Internal Energy     =  -1.31 kcal/mol
DOCKED: USER    (3) Torsional Free Energy           =  +1.49 kcal/mol
DOCKED: USER    (4) Unbound System's Energy         =  -1.31 kcal/mol
DOCKED: USER
DOCKED: USER
DOCKED: REMARK  5 active torsions:
DOCKED: REMARK  status: ('A' for Active; 'I' for Inactive)
DOCKED: REMARK    1  A    between atoms: C_2  and  C_19 
DOCKED: REMARK    2  A    between atoms: C_2  and  C_11 
DOCKED: REMARK    3  A    between atoms: C_19  and  C_20 
DOCKED: REMARK    4  A    between atoms: C_20  and  C_21 
DOCKED: REMARK    5  A    between atoms: C_21  and  N_22 
DOCKED: USER                              x       y       z     vdW  Elec       q    Type
DOCKED: USER                           _______ _______ _______ _____ _____    ______ ____
DOCKED: ROOT
DOCKED: ATOM      1  O   UNL     1     -44.885 -11.134   3.075 -0.75 -0.00    -0.346 OA 
DOCKED: ATOM      2  C   UNL     1     -43.728 -11.331   3.950 -0.19 +0.00    +0.130 C  
DOCKED: ATOM      3  C   UNL     1     -44.042 -12.605   4.680 -0.17 +0.00    +0.004 A  
DOCKED: ATOM      4  C   UNL     1     -45.221 -13.147   4.188 -0.29 +0.00    +0.006 A  
DOCKED: ATOM      5  C   UNL     1     -45.754 -12.291   3.105 -0.36 +0.00    +0.169 C  
DOCKED: ATOM      6  C   UNL     1     -43.335 -13.238   5.692 -0.14 -0.00    -0.001 A  
DOCKED: ATOM      7  C   UNL     1     -45.733 -14.332   4.689 -0.30 +0.00    +0.008 A  
DOCKED: ATOM      8  C   UNL     1     -43.841 -14.432   6.210 -0.15 +0.00    +0.010 A  
DOCKED: ATOM      9  C   UNL     1     -45.034 -14.975   5.711 -0.21 +0.00    +0.068 A  
DOCKED: ATOM     10  N   UNL     1     -45.943 -17.195   6.692 -0.07 -0.00    -0.191 NA 
DOCKED: ATOM     11  C   UNL     1     -45.536 -16.199   6.252 -0.22 +0.00    +0.101 C  
DOCKED: ENDROOT
DOCKED: BRANCH   2  12
DOCKED: ATOM     12  C   UNL     1     -42.480 -11.437   3.082 -0.15 +0.00    +0.038 C  
DOCKED: BRANCH  12  13
DOCKED: ATOM     13  C   UNL     1     -42.303 -12.851   2.532 -0.08 +0.00    +0.038 C  
DOCKED: BRANCH  13  14
DOCKED: ATOM     14  C   UNL     1     -42.192 -12.837   1.008 -0.03 +0.00    +0.251 C  
DOCKED: BRANCH  14  15
DOCKED: ATOM     15  N   UNL     1     -43.336 -12.149   0.422 -0.14 +0.00    +0.141 N  
DOCKED: ATOM     16  C   UNL     1     -42.947 -11.452  -0.805 -0.07 +0.00    +0.285 C  
DOCKED: ATOM     17  C   UNL     1     -44.420 -13.093   0.148 -0.16 +0.00    +0.285 C  
DOCKED: ENDBRANCH  14  15
DOCKED: ENDBRANCH  13  14
DOCKED: ENDBRANCH  12  13
DOCKED: ENDBRANCH   2  12
DOCKED: BRANCH   2  18
DOCKED: ATOM     18  C   UNL     1     -43.658 -10.145   4.853 -0.26 +0.00    +0.006 A  
DOCKED: ATOM     19  C   UNL     1     -42.468  -9.844   5.515 -0.19 +0.00    +0.001 A  
DOCKED: ATOM     20  C   UNL     1     -42.403  -8.734   6.359 -0.15 +0.00    +0.029 A  
DOCKED: ATOM     21  C   UNL     1     -43.527  -7.929   6.540 -0.17 +0.00    +0.140 A  
DOCKED: ATOM     22  C   UNL     1     -44.716  -8.231   5.877 -0.33 +0.00    +0.029 A  
DOCKED: ATOM     23  F   UNL     1     -43.464  -6.863   7.349 -0.02 -0.00    -0.204 F  
DOCKED: ATOM     24  C   UNL     1     -44.782  -9.341   5.032 -0.18 +0.00    +0.001 A  
DOCKED: ENDBRANCH   2  18
DOCKED: TORSDOF 5
DOCKED: TER
DOCKED: ENDMDL
________________________________________________________________________________


    FINAL DOCKED STATE:
    ________________________


Run:   344 / 512
Time taken for this run:   0.002s

DOCKED: MODEL        344
DOCKED: USER    Run = 344
DOCKED: USER
DOCKED: USER    Estimated Free Energy of Binding    =  -3.81 kcal/mol  [=(1)+(2)+(3)-(4)]
DOCKED: USER
DOCKED: USER    (1) Final Intermolecular Energy     =  -5.30 kcal/mol
DOCKED: USER        vdW + Hbond + desolv Energy     =  -5.30 kcal/mol
DOCKED: USER        Electrostatic Energy            =  +0.00 kcal/mol
DOCKED: USER        Moving Ligand-Fixed Receptor    =  -5.30 kcal/mol
DOCKED: USER        Moving Ligand-Moving Receptor   =  +0.00 kcal/mol
DOCKED: USER    (2) Final Total Internal Energy     =  -1.24 kcal/mol
DOCKED: USER    (3) Torsional Free Energy           =  +1.49 kcal/mol
DOCKED: USER    (4) Unbound System's Energy         =  -1.24 kcal/mol
DOCKED: USER
DOCKED: USER
DOCKED: REMARK  5 active torsions:
DOCKED: REMARK  status: ('A' for Active; 'I' for Inactive)
DOCKED: REMARK    1  A    between atoms: C_2  and  C_19 
DOCKED: REMARK    2  A    between atoms: C_2  and  C_11 
DOCKED: REMARK    3  A    between atoms: C_19  and  C_20 
DOCKED: REMARK    4  A    between atoms: C_20  and  C_21 
DOCKED: REMARK    5  A    between atoms: C_21  and  N_22 
DOCKED: USER                              x       y       z     vdW  Elec       q    Type
DOCKED: USER                           _______ _______ _______ _____ _____    ______ ____
DOCKED: ROOT
DOCKED: ATOM      1  O   UNL     1     -41.646 -10.584   4.785 -0.02 -0.00    -0.346 OA 
DOCKED: ATOM      2  C   UNL     1     -41.404 -10.921   3.382 -0.07 +0.00    +0.130 C  
DOCKED: ATOM      3  C   UNL     1     -42.749 -11.356   2.878 -0.15 +0.00    +0.004 A  
DOCKED: ATOM      4  C   UNL     1     -43.700 -11.179   3.874 -0.19 +0.00    +0.006 A  
DOCKED: ATOM      5  C   UNL     1     -43.062 -10.611   5.082 -0.19 +0.00    +0.169 C  
DOCKED: ATOM      6  C   UNL     1     -43.106 -11.858   1.635 -0.18 -0.00    -0.001 A  
DOCKED: ATOM      7  C   UNL     1     -45.031 -11.499   3.665 -0.32 +0.00    +0.008 A  
DOCKED: ATOM      8  C   UNL     1     -44.443 -12.189   1.410 -0.29 +0.00    +0.010 A  
DOCKED: ATOM      9  C   UNL     1     -45.400 -12.010   2.420 -0.35 +0.00    +0.068 A  
DOCKED: ATOM     10  N   UNL     1     -47.875 -12.631   1.967 -2.50 -0.00    -0.191 NA 
DOCKED: ATOM     11  C   UNL     1     -46.765 -12.353   2.171 -0.39 +0.00    +0.101 C  
DOCKED: ENDROOT
DOCKED: BRANCH   2  12
DOCKED: ATOM     12  C   UNL     1     -40.878  -9.679   2.672 -0.10 +0.00    +0.038 C  
DOCKED: BRANCH  12  13
DOCKED: ATOM     13  C   UNL     1     -41.088  -8.424   3.516 -0.12 +0.00    +0.038 C  
DOCKED: BRANCH  13  14
DOCKED: ATOM     14  C   UNL     1     -42.536  -7.944   3.438 -0.09 +0.00    +0.251 C  
DOCKED: BRANCH  14  15
DOCKED: ATOM     15  N   UNL     1     -42.765  -6.864   4.390 -0.13 +0.00    +0.141 N  
DOCKED: ATOM     16  C   UNL     1     -44.017  -7.077   5.119 -0.13 +0.00    +0.285 C  
DOCKED: ATOM     17  C   UNL     1     -41.645  -6.756   5.326 -0.02 +0.00    +0.285 C  
DOCKED: ENDBRANCH  14  15
DOCKED: ENDBRANCH  13  14
DOCKED: ENDBRANCH  12  13
DOCKED: ENDBRANCH   2  12
DOCKED: BRANCH   2  18
DOCKED: ATOM     18  C   UNL     1     -40.393 -12.019   3.365 -0.02 +0.00    +0.006 A  
DOCKED: ATOM     19  C   UNL     1     -39.450 -12.082   2.340 -0.01 +0.00    +0.001 A  
DOCKED: ATOM     20  C   UNL     1     -38.506 -13.109   2.325 -0.00 +0.00    +0.029 A  
DOCKED: ATOM     21  C   UNL     1     -38.506 -14.071   3.334 -0.00 +0.00    +0.140 A  
DOCKED: ATOM     22  C   UNL     1     -39.450 -14.007   4.359 -0.00 +0.00    +0.029 A  
DOCKED: ATOM     23  F   UNL     1     -37.599 -15.056   3.321 +0.00 -0.00    -0.204 F  
DOCKED: ATOM     24  C   UNL     1     -40.395 -12.980   4.374 -0.02 +0.00    +0.001 A  
DOCKED: ENDBRANCH   2  18
DOCKED: TORSDOF 5
DOCKED: TER
DOCKED: ENDMDL
________________________________________________________________________________


    FINAL DOCKED STATE:
    ________________________


Run:   345 / 512
Time taken for this run:   0.002s

DOCKED: MODEL        345
DOCKED: USER    Run = 345
DOCKED: USER
DOCKED: USER    Estimated Free Energy of Binding    =  -4.96 kcal/mol  [=(1)+(2)+(3)-(4)]
DOCKED: USER
DOCKED: USER    (1) Final Intermolecular Energy     =  -6.45 kcal/mol
DOCKED: USER        vdW + Hbond + desolv Energy     =  -6.45 kcal/mol
DOCKED: USER        Electrostatic Energy            =  +0.00 kcal/mol
DOCKED: USER        Moving Ligand-Fixed Receptor    =  -6.45 kcal/mol
DOCKED: USER        Moving Ligand-Moving Receptor   =  +0.00 kcal/mol
DOCKED: USER    (2) Final Total Internal Energy     =  -1.24 kcal/mol
DOCKED: USER    (3) Torsional Free Energy           =  +1.49 kcal/mol
DOCKED: USER    (4) Unbound System's Energy         =  -1.24 kcal/mol
DOCKED: USER
DOCKED: USER
DOCKED: REMARK  5 active torsions:
DOCKED: REMARK  status: ('A' for Active; 'I' for Inactive)
DOCKED: REMARK    1  A    between atoms: C_2  and  C_19 
DOCKED: REMARK    2  A    between atoms: C_2  and  C_11 
DOCKED: REMARK    3  A    between atoms: C_19  and  C_20 
DOCKED: REMARK    4  A    between atoms: C_20  and  C_21 
DOCKED: REMARK    5  A    between atoms: C_21  and  N_22 
DOCKED: USER                              x       y       z     vdW  Elec       q    Type
DOCKED: USER                           _______ _______ _______ _____ _____    ______ ____
DOCKED: ROOT
DOCKED: ATOM      1  O   UNL     1     -43.501 -15.312   6.520 -0.02 -0.00    -0.346 OA 
DOCKED: ATOM      2  C   UNL     1     -44.906 -15.437   6.909 -0.16 +0.00    +0.130 C  
DOCKED: ATOM      3  C   UNL     1     -45.647 -14.715   5.821 -0.27 +0.00    +0.004 A  
DOCKED: ATOM      4  C   UNL     1     -44.755 -14.308   4.839 -0.23 +0.00    +0.006 A  
DOCKED: ATOM      5  C   UNL     1     -43.384 -14.738   5.197 -0.09 +0.00    +0.169 C  
DOCKED: ATOM      6  C   UNL     1     -47.003 -14.448   5.704 -0.20 -0.00    -0.001 A  
DOCKED: ATOM      7  C   UNL     1     -45.183 -13.623   3.715 -0.28 +0.00    +0.008 A  
DOCKED: ATOM      8  C   UNL     1     -47.450 -13.754   4.579 -0.37 +0.00    +0.010 A  
DOCKED: ATOM      9  C   UNL     1     -46.545 -13.344   3.590 -0.29 +0.00    +0.068 A  
DOCKED: ATOM     10  N   UNL     1     -47.408 -12.061   1.511 -2.47 -0.00    -0.191 NA 
DOCKED: ATOM     11  C   UNL     1     -47.021 -12.635   2.443 -0.39 +0.00    +0.101 C  
DOCKED: ENDROOT
DOCKED: BRANCH   2  12
DOCKED: ATOM     12  C   UNL     1     -45.257 -16.918   6.983 -0.20 +0.00    +0.038 C  
DOCKED: BRANCH  12  13
DOCKED: ATOM     13  C   UNL     1     -44.012 -17.775   7.207 -0.12 +0.00    +0.038 C  
DOCKED: BRANCH  13  14
DOCKED: ATOM     14  C   UNL     1     -43.696 -17.907   8.695 -0.04 +0.00    +0.251 C  
DOCKED: BRANCH  14  15
DOCKED: ATOM     15  N   UNL     1     -44.879 -18.343   9.428 -0.11 +0.00    +0.141 N  
DOCKED: ATOM     16  C   UNL     1     -45.370 -19.618   8.904 -0.15 +0.00    +0.285 C  
DOCKED: ATOM     17  C   UNL     1     -44.586 -18.460  10.857 -0.09 +0.00    +0.285 C  
DOCKED: ENDBRANCH  14  15
DOCKED: ENDBRANCH  13  14
DOCKED: ENDBRANCH  12  13
DOCKED: ENDBRANCH   2  12
DOCKED: BRANCH   2  18
DOCKED: ATOM     18  C   UNL     1     -45.049 -14.783   8.243 -0.18 +0.00    +0.006 A  
DOCKED: ATOM     19  C   UNL     1     -46.318 -14.513   8.755 -0.24 +0.00    +0.001 A  
DOCKED: ATOM     20  C   UNL     1     -46.450 -13.901  10.002 -0.20 +0.00    +0.029 A  
DOCKED: ATOM     21  C   UNL     1     -45.314 -13.561  10.735 -0.11 +0.00    +0.140 A  
DOCKED: ATOM     22  C   UNL     1     -44.045 -13.831  10.223 -0.05 +0.00    +0.029 A  
DOCKED: ATOM     23  F   UNL     1     -45.441 -12.975  11.933 -0.04 -0.00    -0.204 F  
DOCKED: ATOM     24  C   UNL     1     -43.912 -14.443   8.975 -0.13 +0.00    +0.001 A  
DOCKED: ENDBRANCH   2  18
DOCKED: TORSDOF 5
DOCKED: TER
DOCKED: ENDMDL
________________________________________________________________________________


    FINAL DOCKED STATE:
    ________________________


Run:   346 / 512
Time taken for this run:   0.002s

DOCKED: MODEL        346
DOCKED: USER    Run = 346
DOCKED: USER
DOCKED: USER    Estimated Free Energy of Binding    =  -3.93 kcal/mol  [=(1)+(2)+(3)-(4)]
DOCKED: USER
DOCKED: USER    (1) Final Intermolecular Energy     =  -5.42 kcal/mol
DOCKED: USER        vdW + Hbond + desolv Energy     =  -5.42 kcal/mol
DOCKED: USER        Electrostatic Energy            =  +0.00 kcal/mol
DOCKED: USER        Moving Ligand-Fixed Receptor    =  -5.42 kcal/mol
DOCKED: USER        Moving Ligand-Moving Receptor   =  +0.00 kcal/mol
DOCKED: USER    (2) Final Total Internal Energy     =  -1.32 kcal/mol
DOCKED: USER    (3) Torsional Free Energy           =  +1.49 kcal/mol
DOCKED: USER    (4) Unbound System's Energy         =  -1.32 kcal/mol
DOCKED: USER
DOCKED: USER
DOCKED: REMARK  5 active torsions:
DOCKED: REMARK  status: ('A' for Active; 'I' for Inactive)
DOCKED: REMARK    1  A    between atoms: C_2  and  C_19 
DOCKED: REMARK    2  A    between atoms: C_2  and  C_11 
DOCKED: REMARK    3  A    between atoms: C_19  and  C_20 
DOCKED: REMARK    4  A    between atoms: C_20  and  C_21 
DOCKED: REMARK    5  A    between atoms: C_21  and  N_22 
DOCKED: USER                              x       y       z     vdW  Elec       q    Type
DOCKED: USER                           _______ _______ _______ _____ _____    ______ ____
DOCKED: ROOT
DOCKED: ATOM      1  O   UNL     1     -40.882 -11.259   2.870 -0.00 -0.00    -0.346 OA 
DOCKED: ATOM      2  C   UNL     1     -41.531 -11.820   4.055 -0.05 +0.00    +0.130 C  
DOCKED: ATOM      3  C   UNL     1     -42.965 -11.976   3.639 -0.14 +0.00    +0.004 A  
DOCKED: ATOM      4  C   UNL     1     -43.103 -11.639   2.300 -0.17 +0.00    +0.006 A  
DOCKED: ATOM      5  C   UNL     1     -41.787 -11.254   1.741 -0.09 +0.00    +0.169 C  
DOCKED: ATOM      6  C   UNL     1     -44.059 -12.395   4.383 -0.21 -0.00    -0.001 A  
DOCKED: ATOM      7  C   UNL     1     -44.330 -11.703   1.663 -0.28 +0.00    +0.008 A  
DOCKED: ATOM      8  C   UNL     1     -45.304 -12.460   3.756 -0.33 +0.00    +0.010 A  
DOCKED: ATOM      9  C   UNL     1     -45.439 -12.116   2.402 -0.36 +0.00    +0.068 A  
DOCKED: ATOM     10  N   UNL     1     -47.764 -12.254   1.268 -2.57 -0.00    -0.191 NA 
DOCKED: ATOM     11  C   UNL     1     -46.721 -12.192   1.777 -0.34 +0.00    +0.101 C  
DOCKED: ENDROOT
DOCKED: BRANCH   2  12
DOCKED: ATOM     12  C   UNL     1     -40.862 -13.148   4.388 -0.03 +0.00    +0.038 C  
DOCKED: BRANCH  12  13
DOCKED: ATOM     13  C   UNL     1     -41.632 -13.903   5.471 -0.05 +0.00    +0.038 C  
DOCKED: BRANCH  13  14
DOCKED: ATOM     14  C   UNL     1     -40.907 -13.830   6.813 -0.03 +0.00    +0.251 C  
DOCKED: BRANCH  14  15
DOCKED: ATOM     15  N   UNL     1     -41.689 -13.056   7.770 -0.10 +0.00    +0.141 N  
DOCKED: ATOM     16  C   UNL     1     -42.925 -13.761   8.116 -0.05 +0.00    +0.285 C  
DOCKED: ATOM     17  C   UNL     1     -40.905 -12.785   8.977 -0.06 +0.00    +0.285 C  
DOCKED: ENDBRANCH  14  15
DOCKED: ENDBRANCH  13  14
DOCKED: ENDBRANCH  12  13
DOCKED: ENDBRANCH   2  12
DOCKED: BRANCH   2  18
DOCKED: ATOM     18  C   UNL     1     -41.351 -10.834   5.160 -0.08 +0.00    +0.006 A  
DOCKED: ATOM     19  C   UNL     1     -42.457 -10.172   5.691 -0.18 +0.00    +0.001 A  
DOCKED: ATOM     20  C   UNL     1     -42.286  -9.250   6.724 -0.14 +0.00    +0.029 A  
DOCKED: ATOM     21  C   UNL     1     -41.011  -8.991   7.224 -0.07 +0.00    +0.140 A  
DOCKED: ATOM     22  C   UNL     1     -39.905  -9.653   6.692 -0.04 +0.00    +0.029 A  
DOCKED: ATOM     23  F   UNL     1     -40.848  -8.107   8.217 -0.02 -0.00    -0.204 F  
DOCKED: ATOM     24  C   UNL     1     -40.074 -10.575   5.659 -0.04 +0.00    +0.001 A  
DOCKED: ENDBRANCH   2  18
DOCKED: TORSDOF 5
DOCKED: TER
DOCKED: ENDMDL
________________________________________________________________________________


    FINAL DOCKED STATE:
    ________________________


Run:   347 / 512
Time taken for this run:   0.002s

DOCKED: MODEL        347
DOCKED: USER    Run = 347
DOCKED: USER
DOCKED: USER    Estimated Free Energy of Binding    =  -3.96 kcal/mol  [=(1)+(2)+(3)-(4)]
DOCKED: USER
DOCKED: USER    (1) Final Intermolecular Energy     =  -5.45 kcal/mol
DOCKED: USER        vdW + Hbond + desolv Energy     =  -5.45 kcal/mol
DOCKED: USER        Electrostatic Energy            =  +0.00 kcal/mol
DOCKED: USER        Moving Ligand-Fixed Receptor    =  -5.45 kcal/mol
DOCKED: USER        Moving Ligand-Moving Receptor   =  +0.00 kcal/mol
DOCKED: USER    (2) Final Total Internal Energy     =  -1.41 kcal/mol
DOCKED: USER    (3) Torsional Free Energy           =  +1.49 kcal/mol
DOCKED: USER    (4) Unbound System's Energy         =  -1.41 kcal/mol
DOCKED: USER
DOCKED: USER
DOCKED: REMARK  5 active torsions:
DOCKED: REMARK  status: ('A' for Active; 'I' for Inactive)
DOCKED: REMARK    1  A    between atoms: C_2  and  C_19 
DOCKED: REMARK    2  A    between atoms: C_2  and  C_11 
DOCKED: REMARK    3  A    between atoms: C_19  and  C_20 
DOCKED: REMARK    4  A    between atoms: C_20  and  C_21 
DOCKED: REMARK    5  A    between atoms: C_21  and  N_22 
DOCKED: USER                              x       y       z     vdW  Elec       q    Type
DOCKED: USER                           _______ _______ _______ _____ _____    ______ ____
DOCKED: ROOT
DOCKED: ATOM      1  O   UNL     1     -39.941 -21.265   6.313 +0.01 -0.00    -0.346 OA 
DOCKED: ATOM      2  C   UNL     1     -41.300 -20.814   6.613 -0.07 +0.00    +0.130 C  
DOCKED: ATOM      3  C   UNL     1     -41.852 -21.898   7.494 -0.14 +0.00    +0.004 A  
DOCKED: ATOM      4  C   UNL     1     -40.860 -22.829   7.765 -0.09 +0.00    +0.006 A  
DOCKED: ATOM      5  C   UNL     1     -39.599 -22.427   7.102 -0.02 +0.00    +0.169 C  
DOCKED: ATOM      6  C   UNL     1     -43.126 -22.041   8.023 -0.27 -0.00    -0.001 A  
DOCKED: ATOM      7  C   UNL     1     -41.106 -23.932   8.564 -0.16 +0.00    +0.008 A  
DOCKED: ATOM      8  C   UNL     1     -43.391 -23.150   8.828 -0.32 +0.00    +0.010 A  
DOCKED: ATOM      9  C   UNL     1     -42.386 -24.090   9.098 -0.30 +0.00    +0.068 A  
DOCKED: ATOM     10  N   UNL     1     -42.910 -26.135  10.600 -2.56 -0.00    -0.191 NA 
DOCKED: ATOM     11  C   UNL     1     -42.675 -25.218   9.926 -0.39 +0.00    +0.101 C  
DOCKED: ENDROOT
DOCKED: BRANCH   2  12
DOCKED: ATOM     12  C   UNL     1     -41.218 -19.464   7.314 -0.04 +0.00    +0.038 C  
DOCKED: BRANCH  12  13
DOCKED: ATOM     13  C   UNL     1     -40.103 -18.599   6.728 -0.00 +0.00    +0.038 C  
DOCKED: BRANCH  13  14
DOCKED: ATOM     14  C   UNL     1     -40.677 -17.416   5.950 +0.00 +0.00    +0.251 C  
DOCKED: BRANCH  14  15
DOCKED: ATOM     15  N   UNL     1     -39.977 -17.255   4.681 -0.00 +0.00    +0.141 N  
DOCKED: ATOM     16  C   UNL     1     -39.595 -18.558   4.134 +0.00 +0.00    +0.285 C  
DOCKED: ATOM     17  C   UNL     1     -40.808 -16.526   3.722 -0.00 +0.00    +0.285 C  
DOCKED: ENDBRANCH  14  15
DOCKED: ENDBRANCH  13  14
DOCKED: ENDBRANCH  12  13
DOCKED: ENDBRANCH   2  12
DOCKED: BRANCH   2  18
DOCKED: ATOM     18  C   UNL     1     -42.020 -20.701   5.310 -0.13 +0.00    +0.006 A  
DOCKED: ATOM     19  C   UNL     1     -41.711 -21.572   4.266 -0.13 +0.00    +0.001 A  
DOCKED: ATOM     20  C   UNL     1     -42.385 -21.465   3.049 -0.14 +0.00    +0.029 A  
DOCKED: ATOM     21  C   UNL     1     -43.365 -20.489   2.877 -0.18 +0.00    +0.140 A  
DOCKED: ATOM     22  C   UNL     1     -43.674 -19.619   3.922 -0.20 +0.00    +0.029 A  
DOCKED: ATOM     23  F   UNL     1     -44.013 -20.388   1.709 -0.13 -0.00    -0.204 F  
DOCKED: ATOM     24  C   UNL     1     -43.000 -19.724   5.141 -0.19 +0.00    +0.001 A  
DOCKED: ENDBRANCH   2  18
DOCKED: TORSDOF 5
DOCKED: TER
DOCKED: ENDMDL
________________________________________________________________________________


    FINAL DOCKED STATE:
    ________________________


Run:   348 / 512
Time taken for this run:   0.002s

DOCKED: MODEL        348
DOCKED: USER    Run = 348
DOCKED: USER
DOCKED: USER    Estimated Free Energy of Binding    =  -4.15 kcal/mol  [=(1)+(2)+(3)-(4)]
DOCKED: USER
DOCKED: USER    (1) Final Intermolecular Energy     =  -5.64 kcal/mol
DOCKED: USER        vdW + Hbond + desolv Energy     =  -5.64 kcal/mol
DOCKED: USER        Electrostatic Energy            =  +0.00 kcal/mol
DOCKED: USER        Moving Ligand-Fixed Receptor    =  -5.64 kcal/mol
DOCKED: USER        Moving Ligand-Moving Receptor   =  +0.00 kcal/mol
DOCKED: USER    (2) Final Total Internal Energy     =  -1.32 kcal/mol
DOCKED: USER    (3) Torsional Free Energy           =  +1.49 kcal/mol
DOCKED: USER    (4) Unbound System's Energy         =  -1.32 kcal/mol
DOCKED: USER
DOCKED: USER
DOCKED: REMARK  5 active torsions:
DOCKED: REMARK  status: ('A' for Active; 'I' for Inactive)
DOCKED: REMARK    1  A    between atoms: C_2  and  C_19 
DOCKED: REMARK    2  A    between atoms: C_2  and  C_11 
DOCKED: REMARK    3  A    between atoms: C_19  and  C_20 
DOCKED: REMARK    4  A    between atoms: C_20  and  C_21 
DOCKED: REMARK    5  A    between atoms: C_21  and  N_22 
DOCKED: USER                              x       y       z     vdW  Elec       q    Type
DOCKED: USER                           _______ _______ _______ _____ _____    ______ ____
DOCKED: ROOT
DOCKED: ATOM      1  O   UNL     1     -42.709 -13.383   6.839 -0.08 -0.00    -0.346 OA 
DOCKED: ATOM      2  C   UNL     1     -43.642 -14.510   6.828 -0.13 +0.00    +0.130 C  
DOCKED: ATOM      3  C   UNL     1     -44.598 -14.175   5.720 -0.17 +0.00    +0.004 A  
DOCKED: ATOM      4  C   UNL     1     -44.184 -13.015   5.081 -0.05 +0.00    +0.006 A  
DOCKED: ATOM      5  C   UNL     1     -42.937 -12.516   5.703 -0.12 +0.00    +0.169 C  
DOCKED: ATOM      6  C   UNL     1     -45.737 -14.848   5.303 -0.28 -0.00    -0.001 A  
DOCKED: ATOM      7  C   UNL     1     -44.891 -12.488   4.013 -0.27 +0.00    +0.008 A  
DOCKED: ATOM      8  C   UNL     1     -46.463 -14.328   4.231 +0.13 +0.00    +0.010 A  
DOCKED: ATOM      9  C   UNL     1     -46.041 -13.154   3.589 -0.34 +0.00    +0.068 A  
DOCKED: ATOM     10  N   UNL     1     -47.409 -12.217   1.598 -2.52 -0.00    -0.191 NA 
DOCKED: ATOM     11  C   UNL     1     -46.796 -12.637   2.491 -0.43 +0.00    +0.101 C  
DOCKED: ENDROOT
DOCKED: BRANCH   2  12
DOCKED: ATOM     12  C   UNL     1     -42.853 -15.788   6.564 -0.06 +0.00    +0.038 C  
DOCKED: BRANCH  12  13
DOCKED: ATOM     13  C   UNL     1     -43.758 -17.018   6.600 -0.10 +0.00    +0.038 C  
DOCKED: BRANCH  13  14
DOCKED: ATOM     14  C   UNL     1     -43.470 -17.876   7.831 -0.04 +0.00    +0.251 C  
DOCKED: BRANCH  14  15
DOCKED: ATOM     15  N   UNL     1     -44.708 -18.441   8.355 -0.12 +0.00    +0.141 N  
DOCKED: ATOM     16  C   UNL     1     -44.955 -17.967   9.718 -0.08 +0.00    +0.285 C  
DOCKED: ATOM     17  C   UNL     1     -45.837 -18.104   7.487 -0.13 +0.00    +0.285 C  
DOCKED: ENDBRANCH  14  15
DOCKED: ENDBRANCH  13  14
DOCKED: ENDBRANCH  12  13
DOCKED: ENDBRANCH   2  12
DOCKED: BRANCH   2  18
DOCKED: ATOM     18  C   UNL     1     -44.296 -14.548   8.168 -0.16 +0.00    +0.006 A  
DOCKED: ATOM     19  C   UNL     1     -45.685 -14.469   8.269 -0.17 +0.00    +0.001 A  
DOCKED: ATOM     20  C   UNL     1     -46.295 -14.504   9.523 -0.20 +0.00    +0.029 A  
DOCKED: ATOM     21  C   UNL     1     -45.517 -14.620  10.674 -0.10 +0.00    +0.140 A  
DOCKED: ATOM     22  C   UNL     1     -44.128 -14.700  10.573 -0.09 +0.00    +0.029 A  
DOCKED: ATOM     23  F   UNL     1     -46.103 -14.655  11.878 -0.01 -0.00    -0.204 F  
DOCKED: ATOM     24  C   UNL     1     -43.517 -14.664   9.319 -0.11 +0.00    +0.001 A  
DOCKED: ENDBRANCH   2  18
DOCKED: TORSDOF 5
DOCKED: TER
DOCKED: ENDMDL
________________________________________________________________________________


    FINAL DOCKED STATE:
    ________________________


Run:   349 / 512
Time taken for this run:   0.002s

DOCKED: MODEL        349
DOCKED: USER    Run = 349
DOCKED: USER
DOCKED: USER    Estimated Free Energy of Binding    =  -4.52 kcal/mol  [=(1)+(2)+(3)-(4)]
DOCKED: USER
DOCKED: USER    (1) Final Intermolecular Energy     =  -6.01 kcal/mol
DOCKED: USER        vdW + Hbond + desolv Energy     =  -6.01 kcal/mol
DOCKED: USER        Electrostatic Energy            =  +0.00 kcal/mol
DOCKED: USER        Moving Ligand-Fixed Receptor    =  -6.01 kcal/mol
DOCKED: USER        Moving Ligand-Moving Receptor   =  +0.00 kcal/mol
DOCKED: USER    (2) Final Total Internal Energy     =  -1.38 kcal/mol
DOCKED: USER    (3) Torsional Free Energy           =  +1.49 kcal/mol
DOCKED: USER    (4) Unbound System's Energy         =  -1.38 kcal/mol
DOCKED: USER
DOCKED: USER
DOCKED: REMARK  5 active torsions:
DOCKED: REMARK  status: ('A' for Active; 'I' for Inactive)
DOCKED: REMARK    1  A    between atoms: C_2  and  C_19 
DOCKED: REMARK    2  A    between atoms: C_2  and  C_11 
DOCKED: REMARK    3  A    between atoms: C_19  and  C_20 
DOCKED: REMARK    4  A    between atoms: C_20  and  C_21 
DOCKED: REMARK    5  A    between atoms: C_21  and  N_22 
DOCKED: USER                              x       y       z     vdW  Elec       q    Type
DOCKED: USER                           _______ _______ _______ _____ _____    ______ ____
DOCKED: ROOT
DOCKED: ATOM      1  O   UNL     1     -45.950 -15.697   7.442 -0.08 -0.00    -0.346 OA 
DOCKED: ATOM      2  C   UNL     1     -44.675 -15.388   6.792 -0.15 +0.00    +0.130 C  
DOCKED: ATOM      3  C   UNL     1     -45.075 -14.631   5.559 -0.24 +0.00    +0.004 A  
DOCKED: ATOM      4  C   UNL     1     -46.447 -14.428   5.559 -0.28 +0.00    +0.006 A  
DOCKED: ATOM      5  C   UNL     1     -47.042 -15.017   6.780 -0.23 +0.00    +0.169 C  
DOCKED: ATOM      6  C   UNL     1     -44.285 -14.150   4.525 -0.19 -0.00    -0.001 A  
DOCKED: ATOM      7  C   UNL     1     -47.075 -13.746   4.531 -0.37 +0.00    +0.008 A  
DOCKED: ATOM      8  C   UNL     1     -44.904 -13.464   3.478 -0.26 +0.00    +0.010 A  
DOCKED: ATOM      9  C   UNL     1     -46.292 -13.263   3.482 -0.32 +0.00    +0.068 A  
DOCKED: ATOM     10  N   UNL     1     -47.408 -11.980   1.527 -2.43 -0.00    -0.191 NA 
DOCKED: ATOM     11  C   UNL     1     -46.908 -12.556   2.404 -0.39 +0.00    +0.101 C  
DOCKED: ENDROOT
DOCKED: BRANCH   2  12
DOCKED: ATOM     12  C   UNL     1     -43.833 -14.557   7.753 -0.16 +0.00    +0.038 C  
DOCKED: BRANCH  12  13
DOCKED: ATOM     13  C   UNL     1     -43.032 -15.444   8.703 -0.07 +0.00    +0.038 C  
DOCKED: BRANCH  13  14
DOCKED: ATOM     14  C   UNL     1     -43.647 -15.448  10.101 -0.05 +0.00    +0.251 C  
DOCKED: BRANCH  14  15
DOCKED: ATOM     15  N   UNL     1     -43.725 -16.810  10.617 -0.03 +0.00    +0.141 N  
DOCKED: ATOM     16  C   UNL     1     -44.971 -17.452  10.192 -0.06 +0.00    +0.285 C  
DOCKED: ATOM     17  C   UNL     1     -42.573 -17.596  10.174 -0.01 +0.00    +0.285 C  
DOCKED: ENDBRANCH  14  15
DOCKED: ENDBRANCH  13  14
DOCKED: ENDBRANCH  12  13
DOCKED: ENDBRANCH   2  12
DOCKED: BRANCH   2  18
DOCKED: ATOM     18  C   UNL     1     -44.015 -16.691   6.486 -0.10 +0.00    +0.006 A  
DOCKED: ATOM     19  C   UNL     1     -42.762 -16.710   5.875 -0.04 +0.00    +0.001 A  
DOCKED: ATOM     20  C   UNL     1     -42.145 -17.929   5.589 -0.03 +0.00    +0.029 A  
DOCKED: ATOM     21  C   UNL     1     -42.781 -19.125   5.916 -0.11 +0.00    +0.140 A  
DOCKED: ATOM     22  C   UNL     1     -44.034 -19.106   6.528 -0.19 +0.00    +0.029 A  
DOCKED: ATOM     23  F   UNL     1     -42.188 -20.295   5.643 -0.05 -0.00    -0.204 F  
DOCKED: ATOM     24  C   UNL     1     -44.652 -17.887   6.813 -0.17 +0.00    +0.001 A  
DOCKED: ENDBRANCH   2  18
DOCKED: TORSDOF 5
DOCKED: TER
DOCKED: ENDMDL
________________________________________________________________________________


    FINAL DOCKED STATE:
    ________________________


Run:   350 / 512
Time taken for this run:   0.002s

DOCKED: MODEL        350
DOCKED: USER    Run = 350
DOCKED: USER
DOCKED: USER    Estimated Free Energy of Binding    =  -3.56 kcal/mol  [=(1)+(2)+(3)-(4)]
DOCKED: USER
DOCKED: USER    (1) Final Intermolecular Energy     =  -5.05 kcal/mol
DOCKED: USER        vdW + Hbond + desolv Energy     =  -5.05 kcal/mol
DOCKED: USER        Electrostatic Energy            =  +0.00 kcal/mol
DOCKED: USER        Moving Ligand-Fixed Receptor    =  -5.05 kcal/mol
DOCKED: USER        Moving Ligand-Moving Receptor   =  +0.00 kcal/mol
DOCKED: USER    (2) Final Total Internal Energy     =  -1.38 kcal/mol
DOCKED: USER    (3) Torsional Free Energy           =  +1.49 kcal/mol
DOCKED: USER    (4) Unbound System's Energy         =  -1.38 kcal/mol
DOCKED: USER
DOCKED: USER
DOCKED: REMARK  5 active torsions:
DOCKED: REMARK  status: ('A' for Active; 'I' for Inactive)
DOCKED: REMARK    1  A    between atoms: C_2  and  C_19 
DOCKED: REMARK    2  A    between atoms: C_2  and  C_11 
DOCKED: REMARK    3  A    between atoms: C_19  and  C_20 
DOCKED: REMARK    4  A    between atoms: C_20  and  C_21 
DOCKED: REMARK    5  A    between atoms: C_21  and  N_22 
DOCKED: USER                              x       y       z     vdW  Elec       q    Type
DOCKED: USER                           _______ _______ _______ _____ _____    ______ ____
DOCKED: ROOT
DOCKED: ATOM      1  O   UNL     1     -42.242 -10.907   5.983 -0.08 -0.00    -0.346 OA 
DOCKED: ATOM      2  C   UNL     1     -41.761 -11.918   5.040 -0.08 +0.00    +0.130 C  
DOCKED: ATOM      3  C   UNL     1     -42.937 -12.155   4.138 -0.14 +0.00    +0.004 A  
DOCKED: ATOM      4  C   UNL     1     -43.962 -11.278   4.465 -0.25 +0.00    +0.006 A  
DOCKED: ATOM      5  C   UNL     1     -43.537 -10.404   5.582 -0.10 +0.00    +0.169 C  
DOCKED: ATOM      6  C   UNL     1     -43.084 -13.066   3.102 -0.10 -0.00    -0.001 A  
DOCKED: ATOM      7  C   UNL     1     -45.163 -11.284   3.777 -0.23 +0.00    +0.008 A  
DOCKED: ATOM      8  C   UNL     1     -44.291 -13.087   2.401 -0.22 +0.00    +0.010 A  
DOCKED: ATOM      9  C   UNL     1     -45.325 -12.200   2.736 -0.34 +0.00    +0.068 A  
DOCKED: ATOM     10  N   UNL     1     -47.550 -12.262   1.411 -2.55 -0.00    -0.191 NA 
DOCKED: ATOM     11  C   UNL     1     -46.552 -12.235   2.006 -0.43 +0.00    +0.101 C  
DOCKED: ENDROOT
DOCKED: BRANCH   2  12
DOCKED: ATOM     12  C   UNL     1     -40.552 -11.355   4.304 -0.04 +0.00    +0.038 C  
DOCKED: BRANCH  12  13
DOCKED: ATOM     13  C   UNL     1     -39.829 -10.303   5.143 -0.03 +0.00    +0.038 C  
DOCKED: BRANCH  13  14
DOCKED: ATOM     14  C   UNL     1     -40.146  -8.893   4.648 -0.01 +0.00    +0.251 C  
DOCKED: BRANCH  14  15
DOCKED: ATOM     15  N   UNL     1     -41.131  -8.941   3.574 -0.07 +0.00    +0.141 N  
DOCKED: ATOM     16  C   UNL     1     -42.193  -7.960   3.804 -0.09 +0.00    +0.285 C  
DOCKED: ATOM     17  C   UNL     1     -40.494  -8.705   2.278 -0.01 +0.00    +0.285 C  
DOCKED: ENDBRANCH  14  15
DOCKED: ENDBRANCH  13  14
DOCKED: ENDBRANCH  12  13
DOCKED: ENDBRANCH   2  12
DOCKED: BRANCH   2  18
DOCKED: ATOM     18  C   UNL     1     -41.391 -13.121   5.842 -0.07 +0.00    +0.006 A  
DOCKED: ATOM     19  C   UNL     1     -41.766 -13.207   7.182 -0.11 +0.00    +0.001 A  
DOCKED: ATOM     20  C   UNL     1     -41.419 -14.333   7.931 -0.06 +0.00    +0.029 A  
DOCKED: ATOM     21  C   UNL     1     -40.700 -15.370   7.338 -0.01 +0.00    +0.140 A  
DOCKED: ATOM     22  C   UNL     1     -40.326 -15.283   5.998 -0.01 +0.00    +0.029 A  
DOCKED: ATOM     23  F   UNL     1     -40.369 -16.451   8.056 +0.00 -0.00    -0.204 F  
DOCKED: ATOM     24  C   UNL     1     -40.672 -14.157   5.248 -0.02 +0.00    +0.001 A  
DOCKED: ENDBRANCH   2  18
DOCKED: TORSDOF 5
DOCKED: TER
DOCKED: ENDMDL
________________________________________________________________________________


    FINAL DOCKED STATE:
    ________________________


Run:   351 / 512
Time taken for this run:   0.002s

DOCKED: MODEL        351
DOCKED: USER    Run = 351
DOCKED: USER
DOCKED: USER    Estimated Free Energy of Binding    =  -4.11 kcal/mol  [=(1)+(2)+(3)-(4)]
DOCKED: USER
DOCKED: USER    (1) Final Intermolecular Energy     =  -5.60 kcal/mol
DOCKED: USER        vdW + Hbond + desolv Energy     =  -5.60 kcal/mol
DOCKED: USER        Electrostatic Energy            =  +0.00 kcal/mol
DOCKED: USER        Moving Ligand-Fixed Receptor    =  -5.60 kcal/mol
DOCKED: USER        Moving Ligand-Moving Receptor   =  +0.00 kcal/mol
DOCKED: USER    (2) Final Total Internal Energy     =  -1.02 kcal/mol
DOCKED: USER    (3) Torsional Free Energy           =  +1.49 kcal/mol
DOCKED: USER    (4) Unbound System's Energy         =  -1.02 kcal/mol
DOCKED: USER
DOCKED: USER
DOCKED: REMARK  5 active torsions:
DOCKED: REMARK  status: ('A' for Active; 'I' for Inactive)
DOCKED: REMARK    1  A    between atoms: C_2  and  C_19 
DOCKED: REMARK    2  A    between atoms: C_2  and  C_11 
DOCKED: REMARK    3  A    between atoms: C_19  and  C_20 
DOCKED: REMARK    4  A    between atoms: C_20  and  C_21 
DOCKED: REMARK    5  A    between atoms: C_21  and  N_22 
DOCKED: USER                              x       y       z     vdW  Elec       q    Type
DOCKED: USER                           _______ _______ _______ _____ _____    ______ ____
DOCKED: ROOT
DOCKED: ATOM      1  O   UNL     1     -49.976 -18.949  14.298 -0.06 -0.00    -0.346 OA 
DOCKED: ATOM      2  C   UNL     1     -48.597 -19.435  14.224 -0.14 +0.00    +0.130 C  
DOCKED: ATOM      3  C   UNL     1     -48.742 -20.861  13.777 -0.23 +0.00    +0.004 A  
DOCKED: ATOM      4  C   UNL     1     -50.077 -21.134  13.513 -0.23 +0.00    +0.006 A  
DOCKED: ATOM      5  C   UNL     1     -50.894 -19.923  13.750 -0.20 +0.00    +0.169 C  
DOCKED: ATOM      6  C   UNL     1     -47.770 -21.835  13.608 -0.25 -0.00    -0.001 A  
DOCKED: ATOM      7  C   UNL     1     -50.484 -22.383  13.076 -0.25 +0.00    +0.008 A  
DOCKED: ATOM      8  C   UNL     1     -48.165 -23.102  13.173 -0.32 +0.00    +0.010 A  
DOCKED: ATOM      9  C   UNL     1     -49.516 -23.374  12.908 -0.29 +0.00    +0.068 A  
DOCKED: ATOM     10  N   UNL     1     -50.215 -25.733  12.097 -2.58 -0.00    -0.191 NA 
DOCKED: ATOM     11  C   UNL     1     -49.901 -24.675  12.461 -0.36 +0.00    +0.101 C  
DOCKED: ENDROOT
DOCKED: BRANCH   2  12
DOCKED: ATOM     12  C   UNL     1     -47.836 -18.574  13.223 -0.16 +0.00    +0.038 C  
DOCKED: BRANCH  12  13
DOCKED: ATOM     13  C   UNL     1     -46.553 -19.263  12.759 -0.17 +0.00    +0.038 C  
DOCKED: BRANCH  13  14
DOCKED: ATOM     14  C   UNL     1     -45.573 -18.254  12.164 -0.10 +0.00    +0.251 C  
DOCKED: BRANCH  14  15
DOCKED: ATOM     15  N   UNL     1     -44.456 -18.033  13.076 -0.05 +0.00    +0.141 N  
DOCKED: ATOM     16  C   UNL     1     -44.901 -17.318  14.273 -0.01 +0.00    +0.285 C  
DOCKED: ATOM     17  C   UNL     1     -43.834 -19.306  13.446 -0.07 +0.00    +0.285 C  
DOCKED: ENDBRANCH  14  15
DOCKED: ENDBRANCH  13  14
DOCKED: ENDBRANCH  12  13
DOCKED: ENDBRANCH   2  12
DOCKED: BRANCH   2  18
DOCKED: ATOM     18  C   UNL     1     -48.016 -19.311  15.593 -0.05 +0.00    +0.006 A  
DOCKED: ATOM     19  C   UNL     1     -48.717 -18.631  16.588 -0.02 +0.00    +0.001 A  
DOCKED: ATOM     20  C   UNL     1     -48.173 -18.515  17.868 -0.00 +0.00    +0.029 A  
DOCKED: ATOM     21  C   UNL     1     -46.930 -19.079  18.150 -0.00 +0.00    +0.140 A  
DOCKED: ATOM     22  C   UNL     1     -46.229 -19.759  17.154 -0.02 +0.00    +0.029 A  
DOCKED: ATOM     23  F   UNL     1     -46.408 -18.969  19.379 +0.00 -0.00    -0.204 F  
DOCKED: ATOM     24  C   UNL     1     -46.773 -19.875  15.874 -0.05 +0.00    +0.001 A  
DOCKED: ENDBRANCH   2  18
DOCKED: TORSDOF 5
DOCKED: TER
DOCKED: ENDMDL
________________________________________________________________________________


    FINAL DOCKED STATE:
    ________________________


Run:   352 / 512
Time taken for this run:   0.002s

DOCKED: MODEL        352
DOCKED: USER    Run = 352
DOCKED: USER
DOCKED: USER    Estimated Free Energy of Binding    =  -4.09 kcal/mol  [=(1)+(2)+(3)-(4)]
DOCKED: USER
DOCKED: USER    (1) Final Intermolecular Energy     =  -5.58 kcal/mol
DOCKED: USER        vdW + Hbond + desolv Energy     =  -5.58 kcal/mol
DOCKED: USER        Electrostatic Energy            =  +0.00 kcal/mol
DOCKED: USER        Moving Ligand-Fixed Receptor    =  -5.58 kcal/mol
DOCKED: USER        Moving Ligand-Moving Receptor   =  +0.00 kcal/mol
DOCKED: USER    (2) Final Total Internal Energy     =  -1.33 kcal/mol
DOCKED: USER    (3) Torsional Free Energy           =  +1.49 kcal/mol
DOCKED: USER    (4) Unbound System's Energy         =  -1.33 kcal/mol
DOCKED: USER
DOCKED: USER
DOCKED: REMARK  5 active torsions:
DOCKED: REMARK  status: ('A' for Active; 'I' for Inactive)
DOCKED: REMARK    1  A    between atoms: C_2  and  C_19 
DOCKED: REMARK    2  A    between atoms: C_2  and  C_11 
DOCKED: REMARK    3  A    between atoms: C_19  and  C_20 
DOCKED: REMARK    4  A    between atoms: C_20  and  C_21 
DOCKED: REMARK    5  A    between atoms: C_21  and  N_22 
DOCKED: USER                              x       y       z     vdW  Elec       q    Type
DOCKED: USER                           _______ _______ _______ _____ _____    ______ ____
DOCKED: ROOT
DOCKED: ATOM      1  O   UNL     1     -48.652 -23.858  16.050 -0.05 -0.00    -0.346 OA 
DOCKED: ATOM      2  C   UNL     1     -48.716 -22.520  15.461 -0.11 +0.00    +0.130 C  
DOCKED: ATOM      3  C   UNL     1     -48.987 -22.779  14.008 -0.24 +0.00    +0.004 A  
DOCKED: ATOM      4  C   UNL     1     -49.172 -24.138  13.802 -0.30 +0.00    +0.006 A  
DOCKED: ATOM      5  C   UNL     1     -49.051 -24.862  15.088 -0.23 +0.00    +0.169 C  
DOCKED: ATOM      6  C   UNL     1     -49.074 -21.881  12.953 -0.31 -0.00    -0.001 A  
DOCKED: ATOM      7  C   UNL     1     -49.444 -24.647  12.544 -0.37 +0.00    +0.008 A  
DOCKED: ATOM      8  C   UNL     1     -49.343 -22.379  11.677 -0.17 +0.00    +0.010 A  
DOCKED: ATOM      9  C   UNL     1     -49.528 -23.754  11.474 -0.40 +0.00    +0.068 A  
DOCKED: ATOM     10  N   UNL     1     -50.033 -24.643   9.093 -1.88 -0.00    -0.191 NA 
DOCKED: ATOM     11  C   UNL     1     -49.806 -24.245  10.161 -0.53 +0.00    +0.101 C  
DOCKED: ENDROOT
DOCKED: BRANCH   2  12
DOCKED: ATOM     12  C   UNL     1     -49.836 -21.745  16.145 -0.07 +0.00    +0.038 C  
DOCKED: BRANCH  12  13
DOCKED: ATOM     13  C   UNL     1     -50.960 -22.674  16.599 -0.08 +0.00    +0.038 C  
DOCKED: BRANCH  13  14
DOCKED: ATOM     14  C   UNL     1     -50.951 -22.846  18.117 -0.02 +0.00    +0.251 C  
DOCKED: BRANCH  14  15
DOCKED: ATOM     15  N   UNL     1     -51.273 -24.223  18.474 -0.08 +0.00    +0.141 N  
DOCKED: ATOM     16  C   UNL     1     -52.117 -24.838  17.448 -0.06 +0.00    +0.285 C  
DOCKED: ATOM     17  C   UNL     1     -50.050 -25.006  18.661 -0.07 +0.00    +0.285 C  
DOCKED: ENDBRANCH  14  15
DOCKED: ENDBRANCH  13  14
DOCKED: ENDBRANCH  12  13
DOCKED: ENDBRANCH   2  12
DOCKED: BRANCH   2  18
DOCKED: ATOM     18  C   UNL     1     -47.392 -21.875  15.700 -0.13 +0.00    +0.006 A  
DOCKED: ATOM     19  C   UNL     1     -47.322 -20.651  16.366 -0.05 +0.00    +0.001 A  
DOCKED: ATOM     20  C   UNL     1     -46.083 -20.049  16.588 -0.03 +0.00    +0.029 A  
DOCKED: ATOM     21  C   UNL     1     -44.917 -20.671  16.146 -0.05 +0.00    +0.140 A  
DOCKED: ATOM     22  C   UNL     1     -44.987 -21.894  15.481 -0.15 +0.00    +0.029 A  
DOCKED: ATOM     23  F   UNL     1     -43.727 -20.093  16.361 -0.00 -0.00    -0.204 F  
DOCKED: ATOM     24  C   UNL     1     -46.225 -22.497  15.257 -0.20 +0.00    +0.001 A  
DOCKED: ENDBRANCH   2  18
DOCKED: TORSDOF 5
DOCKED: TER
DOCKED: ENDMDL
________________________________________________________________________________


    FINAL DOCKED STATE:
    ________________________


Run:   353 / 512
Time taken for this run:   0.002s

DOCKED: MODEL        353
DOCKED: USER    Run = 353
DOCKED: USER
DOCKED: USER    Estimated Free Energy of Binding    =  -5.16 kcal/mol  [=(1)+(2)+(3)-(4)]
DOCKED: USER
DOCKED: USER    (1) Final Intermolecular Energy     =  -6.65 kcal/mol
DOCKED: USER        vdW + Hbond + desolv Energy     =  -6.65 kcal/mol
DOCKED: USER        Electrostatic Energy            =  +0.00 kcal/mol
DOCKED: USER        Moving Ligand-Fixed Receptor    =  -6.65 kcal/mol
DOCKED: USER        Moving Ligand-Moving Receptor   =  +0.00 kcal/mol
DOCKED: USER    (2) Final Total Internal Energy     =  -1.26 kcal/mol
DOCKED: USER    (3) Torsional Free Energy           =  +1.49 kcal/mol
DOCKED: USER    (4) Unbound System's Energy         =  -1.26 kcal/mol
DOCKED: USER
DOCKED: USER
DOCKED: REMARK  5 active torsions:
DOCKED: REMARK  status: ('A' for Active; 'I' for Inactive)
DOCKED: REMARK    1  A    between atoms: C_2  and  C_19 
DOCKED: REMARK    2  A    between atoms: C_2  and  C_11 
DOCKED: REMARK    3  A    between atoms: C_19  and  C_20 
DOCKED: REMARK    4  A    between atoms: C_20  and  C_21 
DOCKED: REMARK    5  A    between atoms: C_21  and  N_22 
DOCKED: USER                              x       y       z     vdW  Elec       q    Type
DOCKED: USER                           _______ _______ _______ _____ _____    ______ ____
DOCKED: ROOT
DOCKED: ATOM      1  O   UNL     1     -47.618 -24.145  15.329 -0.10 -0.00    -0.346 OA 
DOCKED: ATOM      2  C   UNL     1     -47.882 -22.773  14.893 -0.20 +0.00    +0.130 C  
DOCKED: ATOM      3  C   UNL     1     -48.444 -22.937  13.510 -0.31 +0.00    +0.004 A  
DOCKED: ATOM      4  C   UNL     1     -48.592 -24.287  13.224 -0.39 +0.00    +0.006 A  
DOCKED: ATOM      5  C   UNL     1     -48.157 -25.097  14.384 -0.20 +0.00    +0.169 C  
DOCKED: ATOM      6  C   UNL     1     -48.807 -21.970  12.585 -0.31 -0.00    -0.001 A  
DOCKED: ATOM      7  C   UNL     1     -49.100 -24.714  12.009 -0.47 +0.00    +0.008 A  
DOCKED: ATOM      8  C   UNL     1     -49.316 -22.385  11.353 +0.00 +0.00    +0.010 A  
DOCKED: ATOM      9  C   UNL     1     -49.462 -23.750  11.067 -0.40 +0.00    +0.068 A  
DOCKED: ATOM     10  N   UNL     1     -50.416 -24.486   8.774 -2.38 -0.00    -0.191 NA 
DOCKED: ATOM     11  C   UNL     1     -49.988 -24.156   9.802 -0.50 +0.00    +0.101 C  
DOCKED: ENDROOT
DOCKED: BRANCH   2  12
DOCKED: ATOM     12  C   UNL     1     -48.871 -22.140  15.864 -0.10 +0.00    +0.038 C  
DOCKED: BRANCH  12  13
DOCKED: ATOM     13  C   UNL     1     -50.247 -21.966  15.224 -0.11 +0.00    +0.038 C  
DOCKED: BRANCH  13  14
DOCKED: ATOM     14  C   UNL     1     -51.126 -23.191  15.471 -0.05 +0.00    +0.251 C  
DOCKED: BRANCH  14  15
DOCKED: ATOM     15  N   UNL     1     -52.389 -23.061  14.755 -0.10 +0.00    +0.141 N  
DOCKED: ATOM     16  C   UNL     1     -52.983 -21.744  14.990 -0.05 +0.00    +0.285 C  
DOCKED: ATOM     17  C   UNL     1     -52.194 -23.282  13.321 -0.11 +0.00    +0.285 C  
DOCKED: ENDBRANCH  14  15
DOCKED: ENDBRANCH  13  14
DOCKED: ENDBRANCH  12  13
DOCKED: ENDBRANCH   2  12
DOCKED: BRANCH   2  18
DOCKED: ATOM     18  C   UNL     1     -46.576 -22.051  14.907 -0.19 +0.00    +0.006 A  
DOCKED: ATOM     19  C   UNL     1     -45.392 -22.758  15.112 -0.19 +0.00    +0.001 A  
DOCKED: ATOM     20  C   UNL     1     -44.171 -22.082  15.126 -0.15 +0.00    +0.029 A  
DOCKED: ATOM     21  C   UNL     1     -44.137 -20.702  14.934 -0.08 +0.00    +0.140 A  
DOCKED: ATOM     22  C   UNL     1     -45.321 -19.995  14.729 -0.10 +0.00    +0.029 A  
DOCKED: ATOM     23  F   UNL     1     -42.965 -20.053  14.946 -0.01 -0.00    -0.204 F  
DOCKED: ATOM     24  C   UNL     1     -46.543 -20.671  14.716 -0.14 +0.00    +0.001 A  
DOCKED: ENDBRANCH   2  18
DOCKED: TORSDOF 5
DOCKED: TER
DOCKED: ENDMDL
________________________________________________________________________________


    FINAL DOCKED STATE:
    ________________________


Run:   354 / 512
Time taken for this run:   0.002s

DOCKED: MODEL        354
DOCKED: USER    Run = 354
DOCKED: USER
DOCKED: USER    Estimated Free Energy of Binding    =  -3.58 kcal/mol  [=(1)+(2)+(3)-(4)]
DOCKED: USER
DOCKED: USER    (1) Final Intermolecular Energy     =  -5.08 kcal/mol
DOCKED: USER        vdW + Hbond + desolv Energy     =  -5.08 kcal/mol
DOCKED: USER        Electrostatic Energy            =  +0.00 kcal/mol
DOCKED: USER        Moving Ligand-Fixed Receptor    =  -5.08 kcal/mol
DOCKED: USER        Moving Ligand-Moving Receptor   =  +0.00 kcal/mol
DOCKED: USER    (2) Final Total Internal Energy     =  -1.48 kcal/mol
DOCKED: USER    (3) Torsional Free Energy           =  +1.49 kcal/mol
DOCKED: USER    (4) Unbound System's Energy         =  -1.48 kcal/mol
DOCKED: USER
DOCKED: USER
DOCKED: REMARK  5 active torsions:
DOCKED: REMARK  status: ('A' for Active; 'I' for Inactive)
DOCKED: REMARK    1  A    between atoms: C_2  and  C_19 
DOCKED: REMARK    2  A    between atoms: C_2  and  C_11 
DOCKED: REMARK    3  A    between atoms: C_19  and  C_20 
DOCKED: REMARK    4  A    between atoms: C_20  and  C_21 
DOCKED: REMARK    5  A    between atoms: C_21  and  N_22 
DOCKED: USER                              x       y       z     vdW  Elec       q    Type
DOCKED: USER                           _______ _______ _______ _____ _____    ______ ____
DOCKED: ROOT
DOCKED: ATOM      1  O   UNL     1     -47.120 -21.115  16.657 -0.01 -0.00    -0.346 OA 
DOCKED: ATOM      2  C   UNL     1     -47.197 -20.431  15.366 -0.08 +0.00    +0.130 C  
DOCKED: ATOM      3  C   UNL     1     -47.877 -21.426  14.471 -0.19 +0.00    +0.004 A  
DOCKED: ATOM      4  C   UNL     1     -48.255 -22.537  15.211 -0.16 +0.00    +0.006 A  
DOCKED: ATOM      5  C   UNL     1     -47.870 -22.352  16.628 -0.07 +0.00    +0.169 C  
DOCKED: ATOM      6  C   UNL     1     -48.149 -21.350  13.113 -0.26 -0.00    -0.001 A  
DOCKED: ATOM      7  C   UNL     1     -48.911 -23.606  14.623 -0.23 +0.00    +0.008 A  
DOCKED: ATOM      8  C   UNL     1     -48.805 -22.421  12.504 -0.33 +0.00    +0.010 A  
DOCKED: ATOM      9  C   UNL     1     -49.184 -23.543  13.256 -0.28 +0.00    +0.068 A  
DOCKED: ATOM     10  N   UNL     1     -50.406 -25.512  12.096 -2.56 -0.00    -0.191 NA 
DOCKED: ATOM     11  C   UNL     1     -49.857 -24.629  12.616 -0.35 +0.00    +0.101 C  
DOCKED: ENDROOT
DOCKED: BRANCH   2  12
DOCKED: ATOM     12  C   UNL     1     -48.001 -19.149  15.546 -0.05 +0.00    +0.038 C  
DOCKED: BRANCH  12  13
DOCKED: ATOM     13  C   UNL     1     -48.568 -19.041  16.960 -0.02 +0.00    +0.038 C  
DOCKED: BRANCH  13  14
DOCKED: ATOM     14  C   UNL     1     -47.614 -18.280  17.879 -0.00 +0.00    +0.251 C  
DOCKED: BRANCH  14  15
DOCKED: ATOM     15  N   UNL     1     -46.821 -19.213  18.671 -0.00 +0.00    +0.141 N  
DOCKED: ATOM     16  C   UNL     1     -45.394 -19.046  18.389 -0.00 +0.00    +0.285 C  
DOCKED: ATOM     17  C   UNL     1     -47.081 -19.028  20.099 +0.00 +0.00    +0.285 C  
DOCKED: ENDBRANCH  14  15
DOCKED: ENDBRANCH  13  14
DOCKED: ENDBRANCH  12  13
DOCKED: ENDBRANCH   2  12
DOCKED: BRANCH   2  18
DOCKED: ATOM     18  C   UNL     1     -45.796 -20.133  14.946 -0.10 +0.00    +0.006 A  
DOCKED: ATOM     19  C   UNL     1     -45.398 -18.814  14.731 -0.06 +0.00    +0.001 A  
DOCKED: ATOM     20  C   UNL     1     -44.088 -18.537  14.339 -0.05 +0.00    +0.029 A  
DOCKED: ATOM     21  C   UNL     1     -43.178 -19.579  14.162 -0.06 +0.00    +0.140 A  
DOCKED: ATOM     22  C   UNL     1     -43.577 -20.898  14.378 -0.10 +0.00    +0.029 A  
DOCKED: ATOM     23  F   UNL     1     -41.921 -19.313  13.787 -0.00 -0.00    -0.204 F  
DOCKED: ATOM     24  C   UNL     1     -44.887 -21.176  14.770 -0.10 +0.00    +0.001 A  
DOCKED: ENDBRANCH   2  18
DOCKED: TORSDOF 5
DOCKED: TER
DOCKED: ENDMDL
________________________________________________________________________________


    FINAL DOCKED STATE:
    ________________________


Run:   355 / 512
Time taken for this run:   0.002s

DOCKED: MODEL        355
DOCKED: USER    Run = 355
DOCKED: USER
DOCKED: USER    Estimated Free Energy of Binding    =  -4.61 kcal/mol  [=(1)+(2)+(3)-(4)]
DOCKED: USER
DOCKED: USER    (1) Final Intermolecular Energy     =  -6.11 kcal/mol
DOCKED: USER        vdW + Hbond + desolv Energy     =  -6.11 kcal/mol
DOCKED: USER        Electrostatic Energy            =  +0.00 kcal/mol
DOCKED: USER        Moving Ligand-Fixed Receptor    =  -6.11 kcal/mol
DOCKED: USER        Moving Ligand-Moving Receptor   =  +0.00 kcal/mol
DOCKED: USER    (2) Final Total Internal Energy     =  -1.54 kcal/mol
DOCKED: USER    (3) Torsional Free Energy           =  +1.49 kcal/mol
DOCKED: USER    (4) Unbound System's Energy         =  -1.54 kcal/mol
DOCKED: USER
DOCKED: USER
DOCKED: REMARK  5 active torsions:
DOCKED: REMARK  status: ('A' for Active; 'I' for Inactive)
DOCKED: REMARK    1  A    between atoms: C_2  and  C_19 
DOCKED: REMARK    2  A    between atoms: C_2  and  C_11 
DOCKED: REMARK    3  A    between atoms: C_19  and  C_20 
DOCKED: REMARK    4  A    between atoms: C_20  and  C_21 
DOCKED: REMARK    5  A    between atoms: C_21  and  N_22 
DOCKED: USER                              x       y       z     vdW  Elec       q    Type
DOCKED: USER                           _______ _______ _______ _____ _____    ______ ____
DOCKED: ROOT
DOCKED: ATOM      1  O   UNL     1     -46.287 -15.653   7.937 -0.08 -0.00    -0.346 OA 
DOCKED: ATOM      2  C   UNL     1     -44.996 -15.453   7.279 -0.16 +0.00    +0.130 C  
DOCKED: ATOM      3  C   UNL     1     -45.350 -14.759   5.996 -0.24 +0.00    +0.004 A  
DOCKED: ATOM      4  C   UNL     1     -46.711 -14.487   5.972 -0.28 +0.00    +0.006 A  
DOCKED: ATOM      5  C   UNL     1     -47.340 -14.963   7.225 -0.23 +0.00    +0.169 C  
DOCKED: ATOM      6  C   UNL     1     -44.532 -14.387   4.938 -0.21 -0.00    -0.001 A  
DOCKED: ATOM      7  C   UNL     1     -47.299 -13.842   4.897 -0.27 +0.00    +0.008 A  
DOCKED: ATOM      8  C   UNL     1     -45.111 -13.741   3.845 -0.27 +0.00    +0.010 A  
DOCKED: ATOM      9  C   UNL     1     -46.487 -13.469   3.825 -0.29 +0.00    +0.068 A  
DOCKED: ATOM     10  N   UNL     1     -47.528 -12.263   1.782 -2.38 -0.00    -0.191 NA 
DOCKED: ATOM     11  C   UNL     1     -47.061 -12.805   2.698 -0.34 +0.00    +0.101 C  
DOCKED: ENDROOT
DOCKED: BRANCH   2  12
DOCKED: ATOM     12  C   UNL     1     -44.116 -14.604   8.189 -0.16 +0.00    +0.038 C  
DOCKED: BRANCH  12  13
DOCKED: ATOM     13  C   UNL     1     -44.606 -14.647   9.635 -0.15 +0.00    +0.038 C  
DOCKED: BRANCH  13  14
DOCKED: ATOM     14  C   UNL     1     -44.266 -15.984  10.291 -0.04 +0.00    +0.251 C  
DOCKED: BRANCH  14  15
DOCKED: ATOM     15  N   UNL     1     -45.469 -16.794  10.445 -0.07 +0.00    +0.141 N  
DOCKED: ATOM     16  C   UNL     1     -45.121 -18.177  10.776 -0.09 +0.00    +0.285 C  
DOCKED: ATOM     17  C   UNL     1     -46.341 -16.229  11.477 -0.05 +0.00    +0.285 C  
DOCKED: ENDBRANCH  14  15
DOCKED: ENDBRANCH  13  14
DOCKED: ENDBRANCH  12  13
DOCKED: ENDBRANCH   2  12
DOCKED: BRANCH   2  18
DOCKED: ATOM     18  C   UNL     1     -44.401 -16.804   7.064 -0.11 +0.00    +0.006 A  
DOCKED: ATOM     19  C   UNL     1     -45.194 -17.943   7.198 -0.20 +0.00    +0.001 A  
DOCKED: ATOM     20  C   UNL     1     -44.637 -19.207   6.997 -0.19 +0.00    +0.029 A  
DOCKED: ATOM     21  C   UNL     1     -43.289 -19.329   6.662 -0.13 +0.00    +0.140 A  
DOCKED: ATOM     22  C   UNL     1     -42.497 -18.189   6.527 -0.05 +0.00    +0.029 A  
DOCKED: ATOM     23  F   UNL     1     -42.755 -20.542   6.467 -0.06 -0.00    -0.204 F  
DOCKED: ATOM     24  C   UNL     1     -43.053 -16.925   6.729 -0.05 +0.00    +0.001 A  
DOCKED: ENDBRANCH   2  18
DOCKED: TORSDOF 5
DOCKED: TER
DOCKED: ENDMDL
________________________________________________________________________________


    FINAL DOCKED STATE:
    ________________________


Run:   356 / 512
Time taken for this run:   0.002s

DOCKED: MODEL        356
DOCKED: USER    Run = 356
DOCKED: USER
DOCKED: USER    Estimated Free Energy of Binding    =  -4.89 kcal/mol  [=(1)+(2)+(3)-(4)]
DOCKED: USER
DOCKED: USER    (1) Final Intermolecular Energy     =  -6.38 kcal/mol
DOCKED: USER        vdW + Hbond + desolv Energy     =  -6.38 kcal/mol
DOCKED: USER        Electrostatic Energy            =  +0.00 kcal/mol
DOCKED: USER        Moving Ligand-Fixed Receptor    =  -6.38 kcal/mol
DOCKED: USER        Moving Ligand-Moving Receptor   =  +0.00 kcal/mol
DOCKED: USER    (2) Final Total Internal Energy     =  -1.29 kcal/mol
DOCKED: USER    (3) Torsional Free Energy           =  +1.49 kcal/mol
DOCKED: USER    (4) Unbound System's Energy         =  -1.29 kcal/mol
DOCKED: USER
DOCKED: USER
DOCKED: REMARK  5 active torsions:
DOCKED: REMARK  status: ('A' for Active; 'I' for Inactive)
DOCKED: REMARK    1  A    between atoms: C_2  and  C_19 
DOCKED: REMARK    2  A    between atoms: C_2  and  C_11 
DOCKED: REMARK    3  A    between atoms: C_19  and  C_20 
DOCKED: REMARK    4  A    between atoms: C_20  and  C_21 
DOCKED: REMARK    5  A    between atoms: C_21  and  N_22 
DOCKED: USER                              x       y       z     vdW  Elec       q    Type
DOCKED: USER                           _______ _______ _______ _____ _____    ______ ____
DOCKED: ROOT
DOCKED: ATOM      1  O   UNL     1     -51.879 -23.715  15.279 -0.03 -0.00    -0.346 OA 
DOCKED: ATOM      2  C   UNL     1     -50.719 -22.857  15.033 -0.11 +0.00    +0.130 C  
DOCKED: ATOM      3  C   UNL     1     -50.465 -23.010  13.561 -0.23 +0.00    +0.004 A  
DOCKED: ATOM      4  C   UNL     1     -51.458 -23.796  12.995 -0.29 +0.00    +0.006 A  
DOCKED: ATOM      5  C   UNL     1     -52.431 -24.203  14.034 -0.16 +0.00    +0.169 C  
DOCKED: ATOM      6  C   UNL     1     -49.444 -22.485  12.783 -0.33 -0.00    -0.001 A  
DOCKED: ATOM      7  C   UNL     1     -51.463 -24.088  11.642 -0.35 +0.00    +0.008 A  
DOCKED: ATOM      8  C   UNL     1     -49.432 -22.773  11.418 -0.29 +0.00    +0.010 A  
DOCKED: ATOM      9  C   UNL     1     -50.437 -23.570  10.850 -0.32 +0.00    +0.068 A  
DOCKED: ATOM     10  N   UNL     1     -50.388 -24.082   8.310 -3.03 -0.00    -0.191 NA 
DOCKED: ATOM     11  C   UNL     1     -50.410 -23.853   9.449 -0.25 +0.00    +0.101 C  
DOCKED: ENDROOT
DOCKED: BRANCH   2  12
DOCKED: ATOM     12  C   UNL     1     -51.081 -21.431  15.428 -0.10 +0.00    +0.038 C  
DOCKED: BRANCH  12  13
DOCKED: ATOM     13  C   UNL     1     -50.780 -21.168  16.902 -0.04 +0.00    +0.038 C  
DOCKED: BRANCH  13  14
DOCKED: ATOM     14  C   UNL     1     -51.813 -21.843  17.803 -0.00 +0.00    +0.251 C  
DOCKED: BRANCH  14  15
DOCKED: ATOM     15  N   UNL     1     -51.365 -21.826  19.190 -0.01 +0.00    +0.141 N  
DOCKED: ATOM     16  C   UNL     1     -52.132 -22.781  19.992 -0.00 +0.00    +0.285 C  
DOCKED: ATOM     17  C   UNL     1     -49.935 -22.127  19.274 -0.00 +0.00    +0.285 C  
DOCKED: ENDBRANCH  14  15
DOCKED: ENDBRANCH  13  14
DOCKED: ENDBRANCH  12  13
DOCKED: ENDBRANCH   2  12
DOCKED: BRANCH   2  18
DOCKED: ATOM     18  C   UNL     1     -49.603 -23.382  15.873 -0.14 +0.00    +0.006 A  
DOCKED: ATOM     19  C   UNL     1     -49.815 -24.478  16.708 -0.19 +0.00    +0.001 A  
DOCKED: ATOM     20  C   UNL     1     -48.771 -24.967  17.493 -0.20 +0.00    +0.029 A  
DOCKED: ATOM     21  C   UNL     1     -47.516 -24.361  17.442 -0.06 +0.00    +0.140 A  
DOCKED: ATOM     22  C   UNL     1     -47.305 -23.265  16.606 -0.13 +0.00    +0.029 A  
DOCKED: ATOM     23  F   UNL     1     -46.513 -24.832  18.194 -0.01 -0.00    -0.204 F  
DOCKED: ATOM     24  C   UNL     1     -48.349 -22.774  15.821 -0.13 +0.00    +0.001 A  
DOCKED: ENDBRANCH   2  18
DOCKED: TORSDOF 5
DOCKED: TER
DOCKED: ENDMDL
________________________________________________________________________________


    FINAL DOCKED STATE:
    ________________________


Run:   357 / 512
Time taken for this run:   0.002s

DOCKED: MODEL        357
DOCKED: USER    Run = 357
DOCKED: USER
DOCKED: USER    Estimated Free Energy of Binding    =  -3.75 kcal/mol  [=(1)+(2)+(3)-(4)]
DOCKED: USER
DOCKED: USER    (1) Final Intermolecular Energy     =  -5.24 kcal/mol
DOCKED: USER        vdW + Hbond + desolv Energy     =  -5.24 kcal/mol
DOCKED: USER        Electrostatic Energy            =  +0.00 kcal/mol
DOCKED: USER        Moving Ligand-Fixed Receptor    =  -5.24 kcal/mol
DOCKED: USER        Moving Ligand-Moving Receptor   =  +0.00 kcal/mol
DOCKED: USER    (2) Final Total Internal Energy     =  -1.19 kcal/mol
DOCKED: USER    (3) Torsional Free Energy           =  +1.49 kcal/mol
DOCKED: USER    (4) Unbound System's Energy         =  -1.19 kcal/mol
DOCKED: USER
DOCKED: USER
DOCKED: REMARK  5 active torsions:
DOCKED: REMARK  status: ('A' for Active; 'I' for Inactive)
DOCKED: REMARK    1  A    between atoms: C_2  and  C_19 
DOCKED: REMARK    2  A    between atoms: C_2  and  C_11 
DOCKED: REMARK    3  A    between atoms: C_19  and  C_20 
DOCKED: REMARK    4  A    between atoms: C_20  and  C_21 
DOCKED: REMARK    5  A    between atoms: C_21  and  N_22 
DOCKED: USER                              x       y       z     vdW  Elec       q    Type
DOCKED: USER                           _______ _______ _______ _____ _____    ______ ____
DOCKED: ROOT
DOCKED: ATOM      1  O   UNL     1     -42.401 -10.620   6.211 -0.09 -0.00    -0.346 OA 
DOCKED: ATOM      2  C   UNL     1     -41.916 -11.769   5.446 -0.11 +0.00    +0.130 C  
DOCKED: ATOM      3  C   UNL     1     -43.031 -12.056   4.482 -0.16 +0.00    +0.004 A  
DOCKED: ATOM      4  C   UNL     1     -44.018 -11.089   4.608 -0.25 +0.00    +0.006 A  
DOCKED: ATOM      5  C   UNL     1     -43.626 -10.102   5.640 -0.15 +0.00    +0.169 C  
DOCKED: ATOM      6  C   UNL     1     -43.156 -13.084   3.559 -0.11 -0.00    -0.001 A  
DOCKED: ATOM      7  C   UNL     1     -45.159 -11.117   3.825 -0.14 +0.00    +0.008 A  
DOCKED: ATOM      8  C   UNL     1     -44.303 -13.129   2.765 -0.21 +0.00    +0.010 A  
DOCKED: ATOM      9  C   UNL     1     -45.299 -12.150   2.897 -0.34 +0.00    +0.068 A  
DOCKED: ATOM     10  N   UNL     1     -47.413 -12.260   1.403 -2.54 -0.00    -0.191 NA 
DOCKED: ATOM     11  C   UNL     1     -46.465 -12.211   2.073 -0.44 +0.00    +0.101 C  
DOCKED: ENDROOT
DOCKED: BRANCH   2  12
DOCKED: ATOM     12  C   UNL     1     -40.618 -11.374   4.752 -0.05 +0.00    +0.038 C  
DOCKED: BRANCH  12  13
DOCKED: ATOM     13  C   UNL     1     -40.386  -9.866   4.821 -0.05 +0.00    +0.038 C  
DOCKED: BRANCH  13  14
DOCKED: ATOM     14  C   UNL     1     -39.997  -9.307   3.454 -0.02 +0.00    +0.251 C  
DOCKED: BRANCH  14  15
DOCKED: ATOM     15  N   UNL     1     -40.732  -8.078   3.181 -0.06 +0.00    +0.141 N  
DOCKED: ATOM     16  C   UNL     1     -42.159  -8.257   3.457 -0.09 +0.00    +0.285 C  
DOCKED: ATOM     17  C   UNL     1     -40.198  -6.970   3.975 -0.01 +0.00    +0.285 C  
DOCKED: ENDBRANCH  14  15
DOCKED: ENDBRANCH  13  14
DOCKED: ENDBRANCH  12  13
DOCKED: ENDBRANCH   2  12
DOCKED: BRANCH   2  18
DOCKED: ATOM     18  C   UNL     1     -41.691 -12.877   6.420 -0.11 +0.00    +0.006 A  
DOCKED: ATOM     19  C   UNL     1     -42.770 -13.629   6.883 -0.13 +0.00    +0.001 A  
DOCKED: ATOM     20  C   UNL     1     -42.558 -14.664   7.794 -0.09 +0.00    +0.029 A  
DOCKED: ATOM     21  C   UNL     1     -41.268 -14.947   8.240 -0.03 +0.00    +0.140 A  
DOCKED: ATOM     22  C   UNL     1     -40.188 -14.195   7.777 -0.02 +0.00    +0.029 A  
DOCKED: ATOM     23  F   UNL     1     -41.064 -15.942   9.113 +0.00 -0.00    -0.204 F  
DOCKED: ATOM     24  C   UNL     1     -40.400 -13.158   6.866 -0.04 +0.00    +0.001 A  
DOCKED: ENDBRANCH   2  18
DOCKED: TORSDOF 5
DOCKED: TER
DOCKED: ENDMDL
________________________________________________________________________________


    FINAL DOCKED STATE:
    ________________________


Run:   358 / 512
Time taken for this run:   0.002s

DOCKED: MODEL        358
DOCKED: USER    Run = 358
DOCKED: USER
DOCKED: USER    Estimated Free Energy of Binding    =  -5.20 kcal/mol  [=(1)+(2)+(3)-(4)]
DOCKED: USER
DOCKED: USER    (1) Final Intermolecular Energy     =  -6.69 kcal/mol
DOCKED: USER        vdW + Hbond + desolv Energy     =  -6.69 kcal/mol
DOCKED: USER        Electrostatic Energy            =  +0.00 kcal/mol
DOCKED: USER        Moving Ligand-Fixed Receptor    =  -6.69 kcal/mol
DOCKED: USER        Moving Ligand-Moving Receptor   =  +0.00 kcal/mol
DOCKED: USER    (2) Final Total Internal Energy     =  -1.13 kcal/mol
DOCKED: USER    (3) Torsional Free Energy           =  +1.49 kcal/mol
DOCKED: USER    (4) Unbound System's Energy         =  -1.13 kcal/mol
DOCKED: USER
DOCKED: USER
DOCKED: REMARK  5 active torsions:
DOCKED: REMARK  status: ('A' for Active; 'I' for Inactive)
DOCKED: REMARK    1  A    between atoms: C_2  and  C_19 
DOCKED: REMARK    2  A    between atoms: C_2  and  C_11 
DOCKED: REMARK    3  A    between atoms: C_19  and  C_20 
DOCKED: REMARK    4  A    between atoms: C_20  and  C_21 
DOCKED: REMARK    5  A    between atoms: C_21  and  N_22 
DOCKED: USER                              x       y       z     vdW  Elec       q    Type
DOCKED: USER                           _______ _______ _______ _____ _____    ______ ____
DOCKED: ROOT
DOCKED: ATOM      1  O   UNL     1     -47.256 -24.135  15.177 -0.08 -0.00    -0.346 OA 
DOCKED: ATOM      2  C   UNL     1     -47.629 -22.778  14.778 -0.21 +0.00    +0.130 C  
DOCKED: ATOM      3  C   UNL     1     -48.261 -22.961  13.428 -0.32 +0.00    +0.004 A  
DOCKED: ATOM      4  C   UNL     1     -48.343 -24.314  13.131 -0.40 +0.00    +0.006 A  
DOCKED: ATOM      5  C   UNL     1     -47.791 -25.109  14.251 -0.25 +0.00    +0.169 C  
DOCKED: ATOM      6  C   UNL     1     -48.736 -22.007  12.540 -0.31 -0.00    -0.001 A  
DOCKED: ATOM      7  C   UNL     1     -48.894 -24.758  11.941 -0.46 +0.00    +0.008 A  
DOCKED: ATOM      8  C   UNL     1     -49.291 -22.439  11.334 -0.05 +0.00    +0.010 A  
DOCKED: ATOM      9  C   UNL     1     -49.370 -23.808  11.037 -0.40 +0.00    +0.068 A  
DOCKED: ATOM     10  N   UNL     1     -50.411 -24.576   8.792 -2.31 -0.00    -0.191 NA 
DOCKED: ATOM     11  C   UNL     1     -49.943 -24.231   9.798 -0.48 +0.00    +0.101 C  
DOCKED: ENDROOT
DOCKED: BRANCH   2  12
DOCKED: ATOM     12  C   UNL     1     -48.596 -22.218  15.815 -0.11 +0.00    +0.038 C  
DOCKED: BRANCH  12  13
DOCKED: ATOM     13  C   UNL     1     -49.522 -23.306  16.356 -0.14 +0.00    +0.038 C  
DOCKED: BRANCH  13  14
DOCKED: ATOM     14  C   UNL     1     -49.742 -23.142  17.859 -0.04 +0.00    +0.251 C  
DOCKED: BRANCH  14  15
DOCKED: ATOM     15  N   UNL     1     -48.921 -24.094  18.598 -0.09 +0.00    +0.141 N  
DOCKED: ATOM     16  C   UNL     1     -49.684 -24.690  19.696 -0.07 +0.00    +0.285 C  
DOCKED: ATOM     17  C   UNL     1     -48.414 -25.139  17.707 -0.13 +0.00    +0.285 C  
DOCKED: ENDBRANCH  14  15
DOCKED: ENDBRANCH  13  14
DOCKED: ENDBRANCH  12  13
DOCKED: ENDBRANCH   2  12
DOCKED: BRANCH   2  18
DOCKED: ATOM     18  C   UNL     1     -46.371 -21.976  14.727 -0.17 +0.00    +0.006 A  
DOCKED: ATOM     19  C   UNL     1     -45.161 -22.556  15.104 -0.18 +0.00    +0.001 A  
DOCKED: ATOM     20  C   UNL     1     -43.985 -21.805  15.057 -0.14 +0.00    +0.029 A  
DOCKED: ATOM     21  C   UNL     1     -44.022 -20.478  14.632 -0.08 +0.00    +0.140 A  
DOCKED: ATOM     22  C   UNL     1     -45.234 -19.899  14.254 -0.11 +0.00    +0.029 A  
DOCKED: ATOM     23  F   UNL     1     -42.894 -19.758  14.584 -0.01 -0.00    -0.204 F  
DOCKED: ATOM     24  C   UNL     1     -46.410 -20.649  14.302 -0.15 +0.00    +0.001 A  
DOCKED: ENDBRANCH   2  18
DOCKED: TORSDOF 5
DOCKED: TER
DOCKED: ENDMDL
________________________________________________________________________________


    FINAL DOCKED STATE:
    ________________________


Run:   359 / 512
Time taken for this run:   0.002s

DOCKED: MODEL        359
DOCKED: USER    Run = 359
DOCKED: USER
DOCKED: USER    Estimated Free Energy of Binding    =  -5.10 kcal/mol  [=(1)+(2)+(3)-(4)]
DOCKED: USER
DOCKED: USER    (1) Final Intermolecular Energy     =  -6.60 kcal/mol
DOCKED: USER        vdW + Hbond + desolv Energy     =  -6.60 kcal/mol
DOCKED: USER        Electrostatic Energy            =  +0.00 kcal/mol
DOCKED: USER        Moving Ligand-Fixed Receptor    =  -6.60 kcal/mol
DOCKED: USER        Moving Ligand-Moving Receptor   =  +0.00 kcal/mol
DOCKED: USER    (2) Final Total Internal Energy     =  -1.20 kcal/mol
DOCKED: USER    (3) Torsional Free Energy           =  +1.49 kcal/mol
DOCKED: USER    (4) Unbound System's Energy         =  -1.20 kcal/mol
DOCKED: USER
DOCKED: USER
DOCKED: REMARK  5 active torsions:
DOCKED: REMARK  status: ('A' for Active; 'I' for Inactive)
DOCKED: REMARK    1  A    between atoms: C_2  and  C_19 
DOCKED: REMARK    2  A    between atoms: C_2  and  C_11 
DOCKED: REMARK    3  A    between atoms: C_19  and  C_20 
DOCKED: REMARK    4  A    between atoms: C_20  and  C_21 
DOCKED: REMARK    5  A    between atoms: C_21  and  N_22 
DOCKED: USER                              x       y       z     vdW  Elec       q    Type
DOCKED: USER                           _______ _______ _______ _____ _____    ______ ____
DOCKED: ROOT
DOCKED: ATOM      1  O   UNL     1     -51.793 -22.511  14.991 -0.00 -0.00    -0.346 OA 
DOCKED: ATOM      2  C   UNL     1     -50.347 -22.424  14.783 -0.11 +0.00    +0.130 C  
DOCKED: ATOM      3  C   UNL     1     -50.159 -22.879  13.365 -0.25 +0.00    +0.004 A  
DOCKED: ATOM      4  C   UNL     1     -51.396 -23.102  12.778 -0.28 +0.00    +0.006 A  
DOCKED: ATOM      5  C   UNL     1     -52.473 -22.801  13.748 -0.18 +0.00    +0.169 C  
DOCKED: ATOM      6  C   UNL     1     -48.987 -23.071  12.648 -0.37 -0.00    -0.001 A  
DOCKED: ATOM      7  C   UNL     1     -51.505 -23.525  11.464 -0.26 +0.00    +0.008 A  
DOCKED: ATOM      8  C   UNL     1     -49.080 -23.501  11.324 -0.30 +0.00    +0.010 A  
DOCKED: ATOM      9  C   UNL     1     -50.333 -23.727  10.735 -0.37 +0.00    +0.068 A  
DOCKED: ATOM     10  N   UNL     1     -50.470 -24.521   8.272 -2.76 -0.00    -0.191 NA 
DOCKED: ATOM     11  C   UNL     1     -50.409 -24.165   9.377 -0.28 +0.00    +0.101 C  
DOCKED: ENDROOT
DOCKED: BRANCH   2  12
DOCKED: ATOM     12  C   UNL     1     -49.914 -20.979  15.004 -0.12 +0.00    +0.038 C  
DOCKED: BRANCH  12  13
DOCKED: ATOM     13  C   UNL     1     -49.111 -20.830  16.295 -0.05 +0.00    +0.038 C  
DOCKED: BRANCH  13  14
DOCKED: ATOM     14  C   UNL     1     -47.696 -20.332  16.007 -0.03 +0.00    +0.251 C  
DOCKED: BRANCH  14  15
DOCKED: ATOM     15  N   UNL     1     -47.137 -21.031  14.855 -0.11 +0.00    +0.141 N  
DOCKED: ATOM     16  C   UNL     1     -47.028 -20.129  13.708 -0.14 +0.00    +0.285 C  
DOCKED: ATOM     17  C   UNL     1     -45.828 -21.598  15.182 -0.11 +0.00    +0.285 C  
DOCKED: ENDBRANCH  14  15
DOCKED: ENDBRANCH  13  14
DOCKED: ENDBRANCH  12  13
DOCKED: ENDBRANCH   2  12
DOCKED: BRANCH   2  18
DOCKED: ATOM     18  C   UNL     1     -49.707 -23.335  15.777 -0.13 +0.00    +0.006 A  
DOCKED: ATOM     19  C   UNL     1     -48.391 -23.757  15.590 -0.21 +0.00    +0.001 A  
DOCKED: ATOM     20  C   UNL     1     -47.795 -24.609  16.519 -0.00 +0.00    +0.029 A  
DOCKED: ATOM     21  C   UNL     1     -48.514 -25.039  17.634 -0.17 +0.00    +0.140 A  
DOCKED: ATOM     22  C   UNL     1     -49.830 -24.617  17.820 -0.16 +0.00    +0.029 A  
DOCKED: ATOM     23  F   UNL     1     -47.940 -25.856  18.527 -0.10 -0.00    -0.204 F  
DOCKED: ATOM     24  C   UNL     1     -50.428 -23.764  16.891 -0.13 +0.00    +0.001 A  
DOCKED: ENDBRANCH   2  18
DOCKED: TORSDOF 5
DOCKED: TER
DOCKED: ENDMDL
________________________________________________________________________________


    FINAL DOCKED STATE:
    ________________________


Run:   360 / 512
Time taken for this run:   0.002s

DOCKED: MODEL        360
DOCKED: USER    Run = 360
DOCKED: USER
DOCKED: USER    Estimated Free Energy of Binding    =  -6.11 kcal/mol  [=(1)+(2)+(3)-(4)]
DOCKED: USER
DOCKED: USER    (1) Final Intermolecular Energy     =  -7.60 kcal/mol
DOCKED: USER        vdW + Hbond + desolv Energy     =  -7.60 kcal/mol
DOCKED: USER        Electrostatic Energy            =  +0.00 kcal/mol
DOCKED: USER        Moving Ligand-Fixed Receptor    =  -7.60 kcal/mol
DOCKED: USER        Moving Ligand-Moving Receptor   =  +0.00 kcal/mol
DOCKED: USER    (2) Final Total Internal Energy     =  -1.05 kcal/mol
DOCKED: USER    (3) Torsional Free Energy           =  +1.49 kcal/mol
DOCKED: USER    (4) Unbound System's Energy         =  -1.05 kcal/mol
DOCKED: USER
DOCKED: USER
DOCKED: REMARK  5 active torsions:
DOCKED: REMARK  status: ('A' for Active; 'I' for Inactive)
DOCKED: REMARK    1  A    between atoms: C_2  and  C_19 
DOCKED: REMARK    2  A    between atoms: C_2  and  C_11 
DOCKED: REMARK    3  A    between atoms: C_19  and  C_20 
DOCKED: REMARK    4  A    between atoms: C_20  and  C_21 
DOCKED: REMARK    5  A    between atoms: C_21  and  N_22 
DOCKED: USER                              x       y       z     vdW  Elec       q    Type
DOCKED: USER                           _______ _______ _______ _____ _____    ______ ____
DOCKED: ROOT
DOCKED: ATOM      1  O   UNL     1     -47.802 -24.764  14.500 -0.35 -0.00    -0.346 OA 
DOCKED: ATOM      2  C   UNL     1     -49.027 -23.971  14.609 -0.23 +0.00    +0.130 C  
DOCKED: ATOM      3  C   UNL     1     -49.544 -23.911  13.201 -0.32 +0.00    +0.004 A  
DOCKED: ATOM      4  C   UNL     1     -48.748 -24.694  12.378 -0.43 +0.00    +0.006 A  
DOCKED: ATOM      5  C   UNL     1     -47.672 -25.327  13.173 -0.27 +0.00    +0.169 C  
DOCKED: ATOM      6  C   UNL     1     -50.639 -23.229  12.692 -0.30 -0.00    -0.001 A  
DOCKED: ATOM      7  C   UNL     1     -49.013 -24.818  11.025 -0.41 +0.00    +0.008 A  
DOCKED: ATOM      8  C   UNL     1     -50.917 -23.340  11.329 -0.14 +0.00    +0.010 A  
DOCKED: ATOM      9  C   UNL     1     -50.108 -24.131  10.500 -0.44 +0.00    +0.068 A  
DOCKED: ATOM     10  N   UNL     1     -50.655 -24.319   7.974 -3.18 -0.00    -0.191 NA 
DOCKED: ATOM     11  C   UNL     1     -50.410 -24.234   9.107 -0.29 +0.00    +0.101 C  
DOCKED: ENDROOT
DOCKED: BRANCH   2  12
DOCKED: ATOM     12  C   UNL     1     -49.979 -24.682  15.563 -0.26 +0.00    +0.038 C  
DOCKED: BRANCH  12  13
DOCKED: ATOM     13  C   UNL     1     -49.295 -25.021  16.885 -0.12 +0.00    +0.038 C  
DOCKED: BRANCH  13  14
DOCKED: ATOM     14  C   UNL     1     -49.748 -24.075  17.996 -0.08 +0.00    +0.251 C  
DOCKED: BRANCH  14  15
DOCKED: ATOM     15  N   UNL     1     -50.748 -24.723  18.837 -0.11 +0.00    +0.141 N  
DOCKED: ATOM     16  C   UNL     1     -50.977 -23.948  20.057 -0.03 +0.00    +0.285 C  
DOCKED: ATOM     17  C   UNL     1     -52.003 -24.898  18.103 -0.07 +0.00    +0.285 C  
DOCKED: ENDBRANCH  14  15
DOCKED: ENDBRANCH  13  14
DOCKED: ENDBRANCH  12  13
DOCKED: ENDBRANCH   2  12
DOCKED: BRANCH   2  18
DOCKED: ATOM     18  C   UNL     1     -48.633 -22.633  15.141 -0.15 +0.00    +0.006 A  
DOCKED: ATOM     19  C   UNL     1     -47.305 -22.216  15.064 -0.19 +0.00    +0.001 A  
DOCKED: ATOM     20  C   UNL     1     -46.938 -20.965  15.562 -0.10 +0.00    +0.029 A  
DOCKED: ATOM     21  C   UNL     1     -47.899 -20.133  16.135 -0.02 +0.00    +0.140 A  
DOCKED: ATOM     22  C   UNL     1     -49.227 -20.551  16.212 -0.04 +0.00    +0.029 A  
DOCKED: ATOM     23  F   UNL     1     -47.547 -18.932  16.611 +0.00 -0.00    -0.204 F  
DOCKED: ATOM     24  C   UNL     1     -49.595 -21.803  15.714 -0.08 +0.00    +0.001 A  
DOCKED: ENDBRANCH   2  18
DOCKED: TORSDOF 5
DOCKED: TER
DOCKED: ENDMDL
________________________________________________________________________________


    FINAL DOCKED STATE:
    ________________________


Run:   361 / 512
Time taken for this run:   0.002s

DOCKED: MODEL        361
DOCKED: USER    Run = 361
DOCKED: USER
DOCKED: USER    Estimated Free Energy of Binding    =  -4.31 kcal/mol  [=(1)+(2)+(3)-(4)]
DOCKED: USER
DOCKED: USER    (1) Final Intermolecular Energy     =  -5.80 kcal/mol
DOCKED: USER        vdW + Hbond + desolv Energy     =  -5.80 kcal/mol
DOCKED: USER        Electrostatic Energy            =  +0.00 kcal/mol
DOCKED: USER        Moving Ligand-Fixed Receptor    =  -5.80 kcal/mol
DOCKED: USER        Moving Ligand-Moving Receptor   =  +0.00 kcal/mol
DOCKED: USER    (2) Final Total Internal Energy     =  -1.31 kcal/mol
DOCKED: USER    (3) Torsional Free Energy           =  +1.49 kcal/mol
DOCKED: USER    (4) Unbound System's Energy         =  -1.31 kcal/mol
DOCKED: USER
DOCKED: USER
DOCKED: REMARK  5 active torsions:
DOCKED: REMARK  status: ('A' for Active; 'I' for Inactive)
DOCKED: REMARK    1  A    between atoms: C_2  and  C_19 
DOCKED: REMARK    2  A    between atoms: C_2  and  C_11 
DOCKED: REMARK    3  A    between atoms: C_19  and  C_20 
DOCKED: REMARK    4  A    between atoms: C_20  and  C_21 
DOCKED: REMARK    5  A    between atoms: C_21  and  N_22 
DOCKED: USER                              x       y       z     vdW  Elec       q    Type
DOCKED: USER                           _______ _______ _______ _____ _____    ______ ____
DOCKED: ROOT
DOCKED: ATOM      1  O   UNL     1     -45.796 -21.275  15.252 -0.07 -0.00    -0.346 OA 
DOCKED: ATOM      2  C   UNL     1     -46.804 -20.458  14.575 -0.13 +0.00    +0.130 C  
DOCKED: ATOM      3  C   UNL     1     -47.702 -21.466  13.919 -0.23 +0.00    +0.004 A  
DOCKED: ATOM      4  C   UNL     1     -47.308 -22.747  14.279 -0.25 +0.00    +0.006 A  
DOCKED: ATOM      5  C   UNL     1     -46.148 -22.677  15.195 -0.18 +0.00    +0.169 C  
DOCKED: ATOM      6  C   UNL     1     -48.789 -21.265  13.080 -0.28 -0.00    -0.001 A  
DOCKED: ATOM      7  C   UNL     1     -47.979 -23.865  13.813 -0.35 +0.00    +0.008 A  
DOCKED: ATOM      8  C   UNL     1     -49.472 -22.383  12.598 -0.32 +0.00    +0.010 A  
DOCKED: ATOM      9  C   UNL     1     -49.069 -23.676  12.963 -0.31 +0.00    +0.068 A  
DOCKED: ATOM     10  N   UNL     1     -50.363 -25.728  12.054 -2.53 -0.00    -0.191 NA 
DOCKED: ATOM     11  C   UNL     1     -49.782 -24.808  12.461 -0.30 +0.00    +0.101 C  
DOCKED: ENDROOT
DOCKED: BRANCH   2  12
DOCKED: ATOM     12  C   UNL     1     -47.523 -19.615  15.622 -0.06 +0.00    +0.038 C  
DOCKED: BRANCH  12  13
DOCKED: ATOM     13  C   UNL     1     -48.787 -20.310  16.125 -0.05 +0.00    +0.038 C  
DOCKED: BRANCH  13  14
DOCKED: ATOM     14  C   UNL     1     -48.472 -21.249  17.287 -0.01 +0.00    +0.251 C  
DOCKED: BRANCH  14  15
DOCKED: ATOM     15  N   UNL     1     -49.627 -22.086  17.591 -0.02 +0.00    +0.141 N  
DOCKED: ATOM     16  C   UNL     1     -50.601 -21.348  18.397 -0.00 +0.00    +0.285 C  
DOCKED: ATOM     17  C   UNL     1     -50.252 -22.569  16.358 -0.02 +0.00    +0.285 C  
DOCKED: ENDBRANCH  14  15
DOCKED: ENDBRANCH  13  14
DOCKED: ENDBRANCH  12  13
DOCKED: ENDBRANCH   2  12
DOCKED: BRANCH   2  18
DOCKED: ATOM     18  C   UNL     1     -46.082 -19.597  13.594 -0.15 +0.00    +0.006 A  
DOCKED: ATOM     19  C   UNL     1     -44.704 -19.735  13.427 -0.09 +0.00    +0.001 A  
DOCKED: ATOM     20  C   UNL     1     -44.030 -18.929  12.509 -0.10 +0.00    +0.029 A  
DOCKED: ATOM     21  C   UNL     1     -44.733 -17.987  11.760 -0.08 +0.00    +0.140 A  
DOCKED: ATOM     22  C   UNL     1     -46.111 -17.849  11.927 -0.10 +0.00    +0.029 A  
DOCKED: ATOM     23  F   UNL     1     -44.086 -17.215  10.878 -0.00 -0.00    -0.204 F  
DOCKED: ATOM     24  C   UNL     1     -46.786 -18.655  12.846 -0.15 +0.00    +0.001 A  
DOCKED: ENDBRANCH   2  18
DOCKED: TORSDOF 5
DOCKED: TER
DOCKED: ENDMDL
________________________________________________________________________________


    FINAL DOCKED STATE:
    ________________________


Run:   362 / 512
Time taken for this run:   0.002s

DOCKED: MODEL        362
DOCKED: USER    Run = 362
DOCKED: USER
DOCKED: USER    Estimated Free Energy of Binding    =  -4.83 kcal/mol  [=(1)+(2)+(3)-(4)]
DOCKED: USER
DOCKED: USER    (1) Final Intermolecular Energy     =  -6.32 kcal/mol
DOCKED: USER        vdW + Hbond + desolv Energy     =  -6.32 kcal/mol
DOCKED: USER        Electrostatic Energy            =  +0.00 kcal/mol
DOCKED: USER        Moving Ligand-Fixed Receptor    =  -6.32 kcal/mol
DOCKED: USER        Moving Ligand-Moving Receptor   =  +0.00 kcal/mol
DOCKED: USER    (2) Final Total Internal Energy     =  -1.32 kcal/mol
DOCKED: USER    (3) Torsional Free Energy           =  +1.49 kcal/mol
DOCKED: USER    (4) Unbound System's Energy         =  -1.32 kcal/mol
DOCKED: USER
DOCKED: USER
DOCKED: REMARK  5 active torsions:
DOCKED: REMARK  status: ('A' for Active; 'I' for Inactive)
DOCKED: REMARK    1  A    between atoms: C_2  and  C_19 
DOCKED: REMARK    2  A    between atoms: C_2  and  C_11 
DOCKED: REMARK    3  A    between atoms: C_19  and  C_20 
DOCKED: REMARK    4  A    between atoms: C_20  and  C_21 
DOCKED: REMARK    5  A    between atoms: C_21  and  N_22 
DOCKED: USER                              x       y       z     vdW  Elec       q    Type
DOCKED: USER                           _______ _______ _______ _____ _____    ______ ____
DOCKED: ROOT
DOCKED: ATOM      1  O   UNL     1     -46.775 -15.518   8.058 -0.10 -0.00    -0.346 OA 
DOCKED: ATOM      2  C   UNL     1     -45.449 -15.498   7.439 -0.18 +0.00    +0.130 C  
DOCKED: ATOM      3  C   UNL     1     -45.679 -14.826   6.117 -0.27 +0.00    +0.004 A  
DOCKED: ATOM      4  C   UNL     1     -46.996 -14.400   6.032 -0.20 +0.00    +0.006 A  
DOCKED: ATOM      5  C   UNL     1     -47.716 -14.743   7.279 -0.07 +0.00    +0.169 C  
DOCKED: ATOM      6  C   UNL     1     -44.790 -14.600   5.076 -0.23 -0.00    -0.001 A  
DOCKED: ATOM      7  C   UNL     1     -47.470 -13.741   4.911 -0.27 +0.00    +0.008 A  
DOCKED: ATOM      8  C   UNL     1     -45.254 -13.941   3.936 -0.27 +0.00    +0.010 A  
DOCKED: ATOM      9  C   UNL     1     -46.587 -13.513   3.854 -0.27 +0.00    +0.068 A  
DOCKED: ATOM     10  N   UNL     1     -47.414 -12.288   1.727 -2.39 -0.00    -0.191 NA 
DOCKED: ATOM     11  C   UNL     1     -47.043 -12.838   2.681 -0.33 +0.00    +0.101 C  
DOCKED: ENDROOT
DOCKED: BRANCH   2  12
DOCKED: ATOM     12  C   UNL     1     -44.505 -14.716   8.346 -0.17 +0.00    +0.038 C  
DOCKED: BRANCH  12  13
DOCKED: ATOM     13  C   UNL     1     -45.261 -14.044   9.490 -0.17 +0.00    +0.038 C  
DOCKED: BRANCH  13  14
DOCKED: ATOM     14  C   UNL     1     -45.449 -15.004  10.663 -0.08 +0.00    +0.251 C  
DOCKED: BRANCH  14  15
DOCKED: ATOM     15  N   UNL     1     -46.858 -15.348  10.817 -0.08 +0.00    +0.141 N  
DOCKED: ATOM     16  C   UNL     1     -47.120 -15.863  12.161 -0.05 +0.00    +0.285 C  
DOCKED: ATOM     17  C   UNL     1     -47.705 -14.185  10.545 -0.10 +0.00    +0.285 C  
DOCKED: ENDBRANCH  14  15
DOCKED: ENDBRANCH  13  14
DOCKED: ENDBRANCH  12  13
DOCKED: ENDBRANCH   2  12
DOCKED: BRANCH   2  18
DOCKED: ATOM     18  C   UNL     1     -45.010 -16.918   7.302 -0.15 +0.00    +0.006 A  
DOCKED: ATOM     19  C   UNL     1     -43.778 -17.213   6.719 -0.09 +0.00    +0.001 A  
DOCKED: ATOM     20  C   UNL     1     -43.370 -18.541   6.591 -0.12 +0.00    +0.029 A  
DOCKED: ATOM     21  C   UNL     1     -44.192 -19.571   7.046 -0.18 +0.00    +0.140 A  
DOCKED: ATOM     22  C   UNL     1     -45.424 -19.275   7.629 -0.23 +0.00    +0.029 A  
DOCKED: ATOM     23  F   UNL     1     -43.799 -20.846   6.925 -0.09 -0.00    -0.204 F  
DOCKED: ATOM     24  C   UNL     1     -45.834 -17.946   7.758 -0.22 +0.00    +0.001 A  
DOCKED: ENDBRANCH   2  18
DOCKED: TORSDOF 5
DOCKED: TER
DOCKED: ENDMDL
________________________________________________________________________________


    FINAL DOCKED STATE:
    ________________________


Run:   363 / 512
Time taken for this run:   0.002s

DOCKED: MODEL        363
DOCKED: USER    Run = 363
DOCKED: USER
DOCKED: USER    Estimated Free Energy of Binding    =  -4.15 kcal/mol  [=(1)+(2)+(3)-(4)]
DOCKED: USER
DOCKED: USER    (1) Final Intermolecular Energy     =  -5.64 kcal/mol
DOCKED: USER        vdW + Hbond + desolv Energy     =  -5.64 kcal/mol
DOCKED: USER        Electrostatic Energy            =  +0.00 kcal/mol
DOCKED: USER        Moving Ligand-Fixed Receptor    =  -5.64 kcal/mol
DOCKED: USER        Moving Ligand-Moving Receptor   =  +0.00 kcal/mol
DOCKED: USER    (2) Final Total Internal Energy     =  -1.22 kcal/mol
DOCKED: USER    (3) Torsional Free Energy           =  +1.49 kcal/mol
DOCKED: USER    (4) Unbound System's Energy         =  -1.22 kcal/mol
DOCKED: USER
DOCKED: USER
DOCKED: REMARK  5 active torsions:
DOCKED: REMARK  status: ('A' for Active; 'I' for Inactive)
DOCKED: REMARK    1  A    between atoms: C_2  and  C_19 
DOCKED: REMARK    2  A    between atoms: C_2  and  C_11 
DOCKED: REMARK    3  A    between atoms: C_19  and  C_20 
DOCKED: REMARK    4  A    between atoms: C_20  and  C_21 
DOCKED: REMARK    5  A    between atoms: C_21  and  N_22 
DOCKED: USER                              x       y       z     vdW  Elec       q    Type
DOCKED: USER                           _______ _______ _______ _____ _____    ______ ____
DOCKED: ROOT
DOCKED: ATOM      1  O   UNL     1     -46.282 -20.626  15.487 -0.04 -0.00    -0.346 OA 
DOCKED: ATOM      2  C   UNL     1     -47.366 -19.955  14.767 -0.10 +0.00    +0.130 C  
DOCKED: ATOM      3  C   UNL     1     -48.084 -21.076  14.073 -0.21 +0.00    +0.004 A  
DOCKED: ATOM      4  C   UNL     1     -47.529 -22.291  14.449 -0.23 +0.00    +0.006 A  
DOCKED: ATOM      5  C   UNL     1     -46.430 -22.063  15.415 -0.15 +0.00    +0.169 C  
DOCKED: ATOM      6  C   UNL     1     -49.150 -21.025  13.187 -0.26 -0.00    -0.001 A  
DOCKED: ATOM      7  C   UNL     1     -48.014 -23.489  13.954 -0.32 +0.00    +0.008 A  
DOCKED: ATOM      8  C   UNL     1     -49.648 -22.224  12.675 -0.29 +0.00    +0.010 A  
DOCKED: ATOM      9  C   UNL     1     -49.083 -23.450  13.057 -0.30 +0.00    +0.068 A  
DOCKED: ATOM     10  N   UNL     1     -50.034 -25.659  12.093 -2.56 -0.00    -0.191 NA 
DOCKED: ATOM     11  C   UNL     1     -49.607 -24.668  12.525 -0.35 +0.00    +0.101 C  
DOCKED: ENDROOT
DOCKED: BRANCH   2  12
DOCKED: ATOM     12  C   UNL     1     -48.241 -19.228  15.782 -0.05 +0.00    +0.038 C  
DOCKED: BRANCH  12  13
DOCKED: ATOM     13  C   UNL     1     -49.521 -18.702  15.137 -0.07 +0.00    +0.038 C  
DOCKED: BRANCH  13  14
DOCKED: ATOM     14  C   UNL     1     -49.798 -17.261  15.560 -0.02 +0.00    +0.251 C  
DOCKED: BRANCH  14  15
DOCKED: ATOM     15  N   UNL     1     -49.683 -16.365  14.415 -0.03 +0.00    +0.141 N  
DOCKED: ATOM     16  C   UNL     1     -49.799 -17.112  13.162 -0.13 +0.00    +0.285 C  
DOCKED: ATOM     17  C   UNL     1     -50.702 -15.316  14.477 -0.01 +0.00    +0.285 C  
DOCKED: ENDBRANCH  14  15
DOCKED: ENDBRANCH  13  14
DOCKED: ENDBRANCH  12  13
DOCKED: ENDBRANCH   2  12
DOCKED: BRANCH   2  18
DOCKED: ATOM     18  C   UNL     1     -46.730 -18.995  13.818 -0.14 +0.00    +0.006 A  
DOCKED: ATOM     19  C   UNL     1     -46.431 -19.396  12.517 -0.11 +0.00    +0.001 A  
DOCKED: ATOM     20  C   UNL     1     -45.836 -18.497  11.631 -0.11 +0.00    +0.029 A  
DOCKED: ATOM     21  C   UNL     1     -45.543 -17.199  12.046 -0.06 +0.00    +0.140 A  
DOCKED: ATOM     22  C   UNL     1     -45.843 -16.798  13.348 -0.04 +0.00    +0.029 A  
DOCKED: ATOM     23  F   UNL     1     -44.974 -16.336  11.195 -0.00 -0.00    -0.204 F  
DOCKED: ATOM     24  C   UNL     1     -46.437 -17.697  14.236 -0.06 +0.00    +0.001 A  
DOCKED: ENDBRANCH   2  18
DOCKED: TORSDOF 5
DOCKED: TER
DOCKED: ENDMDL
________________________________________________________________________________


    FINAL DOCKED STATE:
    ________________________


Run:   364 / 512
Time taken for this run:   0.002s

DOCKED: MODEL        364
DOCKED: USER    Run = 364
DOCKED: USER
DOCKED: USER    Estimated Free Energy of Binding    =  -3.78 kcal/mol  [=(1)+(2)+(3)-(4)]
DOCKED: USER
DOCKED: USER    (1) Final Intermolecular Energy     =  -5.27 kcal/mol
DOCKED: USER        vdW + Hbond + desolv Energy     =  -5.27 kcal/mol
DOCKED: USER        Electrostatic Energy            =  +0.00 kcal/mol
DOCKED: USER        Moving Ligand-Fixed Receptor    =  -5.27 kcal/mol
DOCKED: USER        Moving Ligand-Moving Receptor   =  +0.00 kcal/mol
DOCKED: USER    (2) Final Total Internal Energy     =  -1.00 kcal/mol
DOCKED: USER    (3) Torsional Free Energy           =  +1.49 kcal/mol
DOCKED: USER    (4) Unbound System's Energy         =  -1.00 kcal/mol
DOCKED: USER
DOCKED: USER
DOCKED: REMARK  5 active torsions:
DOCKED: REMARK  status: ('A' for Active; 'I' for Inactive)
DOCKED: REMARK    1  A    between atoms: C_2  and  C_19 
DOCKED: REMARK    2  A    between atoms: C_2  and  C_11 
DOCKED: REMARK    3  A    between atoms: C_19  and  C_20 
DOCKED: REMARK    4  A    between atoms: C_20  and  C_21 
DOCKED: REMARK    5  A    between atoms: C_21  and  N_22 
DOCKED: USER                              x       y       z     vdW  Elec       q    Type
DOCKED: USER                           _______ _______ _______ _____ _____    ______ ____
DOCKED: ROOT
DOCKED: ATOM      1  O   UNL     1     -49.211 -18.957  14.098 -0.06 -0.00    -0.346 OA 
DOCKED: ATOM      2  C   UNL     1     -48.058 -19.706  14.600 -0.11 +0.00    +0.130 C  
DOCKED: ATOM      3  C   UNL     1     -48.323 -21.115  14.155 -0.20 +0.00    +0.004 A  
DOCKED: ATOM      4  C   UNL     1     -49.469 -21.149  13.373 -0.26 +0.00    +0.006 A  
DOCKED: ATOM      5  C   UNL     1     -50.026 -19.785  13.237 -0.16 +0.00    +0.169 C  
DOCKED: ATOM      6  C   UNL     1     -47.602 -22.271  14.412 -0.23 -0.00    -0.001 A  
DOCKED: ATOM      7  C   UNL     1     -49.933 -22.334  12.827 -0.29 +0.00    +0.008 A  
DOCKED: ATOM      8  C   UNL     1     -48.060 -23.475  13.873 -0.32 +0.00    +0.010 A  
DOCKED: ATOM      9  C   UNL     1     -49.219 -23.505  13.084 -0.29 +0.00    +0.068 A  
DOCKED: ATOM     10  N   UNL     1     -50.039 -25.755  12.094 -2.62 -0.00    -0.191 NA 
DOCKED: ATOM     11  C   UNL     1     -49.672 -24.746  12.538 -0.28 +0.00    +0.101 C  
DOCKED: ENDROOT
DOCKED: BRANCH   2  12
DOCKED: ATOM     12  C   UNL     1     -46.794 -19.117  13.985 -0.14 +0.00    +0.038 C  
DOCKED: BRANCH  12  13
DOCKED: ATOM     13  C   UNL     1     -45.649 -20.127  13.991 -0.13 +0.00    +0.038 C  
DOCKED: BRANCH  13  14
DOCKED: ATOM     14  C   UNL     1     -44.384 -19.520  14.596 -0.06 +0.00    +0.251 C  
DOCKED: BRANCH  14  15
DOCKED: ATOM     15  N   UNL     1     -44.450 -18.064  14.552 -0.02 +0.00    +0.141 N  
DOCKED: ATOM     16  C   UNL     1     -44.066 -17.491  15.844 -0.00 +0.00    +0.285 C  
DOCKED: ATOM     17  C   UNL     1     -43.590 -17.540  13.490 -0.01 +0.00    +0.285 C  
DOCKED: ENDBRANCH  14  15
DOCKED: ENDBRANCH  13  14
DOCKED: ENDBRANCH  12  13
DOCKED: ENDBRANCH   2  12
DOCKED: BRANCH   2  18
DOCKED: ATOM     18  C   UNL     1     -48.054 -19.556  16.085 -0.04 +0.00    +0.006 A  
DOCKED: ATOM     19  C   UNL     1     -47.036 -18.836  16.710 -0.01 +0.00    +0.001 A  
DOCKED: ATOM     20  C   UNL     1     -47.033 -18.698  18.099 -0.00 +0.00    +0.029 A  
DOCKED: ATOM     21  C   UNL     1     -48.047 -19.277  18.859 -0.00 +0.00    +0.140 A  
DOCKED: ATOM     22  C   UNL     1     -49.065 -19.997  18.234 -0.00 +0.00    +0.029 A  
DOCKED: ATOM     23  F   UNL     1     -48.046 -19.142  20.192 +0.00 -0.00    -0.204 F  
DOCKED: ATOM     24  C   UNL     1     -49.069 -20.137  16.845 -0.02 +0.00    +0.001 A  
DOCKED: ENDBRANCH   2  18
DOCKED: TORSDOF 5
DOCKED: TER
DOCKED: ENDMDL
________________________________________________________________________________


    FINAL DOCKED STATE:
    ________________________


Run:   365 / 512
Time taken for this run:   0.002s

DOCKED: MODEL        365
DOCKED: USER    Run = 365
DOCKED: USER
DOCKED: USER    Estimated Free Energy of Binding    =  -5.49 kcal/mol  [=(1)+(2)+(3)-(4)]
DOCKED: USER
DOCKED: USER    (1) Final Intermolecular Energy     =  -6.98 kcal/mol
DOCKED: USER        vdW + Hbond + desolv Energy     =  -6.98 kcal/mol
DOCKED: USER        Electrostatic Energy            =  +0.00 kcal/mol
DOCKED: USER        Moving Ligand-Fixed Receptor    =  -6.98 kcal/mol
DOCKED: USER        Moving Ligand-Moving Receptor   =  +0.00 kcal/mol
DOCKED: USER    (2) Final Total Internal Energy     =  -1.09 kcal/mol
DOCKED: USER    (3) Torsional Free Energy           =  +1.49 kcal/mol
DOCKED: USER    (4) Unbound System's Energy         =  -1.09 kcal/mol
DOCKED: USER
DOCKED: USER
DOCKED: REMARK  5 active torsions:
DOCKED: REMARK  status: ('A' for Active; 'I' for Inactive)
DOCKED: REMARK    1  A    between atoms: C_2  and  C_19 
DOCKED: REMARK    2  A    between atoms: C_2  and  C_11 
DOCKED: REMARK    3  A    between atoms: C_19  and  C_20 
DOCKED: REMARK    4  A    between atoms: C_20  and  C_21 
DOCKED: REMARK    5  A    between atoms: C_21  and  N_22 
DOCKED: USER                              x       y       z     vdW  Elec       q    Type
DOCKED: USER                           _______ _______ _______ _____ _____    ______ ____
DOCKED: ROOT
DOCKED: ATOM      1  O   UNL     1     -47.794 -23.291  14.800 -0.10 -0.00    -0.346 OA 
DOCKED: ATOM      2  C   UNL     1     -49.245 -23.145  14.917 -0.15 +0.00    +0.130 C  
DOCKED: ATOM      3  C   UNL     1     -49.747 -23.408  13.527 -0.27 +0.00    +0.004 A  
DOCKED: ATOM      4  C   UNL     1     -48.687 -23.780  12.711 -0.38 +0.00    +0.006 A  
DOCKED: ATOM      5  C   UNL     1     -47.433 -23.802  13.496 -0.18 +0.00    +0.169 C  
DOCKED: ATOM      6  C   UNL     1     -51.038 -23.334  13.026 -0.27 -0.00    -0.001 A  
DOCKED: ATOM      7  C   UNL     1     -48.880 -24.086  11.375 -0.27 +0.00    +0.008 A  
DOCKED: ATOM      8  C   UNL     1     -51.248 -23.635  11.679 -0.33 +0.00    +0.010 A  
DOCKED: ATOM      9  C   UNL     1     -50.174 -24.009  10.858 -0.42 +0.00    +0.068 A  
DOCKED: ATOM     10  N   UNL     1     -50.599 -24.566   8.364 -2.77 -0.00    -0.191 NA 
DOCKED: ATOM     11  C   UNL     1     -50.408 -24.316   9.482 -0.30 +0.00    +0.101 C  
DOCKED: ENDROOT
DOCKED: BRANCH   2  12
DOCKED: ATOM     12  C   UNL     1     -49.752 -24.162  15.933 -0.22 +0.00    +0.038 C  
DOCKED: BRANCH  12  13
DOCKED: ATOM     13  C   UNL     1     -48.618 -25.043  16.453 -0.28 +0.00    +0.038 C  
DOCKED: BRANCH  13  14
DOCKED: ATOM     14  C   UNL     1     -47.916 -24.389  17.642 -0.14 +0.00    +0.251 C  
DOCKED: BRANCH  14  15
DOCKED: ATOM     15  N   UNL     1     -47.305 -25.404  18.492 -0.22 +0.00    +0.141 N  
DOCKED: ATOM     16  C   UNL     1     -46.240 -24.821  19.309 -0.12 +0.00    +0.285 C  
DOCKED: ATOM     17  C   UNL     1     -48.313 -26.036  19.346 -0.16 +0.00    +0.285 C  
DOCKED: ENDBRANCH  14  15
DOCKED: ENDBRANCH  13  14
DOCKED: ENDBRANCH  12  13
DOCKED: ENDBRANCH   2  12
DOCKED: BRANCH   2  18
DOCKED: ATOM     18  C   UNL     1     -49.508 -21.750  15.376 -0.09 +0.00    +0.006 A  
DOCKED: ATOM     19  C   UNL     1     -49.571 -20.711  14.448 -0.16 +0.00    +0.001 A  
DOCKED: ATOM     20  C   UNL     1     -49.816 -19.407  14.878 -0.10 +0.00    +0.029 A  
DOCKED: ATOM     21  C   UNL     1     -49.998 -19.143  16.235 -0.02 +0.00    +0.140 A  
DOCKED: ATOM     22  C   UNL     1     -49.934 -20.182  17.163 -0.02 +0.00    +0.029 A  
DOCKED: ATOM     23  F   UNL     1     -50.235 -17.891  16.648 +0.00 -0.00    -0.204 F  
DOCKED: ATOM     24  C   UNL     1     -49.689 -21.487  16.734 -0.04 +0.00    +0.001 A  
DOCKED: ENDBRANCH   2  18
DOCKED: TORSDOF 5
DOCKED: TER
DOCKED: ENDMDL
________________________________________________________________________________


    FINAL DOCKED STATE:
    ________________________


Run:   366 / 512
Time taken for this run:   0.002s

DOCKED: MODEL        366
DOCKED: USER    Run = 366
DOCKED: USER
DOCKED: USER    Estimated Free Energy of Binding    =  -3.95 kcal/mol  [=(1)+(2)+(3)-(4)]
DOCKED: USER
DOCKED: USER    (1) Final Intermolecular Energy     =  -5.44 kcal/mol
DOCKED: USER        vdW + Hbond + desolv Energy     =  -5.44 kcal/mol
DOCKED: USER        Electrostatic Energy            =  +0.00 kcal/mol
DOCKED: USER        Moving Ligand-Fixed Receptor    =  -5.44 kcal/mol
DOCKED: USER        Moving Ligand-Moving Receptor   =  +0.00 kcal/mol
DOCKED: USER    (2) Final Total Internal Energy     =  -1.18 kcal/mol
DOCKED: USER    (3) Torsional Free Energy           =  +1.49 kcal/mol
DOCKED: USER    (4) Unbound System's Energy         =  -1.18 kcal/mol
DOCKED: USER
DOCKED: USER
DOCKED: REMARK  5 active torsions:
DOCKED: REMARK  status: ('A' for Active; 'I' for Inactive)
DOCKED: REMARK    1  A    between atoms: C_2  and  C_19 
DOCKED: REMARK    2  A    between atoms: C_2  and  C_11 
DOCKED: REMARK    3  A    between atoms: C_19  and  C_20 
DOCKED: REMARK    4  A    between atoms: C_20  and  C_21 
DOCKED: REMARK    5  A    between atoms: C_21  and  N_22 
DOCKED: USER                              x       y       z     vdW  Elec       q    Type
DOCKED: USER                           _______ _______ _______ _____ _____    ______ ____
DOCKED: ROOT
DOCKED: ATOM      1  O   UNL     1     -52.859 -19.629  14.331 -0.06 -0.00    -0.346 OA 
DOCKED: ATOM      2  C   UNL     1     -51.408 -19.534  14.497 -0.15 +0.00    +0.130 C  
DOCKED: ATOM      3  C   UNL     1     -50.903 -20.861  14.009 -0.20 +0.00    +0.004 A  
DOCKED: ATOM      4  C   UNL     1     -51.959 -21.606  13.506 -0.22 +0.00    +0.006 A  
DOCKED: ATOM      5  C   UNL     1     -53.216 -20.832  13.611 -0.22 +0.00    +0.169 C  
DOCKED: ATOM      6  C   UNL     1     -49.610 -21.363  14.002 -0.21 -0.00    -0.001 A  
DOCKED: ATOM      7  C   UNL     1     -51.762 -22.874  12.985 -0.26 +0.00    +0.008 A  
DOCKED: ATOM      8  C   UNL     1     -49.396 -22.641  13.484 -0.27 +0.00    +0.010 A  
DOCKED: ATOM      9  C   UNL     1     -50.467 -23.392  12.977 -0.24 +0.00    +0.068 A  
DOCKED: ATOM     10  N   UNL     1     -50.034 -25.760  12.018 -2.57 -0.00    -0.191 NA 
DOCKED: ATOM     11  C   UNL     1     -50.228 -24.698  12.449 -0.34 +0.00    +0.101 C  
DOCKED: ENDROOT
DOCKED: BRANCH   2  12
DOCKED: ATOM     12  C   UNL     1     -50.903 -18.363  13.662 -0.23 +0.00    +0.038 C  
DOCKED: BRANCH  12  13
DOCKED: ATOM     13  C   UNL     1     -52.043 -17.684  12.907 -0.15 +0.00    +0.038 C  
DOCKED: BRANCH  13  14
DOCKED: ATOM     14  C   UNL     1     -52.669 -16.569  13.743 -0.08 +0.00    +0.251 C  
DOCKED: BRANCH  14  15
DOCKED: ATOM     15  N   UNL     1     -52.103 -15.278  13.371 -0.06 +0.00    +0.141 N  
DOCKED: ATOM     16  C   UNL     1     -51.092 -14.858  14.343 -0.01 +0.00    +0.285 C  
DOCKED: ATOM     17  C   UNL     1     -51.522 -15.336  12.029 -0.08 +0.00    +0.285 C  
DOCKED: ENDBRANCH  14  15
DOCKED: ENDBRANCH  13  14
DOCKED: ENDBRANCH  12  13
DOCKED: ENDBRANCH   2  12
DOCKED: BRANCH   2  18
DOCKED: ATOM     18  C   UNL     1     -51.149 -19.310  15.949 -0.04 +0.00    +0.006 A  
DOCKED: ATOM     19  C   UNL     1     -51.925 -19.966  16.904 -0.03 +0.00    +0.001 A  
DOCKED: ATOM     20  C   UNL     1     -51.682 -19.757  18.262 -0.00 +0.00    +0.029 A  
DOCKED: ATOM     21  C   UNL     1     -50.664 -18.892  18.663 -0.00 +0.00    +0.140 A  
DOCKED: ATOM     22  C   UNL     1     -49.889 -18.236  17.707 -0.00 +0.00    +0.029 A  
DOCKED: ATOM     23  F   UNL     1     -50.430 -18.692  19.967 +0.00 -0.00    -0.204 F  
DOCKED: ATOM     24  C   UNL     1     -50.131 -18.445  16.349 -0.02 +0.00    +0.001 A  
DOCKED: ENDBRANCH   2  18
DOCKED: TORSDOF 5
DOCKED: TER
DOCKED: ENDMDL
________________________________________________________________________________


    FINAL DOCKED STATE:
    ________________________


Run:   367 / 512
Time taken for this run:   0.002s

DOCKED: MODEL        367
DOCKED: USER    Run = 367
DOCKED: USER
DOCKED: USER    Estimated Free Energy of Binding    =  -4.31 kcal/mol  [=(1)+(2)+(3)-(4)]
DOCKED: USER
DOCKED: USER    (1) Final Intermolecular Energy     =  -5.80 kcal/mol
DOCKED: USER        vdW + Hbond + desolv Energy     =  -5.80 kcal/mol
DOCKED: USER        Electrostatic Energy            =  +0.00 kcal/mol
DOCKED: USER        Moving Ligand-Fixed Receptor    =  -5.80 kcal/mol
DOCKED: USER        Moving Ligand-Moving Receptor   =  +0.00 kcal/mol
DOCKED: USER    (2) Final Total Internal Energy     =  -1.19 kcal/mol
DOCKED: USER    (3) Torsional Free Energy           =  +1.49 kcal/mol
DOCKED: USER    (4) Unbound System's Energy         =  -1.19 kcal/mol
DOCKED: USER
DOCKED: USER
DOCKED: REMARK  5 active torsions:
DOCKED: REMARK  status: ('A' for Active; 'I' for Inactive)
DOCKED: REMARK    1  A    between atoms: C_2  and  C_19 
DOCKED: REMARK    2  A    between atoms: C_2  and  C_11 
DOCKED: REMARK    3  A    between atoms: C_19  and  C_20 
DOCKED: REMARK    4  A    between atoms: C_20  and  C_21 
DOCKED: REMARK    5  A    between atoms: C_21  and  N_22 
DOCKED: USER                              x       y       z     vdW  Elec       q    Type
DOCKED: USER                           _______ _______ _______ _____ _____    ______ ____
DOCKED: ROOT
DOCKED: ATOM      1  O   UNL     1     -47.253 -19.729  14.598 -0.04 -0.00    -0.346 OA 
DOCKED: ATOM      2  C   UNL     1     -48.708 -19.570  14.594 -0.11 +0.00    +0.130 C  
DOCKED: ATOM      3  C   UNL     1     -49.209 -20.864  14.021 -0.21 +0.00    +0.004 A  
DOCKED: ATOM      4  C   UNL     1     -48.143 -21.729  13.818 -0.25 +0.00    +0.006 A  
DOCKED: ATOM      5  C   UNL     1     -46.883 -21.083  14.248 -0.14 +0.00    +0.169 C  
DOCKED: ATOM      6  C   UNL     1     -50.506 -21.249  13.714 -0.22 -0.00    -0.001 A  
DOCKED: ATOM      7  C   UNL     1     -48.334 -22.999  13.301 -0.32 +0.00    +0.008 A  
DOCKED: ATOM      8  C   UNL     1     -50.715 -22.525  13.187 -0.24 +0.00    +0.010 A  
DOCKED: ATOM      9  C   UNL     1     -49.634 -23.395  12.982 -0.28 +0.00    +0.068 A  
DOCKED: ATOM     10  N   UNL     1     -50.057 -25.759  12.008 -2.56 -0.00    -0.191 NA 
DOCKED: ATOM     11  C   UNL     1     -49.867 -24.698  12.445 -0.35 +0.00    +0.101 C  
DOCKED: ENDROOT
DOCKED: BRANCH   2  12
DOCKED: ATOM     12  C   UNL     1     -49.172 -19.337  16.027 -0.04 +0.00    +0.038 C  
DOCKED: BRANCH  12  13
DOCKED: ATOM     13  C   UNL     1     -49.799 -20.597  16.621 -0.04 +0.00    +0.038 C  
DOCKED: BRANCH  13  14
DOCKED: ATOM     14  C   UNL     1     -49.340 -20.811  18.063 -0.00 +0.00    +0.251 C  
DOCKED: BRANCH  14  15
DOCKED: ATOM     15  N   UNL     1     -49.097 -22.227  18.312 -0.02 +0.00    +0.141 N  
DOCKED: ATOM     16  C   UNL     1     -50.352 -22.924  18.595 -0.01 +0.00    +0.285 C  
DOCKED: ATOM     17  C   UNL     1     -48.420 -22.843  17.170 -0.04 +0.00    +0.285 C  
DOCKED: ENDBRANCH  14  15
DOCKED: ENDBRANCH  13  14
DOCKED: ENDBRANCH  12  13
DOCKED: ENDBRANCH   2  12
DOCKED: BRANCH   2  18
DOCKED: ATOM     18  C   UNL     1     -49.016 -18.393  13.730 -0.16 +0.00    +0.006 A  
DOCKED: ATOM     19  C   UNL     1     -47.997 -17.773  13.008 -0.12 +0.00    +0.001 A  
DOCKED: ATOM     20  C   UNL     1     -48.287 -16.672  12.201 -0.11 +0.00    +0.029 A  
DOCKED: ATOM     21  C   UNL     1     -49.594 -16.194  12.117 -0.13 +0.00    +0.140 A  
DOCKED: ATOM     22  C   UNL     1     -50.612 -16.815  12.839 -0.18 +0.00    +0.029 A  
DOCKED: ATOM     23  F   UNL     1     -49.872 -15.138  11.340 -0.03 -0.00    -0.204 F  
DOCKED: ATOM     24  C   UNL     1     -50.324 -17.915  13.647 -0.19 +0.00    +0.001 A  
DOCKED: ENDBRANCH   2  18
DOCKED: TORSDOF 5
DOCKED: TER
DOCKED: ENDMDL
________________________________________________________________________________


    FINAL DOCKED STATE:
    ________________________


Run:   368 / 512
Time taken for this run:   0.002s

DOCKED: MODEL        368
DOCKED: USER    Run = 368
DOCKED: USER
DOCKED: USER    Estimated Free Energy of Binding    =  -3.73 kcal/mol  [=(1)+(2)+(3)-(4)]
DOCKED: USER
DOCKED: USER    (1) Final Intermolecular Energy     =  -5.22 kcal/mol
DOCKED: USER        vdW + Hbond + desolv Energy     =  -5.22 kcal/mol
DOCKED: USER        Electrostatic Energy            =  +0.00 kcal/mol
DOCKED: USER        Moving Ligand-Fixed Receptor    =  -5.22 kcal/mol
DOCKED: USER        Moving Ligand-Moving Receptor   =  +0.00 kcal/mol
DOCKED: USER    (2) Final Total Internal Energy     =  -1.32 kcal/mol
DOCKED: USER    (3) Torsional Free Energy           =  +1.49 kcal/mol
DOCKED: USER    (4) Unbound System's Energy         =  -1.32 kcal/mol
DOCKED: USER
DOCKED: USER
DOCKED: REMARK  5 active torsions:
DOCKED: REMARK  status: ('A' for Active; 'I' for Inactive)
DOCKED: REMARK    1  A    between atoms: C_2  and  C_19 
DOCKED: REMARK    2  A    between atoms: C_2  and  C_11 
DOCKED: REMARK    3  A    between atoms: C_19  and  C_20 
DOCKED: REMARK    4  A    between atoms: C_20  and  C_21 
DOCKED: REMARK    5  A    between atoms: C_21  and  N_22 
DOCKED: USER                              x       y       z     vdW  Elec       q    Type
DOCKED: USER                           _______ _______ _______ _____ _____    ______ ____
DOCKED: ROOT
DOCKED: ATOM      1  O   UNL     1     -50.114 -19.695  15.463 -0.01 -0.00    -0.346 OA 
DOCKED: ATOM      2  C   UNL     1     -48.784 -19.927  14.898 -0.09 +0.00    +0.130 C  
DOCKED: ATOM      3  C   UNL     1     -48.932 -21.221  14.151 -0.20 +0.00    +0.004 A  
DOCKED: ATOM      4  C   UNL     1     -50.256 -21.635  14.192 -0.18 +0.00    +0.006 A  
DOCKED: ATOM      5  C   UNL     1     -51.066 -20.653  14.946 -0.09 +0.00    +0.169 C  
DOCKED: ATOM      6  C   UNL     1     -47.975 -21.966  13.479 -0.26 -0.00    -0.001 A  
DOCKED: ATOM      7  C   UNL     1     -50.666 -22.802  13.570 -0.22 +0.00    +0.008 A  
DOCKED: ATOM      8  C   UNL     1     -48.371 -23.148  12.851 -0.33 +0.00    +0.010 A  
DOCKED: ATOM      9  C   UNL     1     -49.710 -23.564  12.896 -0.28 +0.00    +0.068 A  
DOCKED: ATOM     10  N   UNL     1     -50.414 -25.760  11.716 -2.33 -0.00    -0.191 NA 
DOCKED: ATOM     11  C   UNL     1     -50.098 -24.775  12.246 -0.37 +0.00    +0.101 C  
DOCKED: ENDROOT
DOCKED: BRANCH   2  12
DOCKED: ATOM     12  C   UNL     1     -48.433 -18.755  13.990 -0.15 +0.00    +0.038 C  
DOCKED: BRANCH  12  13
DOCKED: ATOM     13  C   UNL     1     -49.415 -17.599  14.169 -0.12 +0.00    +0.038 C  
DOCKED: BRANCH  13  14
DOCKED: ATOM     14  C   UNL     1     -50.426 -17.553  13.024 -0.14 +0.00    +0.251 C  
DOCKED: BRANCH  14  15
DOCKED: ATOM     15  N   UNL     1     -51.748 -17.202  13.529 -0.14 +0.00    +0.141 N  
DOCKED: ATOM     16  C   UNL     1     -52.713 -18.261  13.228 -0.12 +0.00    +0.285 C  
DOCKED: ATOM     17  C   UNL     1     -51.700 -16.953  14.970 -0.02 +0.00    +0.285 C  
DOCKED: ENDBRANCH  14  15
DOCKED: ENDBRANCH  13  14
DOCKED: ENDBRANCH  12  13
DOCKED: ENDBRANCH   2  12
DOCKED: BRANCH   2  18
DOCKED: ATOM     18  C   UNL     1     -47.833 -20.024  16.044 -0.04 +0.00    +0.006 A  
DOCKED: ATOM     19  C   UNL     1     -47.247 -18.870  16.561 -0.02 +0.00    +0.001 A  
DOCKED: ATOM     20  C   UNL     1     -46.358 -18.961  17.633 -0.01 +0.00    +0.029 A  
DOCKED: ATOM     21  C   UNL     1     -46.057 -20.205  18.186 -0.01 +0.00    +0.140 A  
DOCKED: ATOM     22  C   UNL     1     -46.645 -21.359  17.668 -0.04 +0.00    +0.029 A  
DOCKED: ATOM     23  F   UNL     1     -45.206 -20.292  19.216 +0.00 -0.00    -0.204 F  
DOCKED: ATOM     24  C   UNL     1     -47.534 -21.269  16.596 -0.06 +0.00    +0.001 A  
DOCKED: ENDBRANCH   2  18
DOCKED: TORSDOF 5
DOCKED: TER
DOCKED: ENDMDL
________________________________________________________________________________


    FINAL DOCKED STATE:
    ________________________


Run:   369 / 512
Time taken for this run:   0.002s

DOCKED: MODEL        369
DOCKED: USER    Run = 369
DOCKED: USER
DOCKED: USER    Estimated Free Energy of Binding    =  -3.55 kcal/mol  [=(1)+(2)+(3)-(4)]
DOCKED: USER
DOCKED: USER    (1) Final Intermolecular Energy     =  -5.04 kcal/mol
DOCKED: USER        vdW + Hbond + desolv Energy     =  -5.04 kcal/mol
DOCKED: USER        Electrostatic Energy            =  +0.00 kcal/mol
DOCKED: USER        Moving Ligand-Fixed Receptor    =  -5.04 kcal/mol
DOCKED: USER        Moving Ligand-Moving Receptor   =  +0.00 kcal/mol
DOCKED: USER    (2) Final Total Internal Energy     =  -1.57 kcal/mol
DOCKED: USER    (3) Torsional Free Energy           =  +1.49 kcal/mol
DOCKED: USER    (4) Unbound System's Energy         =  -1.57 kcal/mol
DOCKED: USER
DOCKED: USER
DOCKED: REMARK  5 active torsions:
DOCKED: REMARK  status: ('A' for Active; 'I' for Inactive)
DOCKED: REMARK    1  A    between atoms: C_2  and  C_19 
DOCKED: REMARK    2  A    between atoms: C_2  and  C_11 
DOCKED: REMARK    3  A    between atoms: C_19  and  C_20 
DOCKED: REMARK    4  A    between atoms: C_20  and  C_21 
DOCKED: REMARK    5  A    between atoms: C_21  and  N_22 
DOCKED: USER                              x       y       z     vdW  Elec       q    Type
DOCKED: USER                           _______ _______ _______ _____ _____    ______ ____
DOCKED: ROOT
DOCKED: ATOM      1  O   UNL     1     -40.321 -22.120   5.529 +0.00 -0.00    -0.346 OA 
DOCKED: ATOM      2  C   UNL     1     -40.674 -21.213   6.622 -0.05 +0.00    +0.130 C  
DOCKED: ATOM      3  C   UNL     1     -41.223 -22.125   7.682 -0.10 +0.00    +0.004 A  
DOCKED: ATOM      4  C   UNL     1     -41.093 -23.445   7.275 -0.13 +0.00    +0.006 A  
DOCKED: ATOM      5  C   UNL     1     -40.447 -23.499   5.944 -0.08 +0.00    +0.169 C  
DOCKED: ATOM      6  C   UNL     1     -41.782 -21.811   8.912 -0.14 -0.00    -0.001 A  
DOCKED: ATOM      7  C   UNL     1     -41.518 -24.491   8.076 -0.22 +0.00    +0.008 A  
DOCKED: ATOM      8  C   UNL     1     -42.219 -22.854   9.729 -0.24 +0.00    +0.010 A  
DOCKED: ATOM      9  C   UNL     1     -42.087 -24.188   9.313 -0.28 +0.00    +0.068 A  
DOCKED: ATOM     10  N   UNL     1     -42.905 -26.101  10.857 -2.61 -0.00    -0.191 NA 
DOCKED: ATOM     11  C   UNL     1     -42.539 -25.243  10.165 -0.40 +0.00    +0.101 C  
DOCKED: ENDROOT
DOCKED: BRANCH   2  12
DOCKED: ATOM     12  C   UNL     1     -39.415 -20.478   7.066 -0.01 +0.00    +0.038 C  
DOCKED: BRANCH  12  13
DOCKED: ATOM     13  C   UNL     1     -38.187 -20.964   6.298 -0.00 +0.00    +0.038 C  
DOCKED: BRANCH  13  14
DOCKED: ATOM     14  C   UNL     1     -37.898 -20.064   5.098 -0.00 +0.00    +0.251 C  
DOCKED: BRANCH  14  15
DOCKED: ATOM     15  N   UNL     1     -38.950 -20.199   4.097 -0.00 +0.00    +0.141 N  
DOCKED: ATOM     16  C   UNL     1     -39.354 -18.886   3.593 +0.00 +0.00    +0.285 C  
DOCKED: ATOM     17  C   UNL     1     -38.506 -21.052   2.994 -0.00 +0.00    +0.285 C  
DOCKED: ENDBRANCH  14  15
DOCKED: ENDBRANCH  13  14
DOCKED: ENDBRANCH  12  13
DOCKED: ENDBRANCH   2  12
DOCKED: BRANCH   2  18
DOCKED: ATOM     18  C   UNL     1     -41.693 -20.262   6.089 -0.09 +0.00    +0.006 A  
DOCKED: ATOM     19  C   UNL     1     -41.862 -19.014   6.688 -0.05 +0.00    +0.001 A  
DOCKED: ATOM     20  C   UNL     1     -42.815 -18.126   6.188 -0.07 +0.00    +0.029 A  
DOCKED: ATOM     21  C   UNL     1     -43.597 -18.486   5.092 -0.16 +0.00    +0.140 A  
DOCKED: ATOM     22  C   UNL     1     -43.427 -19.734   4.493 -0.18 +0.00    +0.029 A  
DOCKED: ATOM     23  F   UNL     1     -44.510 -17.632   4.611 -0.09 -0.00    -0.204 F  
DOCKED: ATOM     24  C   UNL     1     -42.474 -20.624   4.992 -0.13 +0.00    +0.001 A  
DOCKED: ENDBRANCH   2  18
DOCKED: TORSDOF 5
DOCKED: TER
DOCKED: ENDMDL
________________________________________________________________________________


    FINAL DOCKED STATE:
    ________________________


Run:   370 / 512
Time taken for this run:   0.002s

DOCKED: MODEL        370
DOCKED: USER    Run = 370
DOCKED: USER
DOCKED: USER    Estimated Free Energy of Binding    =  -3.93 kcal/mol  [=(1)+(2)+(3)-(4)]
DOCKED: USER
DOCKED: USER    (1) Final Intermolecular Energy     =  -5.42 kcal/mol
DOCKED: USER        vdW + Hbond + desolv Energy     =  -5.42 kcal/mol
DOCKED: USER        Electrostatic Energy            =  +0.00 kcal/mol
DOCKED: USER        Moving Ligand-Fixed Receptor    =  -5.42 kcal/mol
DOCKED: USER        Moving Ligand-Moving Receptor   =  +0.00 kcal/mol
DOCKED: USER    (2) Final Total Internal Energy     =  -1.43 kcal/mol
DOCKED: USER    (3) Torsional Free Energy           =  +1.49 kcal/mol
DOCKED: USER    (4) Unbound System's Energy         =  -1.43 kcal/mol
DOCKED: USER
DOCKED: USER
DOCKED: REMARK  5 active torsions:
DOCKED: REMARK  status: ('A' for Active; 'I' for Inactive)
DOCKED: REMARK    1  A    between atoms: C_2  and  C_19 
DOCKED: REMARK    2  A    between atoms: C_2  and  C_11 
DOCKED: REMARK    3  A    between atoms: C_19  and  C_20 
DOCKED: REMARK    4  A    between atoms: C_20  and  C_21 
DOCKED: REMARK    5  A    between atoms: C_21  and  N_22 
DOCKED: USER                              x       y       z     vdW  Elec       q    Type
DOCKED: USER                           _______ _______ _______ _____ _____    ______ ____
DOCKED: ROOT
DOCKED: ATOM      1  O   UNL     1     -45.912 -22.090  16.447 -0.05 -0.00    -0.346 OA 
DOCKED: ATOM      2  C   UNL     1     -46.252 -21.152  15.377 -0.12 +0.00    +0.130 C  
DOCKED: ATOM      3  C   UNL     1     -47.194 -21.929  14.503 -0.21 +0.00    +0.004 A  
DOCKED: ATOM      4  C   UNL     1     -47.456 -23.163  15.081 -0.24 +0.00    +0.006 A  
DOCKED: ATOM      5  C   UNL     1     -46.727 -23.282  16.364 -0.04 +0.00    +0.169 C  
DOCKED: ATOM      6  C   UNL     1     -47.781 -21.568  13.299 -0.20 -0.00    -0.001 A  
DOCKED: ATOM      7  C   UNL     1     -48.304 -24.076  14.478 -0.31 +0.00    +0.008 A  
DOCKED: ATOM      8  C   UNL     1     -48.635 -22.480  12.676 -0.32 +0.00    +0.010 A  
DOCKED: ATOM      9  C   UNL     1     -48.895 -23.727  13.263 -0.31 +0.00    +0.068 A  
DOCKED: ATOM     10  N   UNL     1     -50.490 -25.393  12.083 -2.50 -0.00    -0.191 NA 
DOCKED: ATOM     11  C   UNL     1     -49.774 -24.646  12.612 -0.34 +0.00    +0.101 C  
DOCKED: ENDROOT
DOCKED: BRANCH   2  12
DOCKED: ATOM     12  C   UNL     1     -46.901 -19.922  16.002 -0.05 +0.00    +0.038 C  
DOCKED: BRANCH  12  13
DOCKED: ATOM     13  C   UNL     1     -48.422 -19.966  15.868 -0.05 +0.00    +0.038 C  
DOCKED: BRANCH  13  14
DOCKED: ATOM     14  C   UNL     1     -49.055 -20.717  17.039 -0.01 +0.00    +0.251 C  
DOCKED: BRANCH  14  15
DOCKED: ATOM     15  N   UNL     1     -49.967 -21.743  16.549 -0.03 +0.00    +0.141 N  
DOCKED: ATOM     16  C   UNL     1     -50.393 -22.619  17.642 -0.01 +0.00    +0.285 C  
DOCKED: ATOM     17  C   UNL     1     -51.131 -21.134  15.904 -0.01 +0.00    +0.285 C  
DOCKED: ENDBRANCH  14  15
DOCKED: ENDBRANCH  13  14
DOCKED: ENDBRANCH  12  13
DOCKED: ENDBRANCH   2  12
DOCKED: BRANCH   2  18
DOCKED: ATOM     18  C   UNL     1     -44.978 -20.796  14.687 -0.11 +0.00    +0.006 A  
DOCKED: ATOM     19  C   UNL     1     -43.837 -21.571  14.888 -0.13 +0.00    +0.001 A  
DOCKED: ATOM     20  C   UNL     1     -42.645 -21.237  14.242 -0.11 +0.00    +0.029 A  
DOCKED: ATOM     21  C   UNL     1     -42.598 -20.130  13.396 -0.07 +0.00    +0.140 A  
DOCKED: ATOM     22  C   UNL     1     -43.740 -19.356  13.195 -0.10 +0.00    +0.029 A  
DOCKED: ATOM     23  F   UNL     1     -41.455 -19.811  12.775 -0.01 -0.00    -0.204 F  
DOCKED: ATOM     24  C   UNL     1     -44.932 -19.689  13.841 -0.11 +0.00    +0.001 A  
DOCKED: ENDBRANCH   2  18
DOCKED: TORSDOF 5
DOCKED: TER
DOCKED: ENDMDL
________________________________________________________________________________


    FINAL DOCKED STATE:
    ________________________


Run:   371 / 512
Time taken for this run:   0.002s

DOCKED: MODEL        371
DOCKED: USER    Run = 371
DOCKED: USER
DOCKED: USER    Estimated Free Energy of Binding    =  -4.26 kcal/mol  [=(1)+(2)+(3)-(4)]
DOCKED: USER
DOCKED: USER    (1) Final Intermolecular Energy     =  -5.75 kcal/mol
DOCKED: USER        vdW + Hbond + desolv Energy     =  -5.75 kcal/mol
DOCKED: USER        Electrostatic Energy            =  +0.00 kcal/mol
DOCKED: USER        Moving Ligand-Fixed Receptor    =  -5.75 kcal/mol
DOCKED: USER        Moving Ligand-Moving Receptor   =  +0.00 kcal/mol
DOCKED: USER    (2) Final Total Internal Energy     =  -1.32 kcal/mol
DOCKED: USER    (3) Torsional Free Energy           =  +1.49 kcal/mol
DOCKED: USER    (4) Unbound System's Energy         =  -1.32 kcal/mol
DOCKED: USER
DOCKED: USER
DOCKED: REMARK  5 active torsions:
DOCKED: REMARK  status: ('A' for Active; 'I' for Inactive)
DOCKED: REMARK    1  A    between atoms: C_2  and  C_19 
DOCKED: REMARK    2  A    between atoms: C_2  and  C_11 
DOCKED: REMARK    3  A    between atoms: C_19  and  C_20 
DOCKED: REMARK    4  A    between atoms: C_20  and  C_21 
DOCKED: REMARK    5  A    between atoms: C_21  and  N_22 
DOCKED: USER                              x       y       z     vdW  Elec       q    Type
DOCKED: USER                           _______ _______ _______ _____ _____    ______ ____
DOCKED: ROOT
DOCKED: ATOM      1  O   UNL     1     -45.567 -15.685   7.465 -0.06 -0.00    -0.346 OA 
DOCKED: ATOM      2  C   UNL     1     -44.338 -15.163   6.865 -0.14 +0.00    +0.130 C  
DOCKED: ATOM      3  C   UNL     1     -44.814 -14.451   5.632 -0.21 +0.00    +0.004 A  
DOCKED: ATOM      4  C   UNL     1     -46.201 -14.468   5.588 -0.30 +0.00    +0.006 A  
DOCKED: ATOM      5  C   UNL     1     -46.732 -15.171   6.778 -0.25 +0.00    +0.169 C  
DOCKED: ATOM      6  C   UNL     1     -44.078 -13.827   4.635 -0.18 -0.00    -0.001 A  
DOCKED: ATOM      7  C   UNL     1     -46.897 -13.872   4.551 -0.32 +0.00    +0.008 A  
DOCKED: ATOM      8  C   UNL     1     -44.765 -13.225   3.580 -0.26 +0.00    +0.010 A  
DOCKED: ATOM      9  C   UNL     1     -46.168 -13.246   3.539 -0.32 +0.00    +0.068 A  
DOCKED: ATOM     10  N   UNL     1     -47.412 -12.114   1.568 -2.48 -0.00    -0.191 NA 
DOCKED: ATOM     11  C   UNL     1     -46.854 -12.622   2.452 -0.41 +0.00    +0.101 C  
DOCKED: ENDROOT
DOCKED: BRANCH   2  12
DOCKED: ATOM     12  C   UNL     1     -43.670 -14.230   7.869 -0.15 +0.00    +0.038 C  
DOCKED: BRANCH  12  13
DOCKED: ATOM     13  C   UNL     1     -44.351 -14.302   9.234 -0.14 +0.00    +0.038 C  
DOCKED: BRANCH  13  14
DOCKED: ATOM     14  C   UNL     1     -43.947 -15.570   9.984 -0.05 +0.00    +0.251 C  
DOCKED: BRANCH  14  15
DOCKED: ATOM     15  N   UNL     1     -44.957 -15.916  10.976 -0.04 +0.00    +0.141 N  
DOCKED: ATOM     16  C   UNL     1     -46.273 -15.421  10.568 -0.07 +0.00    +0.285 C  
DOCKED: ATOM     17  C   UNL     1     -45.002 -17.365  11.183 -0.06 +0.00    +0.285 C  
DOCKED: ENDBRANCH  14  15
DOCKED: ENDBRANCH  13  14
DOCKED: ENDBRANCH  12  13
DOCKED: ENDBRANCH   2  12
DOCKED: BRANCH   2  18
DOCKED: ATOM     18  C   UNL     1     -43.469 -16.337   6.560 -0.07 +0.00    +0.006 A  
DOCKED: ATOM     19  C   UNL     1     -42.367 -16.188   5.719 -0.03 +0.00    +0.001 A  
DOCKED: ATOM     20  C   UNL     1     -41.555 -17.286   5.434 -0.01 +0.00    +0.029 A  
DOCKED: ATOM     21  C   UNL     1     -41.845 -18.531   5.991 -0.03 +0.00    +0.140 A  
DOCKED: ATOM     22  C   UNL     1     -42.947 -18.679   6.833 -0.09 +0.00    +0.029 A  
DOCKED: ATOM     23  F   UNL     1     -41.065 -19.585   5.719 -0.00 -0.00    -0.204 F  
DOCKED: ATOM     24  C   UNL     1     -43.761 -17.581   7.118 -0.09 +0.00    +0.001 A  
DOCKED: ENDBRANCH   2  18
DOCKED: TORSDOF 5
DOCKED: TER
DOCKED: ENDMDL
________________________________________________________________________________


    FINAL DOCKED STATE:
    ________________________


Run:   372 / 512
Time taken for this run:   0.002s

DOCKED: MODEL        372
DOCKED: USER    Run = 372
DOCKED: USER
DOCKED: USER    Estimated Free Energy of Binding    =  -3.93 kcal/mol  [=(1)+(2)+(3)-(4)]
DOCKED: USER
DOCKED: USER    (1) Final Intermolecular Energy     =  -5.42 kcal/mol
DOCKED: USER        vdW + Hbond + desolv Energy     =  -5.42 kcal/mol
DOCKED: USER        Electrostatic Energy            =  +0.00 kcal/mol
DOCKED: USER        Moving Ligand-Fixed Receptor    =  -5.42 kcal/mol
DOCKED: USER        Moving Ligand-Moving Receptor   =  +0.00 kcal/mol
DOCKED: USER    (2) Final Total Internal Energy     =  -1.34 kcal/mol
DOCKED: USER    (3) Torsional Free Energy           =  +1.49 kcal/mol
DOCKED: USER    (4) Unbound System's Energy         =  -1.34 kcal/mol
DOCKED: USER
DOCKED: USER
DOCKED: REMARK  5 active torsions:
DOCKED: REMARK  status: ('A' for Active; 'I' for Inactive)
DOCKED: REMARK    1  A    between atoms: C_2  and  C_19 
DOCKED: REMARK    2  A    between atoms: C_2  and  C_11 
DOCKED: REMARK    3  A    between atoms: C_19  and  C_20 
DOCKED: REMARK    4  A    between atoms: C_20  and  C_21 
DOCKED: REMARK    5  A    between atoms: C_21  and  N_22 
DOCKED: USER                              x       y       z     vdW  Elec       q    Type
DOCKED: USER                           _______ _______ _______ _____ _____    ______ ____
DOCKED: ROOT
DOCKED: ATOM      1  O   UNL     1     -39.709 -22.986   5.096 +0.00 -0.00    -0.346 OA 
DOCKED: ATOM      2  C   UNL     1     -40.404 -21.944   5.853 -0.07 +0.00    +0.130 C  
DOCKED: ATOM      3  C   UNL     1     -41.060 -22.694   6.977 -0.11 +0.00    +0.004 A  
DOCKED: ATOM      4  C   UNL     1     -40.684 -24.029   6.930 -0.12 +0.00    +0.006 A  
DOCKED: ATOM      5  C   UNL     1     -39.757 -24.250   5.798 -0.05 +0.00    +0.169 C  
DOCKED: ATOM      6  C   UNL     1     -41.912 -22.229   7.968 -0.16 -0.00    -0.001 A  
DOCKED: ATOM      7  C   UNL     1     -41.147 -24.941   7.863 -0.21 +0.00    +0.008 A  
DOCKED: ATOM      8  C   UNL     1     -42.391 -23.138   8.913 -0.27 +0.00    +0.010 A  
DOCKED: ATOM      9  C   UNL     1     -42.010 -24.487   8.861 -0.27 +0.00    +0.068 A  
DOCKED: ATOM     10  N   UNL     1     -42.913 -26.146  10.634 -2.56 -0.00    -0.191 NA 
DOCKED: ATOM     11  C   UNL     1     -42.508 -25.402   9.838 -0.43 +0.00    +0.101 C  
DOCKED: ENDROOT
DOCKED: BRANCH   2  12
DOCKED: ATOM     12  C   UNL     1     -39.373 -20.932   6.338 -0.01 +0.00    +0.038 C  
DOCKED: BRANCH  12  13
DOCKED: ATOM     13  C   UNL     1     -38.376 -21.570   7.304 -0.01 +0.00    +0.038 C  
DOCKED: BRANCH  13  14
DOCKED: ATOM     14  C   UNL     1     -38.877 -21.487   8.744 -0.00 +0.00    +0.251 C  
DOCKED: BRANCH  14  15
DOCKED: ATOM     15  N   UNL     1     -38.202 -22.479   9.574 -0.01 +0.00    +0.141 N  
DOCKED: ATOM     16  C   UNL     1     -38.966 -22.736  10.796 -0.01 +0.00    +0.285 C  
DOCKED: ATOM     17  C   UNL     1     -38.002 -23.724   8.829 -0.01 +0.00    +0.285 C  
DOCKED: ENDBRANCH  14  15
DOCKED: ENDBRANCH  13  14
DOCKED: ENDBRANCH  12  13
DOCKED: ENDBRANCH   2  12
DOCKED: BRANCH   2  18
DOCKED: ATOM     18  C   UNL     1     -41.386 -21.311   4.925 -0.12 +0.00    +0.006 A  
DOCKED: ATOM     19  C   UNL     1     -42.072 -20.162   5.316 -0.13 +0.00    +0.001 A  
DOCKED: ATOM     20  C   UNL     1     -42.990 -19.571   4.447 -0.19 +0.00    +0.029 A  
DOCKED: ATOM     21  C   UNL     1     -43.220 -20.128   3.190 -0.21 +0.00    +0.140 A  
DOCKED: ATOM     22  C   UNL     1     -42.532 -21.277   2.800 -0.19 +0.00    +0.029 A  
DOCKED: ATOM     23  F   UNL     1     -44.100 -19.559   2.356 -0.14 -0.00    -0.204 F  
DOCKED: ATOM     24  C   UNL     1     -41.614 -21.870   3.669 -0.13 +0.00    +0.001 A  
DOCKED: ENDBRANCH   2  18
DOCKED: TORSDOF 5
DOCKED: TER
DOCKED: ENDMDL
________________________________________________________________________________


    FINAL DOCKED STATE:
    ________________________


Run:   373 / 512
Time taken for this run:   0.002s

DOCKED: MODEL        373
DOCKED: USER    Run = 373
DOCKED: USER
DOCKED: USER    Estimated Free Energy of Binding    =  -4.06 kcal/mol  [=(1)+(2)+(3)-(4)]
DOCKED: USER
DOCKED: USER    (1) Final Intermolecular Energy     =  -5.55 kcal/mol
DOCKED: USER        vdW + Hbond + desolv Energy     =  -5.55 kcal/mol
DOCKED: USER        Electrostatic Energy            =  +0.00 kcal/mol
DOCKED: USER        Moving Ligand-Fixed Receptor    =  -5.55 kcal/mol
DOCKED: USER        Moving Ligand-Moving Receptor   =  +0.00 kcal/mol
DOCKED: USER    (2) Final Total Internal Energy     =  -1.31 kcal/mol
DOCKED: USER    (3) Torsional Free Energy           =  +1.49 kcal/mol
DOCKED: USER    (4) Unbound System's Energy         =  -1.31 kcal/mol
DOCKED: USER
DOCKED: USER
DOCKED: REMARK  5 active torsions:
DOCKED: REMARK  status: ('A' for Active; 'I' for Inactive)
DOCKED: REMARK    1  A    between atoms: C_2  and  C_19 
DOCKED: REMARK    2  A    between atoms: C_2  and  C_11 
DOCKED: REMARK    3  A    between atoms: C_19  and  C_20 
DOCKED: REMARK    4  A    between atoms: C_20  and  C_21 
DOCKED: REMARK    5  A    between atoms: C_21  and  N_22 
DOCKED: USER                              x       y       z     vdW  Elec       q    Type
DOCKED: USER                           _______ _______ _______ _____ _____    ______ ____
DOCKED: ROOT
DOCKED: ATOM      1  O   UNL     1     -47.400 -19.931  15.225 -0.02 -0.00    -0.346 OA 
DOCKED: ATOM      2  C   UNL     1     -48.733 -19.595  14.724 -0.10 +0.00    +0.130 C  
DOCKED: ATOM      3  C   UNL     1     -49.198 -20.859  14.062 -0.20 +0.00    +0.004 A  
DOCKED: ATOM      4  C   UNL     1     -48.262 -21.863  14.262 -0.21 +0.00    +0.006 A  
DOCKED: ATOM      5  C   UNL     1     -47.135 -21.345  15.070 -0.13 +0.00    +0.169 C  
DOCKED: ATOM      6  C   UNL     1     -50.362 -21.104  13.348 -0.21 -0.00    -0.001 A  
DOCKED: ATOM      7  C   UNL     1     -48.452 -23.137  13.756 -0.30 +0.00    +0.008 A  
DOCKED: ATOM      8  C   UNL     1     -50.567 -22.383  12.828 -0.23 +0.00    +0.010 A  
DOCKED: ATOM      9  C   UNL     1     -49.617 -23.394  13.032 -0.27 +0.00    +0.068 A  
DOCKED: ATOM     10  N   UNL     1     -50.030 -25.759  12.056 -2.59 -0.00    -0.191 NA 
DOCKED: ATOM     11  C   UNL     1     -49.845 -24.698  12.493 -0.34 +0.00    +0.101 C  
DOCKED: ENDROOT
DOCKED: BRANCH   2  12
DOCKED: ATOM     12  C   UNL     1     -49.605 -19.189  15.907 -0.04 +0.00    +0.038 C  
DOCKED: BRANCH  12  13
DOCKED: ATOM     13  C   UNL     1     -50.187 -20.411  16.615 -0.04 +0.00    +0.038 C  
DOCKED: BRANCH  13  14
DOCKED: ATOM     14  C   UNL     1     -49.229 -20.935  17.684 -0.01 +0.00    +0.251 C  
DOCKED: BRANCH  14  15
DOCKED: ATOM     15  N   UNL     1     -49.627 -22.271  18.110 -0.02 +0.00    +0.141 N  
DOCKED: ATOM     16  C   UNL     1     -49.897 -22.295  19.548 -0.00 +0.00    +0.285 C  
DOCKED: ATOM     17  C   UNL     1     -50.804 -22.721  17.365 -0.01 +0.00    +0.285 C  
DOCKED: ENDBRANCH  14  15
DOCKED: ENDBRANCH  13  14
DOCKED: ENDBRANCH  12  13
DOCKED: ENDBRANCH   2  12
DOCKED: BRANCH   2  18
DOCKED: ATOM     18  C   UNL     1     -48.566 -18.463  13.766 -0.15 +0.00    +0.006 A  
DOCKED: ATOM     19  C   UNL     1     -47.306 -18.174  13.243 -0.13 +0.00    +0.001 A  
DOCKED: ATOM     20  C   UNL     1     -47.151 -17.115  12.347 -0.09 +0.00    +0.029 A  
DOCKED: ATOM     21  C   UNL     1     -48.255 -16.348  11.975 -0.10 +0.00    +0.140 A  
DOCKED: ATOM     22  C   UNL     1     -49.515 -16.639  12.499 -0.16 +0.00    +0.029 A  
DOCKED: ATOM     23  F   UNL     1     -48.106 -15.334  11.114 -0.02 -0.00    -0.204 F  
DOCKED: ATOM     24  C   UNL     1     -49.671 -17.697  13.396 -0.18 +0.00    +0.001 A  
DOCKED: ENDBRANCH   2  18
DOCKED: TORSDOF 5
DOCKED: TER
DOCKED: ENDMDL
________________________________________________________________________________


    FINAL DOCKED STATE:
    ________________________


Run:   374 / 512
Time taken for this run:   0.002s

DOCKED: MODEL        374
DOCKED: USER    Run = 374
DOCKED: USER
DOCKED: USER    Estimated Free Energy of Binding    =  -4.11 kcal/mol  [=(1)+(2)+(3)-(4)]
DOCKED: USER
DOCKED: USER    (1) Final Intermolecular Energy     =  -5.60 kcal/mol
DOCKED: USER        vdW + Hbond + desolv Energy     =  -5.60 kcal/mol
DOCKED: USER        Electrostatic Energy            =  +0.00 kcal/mol
DOCKED: USER        Moving Ligand-Fixed Receptor    =  -5.60 kcal/mol
DOCKED: USER        Moving Ligand-Moving Receptor   =  +0.00 kcal/mol
DOCKED: USER    (2) Final Total Internal Energy     =  -1.41 kcal/mol
DOCKED: USER    (3) Torsional Free Energy           =  +1.49 kcal/mol
DOCKED: USER    (4) Unbound System's Energy         =  -1.41 kcal/mol
DOCKED: USER
DOCKED: USER
DOCKED: REMARK  5 active torsions:
DOCKED: REMARK  status: ('A' for Active; 'I' for Inactive)
DOCKED: REMARK    1  A    between atoms: C_2  and  C_19 
DOCKED: REMARK    2  A    between atoms: C_2  and  C_11 
DOCKED: REMARK    3  A    between atoms: C_19  and  C_20 
DOCKED: REMARK    4  A    between atoms: C_20  and  C_21 
DOCKED: REMARK    5  A    between atoms: C_21  and  N_22 
DOCKED: USER                              x       y       z     vdW  Elec       q    Type
DOCKED: USER                           _______ _______ _______ _____ _____    ______ ____
DOCKED: ROOT
DOCKED: ATOM      1  O   UNL     1     -47.384 -20.485  16.098 -0.01 -0.00    -0.346 OA 
DOCKED: ATOM      2  C   UNL     1     -47.917 -19.881  14.876 -0.09 +0.00    +0.130 C  
DOCKED: ATOM      3  C   UNL     1     -48.430 -21.053  14.090 -0.21 +0.00    +0.004 A  
DOCKED: ATOM      4  C   UNL     1     -48.303 -22.212  14.843 -0.17 +0.00    +0.006 A  
DOCKED: ATOM      5  C   UNL     1     -47.718 -21.891  16.164 -0.07 +0.00    +0.169 C  
DOCKED: ATOM      6  C   UNL     1     -48.976 -21.089  12.816 -0.20 -0.00    -0.001 A  
DOCKED: ATOM      7  C   UNL     1     -48.711 -23.440  14.351 -0.25 +0.00    +0.008 A  
DOCKED: ATOM      8  C   UNL     1     -49.388 -22.321  12.303 -0.30 +0.00    +0.010 A  
DOCKED: ATOM      9  C   UNL     1     -49.257 -23.490  13.067 -0.29 +0.00    +0.068 A  
DOCKED: ATOM     10  N   UNL     1     -50.036 -25.758  12.088 -2.61 -0.00    -0.191 NA 
DOCKED: ATOM     11  C   UNL     1     -49.686 -24.741  12.527 -0.29 +0.00    +0.101 C  
DOCKED: ENDROOT
DOCKED: BRANCH   2  12
DOCKED: ATOM     12  C   UNL     1     -49.016 -18.899  15.262 -0.07 +0.00    +0.038 C  
DOCKED: BRANCH  12  13
DOCKED: ATOM     13  C   UNL     1     -49.998 -19.522  16.252 -0.04 +0.00    +0.038 C  
DOCKED: BRANCH  13  14
DOCKED: ATOM     14  C   UNL     1     -51.427 -19.467  15.717 -0.02 +0.00    +0.251 C  
DOCKED: BRANCH  14  15
DOCKED: ATOM     15  N   UNL     1     -51.445 -19.756  14.288 -0.14 +0.00    +0.141 N  
DOCKED: ATOM     16  C   UNL     1     -52.294 -20.915  14.007 -0.12 +0.00    +0.285 C  
DOCKED: ATOM     17  C   UNL     1     -51.910 -18.591  13.533 -0.15 +0.00    +0.285 C  
DOCKED: ENDBRANCH  14  15
DOCKED: ENDBRANCH  13  14
DOCKED: ENDBRANCH  12  13
DOCKED: ENDBRANCH   2  12
DOCKED: BRANCH   2  18
DOCKED: ATOM     18  C   UNL     1     -46.782 -19.183  14.204 -0.12 +0.00    +0.006 A  
DOCKED: ATOM     19  C   UNL     1     -45.560 -19.834  14.044 -0.13 +0.00    +0.001 A  
DOCKED: ATOM     20  C   UNL     1     -44.499 -19.180  13.416 -0.10 +0.00    +0.029 A  
DOCKED: ATOM     21  C   UNL     1     -44.663 -17.877  12.948 -0.05 +0.00    +0.140 A  
DOCKED: ATOM     22  C   UNL     1     -45.886 -17.226  13.108 -0.06 +0.00    +0.029 A  
DOCKED: ATOM     23  F   UNL     1     -43.646 -17.250  12.343 -0.00 -0.00    -0.204 F  
DOCKED: ATOM     24  C   UNL     1     -46.947 -17.880  13.737 -0.09 +0.00    +0.001 A  
DOCKED: ENDBRANCH   2  18
DOCKED: TORSDOF 5
DOCKED: TER
DOCKED: ENDMDL
________________________________________________________________________________


    FINAL DOCKED STATE:
    ________________________


Run:   375 / 512
Time taken for this run:   0.002s

DOCKED: MODEL        375
DOCKED: USER    Run = 375
DOCKED: USER
DOCKED: USER    Estimated Free Energy of Binding    =  -3.43 kcal/mol  [=(1)+(2)+(3)-(4)]
DOCKED: USER
DOCKED: USER    (1) Final Intermolecular Energy     =  -4.92 kcal/mol
DOCKED: USER        vdW + Hbond + desolv Energy     =  -4.92 kcal/mol
DOCKED: USER        Electrostatic Energy            =  +0.00 kcal/mol
DOCKED: USER        Moving Ligand-Fixed Receptor    =  -4.92 kcal/mol
DOCKED: USER        Moving Ligand-Moving Receptor   =  +0.00 kcal/mol
DOCKED: USER    (2) Final Total Internal Energy     =  -1.35 kcal/mol
DOCKED: USER    (3) Torsional Free Energy           =  +1.49 kcal/mol
DOCKED: USER    (4) Unbound System's Energy         =  -1.35 kcal/mol
DOCKED: USER
DOCKED: USER
DOCKED: REMARK  5 active torsions:
DOCKED: REMARK  status: ('A' for Active; 'I' for Inactive)
DOCKED: REMARK    1  A    between atoms: C_2  and  C_19 
DOCKED: REMARK    2  A    between atoms: C_2  and  C_11 
DOCKED: REMARK    3  A    between atoms: C_19  and  C_20 
DOCKED: REMARK    4  A    between atoms: C_20  and  C_21 
DOCKED: REMARK    5  A    between atoms: C_21  and  N_22 
DOCKED: USER                              x       y       z     vdW  Elec       q    Type
DOCKED: USER                           _______ _______ _______ _____ _____    ______ ____
DOCKED: ROOT
DOCKED: ATOM      1  O   UNL     1     -41.951 -10.892   4.232 -0.04 -0.00    -0.346 OA 
DOCKED: ATOM      2  C   UNL     1     -41.957 -11.054   2.778 -0.10 +0.00    +0.130 C  
DOCKED: ATOM      3  C   UNL     1     -43.353 -11.517   2.474 -0.19 +0.00    +0.004 A  
DOCKED: ATOM      4  C   UNL     1     -44.110 -11.512   3.636 -0.24 +0.00    +0.006 A  
DOCKED: ATOM      5  C   UNL     1     -43.285 -11.041   4.771 -0.19 +0.00    +0.169 C  
DOCKED: ATOM      6  C   UNL     1     -43.910 -11.899   1.263 -0.25 -0.00    -0.001 A  
DOCKED: ATOM      7  C   UNL     1     -45.441 -11.892   3.631 -0.35 +0.00    +0.008 A  
DOCKED: ATOM      8  C   UNL     1     -45.251 -12.289   1.241 -0.36 +0.00    +0.010 A  
DOCKED: ATOM      9  C   UNL     1     -46.012 -12.285   2.420 -0.40 +0.00    +0.068 A  
DOCKED: ATOM     10  N   UNL     1     -48.499 -13.009   2.344 -2.48 -0.00    -0.191 NA 
DOCKED: ATOM     11  C   UNL     1     -47.383 -12.685   2.378 -0.16 +0.00    +0.101 C  
DOCKED: ENDROOT
DOCKED: BRANCH   2  12
DOCKED: ATOM     12  C   UNL     1     -41.625  -9.710   2.140 +0.05 +0.00    +0.038 C  
DOCKED: BRANCH  12  13
DOCKED: ATOM     13  C   UNL     1     -40.497  -9.002   2.889 -0.09 +0.00    +0.038 C  
DOCKED: BRANCH  13  14
DOCKED: ATOM     14  C   UNL     1     -39.267  -8.836   2.000 -0.02 +0.00    +0.251 C  
DOCKED: BRANCH  14  15
DOCKED: ATOM     15  N   UNL     1     -38.053  -9.127   2.753 -0.01 +0.00    +0.141 N  
DOCKED: ATOM     16  C   UNL     1     -38.091  -8.477   4.064 +0.00 +0.00    +0.285 C  
DOCKED: ATOM     17  C   UNL     1     -37.877 -10.572   2.908 +0.00 +0.00    +0.285 C  
DOCKED: ENDBRANCH  14  15
DOCKED: ENDBRANCH  13  14
DOCKED: ENDBRANCH  12  13
DOCKED: ENDBRANCH   2  12
DOCKED: BRANCH   2  18
DOCKED: ATOM     18  C   UNL     1     -40.921 -12.077   2.449 -0.04 +0.00    +0.006 A  
DOCKED: ATOM     19  C   UNL     1     -40.417 -12.905   3.451 -0.02 +0.00    +0.001 A  
DOCKED: ATOM     20  C   UNL     1     -39.448 -13.861   3.142 -0.00 +0.00    +0.029 A  
DOCKED: ATOM     21  C   UNL     1     -38.985 -13.987   1.833 +0.00 +0.00    +0.140 A  
DOCKED: ATOM     22  C   UNL     1     -39.490 -13.158   0.831 -0.01 +0.00    +0.029 A  
DOCKED: ATOM     23  F   UNL     1     -38.057 -14.905   1.536 +0.00 -0.00    -0.204 F  
DOCKED: ATOM     24  C   UNL     1     -40.459 -12.202   1.139 -0.03 +0.00    +0.001 A  
DOCKED: ENDBRANCH   2  18
DOCKED: TORSDOF 5
DOCKED: TER
DOCKED: ENDMDL
________________________________________________________________________________


    FINAL DOCKED STATE:
    ________________________


Run:   376 / 512
Time taken for this run:   0.002s

DOCKED: MODEL        376
DOCKED: USER    Run = 376
DOCKED: USER
DOCKED: USER    Estimated Free Energy of Binding    =  -4.60 kcal/mol  [=(1)+(2)+(3)-(4)]
DOCKED: USER
DOCKED: USER    (1) Final Intermolecular Energy     =  -6.09 kcal/mol
DOCKED: USER        vdW + Hbond + desolv Energy     =  -6.09 kcal/mol
DOCKED: USER        Electrostatic Energy            =  +0.00 kcal/mol
DOCKED: USER        Moving Ligand-Fixed Receptor    =  -6.09 kcal/mol
DOCKED: USER        Moving Ligand-Moving Receptor   =  +0.00 kcal/mol
DOCKED: USER    (2) Final Total Internal Energy     =  -1.11 kcal/mol
DOCKED: USER    (3) Torsional Free Energy           =  +1.49 kcal/mol
DOCKED: USER    (4) Unbound System's Energy         =  -1.11 kcal/mol
DOCKED: USER
DOCKED: USER
DOCKED: REMARK  5 active torsions:
DOCKED: REMARK  status: ('A' for Active; 'I' for Inactive)
DOCKED: REMARK    1  A    between atoms: C_2  and  C_19 
DOCKED: REMARK    2  A    between atoms: C_2  and  C_11 
DOCKED: REMARK    3  A    between atoms: C_19  and  C_20 
DOCKED: REMARK    4  A    between atoms: C_20  and  C_21 
DOCKED: REMARK    5  A    between atoms: C_21  and  N_22 
DOCKED: USER                              x       y       z     vdW  Elec       q    Type
DOCKED: USER                           _______ _______ _______ _____ _____    ______ ____
DOCKED: ROOT
DOCKED: ATOM      1  O   UNL     1     -47.701 -22.695  14.709 -0.09 -0.00    -0.346 OA 
DOCKED: ATOM      2  C   UNL     1     -49.108 -22.294  14.726 -0.13 +0.00    +0.130 C  
DOCKED: ATOM      3  C   UNL     1     -49.636 -22.778  13.406 -0.27 +0.00    +0.004 A  
DOCKED: ATOM      4  C   UNL     1     -48.647 -23.489  12.741 -0.37 +0.00    +0.006 A  
DOCKED: ATOM      5  C   UNL     1     -47.420 -23.536  13.566 -0.18 +0.00    +0.169 C  
DOCKED: ATOM      6  C   UNL     1     -50.893 -22.611  12.845 -0.25 -0.00    -0.001 A  
DOCKED: ATOM      7  C   UNL     1     -48.878 -24.051  11.497 -0.30 +0.00    +0.008 A  
DOCKED: ATOM      8  C   UNL     1     -51.140 -23.168  11.589 -0.05 +0.00    +0.010 A  
DOCKED: ATOM      9  C   UNL     1     -50.137 -23.885  10.919 -0.41 +0.00    +0.068 A  
DOCKED: ATOM     10  N   UNL     1     -50.630 -24.911   8.591 -2.18 -0.00    -0.191 NA 
DOCKED: ATOM     11  C   UNL     1     -50.409 -24.450   9.635 -0.36 +0.00    +0.101 C  
DOCKED: ENDROOT
DOCKED: BRANCH   2  12
DOCKED: ATOM     12  C   UNL     1     -49.786 -22.963  15.917 -0.12 +0.00    +0.038 C  
DOCKED: BRANCH  12  13
DOCKED: ATOM     13  C   UNL     1     -49.879 -24.475  15.728 -0.25 +0.00    +0.038 C  
DOCKED: BRANCH  13  14
DOCKED: ATOM     14  C   UNL     1     -48.569 -25.159  16.115 -0.16 +0.00    +0.251 C  
DOCKED: BRANCH  14  15
DOCKED: ATOM     15  N   UNL     1     -48.447 -25.236  17.566 -0.21 +0.00    +0.141 N  
DOCKED: ATOM     16  C   UNL     1     -47.465 -24.267  18.054 -0.11 +0.00    +0.285 C  
DOCKED: ATOM     17  C   UNL     1     -49.744 -25.011  18.205 -0.04 +0.00    +0.285 C  
DOCKED: ENDBRANCH  14  15
DOCKED: ENDBRANCH  13  14
DOCKED: ENDBRANCH  12  13
DOCKED: ENDBRANCH   2  12
DOCKED: BRANCH   2  18
DOCKED: ATOM     18  C   UNL     1     -49.137 -20.808  14.855 -0.12 +0.00    +0.006 A  
DOCKED: ATOM     19  C   UNL     1     -49.212 -20.011  13.713 -0.21 +0.00    +0.001 A  
DOCKED: ATOM     20  C   UNL     1     -49.239 -18.621  13.835 -0.16 +0.00    +0.029 A  
DOCKED: ATOM     21  C   UNL     1     -49.191 -18.031  15.097 -0.04 +0.00    +0.140 A  
DOCKED: ATOM     22  C   UNL     1     -49.116 -18.828  16.239 -0.02 +0.00    +0.029 A  
DOCKED: ATOM     23  F   UNL     1     -49.218 -16.697  15.214 -0.00 -0.00    -0.204 F  
DOCKED: ATOM     24  C   UNL     1     -49.089 -20.219  16.118 -0.04 +0.00    +0.001 A  
DOCKED: ENDBRANCH   2  18
DOCKED: TORSDOF 5
DOCKED: TER
DOCKED: ENDMDL
________________________________________________________________________________


    FINAL DOCKED STATE:
    ________________________


Run:   377 / 512
Time taken for this run:   0.002s

DOCKED: MODEL        377
DOCKED: USER    Run = 377
DOCKED: USER
DOCKED: USER    Estimated Free Energy of Binding    =  -3.57 kcal/mol  [=(1)+(2)+(3)-(4)]
DOCKED: USER
DOCKED: USER    (1) Final Intermolecular Energy     =  -5.06 kcal/mol
DOCKED: USER        vdW + Hbond + desolv Energy     =  -5.06 kcal/mol
DOCKED: USER        Electrostatic Energy            =  +0.00 kcal/mol
DOCKED: USER        Moving Ligand-Fixed Receptor    =  -5.06 kcal/mol
DOCKED: USER        Moving Ligand-Moving Receptor   =  +0.00 kcal/mol
DOCKED: USER    (2) Final Total Internal Energy     =  -1.24 kcal/mol
DOCKED: USER    (3) Torsional Free Energy           =  +1.49 kcal/mol
DOCKED: USER    (4) Unbound System's Energy         =  -1.24 kcal/mol
DOCKED: USER
DOCKED: USER
DOCKED: REMARK  5 active torsions:
DOCKED: REMARK  status: ('A' for Active; 'I' for Inactive)
DOCKED: REMARK    1  A    between atoms: C_2  and  C_19 
DOCKED: REMARK    2  A    between atoms: C_2  and  C_11 
DOCKED: REMARK    3  A    between atoms: C_19  and  C_20 
DOCKED: REMARK    4  A    between atoms: C_20  and  C_21 
DOCKED: REMARK    5  A    between atoms: C_21  and  N_22 
DOCKED: USER                              x       y       z     vdW  Elec       q    Type
DOCKED: USER                           _______ _______ _______ _____ _____    ______ ____
DOCKED: ROOT
DOCKED: ATOM      1  O   UNL     1     -42.097 -10.366   5.834 -0.07 -0.00    -0.346 OA 
DOCKED: ATOM      2  C   UNL     1     -41.497 -10.778   4.565 -0.07 +0.00    +0.130 C  
DOCKED: ATOM      3  C   UNL     1     -42.674 -11.174   3.722 -0.15 +0.00    +0.004 A  
DOCKED: ATOM      4  C   UNL     1     -43.851 -10.907   4.408 -0.23 +0.00    +0.006 A  
DOCKED: ATOM      5  C   UNL     1     -43.539 -10.313   5.727 -0.07 +0.00    +0.169 C  
DOCKED: ATOM      6  C   UNL     1     -42.702 -11.716   2.445 -0.14 -0.00    -0.001 A  
DOCKED: ATOM      7  C   UNL     1     -45.088 -11.175   3.848 -0.20 +0.00    +0.008 A  
DOCKED: ATOM      8  C   UNL     1     -43.942 -11.995   1.868 -0.24 +0.00    +0.010 A  
DOCKED: ATOM      9  C   UNL     1     -45.129 -11.726   2.566 -0.31 +0.00    +0.068 A  
DOCKED: ATOM     10  N   UNL     1     -47.414 -12.253   1.465 -2.54 -0.00    -0.191 NA 
DOCKED: ATOM     11  C   UNL     1     -46.389 -12.017   1.959 -0.40 +0.00    +0.101 C  
DOCKED: ENDROOT
DOCKED: BRANCH   2  12
DOCKED: ATOM     12  C   UNL     1     -40.726  -9.596   3.989 -0.07 +0.00    +0.038 C  
DOCKED: BRANCH  12  13
DOCKED: ATOM     13  C   UNL     1     -41.330  -8.266   4.436 -0.10 +0.00    +0.038 C  
DOCKED: BRANCH  13  14
DOCKED: ATOM     14  C   UNL     1     -42.169  -7.642   3.323 -0.10 +0.00    +0.251 C  
DOCKED: BRANCH  14  15
DOCKED: ATOM     15  N   UNL     1     -42.968  -6.540   3.846 -0.12 +0.00    +0.141 N  
DOCKED: ATOM     16  C   UNL     1     -43.876  -7.012   4.892 -0.11 +0.00    +0.285 C  
DOCKED: ATOM     17  C   UNL     1     -42.103  -5.479   4.366 -0.04 +0.00    +0.285 C  
DOCKED: ENDBRANCH  14  15
DOCKED: ENDBRANCH  13  14
DOCKED: ENDBRANCH  12  13
DOCKED: ENDBRANCH   2  12
DOCKED: BRANCH   2  18
DOCKED: ATOM     18  C   UNL     1     -40.585 -11.921   4.864 -0.03 +0.00    +0.006 A  
DOCKED: ATOM     19  C   UNL     1     -39.215 -11.796   4.639 -0.01 +0.00    +0.001 A  
DOCKED: ATOM     20  C   UNL     1     -38.364 -12.866   4.919 -0.00 +0.00    +0.029 A  
DOCKED: ATOM     21  C   UNL     1     -38.883 -14.057   5.423 -0.00 +0.00    +0.140 A  
DOCKED: ATOM     22  C   UNL     1     -40.254 -14.181   5.648 -0.01 +0.00    +0.029 A  
DOCKED: ATOM     23  F   UNL     1     -38.066 -15.083   5.694 +0.00 -0.00    -0.204 F  
DOCKED: ATOM     24  C   UNL     1     -41.107 -13.112   5.368 -0.04 +0.00    +0.001 A  
DOCKED: ENDBRANCH   2  18
DOCKED: TORSDOF 5
DOCKED: TER
DOCKED: ENDMDL
________________________________________________________________________________


    FINAL DOCKED STATE:
    ________________________


Run:   378 / 512
Time taken for this run:   0.002s

DOCKED: MODEL        378
DOCKED: USER    Run = 378
DOCKED: USER
DOCKED: USER    Estimated Free Energy of Binding    =  -3.96 kcal/mol  [=(1)+(2)+(3)-(4)]
DOCKED: USER
DOCKED: USER    (1) Final Intermolecular Energy     =  -5.45 kcal/mol
DOCKED: USER        vdW + Hbond + desolv Energy     =  -5.45 kcal/mol
DOCKED: USER        Electrostatic Energy            =  +0.00 kcal/mol
DOCKED: USER        Moving Ligand-Fixed Receptor    =  -5.45 kcal/mol
DOCKED: USER        Moving Ligand-Moving Receptor   =  +0.00 kcal/mol
DOCKED: USER    (2) Final Total Internal Energy     =  -1.25 kcal/mol
DOCKED: USER    (3) Torsional Free Energy           =  +1.49 kcal/mol
DOCKED: USER    (4) Unbound System's Energy         =  -1.25 kcal/mol
DOCKED: USER
DOCKED: USER
DOCKED: REMARK  5 active torsions:
DOCKED: REMARK  status: ('A' for Active; 'I' for Inactive)
DOCKED: REMARK    1  A    between atoms: C_2  and  C_19 
DOCKED: REMARK    2  A    between atoms: C_2  and  C_11 
DOCKED: REMARK    3  A    between atoms: C_19  and  C_20 
DOCKED: REMARK    4  A    between atoms: C_20  and  C_21 
DOCKED: REMARK    5  A    between atoms: C_21  and  N_22 
DOCKED: USER                              x       y       z     vdW  Elec       q    Type
DOCKED: USER                           _______ _______ _______ _____ _____    ______ ____
DOCKED: ROOT
DOCKED: ATOM      1  O   UNL     1     -47.219 -21.450  16.868 -0.01 -0.00    -0.346 OA 
DOCKED: ATOM      2  C   UNL     1     -46.955 -20.883  15.545 -0.09 +0.00    +0.130 C  
DOCKED: ATOM      3  C   UNL     1     -47.701 -21.790  14.610 -0.19 +0.00    +0.004 A  
DOCKED: ATOM      4  C   UNL     1     -48.419 -22.726  15.341 -0.15 +0.00    +0.006 A  
DOCKED: ATOM      5  C   UNL     1     -48.212 -22.499  16.789 -0.07 +0.00    +0.169 C  
DOCKED: ATOM      6  C   UNL     1     -47.750 -21.780  13.224 -0.14 -0.00    -0.001 A  
DOCKED: ATOM      7  C   UNL     1     -49.203 -23.681  14.716 -0.21 +0.00    +0.008 A  
DOCKED: ATOM      8  C   UNL     1     -48.532 -22.739  12.578 -0.32 +0.00    +0.010 A  
DOCKED: ATOM      9  C   UNL     1     -49.255 -23.685  13.321 -0.28 +0.00    +0.068 A  
DOCKED: ATOM     10  N   UNL     1     -50.701 -25.449  12.093 -2.37 -0.00    -0.191 NA 
DOCKED: ATOM     11  C   UNL     1     -50.052 -24.658  12.644 -0.32 +0.00    +0.101 C  
DOCKED: ENDROOT
DOCKED: BRANCH   2  12
DOCKED: ATOM     12  C   UNL     1     -47.472 -19.450  15.522 -0.06 +0.00    +0.038 C  
DOCKED: BRANCH  12  13
DOCKED: ATOM     13  C   UNL     1     -48.977 -19.405  15.261 -0.08 +0.00    +0.038 C  
DOCKED: BRANCH  13  14
DOCKED: ATOM     14  C   UNL     1     -49.272 -19.054  13.804 -0.14 +0.00    +0.251 C  
DOCKED: BRANCH  14  15
DOCKED: ATOM     15  N   UNL     1     -50.710 -19.037  13.567 -0.21 +0.00    +0.141 N  
DOCKED: ATOM     16  C   UNL     1     -51.252 -20.397  13.588 -0.14 +0.00    +0.285 C  
DOCKED: ATOM     17  C   UNL     1     -51.387 -18.206  14.564 -0.08 +0.00    +0.285 C  
DOCKED: ENDBRANCH  14  15
DOCKED: ENDBRANCH  13  14
DOCKED: ENDBRANCH  12  13
DOCKED: ENDBRANCH   2  12
DOCKED: BRANCH   2  18
DOCKED: ATOM     18  C   UNL     1     -45.477 -20.925  15.340 -0.12 +0.00    +0.006 A  
DOCKED: ATOM     19  C   UNL     1     -44.730 -19.750  15.415 -0.06 +0.00    +0.001 A  
DOCKED: ATOM     20  C   UNL     1     -43.348 -19.791  15.222 -0.05 +0.00    +0.029 A  
DOCKED: ATOM     21  C   UNL     1     -42.716 -21.005  14.957 -0.06 +0.00    +0.140 A  
DOCKED: ATOM     22  C   UNL     1     -43.465 -22.180  14.883 -0.14 +0.00    +0.029 A  
DOCKED: ATOM     23  F   UNL     1     -41.390 -21.044  14.774 -0.00 -0.00    -0.204 F  
DOCKED: ATOM     24  C   UNL     1     -44.847 -22.140  15.074 -0.15 +0.00    +0.001 A  
DOCKED: ENDBRANCH   2  18
DOCKED: TORSDOF 5
DOCKED: TER
DOCKED: ENDMDL
________________________________________________________________________________


    FINAL DOCKED STATE:
    ________________________


Run:   379 / 512
Time taken for this run:   0.002s

DOCKED: MODEL        379
DOCKED: USER    Run = 379
DOCKED: USER
DOCKED: USER    Estimated Free Energy of Binding    =  -3.56 kcal/mol  [=(1)+(2)+(3)-(4)]
DOCKED: USER
DOCKED: USER    (1) Final Intermolecular Energy     =  -5.06 kcal/mol
DOCKED: USER        vdW + Hbond + desolv Energy     =  -5.06 kcal/mol
DOCKED: USER        Electrostatic Energy            =  +0.00 kcal/mol
DOCKED: USER        Moving Ligand-Fixed Receptor    =  -5.06 kcal/mol
DOCKED: USER        Moving Ligand-Moving Receptor   =  +0.00 kcal/mol
DOCKED: USER    (2) Final Total Internal Energy     =  -1.48 kcal/mol
DOCKED: USER    (3) Torsional Free Energy           =  +1.49 kcal/mol
DOCKED: USER    (4) Unbound System's Energy         =  -1.48 kcal/mol
DOCKED: USER
DOCKED: USER
DOCKED: REMARK  5 active torsions:
DOCKED: REMARK  status: ('A' for Active; 'I' for Inactive)
DOCKED: REMARK    1  A    between atoms: C_2  and  C_19 
DOCKED: REMARK    2  A    between atoms: C_2  and  C_11 
DOCKED: REMARK    3  A    between atoms: C_19  and  C_20 
DOCKED: REMARK    4  A    between atoms: C_20  and  C_21 
DOCKED: REMARK    5  A    between atoms: C_21  and  N_22 
DOCKED: USER                              x       y       z     vdW  Elec       q    Type
DOCKED: USER                           _______ _______ _______ _____ _____    ______ ____
DOCKED: ROOT
DOCKED: ATOM      1  O   UNL     1     -42.917 -14.642   6.142 -0.02 -0.00    -0.346 OA 
DOCKED: ATOM      2  C   UNL     1     -42.455 -15.114   4.836 -0.04 +0.00    +0.130 C  
DOCKED: ATOM      3  C   UNL     1     -43.459 -14.549   3.874 -0.12 +0.00    +0.004 A  
DOCKED: ATOM      4  C   UNL     1     -44.352 -13.735   4.556 -0.20 +0.00    +0.006 A  
DOCKED: ATOM      5  C   UNL     1     -43.999 -13.694   5.992 -0.01 +0.00    +0.169 C  
DOCKED: ATOM      6  C   UNL     1     -43.567 -14.732   2.503 -0.15 -0.00    -0.001 A  
DOCKED: ATOM      7  C   UNL     1     -45.380 -13.082   3.897 -0.32 +0.00    +0.008 A  
DOCKED: ATOM      8  C   UNL     1     -44.601 -14.084   1.825 -0.19 +0.00    +0.010 A  
DOCKED: ATOM      9  C   UNL     1     -45.502 -13.264   2.518 -0.26 +0.00    +0.068 A  
DOCKED: ATOM     10  N   UNL     1     -47.407 -12.072   1.228 -2.54 -0.00    -0.191 NA 
DOCKED: ATOM     11  C   UNL     1     -46.553 -12.607   1.807 -0.32 +0.00    +0.101 C  
DOCKED: ENDROOT
DOCKED: BRANCH   2  12
DOCKED: ATOM     12  C   UNL     1     -41.045 -14.584   4.602 -0.02 +0.00    +0.038 C  
DOCKED: BRANCH  12  13
DOCKED: ATOM     13  C   UNL     1     -40.979 -13.071   4.800 -0.04 +0.00    +0.038 C  
DOCKED: BRANCH  13  14
DOCKED: ATOM     14  C   UNL     1     -40.815 -12.348   3.464 -0.00 +0.00    +0.251 C  
DOCKED: BRANCH  14  15
DOCKED: ATOM     15  N   UNL     1     -41.575 -11.104   3.463 -0.05 +0.00    +0.141 N  
DOCKED: ATOM     16  C   UNL     1     -42.476 -11.051   2.312 -0.07 +0.00    +0.285 C  
DOCKED: ATOM     17  C   UNL     1     -42.332 -10.962   4.708 -0.08 +0.00    +0.285 C  
DOCKED: ENDBRANCH  14  15
DOCKED: ENDBRANCH  13  14
DOCKED: ENDBRANCH  12  13
DOCKED: ENDBRANCH   2  12
DOCKED: BRANCH   2  18
DOCKED: ATOM     18  C   UNL     1     -42.468 -16.606   4.882 -0.04 +0.00    +0.006 A  
DOCKED: ATOM     19  C   UNL     1     -41.282 -17.307   5.094 -0.01 +0.00    +0.001 A  
DOCKED: ATOM     20  C   UNL     1     -41.296 -18.701   5.136 -0.03 +0.00    +0.029 A  
DOCKED: ATOM     21  C   UNL     1     -42.495 -19.392   4.966 -0.12 +0.00    +0.140 A  
DOCKED: ATOM     22  C   UNL     1     -43.681 -18.690   4.754 -0.21 +0.00    +0.029 A  
DOCKED: ATOM     23  F   UNL     1     -42.508 -20.731   5.009 -0.07 -0.00    -0.204 F  
DOCKED: ATOM     24  C   UNL     1     -43.668 -17.295   4.711 -0.16 +0.00    +0.001 A  
DOCKED: ENDBRANCH   2  18
DOCKED: TORSDOF 5
DOCKED: TER
DOCKED: ENDMDL
________________________________________________________________________________


    FINAL DOCKED STATE:
    ________________________


Run:   380 / 512
Time taken for this run:   0.002s

DOCKED: MODEL        380
DOCKED: USER    Run = 380
DOCKED: USER
DOCKED: USER    Estimated Free Energy of Binding    =  -3.98 kcal/mol  [=(1)+(2)+(3)-(4)]
DOCKED: USER
DOCKED: USER    (1) Final Intermolecular Energy     =  -5.47 kcal/mol
DOCKED: USER        vdW + Hbond + desolv Energy     =  -5.47 kcal/mol
DOCKED: USER        Electrostatic Energy            =  +0.00 kcal/mol
DOCKED: USER        Moving Ligand-Fixed Receptor    =  -5.47 kcal/mol
DOCKED: USER        Moving Ligand-Moving Receptor   =  +0.00 kcal/mol
DOCKED: USER    (2) Final Total Internal Energy     =  -1.48 kcal/mol
DOCKED: USER    (3) Torsional Free Energy           =  +1.49 kcal/mol
DOCKED: USER    (4) Unbound System's Energy         =  -1.48 kcal/mol
DOCKED: USER
DOCKED: USER
DOCKED: REMARK  5 active torsions:
DOCKED: REMARK  status: ('A' for Active; 'I' for Inactive)
DOCKED: REMARK    1  A    between atoms: C_2  and  C_19 
DOCKED: REMARK    2  A    between atoms: C_2  and  C_11 
DOCKED: REMARK    3  A    between atoms: C_19  and  C_20 
DOCKED: REMARK    4  A    between atoms: C_20  and  C_21 
DOCKED: REMARK    5  A    between atoms: C_21  and  N_22 
DOCKED: USER                              x       y       z     vdW  Elec       q    Type
DOCKED: USER                           _______ _______ _______ _____ _____    ______ ____
DOCKED: ROOT
DOCKED: ATOM      1  O   UNL     1     -39.717 -22.492   5.624 +0.00 -0.00    -0.346 OA 
DOCKED: ATOM      2  C   UNL     1     -40.588 -21.560   6.339 -0.06 +0.00    +0.130 C  
DOCKED: ATOM      3  C   UNL     1     -41.227 -22.407   7.401 -0.11 +0.00    +0.004 A  
DOCKED: ATOM      4  C   UNL     1     -40.686 -23.684   7.367 -0.11 +0.00    +0.006 A  
DOCKED: ATOM      5  C   UNL     1     -39.658 -23.767   6.306 -0.04 +0.00    +0.169 C  
DOCKED: ATOM      6  C   UNL     1     -42.201 -22.071   8.330 -0.18 -0.00    -0.001 A  
DOCKED: ATOM      7  C   UNL     1     -41.100 -24.666   8.252 -0.20 +0.00    +0.008 A  
DOCKED: ATOM      8  C   UNL     1     -42.631 -23.051   9.227 -0.29 +0.00    +0.010 A  
DOCKED: ATOM      9  C   UNL     1     -42.083 -24.341   9.188 -0.29 +0.00    +0.068 A  
DOCKED: ATOM     10  N   UNL     1     -42.901 -26.135  10.869 -2.64 -0.00    -0.191 NA 
DOCKED: ATOM     11  C   UNL     1     -42.535 -25.331  10.115 -0.41 +0.00    +0.101 C  
DOCKED: ENDROOT
DOCKED: BRANCH   2  12
DOCKED: ATOM     12  C   UNL     1     -39.729 -20.438   6.912 -0.01 +0.00    +0.038 C  
DOCKED: BRANCH  12  13
DOCKED: ATOM     13  C   UNL     1     -38.386 -20.966   7.413 -0.01 +0.00    +0.038 C  
DOCKED: BRANCH  13  14
DOCKED: ATOM     14  C   UNL     1     -38.244 -20.764   8.920 -0.00 +0.00    +0.251 C  
DOCKED: BRANCH  14  15
DOCKED: ATOM     15  N   UNL     1     -39.050 -21.741   9.642 -0.02 +0.00    +0.141 N  
DOCKED: ATOM     16  C   UNL     1     -38.321 -23.001   9.792 -0.00 +0.00    +0.285 C  
DOCKED: ATOM     17  C   UNL     1     -39.440 -21.221  10.953 -0.01 +0.00    +0.285 C  
DOCKED: ENDBRANCH  14  15
DOCKED: ENDBRANCH  13  14
DOCKED: ENDBRANCH  12  13
DOCKED: ENDBRANCH   2  12
DOCKED: BRANCH   2  18
DOCKED: ATOM     18  C   UNL     1     -41.570 -21.032   5.347 -0.12 +0.00    +0.006 A  
DOCKED: ATOM     19  C   UNL     1     -41.594 -21.543   4.050 -0.14 +0.00    +0.001 A  
DOCKED: ATOM     20  C   UNL     1     -42.512 -21.049   3.124 -0.19 +0.00    +0.029 A  
DOCKED: ATOM     21  C   UNL     1     -43.406 -20.046   3.495 -0.17 +0.00    +0.140 A  
DOCKED: ATOM     22  C   UNL     1     -43.383 -19.535   4.792 -0.19 +0.00    +0.029 A  
DOCKED: ATOM     23  F   UNL     1     -44.289 -19.573   2.606 -0.14 -0.00    -0.204 F  
DOCKED: ATOM     24  C   UNL     1     -42.464 -20.028   5.720 -0.15 +0.00    +0.001 A  
DOCKED: ENDBRANCH   2  18
DOCKED: TORSDOF 5
DOCKED: TER
DOCKED: ENDMDL
________________________________________________________________________________


    FINAL DOCKED STATE:
    ________________________


Run:   381 / 512
Time taken for this run:   0.002s

DOCKED: MODEL        381
DOCKED: USER    Run = 381
DOCKED: USER
DOCKED: USER    Estimated Free Energy of Binding    =  -3.39 kcal/mol  [=(1)+(2)+(3)-(4)]
DOCKED: USER
DOCKED: USER    (1) Final Intermolecular Energy     =  -4.88 kcal/mol
DOCKED: USER        vdW + Hbond + desolv Energy     =  -4.88 kcal/mol
DOCKED: USER        Electrostatic Energy            =  +0.00 kcal/mol
DOCKED: USER        Moving Ligand-Fixed Receptor    =  -4.88 kcal/mol
DOCKED: USER        Moving Ligand-Moving Receptor   =  +0.00 kcal/mol
DOCKED: USER    (2) Final Total Internal Energy     =  -1.43 kcal/mol
DOCKED: USER    (3) Torsional Free Energy           =  +1.49 kcal/mol
DOCKED: USER    (4) Unbound System's Energy         =  -1.43 kcal/mol
DOCKED: USER
DOCKED: USER
DOCKED: REMARK  5 active torsions:
DOCKED: REMARK  status: ('A' for Active; 'I' for Inactive)
DOCKED: REMARK    1  A    between atoms: C_2  and  C_19 
DOCKED: REMARK    2  A    between atoms: C_2  and  C_11 
DOCKED: REMARK    3  A    between atoms: C_19  and  C_20 
DOCKED: REMARK    4  A    between atoms: C_20  and  C_21 
DOCKED: REMARK    5  A    between atoms: C_21  and  N_22 
DOCKED: USER                              x       y       z     vdW  Elec       q    Type
DOCKED: USER                           _______ _______ _______ _____ _____    ______ ____
DOCKED: ROOT
DOCKED: ATOM      1  O   UNL     1     -41.037 -13.719   4.012 +0.01 -0.00    -0.346 OA 
DOCKED: ATOM      2  C   UNL     1     -41.885 -14.185   5.110 -0.04 +0.00    +0.130 C  
DOCKED: ATOM      3  C   UNL     1     -43.280 -13.902   4.632 -0.11 +0.00    +0.004 A  
DOCKED: ATOM      4  C   UNL     1     -43.239 -13.420   3.331 -0.11 +0.00    +0.006 A  
DOCKED: ATOM      5  C   UNL     1     -41.837 -13.363   2.860 -0.02 +0.00    +0.169 C  
DOCKED: ATOM      6  C   UNL     1     -44.489 -14.069   5.291 -0.19 -0.00    -0.001 A  
DOCKED: ATOM      7  C   UNL     1     -44.397 -13.086   2.650 -0.23 +0.00    +0.008 A  
DOCKED: ATOM      8  C   UNL     1     -45.665 -13.732   4.620 -0.30 +0.00    +0.010 A  
DOCKED: ATOM      9  C   UNL     1     -45.619 -13.244   3.306 -0.30 +0.00    +0.068 A  
DOCKED: ATOM     10  N   UNL     1     -47.822 -12.633   2.085 -2.40 -0.00    -0.191 NA 
DOCKED: ATOM     11  C   UNL     1     -46.834 -12.906   2.633 -0.32 +0.00    +0.101 C  
DOCKED: ENDROOT
DOCKED: BRANCH   2  12
DOCKED: ATOM     12  C   UNL     1     -41.622 -15.671   5.326 -0.02 +0.00    +0.038 C  
DOCKED: BRANCH  12  13
DOCKED: ATOM     13  C   UNL     1     -41.148 -16.345   4.040 -0.01 +0.00    +0.038 C  
DOCKED: BRANCH  13  14
DOCKED: ATOM     14  C   UNL     1     -42.052 -17.519   3.670 -0.03 +0.00    +0.251 C  
DOCKED: BRANCH  14  15
DOCKED: ATOM     15  N   UNL     1     -43.431 -17.069   3.519 -0.13 +0.00    +0.141 N  
DOCKED: ATOM     16  C   UNL     1     -43.646 -16.503   2.186 -0.05 +0.00    +0.285 C  
DOCKED: ATOM     17  C   UNL     1     -44.363 -18.172   3.758 -0.16 +0.00    +0.285 C  
DOCKED: ENDBRANCH  14  15
DOCKED: ENDBRANCH  13  14
DOCKED: ENDBRANCH  12  13
DOCKED: ENDBRANCH   2  12
DOCKED: BRANCH   2  18
DOCKED: ATOM     18  C   UNL     1     -41.511 -13.391   6.317 -0.08 +0.00    +0.006 A  
DOCKED: ATOM     19  C   UNL     1     -41.549 -11.998   6.273 -0.11 +0.00    +0.001 A  
DOCKED: ATOM     20  C   UNL     1     -41.199 -11.256   7.402 -0.08 +0.00    +0.029 A  
DOCKED: ATOM     21  C   UNL     1     -40.813 -11.908   8.573 -0.05 +0.00    +0.140 A  
DOCKED: ATOM     22  C   UNL     1     -40.776 -13.302   8.615 -0.07 +0.00    +0.029 A  
DOCKED: ATOM     23  F   UNL     1     -40.479 -11.196   9.657 -0.03 -0.00    -0.204 F  
DOCKED: ATOM     24  C   UNL     1     -41.125 -14.044   7.486 -0.06 +0.00    +0.001 A  
DOCKED: ENDBRANCH   2  18
DOCKED: TORSDOF 5
DOCKED: TER
DOCKED: ENDMDL
________________________________________________________________________________


    FINAL DOCKED STATE:
    ________________________


Run:   382 / 512
Time taken for this run:   0.002s

DOCKED: MODEL        382
DOCKED: USER    Run = 382
DOCKED: USER
DOCKED: USER    Estimated Free Energy of Binding    =  -3.89 kcal/mol  [=(1)+(2)+(3)-(4)]
DOCKED: USER
DOCKED: USER    (1) Final Intermolecular Energy     =  -5.38 kcal/mol
DOCKED: USER        vdW + Hbond + desolv Energy     =  -5.38 kcal/mol
DOCKED: USER        Electrostatic Energy            =  +0.00 kcal/mol
DOCKED: USER        Moving Ligand-Fixed Receptor    =  -5.38 kcal/mol
DOCKED: USER        Moving Ligand-Moving Receptor   =  +0.00 kcal/mol
DOCKED: USER    (2) Final Total Internal Energy     =  -1.31 kcal/mol
DOCKED: USER    (3) Torsional Free Energy           =  +1.49 kcal/mol
DOCKED: USER    (4) Unbound System's Energy         =  -1.31 kcal/mol
DOCKED: USER
DOCKED: USER
DOCKED: REMARK  5 active torsions:
DOCKED: REMARK  status: ('A' for Active; 'I' for Inactive)
DOCKED: REMARK    1  A    between atoms: C_2  and  C_19 
DOCKED: REMARK    2  A    between atoms: C_2  and  C_11 
DOCKED: REMARK    3  A    between atoms: C_19  and  C_20 
DOCKED: REMARK    4  A    between atoms: C_20  and  C_21 
DOCKED: REMARK    5  A    between atoms: C_21  and  N_22 
DOCKED: USER                              x       y       z     vdW  Elec       q    Type
DOCKED: USER                           _______ _______ _______ _____ _____    ______ ____
DOCKED: ROOT
DOCKED: ATOM      1  O   UNL     1     -46.876 -23.161  15.287 -0.11 -0.00    -0.346 OA 
DOCKED: ATOM      2  C   UNL     1     -47.962 -22.197  15.105 -0.15 +0.00    +0.130 C  
DOCKED: ATOM      3  C   UNL     1     -48.633 -22.646  13.840 -0.27 +0.00    +0.004 A  
DOCKED: ATOM      4  C   UNL     1     -48.053 -23.826  13.397 -0.36 +0.00    +0.006 A  
DOCKED: ATOM      5  C   UNL     1     -46.983 -24.241  14.331 -0.08 +0.00    +0.169 C  
DOCKED: ATOM      6  C   UNL     1     -49.681 -22.063  13.142 -0.28 -0.00    -0.001 A  
DOCKED: ATOM      7  C   UNL     1     -48.494 -24.459  12.247 -0.37 +0.00    +0.008 A  
DOCKED: ATOM      8  C   UNL     1     -50.134 -22.686  11.978 -0.08 +0.00    +0.010 A  
DOCKED: ATOM      9  C   UNL     1     -49.544 -23.878  11.533 -0.40 +0.00    +0.068 A  
DOCKED: ATOM     10  N   UNL     1     -50.412 -25.012   9.371 -1.63 -0.00    -0.191 NA 
DOCKED: ATOM     11  C   UNL     1     -50.022 -24.503  10.341 -0.52 +0.00    +0.101 C  
DOCKED: ENDROOT
DOCKED: BRANCH   2  12
DOCKED: ATOM     12  C   UNL     1     -48.879 -22.267  16.321 -0.09 +0.00    +0.038 C  
DOCKED: BRANCH  12  13
DOCKED: ATOM     13  C   UNL     1     -48.102 -22.052  17.618 -0.06 +0.00    +0.038 C  
DOCKED: BRANCH  13  14
DOCKED: ATOM     14  C   UNL     1     -48.192 -23.279  18.522 -0.05 +0.00    +0.251 C  
DOCKED: BRANCH  14  15
DOCKED: ATOM     15  N   UNL     1     -47.268 -24.312  18.068 -0.15 +0.00    +0.141 N  
DOCKED: ATOM     16  C   UNL     1     -46.015 -24.252  18.823 -0.09 +0.00    +0.285 C  
DOCKED: ATOM     17  C   UNL     1     -47.874 -25.638  18.195 -0.14 +0.00    +0.285 C  
DOCKED: ENDBRANCH  14  15
DOCKED: ENDBRANCH  13  14
DOCKED: ENDBRANCH  12  13
DOCKED: ENDBRANCH   2  12
DOCKED: BRANCH   2  18
DOCKED: ATOM     18  C   UNL     1     -47.333 -20.849  14.983 -0.13 +0.00    +0.006 A  
DOCKED: ATOM     19  C   UNL     1     -48.118 -19.739  14.675 -0.11 +0.00    +0.001 A  
DOCKED: ATOM     20  C   UNL     1     -47.529 -18.479  14.561 -0.07 +0.00    +0.029 A  
DOCKED: ATOM     21  C   UNL     1     -46.156 -18.332  14.756 -0.04 +0.00    +0.140 A  
DOCKED: ATOM     22  C   UNL     1     -45.371 -19.443  15.064 -0.07 +0.00    +0.029 A  
DOCKED: ATOM     23  F   UNL     1     -45.591 -17.122  14.648 -0.00 -0.00    -0.204 F  
DOCKED: ATOM     24  C   UNL     1     -45.960 -20.703  15.178 -0.12 +0.00    +0.001 A  
DOCKED: ENDBRANCH   2  18
DOCKED: TORSDOF 5
DOCKED: TER
DOCKED: ENDMDL
________________________________________________________________________________


    FINAL DOCKED STATE:
    ________________________


Run:   383 / 512
Time taken for this run:   0.002s

DOCKED: MODEL        383
DOCKED: USER    Run = 383
DOCKED: USER
DOCKED: USER    Estimated Free Energy of Binding    =  -4.78 kcal/mol  [=(1)+(2)+(3)-(4)]
DOCKED: USER
DOCKED: USER    (1) Final Intermolecular Energy     =  -6.27 kcal/mol
DOCKED: USER        vdW + Hbond + desolv Energy     =  -6.27 kcal/mol
DOCKED: USER        Electrostatic Energy            =  +0.00 kcal/mol
DOCKED: USER        Moving Ligand-Fixed Receptor    =  -6.27 kcal/mol
DOCKED: USER        Moving Ligand-Moving Receptor   =  +0.00 kcal/mol
DOCKED: USER    (2) Final Total Internal Energy     =  -1.00 kcal/mol
DOCKED: USER    (3) Torsional Free Energy           =  +1.49 kcal/mol
DOCKED: USER    (4) Unbound System's Energy         =  -1.00 kcal/mol
DOCKED: USER
DOCKED: USER
DOCKED: REMARK  5 active torsions:
DOCKED: REMARK  status: ('A' for Active; 'I' for Inactive)
DOCKED: REMARK    1  A    between atoms: C_2  and  C_19 
DOCKED: REMARK    2  A    between atoms: C_2  and  C_11 
DOCKED: REMARK    3  A    between atoms: C_19  and  C_20 
DOCKED: REMARK    4  A    between atoms: C_20  and  C_21 
DOCKED: REMARK    5  A    between atoms: C_21  and  N_22 
DOCKED: USER                              x       y       z     vdW  Elec       q    Type
DOCKED: USER                           _______ _______ _______ _____ _____    ______ ____
DOCKED: ROOT
DOCKED: ATOM      1  O   UNL     1     -45.900 -20.905  15.300 -0.06 -0.00    -0.346 OA 
DOCKED: ATOM      2  C   UNL     1     -46.848 -20.181  14.452 -0.13 +0.00    +0.130 C  
DOCKED: ATOM      3  C   UNL     1     -47.657 -21.269  13.806 -0.23 +0.00    +0.004 A  
DOCKED: ATOM      4  C   UNL     1     -47.279 -22.500  14.322 -0.24 +0.00    +0.006 A  
DOCKED: ATOM      5  C   UNL     1     -46.220 -22.315  15.340 -0.16 +0.00    +0.169 C  
DOCKED: ATOM      6  C   UNL     1     -48.654 -21.175  12.846 -0.26 -0.00    -0.001 A  
DOCKED: ATOM      7  C   UNL     1     -47.879 -23.674  13.898 -0.33 +0.00    +0.008 A  
DOCKED: ATOM      8  C   UNL     1     -49.265 -22.350  12.405 -0.33 +0.00    +0.010 A  
DOCKED: ATOM      9  C   UNL     1     -48.879 -23.593  12.928 -0.32 +0.00    +0.068 A  
DOCKED: ATOM     10  N   UNL     1     -50.037 -25.754  12.090 -2.61 -0.00    -0.191 NA 
DOCKED: ATOM     11  C   UNL     1     -49.517 -24.785  12.466 -0.30 +0.00    +0.101 C  
DOCKED: ENDROOT
DOCKED: BRANCH   2  12
DOCKED: ATOM     12  C   UNL     1     -47.685 -19.265  15.337 -0.06 +0.00    +0.038 C  
DOCKED: BRANCH  12  13
DOCKED: ATOM     13  C   UNL     1     -48.932 -18.770  14.605 -0.11 +0.00    +0.038 C  
DOCKED: BRANCH  13  14
DOCKED: ATOM     14  C   UNL     1     -50.191 -19.442  15.148 -0.05 +0.00    +0.251 C  
DOCKED: BRANCH  14  15
DOCKED: ATOM     15  N   UNL     1     -51.142 -19.684  14.070 -0.16 +0.00    +0.141 N  
DOCKED: ATOM     16  C   UNL     1     -52.274 -20.479  14.549 -0.08 +0.00    +0.285 C  
DOCKED: ATOM     17  C   UNL     1     -51.614 -18.419  13.505 -0.15 +0.00    +0.285 C  
DOCKED: ENDBRANCH  14  15
DOCKED: ENDBRANCH  13  14
DOCKED: ENDBRANCH  12  13
DOCKED: ENDBRANCH   2  12
DOCKED: BRANCH   2  18
DOCKED: ATOM     18  C   UNL     1     -46.044 -19.394  13.471 -0.15 +0.00    +0.006 A  
DOCKED: ATOM     19  C   UNL     1     -46.674 -18.486  12.623 -0.13 +0.00    +0.001 A  
DOCKED: ATOM     20  C   UNL     1     -45.921 -17.751  11.706 -0.11 +0.00    +0.029 A  
DOCKED: ATOM     21  C   UNL     1     -44.539 -17.925  11.641 -0.08 +0.00    +0.140 A  
DOCKED: ATOM     22  C   UNL     1     -43.909 -18.834  12.490 -0.10 +0.00    +0.029 A  
DOCKED: ATOM     23  F   UNL     1     -43.816 -17.219  10.762 -0.00 -0.00    -0.204 F  
DOCKED: ATOM     24  C   UNL     1     -44.662 -19.570  13.407 -0.10 +0.00    +0.001 A  
DOCKED: ENDBRANCH   2  18
DOCKED: TORSDOF 5
DOCKED: TER
DOCKED: ENDMDL
________________________________________________________________________________


    FINAL DOCKED STATE:
    ________________________


Run:   384 / 512
Time taken for this run:   0.002s

DOCKED: MODEL        384
DOCKED: USER    Run = 384
DOCKED: USER
DOCKED: USER    Estimated Free Energy of Binding    =  -4.11 kcal/mol  [=(1)+(2)+(3)-(4)]
DOCKED: USER
DOCKED: USER    (1) Final Intermolecular Energy     =  -5.60 kcal/mol
DOCKED: USER        vdW + Hbond + desolv Energy     =  -5.60 kcal/mol
DOCKED: USER        Electrostatic Energy            =  +0.00 kcal/mol
DOCKED: USER        Moving Ligand-Fixed Receptor    =  -5.60 kcal/mol
DOCKED: USER        Moving Ligand-Moving Receptor   =  +0.00 kcal/mol
DOCKED: USER    (2) Final Total Internal Energy     =  -1.31 kcal/mol
DOCKED: USER    (3) Torsional Free Energy           =  +1.49 kcal/mol
DOCKED: USER    (4) Unbound System's Energy         =  -1.31 kcal/mol
DOCKED: USER
DOCKED: USER
DOCKED: REMARK  5 active torsions:
DOCKED: REMARK  status: ('A' for Active; 'I' for Inactive)
DOCKED: REMARK    1  A    between atoms: C_2  and  C_19 
DOCKED: REMARK    2  A    between atoms: C_2  and  C_11 
DOCKED: REMARK    3  A    between atoms: C_19  and  C_20 
DOCKED: REMARK    4  A    between atoms: C_20  and  C_21 
DOCKED: REMARK    5  A    between atoms: C_21  and  N_22 
DOCKED: USER                              x       y       z     vdW  Elec       q    Type
DOCKED: USER                           _______ _______ _______ _____ _____    ______ ____
DOCKED: ROOT
DOCKED: ATOM      1  O   UNL     1     -40.440 -23.794   4.621 -0.02 -0.00    -0.346 OA 
DOCKED: ATOM      2  C   UNL     1     -40.576 -22.631   5.500 -0.09 +0.00    +0.130 C  
DOCKED: ATOM      3  C   UNL     1     -41.115 -23.207   6.777 -0.12 +0.00    +0.004 A  
DOCKED: ATOM      4  C   UNL     1     -41.177 -24.590   6.676 -0.16 +0.00    +0.006 A  
DOCKED: ATOM      5  C   UNL     1     -40.679 -25.020   5.350 -0.09 +0.00    +0.169 C  
DOCKED: ATOM      6  C   UNL     1     -41.508 -22.560   7.939 -0.13 -0.00    -0.001 A  
DOCKED: ATOM      7  C   UNL     1     -41.635 -25.369   7.725 -0.27 +0.00    +0.008 A  
DOCKED: ATOM      8  C   UNL     1     -41.976 -23.331   9.004 -0.24 +0.00    +0.010 A  
DOCKED: ATOM      9  C   UNL     1     -42.039 -24.729   8.897 -0.30 +0.00    +0.068 A  
DOCKED: ATOM     10  N   UNL     1     -42.910 -26.131  10.895 -2.66 -0.00    -0.191 NA 
DOCKED: ATOM     11  C   UNL     1     -42.520 -25.502   9.998 -0.41 +0.00    +0.101 C  
DOCKED: ENDROOT
DOCKED: BRANCH   2  12
DOCKED: ATOM     12  C   UNL     1     -39.203 -21.992   5.670 -0.02 +0.00    +0.038 C  
DOCKED: BRANCH  12  13
DOCKED: ATOM     13  C   UNL     1     -38.133 -22.754   4.891 -0.01 +0.00    +0.038 C  
DOCKED: BRANCH  13  14
DOCKED: ATOM     14  C   UNL     1     -37.231 -21.796   4.114 -0.00 +0.00    +0.251 C  
DOCKED: BRANCH  14  15
DOCKED: ATOM     15  N   UNL     1     -37.794 -21.526   2.797 -0.00 +0.00    +0.141 N  
DOCKED: ATOM     16  C   UNL     1     -38.529 -22.690   2.301 -0.01 +0.00    +0.285 C  
DOCKED: ATOM     17  C   UNL     1     -38.669 -20.354   2.840 +0.00 +0.00    +0.285 C  
DOCKED: ENDBRANCH  14  15
DOCKED: ENDBRANCH  13  14
DOCKED: ENDBRANCH  12  13
DOCKED: ENDBRANCH   2  12
DOCKED: BRANCH   2  18
DOCKED: ATOM     18  C   UNL     1     -41.528 -21.693   4.837 -0.10 +0.00    +0.006 A  
DOCKED: ATOM     19  C   UNL     1     -41.834 -21.849   3.486 -0.13 +0.00    +0.001 A  
DOCKED: ATOM     20  C   UNL     1     -42.725 -20.971   2.868 -0.19 +0.00    +0.029 A  
DOCKED: ATOM     21  C   UNL     1     -43.308 -19.938   3.601 -0.19 +0.00    +0.140 A  
DOCKED: ATOM     22  C   UNL     1     -43.001 -19.782   4.953 -0.18 +0.00    +0.029 A  
DOCKED: ATOM     23  F   UNL     1     -44.164 -19.096   3.008 -0.13 -0.00    -0.204 F  
DOCKED: ATOM     24  C   UNL     1     -42.110 -20.660   5.572 -0.14 +0.00    +0.001 A  
DOCKED: ENDBRANCH   2  18
DOCKED: TORSDOF 5
DOCKED: TER
DOCKED: ENDMDL
________________________________________________________________________________


    FINAL DOCKED STATE:
    ________________________


Run:   385 / 512
Time taken for this run:   0.002s

DOCKED: MODEL        385
DOCKED: USER    Run = 385
DOCKED: USER
DOCKED: USER    Estimated Free Energy of Binding    =  -3.88 kcal/mol  [=(1)+(2)+(3)-(4)]
DOCKED: USER
DOCKED: USER    (1) Final Intermolecular Energy     =  -5.37 kcal/mol
DOCKED: USER        vdW + Hbond + desolv Energy     =  -5.37 kcal/mol
DOCKED: USER        Electrostatic Energy            =  +0.00 kcal/mol
DOCKED: USER        Moving Ligand-Fixed Receptor    =  -5.37 kcal/mol
DOCKED: USER        Moving Ligand-Moving Receptor   =  +0.00 kcal/mol
DOCKED: USER    (2) Final Total Internal Energy     =  -1.45 kcal/mol
DOCKED: USER    (3) Torsional Free Energy           =  +1.49 kcal/mol
DOCKED: USER    (4) Unbound System's Energy         =  -1.45 kcal/mol
DOCKED: USER
DOCKED: USER
DOCKED: REMARK  5 active torsions:
DOCKED: REMARK  status: ('A' for Active; 'I' for Inactive)
DOCKED: REMARK    1  A    between atoms: C_2  and  C_19 
DOCKED: REMARK    2  A    between atoms: C_2  and  C_11 
DOCKED: REMARK    3  A    between atoms: C_19  and  C_20 
DOCKED: REMARK    4  A    between atoms: C_20  and  C_21 
DOCKED: REMARK    5  A    between atoms: C_21  and  N_22 
DOCKED: USER                              x       y       z     vdW  Elec       q    Type
DOCKED: USER                           _______ _______ _______ _____ _____    ______ ____
DOCKED: ROOT
DOCKED: ATOM      1  O   UNL     1     -50.337 -18.955  14.247 -0.07 -0.00    -0.346 OA 
DOCKED: ATOM      2  C   UNL     1     -48.936 -19.307  14.018 -0.16 +0.00    +0.130 C  
DOCKED: ATOM      3  C   UNL     1     -48.992 -20.746  13.593 -0.24 +0.00    +0.004 A  
DOCKED: ATOM      4  C   UNL     1     -50.315 -21.149  13.481 -0.22 +0.00    +0.006 A  
DOCKED: ATOM      5  C   UNL     1     -51.213 -20.018  13.807 -0.19 +0.00    +0.169 C  
DOCKED: ATOM      6  C   UNL     1     -47.955 -21.625  13.316 -0.24 -0.00    -0.001 A  
DOCKED: ATOM      7  C   UNL     1     -50.646 -22.436  13.095 -0.24 +0.00    +0.008 A  
DOCKED: ATOM      8  C   UNL     1     -48.272 -22.928  12.930 -0.31 +0.00    +0.010 A  
DOCKED: ATOM      9  C   UNL     1     -49.611 -23.331  12.820 -0.29 +0.00    +0.068 A  
DOCKED: ATOM     10  N   UNL     1     -50.166 -25.757  12.096 -2.59 -0.00    -0.191 NA 
DOCKED: ATOM     11  C   UNL     1     -49.917 -24.669  12.421 -0.37 +0.00    +0.101 C  
DOCKED: ENDROOT
DOCKED: BRANCH   2  12
DOCKED: ATOM     12  C   UNL     1     -48.377 -18.390  12.937 -0.06 +0.00    +0.038 C  
DOCKED: BRANCH  12  13
DOCKED: ATOM     13  C   UNL     1     -49.368 -17.284  12.578 -0.14 +0.00    +0.038 C  
DOCKED: BRANCH  13  14
DOCKED: ATOM     14  C   UNL     1     -48.830 -15.912  12.980 -0.07 +0.00    +0.251 C  
DOCKED: BRANCH  14  15
DOCKED: ATOM     15  N   UNL     1     -48.526 -15.884  14.406 -0.02 +0.00    +0.141 N  
DOCKED: ATOM     16  C   UNL     1     -47.421 -14.965  14.680 -0.00 +0.00    +0.285 C  
DOCKED: ATOM     17  C   UNL     1     -49.710 -15.501  15.177 -0.00 +0.00    +0.285 C  
DOCKED: ENDBRANCH  14  15
DOCKED: ENDBRANCH  13  14
DOCKED: ENDBRANCH  12  13
DOCKED: ENDBRANCH   2  12
DOCKED: BRANCH   2  18
DOCKED: ATOM     18  C   UNL     1     -48.219 -19.111  15.313 -0.06 +0.00    +0.006 A  
DOCKED: ATOM     19  C   UNL     1     -48.907 -18.621  16.422 -0.02 +0.00    +0.001 A  
DOCKED: ATOM     20  C   UNL     1     -48.236 -18.437  17.632 -0.00 +0.00    +0.029 A  
DOCKED: ATOM     21  C   UNL     1     -46.880 -18.745  17.731 -0.00 +0.00    +0.140 A  
DOCKED: ATOM     22  C   UNL     1     -46.193 -19.236  16.621 -0.02 +0.00    +0.029 A  
DOCKED: ATOM     23  F   UNL     1     -46.237 -18.571  18.892 -0.00 -0.00    -0.204 F  
DOCKED: ATOM     24  C   UNL     1     -46.863 -19.419  15.410 -0.06 +0.00    +0.001 A  
DOCKED: ENDBRANCH   2  18
DOCKED: TORSDOF 5
DOCKED: TER
DOCKED: ENDMDL
________________________________________________________________________________


    FINAL DOCKED STATE:
    ________________________


Run:   386 / 512
Time taken for this run:   0.002s

DOCKED: MODEL        386
DOCKED: USER    Run = 386
DOCKED: USER
DOCKED: USER    Estimated Free Energy of Binding    =  -5.09 kcal/mol  [=(1)+(2)+(3)-(4)]
DOCKED: USER
DOCKED: USER    (1) Final Intermolecular Energy     =  -6.59 kcal/mol
DOCKED: USER        vdW + Hbond + desolv Energy     =  -6.59 kcal/mol
DOCKED: USER        Electrostatic Energy            =  +0.00 kcal/mol
DOCKED: USER        Moving Ligand-Fixed Receptor    =  -6.59 kcal/mol
DOCKED: USER        Moving Ligand-Moving Receptor   =  +0.00 kcal/mol
DOCKED: USER    (2) Final Total Internal Energy     =  -1.50 kcal/mol
DOCKED: USER    (3) Torsional Free Energy           =  +1.49 kcal/mol
DOCKED: USER    (4) Unbound System's Energy         =  -1.50 kcal/mol
DOCKED: USER
DOCKED: USER
DOCKED: REMARK  5 active torsions:
DOCKED: REMARK  status: ('A' for Active; 'I' for Inactive)
DOCKED: REMARK    1  A    between atoms: C_2  and  C_19 
DOCKED: REMARK    2  A    between atoms: C_2  and  C_11 
DOCKED: REMARK    3  A    between atoms: C_19  and  C_20 
DOCKED: REMARK    4  A    between atoms: C_20  and  C_21 
DOCKED: REMARK    5  A    between atoms: C_21  and  N_22 
DOCKED: USER                              x       y       z     vdW  Elec       q    Type
DOCKED: USER                           _______ _______ _______ _____ _____    ______ ____
DOCKED: ROOT
DOCKED: ATOM      1  O   UNL     1     -51.987 -23.103  14.993 -0.01 -0.00    -0.346 OA 
DOCKED: ATOM      2  C   UNL     1     -50.648 -22.559  14.762 -0.11 +0.00    +0.130 C  
DOCKED: ATOM      3  C   UNL     1     -50.392 -22.838  13.309 -0.25 +0.00    +0.004 A  
DOCKED: ATOM      4  C   UNL     1     -51.526 -23.392  12.733 -0.29 +0.00    +0.006 A  
DOCKED: ATOM      5  C   UNL     1     -52.600 -23.505  13.746 -0.17 +0.00    +0.169 C  
DOCKED: ATOM      6  C   UNL     1     -49.250 -22.609  12.555 -0.35 -0.00    -0.001 A  
DOCKED: ATOM      7  C   UNL     1     -51.558 -23.739  11.393 -0.25 +0.00    +0.008 A  
DOCKED: ATOM      8  C   UNL     1     -49.265 -22.957  11.203 -0.31 +0.00    +0.010 A  
DOCKED: ATOM      9  C   UNL     1     -50.414 -23.519  10.625 -0.30 +0.00    +0.068 A  
DOCKED: ATOM     10  N   UNL     1     -50.409 -24.149   8.112 -3.06 -0.00    -0.191 NA 
DOCKED: ATOM     11  C   UNL     1     -50.411 -23.867   9.240 -0.26 +0.00    +0.101 C  
DOCKED: ENDROOT
DOCKED: BRANCH   2  12
DOCKED: ATOM     12  C   UNL     1     -50.670 -21.070  15.085 -0.11 +0.00    +0.038 C  
DOCKED: BRANCH  12  13
DOCKED: ATOM     13  C   UNL     1     -52.093 -20.515  15.059 -0.13 +0.00    +0.038 C  
DOCKED: BRANCH  13  14
DOCKED: ATOM     14  C   UNL     1     -52.651 -20.366  16.473 -0.01 +0.00    +0.251 C  
DOCKED: BRANCH  14  15
DOCKED: ATOM     15  N   UNL     1     -51.978 -21.286  17.383 -0.02 +0.00    +0.141 N  
DOCKED: ATOM     16  C   UNL     1     -51.378 -20.559  18.502 +0.00 +0.00    +0.285 C  
DOCKED: ATOM     17  C   UNL     1     -52.914 -22.297  17.878 +0.00 +0.00    +0.285 C  
DOCKED: ENDBRANCH  14  15
DOCKED: ENDBRANCH  13  14
DOCKED: ENDBRANCH  12  13
DOCKED: ENDBRANCH   2  12
DOCKED: BRANCH   2  18
DOCKED: ATOM     18  C   UNL     1     -49.716 -23.293  15.668 -0.13 +0.00    +0.006 A  
DOCKED: ATOM     19  C   UNL     1     -49.504 -24.659  15.490 -0.26 +0.00    +0.001 A  
DOCKED: ATOM     20  C   UNL     1     -48.633 -25.344  16.338 -0.16 +0.00    +0.029 A  
DOCKED: ATOM     21  C   UNL     1     -47.976 -24.663  17.361 -0.14 +0.00    +0.140 A  
DOCKED: ATOM     22  C   UNL     1     -48.189 -23.296  17.539 -0.11 +0.00    +0.029 A  
DOCKED: ATOM     23  F   UNL     1     -47.139 -25.320  18.174 -0.07 -0.00    -0.204 F  
DOCKED: ATOM     24  C   UNL     1     -49.060 -22.610  16.691 -0.08 +0.00    +0.001 A  
DOCKED: ENDBRANCH   2  18
DOCKED: TORSDOF 5
DOCKED: TER
DOCKED: ENDMDL
________________________________________________________________________________


    FINAL DOCKED STATE:
    ________________________


Run:   387 / 512
Time taken for this run:   0.002s

DOCKED: MODEL        387
DOCKED: USER    Run = 387
DOCKED: USER
DOCKED: USER    Estimated Free Energy of Binding    =  -4.24 kcal/mol  [=(1)+(2)+(3)-(4)]
DOCKED: USER
DOCKED: USER    (1) Final Intermolecular Energy     =  -5.73 kcal/mol
DOCKED: USER        vdW + Hbond + desolv Energy     =  -5.73 kcal/mol
DOCKED: USER        Electrostatic Energy            =  +0.00 kcal/mol
DOCKED: USER        Moving Ligand-Fixed Receptor    =  -5.73 kcal/mol
DOCKED: USER        Moving Ligand-Moving Receptor   =  +0.00 kcal/mol
DOCKED: USER    (2) Final Total Internal Energy     =  -1.13 kcal/mol
DOCKED: USER    (3) Torsional Free Energy           =  +1.49 kcal/mol
DOCKED: USER    (4) Unbound System's Energy         =  -1.13 kcal/mol
DOCKED: USER
DOCKED: USER
DOCKED: REMARK  5 active torsions:
DOCKED: REMARK  status: ('A' for Active; 'I' for Inactive)
DOCKED: REMARK    1  A    between atoms: C_2  and  C_19 
DOCKED: REMARK    2  A    between atoms: C_2  and  C_11 
DOCKED: REMARK    3  A    between atoms: C_19  and  C_20 
DOCKED: REMARK    4  A    between atoms: C_20  and  C_21 
DOCKED: REMARK    5  A    between atoms: C_21  and  N_22 
DOCKED: USER                              x       y       z     vdW  Elec       q    Type
DOCKED: USER                           _______ _______ _______ _____ _____    ______ ____
DOCKED: ROOT
DOCKED: ATOM      1  O   UNL     1     -40.753 -23.541   4.688 -0.02 -0.00    -0.346 OA 
DOCKED: ATOM      2  C   UNL     1     -40.792 -22.425   5.633 -0.10 +0.00    +0.130 C  
DOCKED: ATOM      3  C   UNL     1     -41.272 -23.051   6.910 -0.13 +0.00    +0.004 A  
DOCKED: ATOM      4  C   UNL     1     -41.390 -24.423   6.741 -0.17 +0.00    +0.006 A  
DOCKED: ATOM      5  C   UNL     1     -40.991 -24.797   5.366 -0.07 +0.00    +0.169 C  
DOCKED: ATOM      6  C   UNL     1     -41.569 -22.455   8.127 -0.14 -0.00    -0.001 A  
DOCKED: ATOM      7  C   UNL     1     -41.811 -25.243   7.775 -0.28 +0.00    +0.008 A  
DOCKED: ATOM      8  C   UNL     1     -41.998 -23.268   9.178 -0.24 +0.00    +0.010 A  
DOCKED: ATOM      9  C   UNL     1     -42.118 -24.654   9.003 -0.31 +0.00    +0.068 A  
DOCKED: ATOM     10  N   UNL     1     -42.914 -26.134  10.975 -2.68 -0.00    -0.191 NA 
DOCKED: ATOM     11  C   UNL     1     -42.557 -25.470  10.090 -0.41 +0.00    +0.101 C  
DOCKED: ENDROOT
DOCKED: BRANCH   2  12
DOCKED: ATOM     12  C   UNL     1     -39.389 -21.841   5.749 -0.02 +0.00    +0.038 C  
DOCKED: BRANCH  12  13
DOCKED: ATOM     13  C   UNL     1     -38.436 -22.814   6.439 -0.01 +0.00    +0.038 C  
DOCKED: BRANCH  13  14
DOCKED: ATOM     14  C   UNL     1     -37.383 -23.337   5.464 -0.00 +0.00    +0.251 C  
DOCKED: BRANCH  14  15
DOCKED: ATOM     15  N   UNL     1     -37.285 -24.789   5.553 -0.01 +0.00    +0.141 N  
DOCKED: ATOM     16  C   UNL     1     -37.865 -25.420   4.366 -0.00 +0.00    +0.285 C  
DOCKED: ATOM     17  C   UNL     1     -35.891 -25.203   5.718 -0.01 +0.00    +0.285 C  
DOCKED: ENDBRANCH  14  15
DOCKED: ENDBRANCH  13  14
DOCKED: ENDBRANCH  12  13
DOCKED: ENDBRANCH   2  12
DOCKED: BRANCH   2  18
DOCKED: ATOM     18  C   UNL     1     -41.749 -21.421   5.082 -0.10 +0.00    +0.006 A  
DOCKED: ATOM     19  C   UNL     1     -42.006 -21.381   3.712 -0.14 +0.00    +0.001 A  
DOCKED: ATOM     20  C   UNL     1     -42.901 -20.442   3.198 -0.23 +0.00    +0.029 A  
DOCKED: ATOM     21  C   UNL     1     -43.537 -19.545   4.054 -0.18 +0.00    +0.140 A  
DOCKED: ATOM     22  C   UNL     1     -43.280 -19.585   5.425 -0.19 +0.00    +0.029 A  
DOCKED: ATOM     23  F   UNL     1     -44.398 -18.644   3.561 -0.13 -0.00    -0.204 F  
DOCKED: ATOM     24  C   UNL     1     -42.385 -20.524   5.939 -0.15 +0.00    +0.001 A  
DOCKED: ENDBRANCH   2  18
DOCKED: TORSDOF 5
DOCKED: TER
DOCKED: ENDMDL
________________________________________________________________________________


    FINAL DOCKED STATE:
    ________________________


Run:   388 / 512
Time taken for this run:   0.002s

DOCKED: MODEL        388
DOCKED: USER    Run = 388
DOCKED: USER
DOCKED: USER    Estimated Free Energy of Binding    =  -3.94 kcal/mol  [=(1)+(2)+(3)-(4)]
DOCKED: USER
DOCKED: USER    (1) Final Intermolecular Energy     =  -5.43 kcal/mol
DOCKED: USER        vdW + Hbond + desolv Energy     =  -5.43 kcal/mol
DOCKED: USER        Electrostatic Energy            =  +0.00 kcal/mol
DOCKED: USER        Moving Ligand-Fixed Receptor    =  -5.43 kcal/mol
DOCKED: USER        Moving Ligand-Moving Receptor   =  +0.00 kcal/mol
DOCKED: USER    (2) Final Total Internal Energy     =  -1.15 kcal/mol
DOCKED: USER    (3) Torsional Free Energy           =  +1.49 kcal/mol
DOCKED: USER    (4) Unbound System's Energy         =  -1.15 kcal/mol
DOCKED: USER
DOCKED: USER
DOCKED: REMARK  5 active torsions:
DOCKED: REMARK  status: ('A' for Active; 'I' for Inactive)
DOCKED: REMARK    1  A    between atoms: C_2  and  C_19 
DOCKED: REMARK    2  A    between atoms: C_2  and  C_11 
DOCKED: REMARK    3  A    between atoms: C_19  and  C_20 
DOCKED: REMARK    4  A    between atoms: C_20  and  C_21 
DOCKED: REMARK    5  A    between atoms: C_21  and  N_22 
DOCKED: USER                              x       y       z     vdW  Elec       q    Type
DOCKED: USER                           _______ _______ _______ _____ _____    ______ ____
DOCKED: ROOT
DOCKED: ATOM      1  O   UNL     1     -41.596 -19.351   9.237 -0.00 -0.00    -0.346 OA 
DOCKED: ATOM      2  C   UNL     1     -42.711 -19.794   8.399 -0.09 +0.00    +0.130 C  
DOCKED: ATOM      3  C   UNL     1     -42.859 -21.250   8.738 -0.21 +0.00    +0.004 A  
DOCKED: ATOM      4  C   UNL     1     -41.981 -21.583   9.760 -0.16 +0.00    +0.006 A  
DOCKED: ATOM      5  C   UNL     1     -41.211 -20.387  10.171 -0.05 +0.00    +0.169 C  
DOCKED: ATOM      6  C   UNL     1     -43.710 -22.200   8.194 -0.30 -0.00    -0.001 A  
DOCKED: ATOM      7  C   UNL     1     -41.920 -22.869  10.267 -0.22 +0.00    +0.008 A  
DOCKED: ATOM      8  C   UNL     1     -43.658 -23.503   8.691 -0.21 +0.00    +0.010 A  
DOCKED: ATOM      9  C   UNL     1     -42.768 -23.836   9.723 -0.24 +0.00    +0.068 A  
DOCKED: ATOM     10  N   UNL     1     -42.700 -26.263  10.627 -2.33 -0.00    -0.191 NA 
DOCKED: ATOM     11  C   UNL     1     -42.730 -25.174  10.221 -0.31 +0.00    +0.101 C  
DOCKED: ENDROOT
DOCKED: BRANCH   2  12
DOCKED: ATOM     12  C   UNL     1     -43.943 -18.973   8.760 -0.15 +0.00    +0.038 C  
DOCKED: BRANCH  12  13
DOCKED: ATOM     13  C   UNL     1     -43.746 -17.496   8.422 -0.07 +0.00    +0.038 C  
DOCKED: BRANCH  13  14
DOCKED: ATOM     14  C   UNL     1     -45.066 -16.733   8.508 -0.08 +0.00    +0.251 C  
DOCKED: BRANCH  14  15
DOCKED: ATOM     15  N   UNL     1     -45.892 -17.014   7.339 -0.17 +0.00    +0.141 N  
DOCKED: ATOM     16  C   UNL     1     -47.034 -16.101   7.282 -0.18 +0.00    +0.285 C  
DOCKED: ATOM     17  C   UNL     1     -45.100 -16.914   6.112 -0.14 +0.00    +0.285 C  
DOCKED: ENDBRANCH  14  15
DOCKED: ENDBRANCH  13  14
DOCKED: ENDBRANCH  12  13
DOCKED: ENDBRANCH   2  12
DOCKED: BRANCH   2  18
DOCKED: ATOM     18  C   UNL     1     -42.308 -19.566   6.981 -0.09 +0.00    +0.006 A  
DOCKED: ATOM     19  C   UNL     1     -41.023 -19.112   6.686 -0.02 +0.00    +0.001 A  
DOCKED: ATOM     20  C   UNL     1     -40.647 -18.898   5.359 -0.01 +0.00    +0.029 A  
DOCKED: ATOM     21  C   UNL     1     -41.556 -19.139   4.330 -0.04 +0.00    +0.140 A  
DOCKED: ATOM     22  C   UNL     1     -42.841 -19.592   4.625 -0.18 +0.00    +0.029 A  
DOCKED: ATOM     23  F   UNL     1     -41.195 -18.935   3.056 +0.00 -0.00    -0.204 F  
DOCKED: ATOM     24  C   UNL     1     -43.218 -19.806   5.952 -0.18 +0.00    +0.001 A  
DOCKED: ENDBRANCH   2  18
DOCKED: TORSDOF 5
DOCKED: TER
DOCKED: ENDMDL
________________________________________________________________________________


    FINAL DOCKED STATE:
    ________________________


Run:   389 / 512
Time taken for this run:   0.002s

DOCKED: MODEL        389
DOCKED: USER    Run = 389
DOCKED: USER
DOCKED: USER    Estimated Free Energy of Binding    =  -5.98 kcal/mol  [=(1)+(2)+(3)-(4)]
DOCKED: USER
DOCKED: USER    (1) Final Intermolecular Energy     =  -7.48 kcal/mol
DOCKED: USER        vdW + Hbond + desolv Energy     =  -7.48 kcal/mol
DOCKED: USER        Electrostatic Energy            =  +0.00 kcal/mol
DOCKED: USER        Moving Ligand-Fixed Receptor    =  -7.48 kcal/mol
DOCKED: USER        Moving Ligand-Moving Receptor   =  +0.00 kcal/mol
DOCKED: USER    (2) Final Total Internal Energy     =  -1.12 kcal/mol
DOCKED: USER    (3) Torsional Free Energy           =  +1.49 kcal/mol
DOCKED: USER    (4) Unbound System's Energy         =  -1.12 kcal/mol
DOCKED: USER
DOCKED: USER
DOCKED: REMARK  5 active torsions:
DOCKED: REMARK  status: ('A' for Active; 'I' for Inactive)
DOCKED: REMARK    1  A    between atoms: C_2  and  C_19 
DOCKED: REMARK    2  A    between atoms: C_2  and  C_11 
DOCKED: REMARK    3  A    between atoms: C_19  and  C_20 
DOCKED: REMARK    4  A    between atoms: C_20  and  C_21 
DOCKED: REMARK    5  A    between atoms: C_21  and  N_22 
DOCKED: USER                              x       y       z     vdW  Elec       q    Type
DOCKED: USER                           _______ _______ _______ _____ _____    ______ ____
DOCKED: ROOT
DOCKED: ATOM      1  O   UNL     1     -48.264 -21.683  14.649 -0.05 -0.00    -0.346 OA 
DOCKED: ATOM      2  C   UNL     1     -47.902 -23.100  14.604 -0.23 +0.00    +0.130 C  
DOCKED: ATOM      3  C   UNL     1     -48.419 -23.561  13.272 -0.35 +0.00    +0.004 A  
DOCKED: ATOM      4  C   UNL     1     -48.932 -22.479  12.570 -0.35 +0.00    +0.006 A  
DOCKED: ATOM      5  C   UNL     1     -48.781 -21.244  13.372 -0.24 +0.00    +0.169 C  
DOCKED: ATOM      6  C   UNL     1     -48.425 -24.834  12.720 -0.36 -0.00    -0.001 A  
DOCKED: ATOM      7  C   UNL     1     -49.469 -22.631  11.303 -0.08 +0.00    +0.008 A  
DOCKED: ATOM      8  C   UNL     1     -48.967 -25.004  11.445 -0.44 +0.00    +0.010 A  
DOCKED: ATOM      9  C   UNL     1     -49.486 -23.908  10.740 -0.42 +0.00    +0.068 A  
DOCKED: ATOM     10  N   UNL     1     -50.479 -24.257   8.373 -2.95 -0.00    -0.191 NA 
DOCKED: ATOM     11  C   UNL     1     -50.034 -24.100   9.435 -0.41 +0.00    +0.101 C  
DOCKED: ENDROOT
DOCKED: BRANCH   2  12
DOCKED: ATOM     12  C   UNL     1     -46.388 -23.216  14.725 -0.21 +0.00    +0.038 C  
DOCKED: BRANCH  12  13
DOCKED: ATOM     13  C   UNL     1     -45.804 -22.063  15.539 -0.18 +0.00    +0.038 C  
DOCKED: BRANCH  13  14
DOCKED: ATOM     14  C   UNL     1     -44.602 -22.524  16.361 -0.09 +0.00    +0.251 C  
DOCKED: BRANCH  14  15
DOCKED: ATOM     15  N   UNL     1     -44.872 -22.370  17.786 -0.06 +0.00    +0.141 N  
DOCKED: ATOM     16  C   UNL     1     -44.716 -23.648  18.482 -0.07 +0.00    +0.285 C  
DOCKED: ATOM     17  C   UNL     1     -43.989 -21.361  18.372 -0.01 +0.00    +0.285 C  
DOCKED: ENDBRANCH  14  15
DOCKED: ENDBRANCH  13  14
DOCKED: ENDBRANCH  12  13
DOCKED: ENDBRANCH   2  12
DOCKED: BRANCH   2  18
DOCKED: ATOM     18  C   UNL     1     -48.586 -23.762  15.754 -0.20 +0.00    +0.006 A  
DOCKED: ATOM     19  C   UNL     1     -49.976 -23.869  15.769 -0.17 +0.00    +0.001 A  
DOCKED: ATOM     20  C   UNL     1     -50.615 -24.488  16.845 -0.15 +0.00    +0.029 A  
DOCKED: ATOM     21  C   UNL     1     -49.863 -24.998  17.902 -0.02 +0.00    +0.140 A  
DOCKED: ATOM     22  C   UNL     1     -48.473 -24.891  17.886 -0.22 +0.00    +0.029 A  
DOCKED: ATOM     23  F   UNL     1     -50.476 -25.593  18.934 -0.03 -0.00    -0.204 F  
DOCKED: ATOM     24  C   UNL     1     -47.833 -24.272  16.810 -0.16 +0.00    +0.001 A  
DOCKED: ENDBRANCH   2  18
DOCKED: TORSDOF 5
DOCKED: TER
DOCKED: ENDMDL
________________________________________________________________________________


    FINAL DOCKED STATE:
    ________________________


Run:   390 / 512
Time taken for this run:   0.002s

DOCKED: MODEL        390
DOCKED: USER    Run = 390
DOCKED: USER
DOCKED: USER    Estimated Free Energy of Binding    =  -4.26 kcal/mol  [=(1)+(2)+(3)-(4)]
DOCKED: USER
DOCKED: USER    (1) Final Intermolecular Energy     =  -5.76 kcal/mol
DOCKED: USER        vdW + Hbond + desolv Energy     =  -5.76 kcal/mol
DOCKED: USER        Electrostatic Energy            =  +0.00 kcal/mol
DOCKED: USER        Moving Ligand-Fixed Receptor    =  -5.76 kcal/mol
DOCKED: USER        Moving Ligand-Moving Receptor   =  +0.00 kcal/mol
DOCKED: USER    (2) Final Total Internal Energy     =  -1.29 kcal/mol
DOCKED: USER    (3) Torsional Free Energy           =  +1.49 kcal/mol
DOCKED: USER    (4) Unbound System's Energy         =  -1.29 kcal/mol
DOCKED: USER
DOCKED: USER
DOCKED: REMARK  5 active torsions:
DOCKED: REMARK  status: ('A' for Active; 'I' for Inactive)
DOCKED: REMARK    1  A    between atoms: C_2  and  C_19 
DOCKED: REMARK    2  A    between atoms: C_2  and  C_11 
DOCKED: REMARK    3  A    between atoms: C_19  and  C_20 
DOCKED: REMARK    4  A    between atoms: C_20  and  C_21 
DOCKED: REMARK    5  A    between atoms: C_21  and  N_22 
DOCKED: USER                              x       y       z     vdW  Elec       q    Type
DOCKED: USER                           _______ _______ _______ _____ _____    ______ ____
DOCKED: ROOT
DOCKED: ATOM      1  O   UNL     1     -40.208 -20.747   7.101 +0.01 -0.00    -0.346 OA 
DOCKED: ATOM      2  C   UNL     1     -41.665 -20.688   6.975 -0.08 +0.00    +0.130 C  
DOCKED: ATOM      3  C   UNL     1     -42.145 -21.857   7.785 -0.16 +0.00    +0.004 A  
DOCKED: ATOM      4  C   UNL     1     -41.066 -22.466   8.410 -0.10 +0.00    +0.006 A  
DOCKED: ATOM      5  C   UNL     1     -39.818 -21.745   8.073 -0.02 +0.00    +0.169 C  
DOCKED: ATOM      6  C   UNL     1     -43.434 -22.337   7.963 -0.25 -0.00    -0.001 A  
DOCKED: ATOM      7  C   UNL     1     -41.235 -23.570   9.227 -0.17 +0.00    +0.008 A  
DOCKED: ATOM      8  C   UNL     1     -43.621 -23.453   8.781 -0.23 +0.00    +0.010 A  
DOCKED: ATOM      9  C   UNL     1     -42.527 -24.066   9.410 -0.31 +0.00    +0.068 A  
DOCKED: ATOM     10  N   UNL     1     -42.910 -26.133  10.924 -2.67 -0.00    -0.191 NA 
DOCKED: ATOM     11  C   UNL     1     -42.738 -25.206  10.244 -0.30 +0.00    +0.101 C  
DOCKED: ENDROOT
DOCKED: BRANCH   2  12
DOCKED: ATOM     12  C   UNL     1     -42.143 -19.349   7.524 -0.06 +0.00    +0.038 C  
DOCKED: BRANCH  12  13
DOCKED: ATOM     13  C   UNL     1     -41.551 -19.070   8.904 -0.03 +0.00    +0.038 C  
DOCKED: BRANCH  13  14
DOCKED: ATOM     14  C   UNL     1     -42.531 -18.286   9.775 -0.02 +0.00    +0.251 C  
DOCKED: BRANCH  14  15
DOCKED: ATOM     15  N   UNL     1     -43.506 -19.186  10.378 -0.10 +0.00    +0.141 N  
DOCKED: ATOM     16  C   UNL     1     -44.644 -19.390   9.481 -0.12 +0.00    +0.285 C  
DOCKED: ATOM     17  C   UNL     1     -42.886 -20.470  10.710 -0.08 +0.00    +0.285 C  
DOCKED: ENDBRANCH  14  15
DOCKED: ENDBRANCH  13  14
DOCKED: ENDBRANCH  12  13
DOCKED: ENDBRANCH   2  12
DOCKED: BRANCH   2  18
DOCKED: ATOM     18  C   UNL     1     -41.982 -20.817   5.522 -0.13 +0.00    +0.006 A  
DOCKED: ATOM     19  C   UNL     1     -42.962 -20.008   4.948 -0.18 +0.00    +0.001 A  
DOCKED: ATOM     20  C   UNL     1     -43.258 -20.131   3.590 -0.21 +0.00    +0.029 A  
DOCKED: ATOM     21  C   UNL     1     -42.574 -21.061   2.808 -0.17 +0.00    +0.140 A  
DOCKED: ATOM     22  C   UNL     1     -41.594 -21.870   3.383 -0.14 +0.00    +0.029 A  
DOCKED: ATOM     23  F   UNL     1     -42.857 -21.177   1.504 -0.09 -0.00    -0.204 F  
DOCKED: ATOM     24  C   UNL     1     -41.298 -21.749   4.742 -0.12 +0.00    +0.001 A  
DOCKED: ENDBRANCH   2  18
DOCKED: TORSDOF 5
DOCKED: TER
DOCKED: ENDMDL
________________________________________________________________________________


    FINAL DOCKED STATE:
    ________________________


Run:   391 / 512
Time taken for this run:   0.002s

DOCKED: MODEL        391
DOCKED: USER    Run = 391
DOCKED: USER
DOCKED: USER    Estimated Free Energy of Binding    =  -3.67 kcal/mol  [=(1)+(2)+(3)-(4)]
DOCKED: USER
DOCKED: USER    (1) Final Intermolecular Energy     =  -5.17 kcal/mol
DOCKED: USER        vdW + Hbond + desolv Energy     =  -5.17 kcal/mol
DOCKED: USER        Electrostatic Energy            =  +0.00 kcal/mol
DOCKED: USER        Moving Ligand-Fixed Receptor    =  -5.17 kcal/mol
DOCKED: USER        Moving Ligand-Moving Receptor   =  +0.00 kcal/mol
DOCKED: USER    (2) Final Total Internal Energy     =  -0.98 kcal/mol
DOCKED: USER    (3) Torsional Free Energy           =  +1.49 kcal/mol
DOCKED: USER    (4) Unbound System's Energy         =  -0.98 kcal/mol
DOCKED: USER
DOCKED: USER
DOCKED: REMARK  5 active torsions:
DOCKED: REMARK  status: ('A' for Active; 'I' for Inactive)
DOCKED: REMARK    1  A    between atoms: C_2  and  C_19 
DOCKED: REMARK    2  A    between atoms: C_2  and  C_11 
DOCKED: REMARK    3  A    between atoms: C_19  and  C_20 
DOCKED: REMARK    4  A    between atoms: C_20  and  C_21 
DOCKED: REMARK    5  A    between atoms: C_21  and  N_22 
DOCKED: USER                              x       y       z     vdW  Elec       q    Type
DOCKED: USER                           _______ _______ _______ _____ _____    ______ ____
DOCKED: ROOT
DOCKED: ATOM      1  O   UNL     1     -41.795 -10.702   5.272 -0.03 -0.00    -0.346 OA 
DOCKED: ATOM      2  C   UNL     1     -41.435 -11.128   3.919 -0.06 +0.00    +0.130 C  
DOCKED: ATOM      3  C   UNL     1     -42.746 -11.532   3.309 -0.14 +0.00    +0.004 A  
DOCKED: ATOM      4  C   UNL     1     -43.778 -11.257   4.194 -0.24 +0.00    +0.006 A  
DOCKED: ATOM      5  C   UNL     1     -43.232 -10.649   5.429 -0.18 +0.00    +0.169 C  
DOCKED: ATOM      6  C   UNL     1     -43.005 -12.087   2.064 -0.15 -0.00    -0.001 A  
DOCKED: ATOM      7  C   UNL     1     -45.096 -11.530   3.872 -0.31 +0.00    +0.008 A  
DOCKED: ATOM      8  C   UNL     1     -44.328 -12.372   1.726 -0.27 +0.00    +0.010 A  
DOCKED: ATOM      9  C   UNL     1     -45.369 -12.095   2.625 -0.35 +0.00    +0.068 A  
DOCKED: ATOM     10  N   UNL     1     -47.815 -12.632   1.963 -2.52 -0.00    -0.191 NA 
DOCKED: ATOM     11  C   UNL     1     -46.718 -12.391   2.260 -0.41 +0.00    +0.101 C  
DOCKED: ENDROOT
DOCKED: BRANCH   2  12
DOCKED: ATOM     12  C   UNL     1     -40.783  -9.952   3.201 -0.09 +0.00    +0.038 C  
DOCKED: BRANCH  12  13
DOCKED: ATOM     13  C   UNL     1     -41.261  -8.617   3.769 -0.12 +0.00    +0.038 C  
DOCKED: BRANCH  13  14
DOCKED: ATOM     14  C   UNL     1     -40.543  -7.447   3.100 -0.04 +0.00    +0.251 C  
DOCKED: BRANCH  14  15
DOCKED: ATOM     15  N   UNL     1     -41.505  -6.433   2.684 -0.11 +0.00    +0.141 N  
DOCKED: ATOM     16  C   UNL     1     -42.251  -5.925   3.836 -0.05 +0.00    +0.285 C  
DOCKED: ATOM     17  C   UNL     1     -40.829  -5.334   1.991 -0.04 +0.00    +0.285 C  
DOCKED: ENDBRANCH  14  15
DOCKED: ENDBRANCH  13  14
DOCKED: ENDBRANCH  12  13
DOCKED: ENDBRANCH   2  12
DOCKED: BRANCH   2  18
DOCKED: ATOM     18  C   UNL     1     -40.483 -12.268   4.060 -0.02 +0.00    +0.006 A  
DOCKED: ATOM     19  C   UNL     1     -40.802 -13.344   4.887 -0.03 +0.00    +0.001 A  
DOCKED: ATOM     20  C   UNL     1     -39.910 -14.410   5.018 -0.01 +0.00    +0.029 A  
DOCKED: ATOM     21  C   UNL     1     -38.703 -14.398   4.322 -0.00 +0.00    +0.140 A  
DOCKED: ATOM     22  C   UNL     1     -38.384 -13.321   3.494 -0.00 +0.00    +0.029 A  
DOCKED: ATOM     23  F   UNL     1     -37.848 -15.422   4.446 +0.00 -0.00    -0.204 F  
DOCKED: ATOM     24  C   UNL     1     -39.275 -12.255   3.363 -0.01 +0.00    +0.001 A  
DOCKED: ENDBRANCH   2  18
DOCKED: TORSDOF 5
DOCKED: TER
DOCKED: ENDMDL
________________________________________________________________________________


    FINAL DOCKED STATE:
    ________________________


Run:   392 / 512
Time taken for this run:   0.002s

DOCKED: MODEL        392
DOCKED: USER    Run = 392
DOCKED: USER
DOCKED: USER    Estimated Free Energy of Binding    =  -5.27 kcal/mol  [=(1)+(2)+(3)-(4)]
DOCKED: USER
DOCKED: USER    (1) Final Intermolecular Energy     =  -6.77 kcal/mol
DOCKED: USER        vdW + Hbond + desolv Energy     =  -6.77 kcal/mol
DOCKED: USER        Electrostatic Energy            =  +0.00 kcal/mol
DOCKED: USER        Moving Ligand-Fixed Receptor    =  -6.77 kcal/mol
DOCKED: USER        Moving Ligand-Moving Receptor   =  +0.00 kcal/mol
DOCKED: USER    (2) Final Total Internal Energy     =  -1.10 kcal/mol
DOCKED: USER    (3) Torsional Free Energy           =  +1.49 kcal/mol
DOCKED: USER    (4) Unbound System's Energy         =  -1.10 kcal/mol
DOCKED: USER
DOCKED: USER
DOCKED: REMARK  5 active torsions:
DOCKED: REMARK  status: ('A' for Active; 'I' for Inactive)
DOCKED: REMARK    1  A    between atoms: C_2  and  C_19 
DOCKED: REMARK    2  A    between atoms: C_2  and  C_11 
DOCKED: REMARK    3  A    between atoms: C_19  and  C_20 
DOCKED: REMARK    4  A    between atoms: C_20  and  C_21 
DOCKED: REMARK    5  A    between atoms: C_21  and  N_22 
DOCKED: USER                              x       y       z     vdW  Elec       q    Type
DOCKED: USER                           _______ _______ _______ _____ _____    ______ ____
DOCKED: ROOT
DOCKED: ATOM      1  O   UNL     1     -48.514 -21.454  14.651 -0.04 -0.00    -0.346 OA 
DOCKED: ATOM      2  C   UNL     1     -47.966 -22.811  14.664 -0.21 +0.00    +0.130 C  
DOCKED: ATOM      3  C   UNL     1     -48.452 -23.406  13.374 -0.34 +0.00    +0.004 A  
DOCKED: ATOM      4  C   UNL     1     -49.124 -22.441  12.638 -0.34 +0.00    +0.006 A  
DOCKED: ATOM      5  C   UNL     1     -49.119 -21.156  13.372 -0.23 +0.00    +0.169 C  
DOCKED: ATOM      6  C   UNL     1     -48.301 -24.696  12.886 -0.41 -0.00    -0.001 A  
DOCKED: ATOM      7  C   UNL     1     -49.670 -22.730  11.399 -0.17 +0.00    +0.008 A  
DOCKED: ATOM      8  C   UNL     1     -48.849 -25.005  11.640 -0.42 +0.00    +0.010 A  
DOCKED: ATOM      9  C   UNL     1     -49.530 -24.026  10.900 -0.43 +0.00    +0.068 A  
DOCKED: ATOM     10  N   UNL     1     -50.531 -24.630   8.588 -2.48 -0.00    -0.191 NA 
DOCKED: ATOM     11  C   UNL     1     -50.082 -24.359   9.625 -0.43 +0.00    +0.101 C  
DOCKED: ENDROOT
DOCKED: BRANCH   2  12
DOCKED: ATOM     12  C   UNL     1     -46.447 -22.718  14.739 -0.23 +0.00    +0.038 C  
DOCKED: BRANCH  12  13
DOCKED: ATOM     13  C   UNL     1     -45.977 -21.264  14.738 -0.15 +0.00    +0.038 C  
DOCKED: BRANCH  13  14
DOCKED: ATOM     14  C   UNL     1     -44.600 -21.131  15.386 -0.08 +0.00    +0.251 C  
DOCKED: BRANCH  14  15
DOCKED: ATOM     15  N   UNL     1     -44.718 -21.168  16.839 -0.04 +0.00    +0.141 N  
DOCKED: ATOM     16  C   UNL     1     -43.857 -20.155  17.452 -0.01 +0.00    +0.285 C  
DOCKED: ATOM     17  C   UNL     1     -46.109 -20.968  17.248 -0.02 +0.00    +0.285 C  
DOCKED: ENDBRANCH  14  15
DOCKED: ENDBRANCH  13  14
DOCKED: ENDBRANCH  12  13
DOCKED: ENDBRANCH   2  12
DOCKED: BRANCH   2  18
DOCKED: ATOM     18  C   UNL     1     -48.523 -23.495  15.867 -0.17 +0.00    +0.006 A  
DOCKED: ATOM     19  C   UNL     1     -49.658 -22.985  16.496 -0.10 +0.00    +0.001 A  
DOCKED: ATOM     20  C   UNL     1     -50.178 -23.625  17.621 -0.10 +0.00    +0.029 A  
DOCKED: ATOM     21  C   UNL     1     -49.564 -24.775  18.115 -0.10 +0.00    +0.140 A  
DOCKED: ATOM     22  C   UNL     1     -48.429 -25.285  17.485 -0.17 +0.00    +0.029 A  
DOCKED: ATOM     23  F   UNL     1     -50.064 -25.391  19.194 -0.03 -0.00    -0.204 F  
DOCKED: ATOM     24  C   UNL     1     -47.908 -24.645  16.360 -0.05 +0.00    +0.001 A  
DOCKED: ENDBRANCH   2  18
DOCKED: TORSDOF 5
DOCKED: TER
DOCKED: ENDMDL
________________________________________________________________________________


    FINAL DOCKED STATE:
    ________________________


Run:   393 / 512
Time taken for this run:   0.002s

DOCKED: MODEL        393
DOCKED: USER    Run = 393
DOCKED: USER
DOCKED: USER    Estimated Free Energy of Binding    =  -3.81 kcal/mol  [=(1)+(2)+(3)-(4)]
DOCKED: USER
DOCKED: USER    (1) Final Intermolecular Energy     =  -5.30 kcal/mol
DOCKED: USER        vdW + Hbond + desolv Energy     =  -5.30 kcal/mol
DOCKED: USER        Electrostatic Energy            =  +0.00 kcal/mol
DOCKED: USER        Moving Ligand-Fixed Receptor    =  -5.30 kcal/mol
DOCKED: USER        Moving Ligand-Moving Receptor   =  +0.00 kcal/mol
DOCKED: USER    (2) Final Total Internal Energy     =  -1.42 kcal/mol
DOCKED: USER    (3) Torsional Free Energy           =  +1.49 kcal/mol
DOCKED: USER    (4) Unbound System's Energy         =  -1.42 kcal/mol
DOCKED: USER
DOCKED: USER
DOCKED: REMARK  5 active torsions:
DOCKED: REMARK  status: ('A' for Active; 'I' for Inactive)
DOCKED: REMARK    1  A    between atoms: C_2  and  C_19 
DOCKED: REMARK    2  A    between atoms: C_2  and  C_11 
DOCKED: REMARK    3  A    between atoms: C_19  and  C_20 
DOCKED: REMARK    4  A    between atoms: C_20  and  C_21 
DOCKED: REMARK    5  A    between atoms: C_21  and  N_22 
DOCKED: USER                              x       y       z     vdW  Elec       q    Type
DOCKED: USER                           _______ _______ _______ _____ _____    ______ ____
DOCKED: ROOT
DOCKED: ATOM      1  O   UNL     1     -41.714 -11.050   2.660 -0.06 -0.00    -0.346 OA 
DOCKED: ATOM      2  C   UNL     1     -41.890 -12.172   3.582 -0.05 +0.00    +0.130 C  
DOCKED: ATOM      3  C   UNL     1     -43.350 -12.504   3.470 -0.14 +0.00    +0.004 A  
DOCKED: ATOM      4  C   UNL     1     -43.934 -11.715   2.489 -0.21 +0.00    +0.006 A  
DOCKED: ATOM      5  C   UNL     1     -42.914 -10.829   1.884 -0.06 +0.00    +0.169 C  
DOCKED: ATOM      6  C   UNL     1     -44.100 -13.437   4.171 -0.19 -0.00    -0.001 A  
DOCKED: ATOM      7  C   UNL     1     -45.279 -11.826   2.179 -0.38 +0.00    +0.008 A  
DOCKED: ATOM      8  C   UNL     1     -45.458 -13.558   3.874 -0.31 +0.00    +0.010 A  
DOCKED: ATOM      9  C   UNL     1     -46.044 -12.758   2.883 -0.37 +0.00    +0.068 A  
DOCKED: ATOM     10  N   UNL     1     -48.568 -13.013   2.353 -2.48 -0.00    -0.191 NA 
DOCKED: ATOM     11  C   UNL     1     -47.436 -12.898   2.591 -0.11 +0.00    +0.101 C  
DOCKED: ENDROOT
DOCKED: BRANCH   2  12
DOCKED: ATOM     12  C   UNL     1     -40.986 -13.314   3.132 -0.02 +0.00    +0.038 C  
DOCKED: BRANCH  12  13
DOCKED: ATOM     13  C   UNL     1     -41.747 -14.320   2.271 -0.04 +0.00    +0.038 C  
DOCKED: BRANCH  13  14
DOCKED: ATOM     14  C   UNL     1     -41.816 -13.858   0.817 -0.01 +0.00    +0.251 C  
DOCKED: BRANCH  14  15
DOCKED: ATOM     15  N   UNL     1     -42.910 -14.527   0.123 -0.10 +0.00    +0.141 N  
DOCKED: ATOM     16  C   UNL     1     -43.925 -14.979   1.075 -0.11 +0.00    +0.285 C  
DOCKED: ATOM     17  C   UNL     1     -43.509 -13.637  -0.873 -0.10 +0.00    +0.285 C  
DOCKED: ENDBRANCH  14  15
DOCKED: ENDBRANCH  13  14
DOCKED: ENDBRANCH  12  13
DOCKED: ENDBRANCH   2  12
DOCKED: BRANCH   2  18
DOCKED: ATOM     18  C   UNL     1     -41.507 -11.686   4.940 -0.08 +0.00    +0.006 A  
DOCKED: ATOM     19  C   UNL     1     -42.133 -10.563   5.479 -0.16 +0.00    +0.001 A  
DOCKED: ATOM     20  C   UNL     1     -41.774 -10.108   6.749 -0.12 +0.00    +0.029 A  
DOCKED: ATOM     21  C   UNL     1     -40.791 -10.777   7.477 -0.07 +0.00    +0.140 A  
DOCKED: ATOM     22  C   UNL     1     -40.166 -11.901   6.936 -0.05 +0.00    +0.029 A  
DOCKED: ATOM     23  F   UNL     1     -40.448 -10.342   8.696 -0.03 -0.00    -0.204 F  
DOCKED: ATOM     24  C   UNL     1     -40.524 -12.356   5.666 -0.04 +0.00    +0.001 A  
DOCKED: ENDBRANCH   2  18
DOCKED: TORSDOF 5
DOCKED: TER
DOCKED: ENDMDL
________________________________________________________________________________


    FINAL DOCKED STATE:
    ________________________


Run:   394 / 512
Time taken for this run:   0.002s

DOCKED: MODEL        394
DOCKED: USER    Run = 394
DOCKED: USER
DOCKED: USER    Estimated Free Energy of Binding    =  -4.38 kcal/mol  [=(1)+(2)+(3)-(4)]
DOCKED: USER
DOCKED: USER    (1) Final Intermolecular Energy     =  -5.87 kcal/mol
DOCKED: USER        vdW + Hbond + desolv Energy     =  -5.87 kcal/mol
DOCKED: USER        Electrostatic Energy            =  +0.00 kcal/mol
DOCKED: USER        Moving Ligand-Fixed Receptor    =  -5.87 kcal/mol
DOCKED: USER        Moving Ligand-Moving Receptor   =  +0.00 kcal/mol
DOCKED: USER    (2) Final Total Internal Energy     =  -1.10 kcal/mol
DOCKED: USER    (3) Torsional Free Energy           =  +1.49 kcal/mol
DOCKED: USER    (4) Unbound System's Energy         =  -1.10 kcal/mol
DOCKED: USER
DOCKED: USER
DOCKED: REMARK  5 active torsions:
DOCKED: REMARK  status: ('A' for Active; 'I' for Inactive)
DOCKED: REMARK    1  A    between atoms: C_2  and  C_19 
DOCKED: REMARK    2  A    between atoms: C_2  and  C_11 
DOCKED: REMARK    3  A    between atoms: C_19  and  C_20 
DOCKED: REMARK    4  A    between atoms: C_20  and  C_21 
DOCKED: REMARK    5  A    between atoms: C_21  and  N_22 
DOCKED: USER                              x       y       z     vdW  Elec       q    Type
DOCKED: USER                           _______ _______ _______ _____ _____    ______ ____
DOCKED: ROOT
DOCKED: ATOM      1  O   UNL     1     -48.090 -19.088  14.079 -0.05 -0.00    -0.346 OA 
DOCKED: ATOM      2  C   UNL     1     -49.524 -19.146  14.363 -0.14 +0.00    +0.130 C  
DOCKED: ATOM      3  C   UNL     1     -49.928 -20.516  13.900 -0.21 +0.00    +0.004 A  
DOCKED: ATOM      4  C   UNL     1     -48.804 -21.219  13.490 -0.26 +0.00    +0.006 A  
DOCKED: ATOM      5  C   UNL     1     -47.596 -20.382  13.662 -0.19 +0.00    +0.169 C  
DOCKED: ATOM      6  C   UNL     1     -51.187 -21.096  13.855 -0.21 -0.00    -0.001 A  
DOCKED: ATOM      7  C   UNL     1     -48.899 -22.518  13.020 -0.33 +0.00    +0.008 A  
DOCKED: ATOM      8  C   UNL     1     -51.300 -22.404  13.380 -0.23 +0.00    +0.010 A  
DOCKED: ATOM      9  C   UNL     1     -50.161 -23.111  12.965 -0.25 +0.00    +0.068 A  
DOCKED: ATOM     10  N   UNL     1     -50.406 -25.539  12.092 -2.56 -0.00    -0.191 NA 
DOCKED: ATOM     11  C   UNL     1     -50.296 -24.450  12.483 -0.35 +0.00    +0.101 C  
DOCKED: ENDROOT
DOCKED: BRANCH   2  12
DOCKED: ATOM     12  C   UNL     1     -49.729 -18.941  15.859 -0.04 +0.00    +0.038 C  
DOCKED: BRANCH  12  13
DOCKED: ATOM     13  C   UNL     1     -49.248 -17.562  16.304 -0.02 +0.00    +0.038 C  
DOCKED: BRANCH  13  14
DOCKED: ATOM     14  C   UNL     1     -50.427 -16.634  16.589 -0.00 +0.00    +0.251 C  
DOCKED: BRANCH  14  15
DOCKED: ATOM     15  N   UNL     1     -49.951 -15.333  17.043 -0.00 +0.00    +0.141 N  
DOCKED: ATOM     16  C   UNL     1     -51.075 -14.478  17.430 +0.00 +0.00    +0.285 C  
DOCKED: ATOM     17  C   UNL     1     -49.020 -15.486  18.162 +0.00 +0.00    +0.285 C  
DOCKED: ENDBRANCH  14  15
DOCKED: ENDBRANCH  13  14
DOCKED: ENDBRANCH  12  13
DOCKED: ENDBRANCH   2  12
DOCKED: BRANCH   2  18
DOCKED: ATOM     18  C   UNL     1     -50.169 -18.053  13.578 -0.19 +0.00    +0.006 A  
DOCKED: ATOM     19  C   UNL     1     -49.383 -17.169  12.839 -0.17 +0.00    +0.001 A  
DOCKED: ATOM     20  C   UNL     1     -49.988 -16.147  12.105 -0.16 +0.00    +0.029 A  
DOCKED: ATOM     21  C   UNL     1     -51.375 -16.011  12.111 -0.11 +0.00    +0.140 A  
DOCKED: ATOM     22  C   UNL     1     -52.160 -16.896  12.850 -0.17 +0.00    +0.029 A  
DOCKED: ATOM     23  F   UNL     1     -51.955 -15.032  11.405 -0.02 -0.00    -0.204 F  
DOCKED: ATOM     24  C   UNL     1     -51.557 -17.918  13.584 -0.21 +0.00    +0.001 A  
DOCKED: ENDBRANCH   2  18
DOCKED: TORSDOF 5
DOCKED: TER
DOCKED: ENDMDL
________________________________________________________________________________


    FINAL DOCKED STATE:
    ________________________


Run:   395 / 512
Time taken for this run:   0.002s

DOCKED: MODEL        395
DOCKED: USER    Run = 395
DOCKED: USER
DOCKED: USER    Estimated Free Energy of Binding    =  -4.38 kcal/mol  [=(1)+(2)+(3)-(4)]
DOCKED: USER
DOCKED: USER    (1) Final Intermolecular Energy     =  -5.87 kcal/mol
DOCKED: USER        vdW + Hbond + desolv Energy     =  -5.87 kcal/mol
DOCKED: USER        Electrostatic Energy            =  +0.00 kcal/mol
DOCKED: USER        Moving Ligand-Fixed Receptor    =  -5.87 kcal/mol
DOCKED: USER        Moving Ligand-Moving Receptor   =  +0.00 kcal/mol
DOCKED: USER    (2) Final Total Internal Energy     =  -1.11 kcal/mol
DOCKED: USER    (3) Torsional Free Energy           =  +1.49 kcal/mol
DOCKED: USER    (4) Unbound System's Energy         =  -1.11 kcal/mol
DOCKED: USER
DOCKED: USER
DOCKED: REMARK  5 active torsions:
DOCKED: REMARK  status: ('A' for Active; 'I' for Inactive)
DOCKED: REMARK    1  A    between atoms: C_2  and  C_19 
DOCKED: REMARK    2  A    between atoms: C_2  and  C_11 
DOCKED: REMARK    3  A    between atoms: C_19  and  C_20 
DOCKED: REMARK    4  A    between atoms: C_20  and  C_21 
DOCKED: REMARK    5  A    between atoms: C_21  and  N_22 
DOCKED: USER                              x       y       z     vdW  Elec       q    Type
DOCKED: USER                           _______ _______ _______ _____ _____    ______ ____
DOCKED: ROOT
DOCKED: ATOM      1  O   UNL     1     -48.092 -19.071  13.447 -0.08 -0.00    -0.346 OA 
DOCKED: ATOM      2  C   UNL     1     -49.341 -19.292  14.176 -0.15 +0.00    +0.130 C  
DOCKED: ATOM      3  C   UNL     1     -49.721 -20.700  13.822 -0.22 +0.00    +0.004 A  
DOCKED: ATOM      4  C   UNL     1     -48.721 -21.273  13.049 -0.28 +0.00    +0.006 A  
DOCKED: ATOM      5  C   UNL     1     -47.621 -20.303  12.851 -0.10 +0.00    +0.169 C  
DOCKED: ATOM      6  C   UNL     1     -50.855 -21.421  14.167 -0.18 -0.00    -0.001 A  
DOCKED: ATOM      7  C   UNL     1     -48.821 -22.576  12.592 -0.34 +0.00    +0.008 A  
DOCKED: ATOM      8  C   UNL     1     -50.972 -22.735  13.710 -0.21 +0.00    +0.010 A  
DOCKED: ATOM      9  C   UNL     1     -49.960 -23.309  12.927 -0.26 +0.00    +0.068 A  
DOCKED: ATOM     10  N   UNL     1     -50.207 -25.752  12.099 -2.58 -0.00    -0.191 NA 
DOCKED: ATOM     11  C   UNL     1     -50.097 -24.656  12.470 -0.36 +0.00    +0.101 C  
DOCKED: ENDROOT
DOCKED: BRANCH   2  12
DOCKED: ATOM     12  C   UNL     1     -49.071 -19.106  15.665 -0.05 +0.00    +0.038 C  
DOCKED: BRANCH  12  13
DOCKED: ATOM     13  C   UNL     1     -50.369 -19.091  16.469 -0.03 +0.00    +0.038 C  
DOCKED: BRANCH  13  14
DOCKED: ATOM     14  C   UNL     1     -50.479 -20.329  17.358 -0.00 +0.00    +0.251 C  
DOCKED: BRANCH  14  15
DOCKED: ATOM     15  N   UNL     1     -51.815 -20.422  17.934 -0.01 +0.00    +0.141 N  
DOCKED: ATOM     16  C   UNL     1     -52.665 -19.335  17.446 +0.00 +0.00    +0.285 C  
DOCKED: ATOM     17  C   UNL     1     -52.421 -21.718  17.625 +0.00 +0.00    +0.285 C  
DOCKED: ENDBRANCH  14  15
DOCKED: ENDBRANCH  13  14
DOCKED: ENDBRANCH  12  13
DOCKED: ENDBRANCH   2  12
DOCKED: BRANCH   2  18
DOCKED: ATOM     18  C   UNL     1     -50.321 -18.283  13.678 -0.20 +0.00    +0.006 A  
DOCKED: ATOM     19  C   UNL     1     -49.888 -17.004  13.329 -0.16 +0.00    +0.001 A  
DOCKED: ATOM     20  C   UNL     1     -50.805 -16.061  12.863 -0.14 +0.00    +0.029 A  
DOCKED: ATOM     21  C   UNL     1     -52.153 -16.398  12.746 -0.12 +0.00    +0.140 A  
DOCKED: ATOM     22  C   UNL     1     -52.585 -17.677  13.095 -0.16 +0.00    +0.029 A  
DOCKED: ATOM     23  F   UNL     1     -53.033 -15.494  12.297 -0.02 -0.00    -0.204 F  
DOCKED: ATOM     24  C   UNL     1     -51.669 -18.621  13.562 -0.23 +0.00    +0.001 A  
DOCKED: ENDBRANCH   2  18
DOCKED: TORSDOF 5
DOCKED: TER
DOCKED: ENDMDL
________________________________________________________________________________


    FINAL DOCKED STATE:
    ________________________


Run:   396 / 512
Time taken for this run:   0.002s

DOCKED: MODEL        396
DOCKED: USER    Run = 396
DOCKED: USER
DOCKED: USER    Estimated Free Energy of Binding    =  -3.93 kcal/mol  [=(1)+(2)+(3)-(4)]
DOCKED: USER
DOCKED: USER    (1) Final Intermolecular Energy     =  -5.42 kcal/mol
DOCKED: USER        vdW + Hbond + desolv Energy     =  -5.42 kcal/mol
DOCKED: USER        Electrostatic Energy            =  +0.00 kcal/mol
DOCKED: USER        Moving Ligand-Fixed Receptor    =  -5.42 kcal/mol
DOCKED: USER        Moving Ligand-Moving Receptor   =  +0.00 kcal/mol
DOCKED: USER    (2) Final Total Internal Energy     =  -1.44 kcal/mol
DOCKED: USER    (3) Torsional Free Energy           =  +1.49 kcal/mol
DOCKED: USER    (4) Unbound System's Energy         =  -1.44 kcal/mol
DOCKED: USER
DOCKED: USER
DOCKED: REMARK  5 active torsions:
DOCKED: REMARK  status: ('A' for Active; 'I' for Inactive)
DOCKED: REMARK    1  A    between atoms: C_2  and  C_19 
DOCKED: REMARK    2  A    between atoms: C_2  and  C_11 
DOCKED: REMARK    3  A    between atoms: C_19  and  C_20 
DOCKED: REMARK    4  A    between atoms: C_20  and  C_21 
DOCKED: REMARK    5  A    between atoms: C_21  and  N_22 
DOCKED: USER                              x       y       z     vdW  Elec       q    Type
DOCKED: USER                           _______ _______ _______ _____ _____    ______ ____
DOCKED: ROOT
DOCKED: ATOM      1  O   UNL     1     -39.670 -22.533   5.430 +0.00 -0.00    -0.346 OA 
DOCKED: ATOM      2  C   UNL     1     -40.635 -21.626   6.053 -0.07 +0.00    +0.130 C  
DOCKED: ATOM      3  C   UNL     1     -41.278 -22.464   7.120 -0.12 +0.00    +0.004 A  
DOCKED: ATOM      4  C   UNL     1     -40.659 -23.705   7.176 -0.11 +0.00    +0.006 A  
DOCKED: ATOM      5  C   UNL     1     -39.571 -23.769   6.174 -0.04 +0.00    +0.169 C  
DOCKED: ATOM      6  C   UNL     1     -42.320 -22.150   7.980 -0.20 -0.00    -0.001 A  
DOCKED: ATOM      7  C   UNL     1     -41.060 -24.670   8.084 -0.19 +0.00    +0.008 A  
DOCKED: ATOM      8  C   UNL     1     -42.739 -23.114   8.899 -0.30 +0.00    +0.010 A  
DOCKED: ATOM      9  C   UNL     1     -42.111 -24.367   8.951 -0.28 +0.00    +0.068 A  
DOCKED: ATOM     10  N   UNL     1     -42.909 -26.133  10.671 -2.58 -0.00    -0.191 NA 
DOCKED: ATOM     11  C   UNL     1     -42.552 -25.341   9.899 -0.43 +0.00    +0.101 C  
DOCKED: ENDROOT
DOCKED: BRANCH   2  12
DOCKED: ATOM     12  C   UNL     1     -39.879 -20.428   6.615 -0.02 +0.00    +0.038 C  
DOCKED: BRANCH  12  13
DOCKED: ATOM     13  C   UNL     1     -38.609 -20.863   7.344 -0.01 +0.00    +0.038 C  
DOCKED: BRANCH  13  14
DOCKED: ATOM     14  C   UNL     1     -38.709 -20.577   8.841 -0.00 +0.00    +0.251 C  
DOCKED: BRANCH  14  15
DOCKED: ATOM     15  N   UNL     1     -38.199 -21.707   9.608 -0.01 +0.00    +0.141 N  
DOCKED: ATOM     16  C   UNL     1     -39.238 -22.244  10.488 -0.01 +0.00    +0.285 C  
DOCKED: ATOM     17  C   UNL     1     -37.700 -22.753   8.715 -0.00 +0.00    +0.285 C  
DOCKED: ENDBRANCH  14  15
DOCKED: ENDBRANCH  13  14
DOCKED: ENDBRANCH  12  13
DOCKED: ENDBRANCH   2  12
DOCKED: BRANCH   2  18
DOCKED: ATOM     18  C   UNL     1     -41.592 -21.208   4.987 -0.13 +0.00    +0.006 A  
DOCKED: ATOM     19  C   UNL     1     -41.622 -21.889   3.771 -0.13 +0.00    +0.001 A  
DOCKED: ATOM     20  C   UNL     1     -42.516 -21.496   2.775 -0.15 +0.00    +0.029 A  
DOCKED: ATOM     21  C   UNL     1     -43.380 -20.424   2.996 -0.16 +0.00    +0.140 A  
DOCKED: ATOM     22  C   UNL     1     -43.350 -19.743   4.213 -0.21 +0.00    +0.029 A  
DOCKED: ATOM     23  F   UNL     1     -44.240 -20.048   2.041 -0.14 -0.00    -0.204 F  
DOCKED: ATOM     24  C   UNL     1     -42.455 -20.135   5.210 -0.16 +0.00    +0.001 A  
DOCKED: ENDBRANCH   2  18
DOCKED: TORSDOF 5
DOCKED: TER
DOCKED: ENDMDL
________________________________________________________________________________


    FINAL DOCKED STATE:
    ________________________


Run:   397 / 512
Time taken for this run:   0.002s

DOCKED: MODEL        397
DOCKED: USER    Run = 397
DOCKED: USER
DOCKED: USER    Estimated Free Energy of Binding    =  -3.76 kcal/mol  [=(1)+(2)+(3)-(4)]
DOCKED: USER
DOCKED: USER    (1) Final Intermolecular Energy     =  -5.25 kcal/mol
DOCKED: USER        vdW + Hbond + desolv Energy     =  -5.25 kcal/mol
DOCKED: USER        Electrostatic Energy            =  +0.00 kcal/mol
DOCKED: USER        Moving Ligand-Fixed Receptor    =  -5.25 kcal/mol
DOCKED: USER        Moving Ligand-Moving Receptor   =  +0.00 kcal/mol
DOCKED: USER    (2) Final Total Internal Energy     =  -1.32 kcal/mol
DOCKED: USER    (3) Torsional Free Energy           =  +1.49 kcal/mol
DOCKED: USER    (4) Unbound System's Energy         =  -1.32 kcal/mol
DOCKED: USER
DOCKED: USER
DOCKED: REMARK  5 active torsions:
DOCKED: REMARK  status: ('A' for Active; 'I' for Inactive)
DOCKED: REMARK    1  A    between atoms: C_2  and  C_19 
DOCKED: REMARK    2  A    between atoms: C_2  and  C_11 
DOCKED: REMARK    3  A    between atoms: C_19  and  C_20 
DOCKED: REMARK    4  A    between atoms: C_20  and  C_21 
DOCKED: REMARK    5  A    between atoms: C_21  and  N_22 
DOCKED: USER                              x       y       z     vdW  Elec       q    Type
DOCKED: USER                           _______ _______ _______ _____ _____    ______ ____
DOCKED: ROOT
DOCKED: ATOM      1  O   UNL     1     -39.395 -22.425   6.105 +0.01 -0.00    -0.346 OA 
DOCKED: ATOM      2  C   UNL     1     -40.365 -21.520   6.723 -0.04 +0.00    +0.130 C  
DOCKED: ATOM      3  C   UNL     1     -41.073 -22.383   7.727 -0.10 +0.00    +0.004 A  
DOCKED: ATOM      4  C   UNL     1     -40.486 -23.640   7.759 -0.10 +0.00    +0.006 A  
DOCKED: ATOM      5  C   UNL     1     -39.357 -23.692   6.803 -0.03 +0.00    +0.169 C  
DOCKED: ATOM      6  C   UNL     1     -42.143 -22.076   8.555 -0.18 -0.00    -0.001 A  
DOCKED: ATOM      7  C   UNL     1     -40.948 -24.629   8.610 -0.20 +0.00    +0.008 A  
DOCKED: ATOM      8  C   UNL     1     -42.624 -23.065   9.415 -0.28 +0.00    +0.010 A  
DOCKED: ATOM      9  C   UNL     1     -42.028 -24.335   9.443 -0.29 +0.00    +0.068 A  
DOCKED: ATOM     10  N   UNL     1     -42.941 -26.145  11.056 -2.64 -0.00    -0.191 NA 
DOCKED: ATOM     11  C   UNL     1     -42.532 -25.333  10.332 -0.38 +0.00    +0.101 C  
DOCKED: ENDROOT
DOCKED: BRANCH   2  12
DOCKED: ATOM     12  C   UNL     1     -39.606 -20.364   7.364 -0.01 +0.00    +0.038 C  
DOCKED: BRANCH  12  13
DOCKED: ATOM     13  C   UNL     1     -38.244 -20.158   6.704 -0.00 +0.00    +0.038 C  
DOCKED: BRANCH  13  14
DOCKED: ATOM     14  C   UNL     1     -38.240 -18.903   5.833 -0.00 +0.00    +0.251 C  
DOCKED: BRANCH  14  15
DOCKED: ATOM     15  N   UNL     1     -37.765 -19.219   4.491 -0.00 +0.00    +0.141 N  
DOCKED: ATOM     16  C   UNL     1     -38.597 -20.257   3.880 +0.00 +0.00    +0.285 C  
DOCKED: ATOM     17  C   UNL     1     -37.752 -18.019   3.653 +0.00 +0.00    +0.285 C  
DOCKED: ENDBRANCH  14  15
DOCKED: ENDBRANCH  13  14
DOCKED: ENDBRANCH  12  13
DOCKED: ENDBRANCH   2  12
DOCKED: BRANCH   2  18
DOCKED: ATOM     18  C   UNL     1     -41.265 -21.036   5.636 -0.10 +0.00    +0.006 A  
DOCKED: ATOM     19  C   UNL     1     -42.030 -19.885   5.824 -0.11 +0.00    +0.001 A  
DOCKED: ATOM     20  C   UNL     1     -42.871 -19.434   4.807 -0.17 +0.00    +0.029 A  
DOCKED: ATOM     21  C   UNL     1     -42.945 -20.132   3.602 -0.20 +0.00    +0.140 A  
DOCKED: ATOM     22  C   UNL     1     -42.179 -21.283   3.414 -0.17 +0.00    +0.029 A  
DOCKED: ATOM     23  F   UNL     1     -43.751 -19.698   2.625 -0.13 -0.00    -0.204 F  
DOCKED: ATOM     24  C   UNL     1     -41.338 -21.735   4.432 -0.13 +0.00    +0.001 A  
DOCKED: ENDBRANCH   2  18
DOCKED: TORSDOF 5
DOCKED: TER
DOCKED: ENDMDL
________________________________________________________________________________


    FINAL DOCKED STATE:
    ________________________


Run:   398 / 512
Time taken for this run:   0.002s

DOCKED: MODEL        398
DOCKED: USER    Run = 398
DOCKED: USER
DOCKED: USER    Estimated Free Energy of Binding    =  -3.94 kcal/mol  [=(1)+(2)+(3)-(4)]
DOCKED: USER
DOCKED: USER    (1) Final Intermolecular Energy     =  -5.43 kcal/mol
DOCKED: USER        vdW + Hbond + desolv Energy     =  -5.43 kcal/mol
DOCKED: USER        Electrostatic Energy            =  +0.00 kcal/mol
DOCKED: USER        Moving Ligand-Fixed Receptor    =  -5.43 kcal/mol
DOCKED: USER        Moving Ligand-Moving Receptor   =  +0.00 kcal/mol
DOCKED: USER    (2) Final Total Internal Energy     =  -1.51 kcal/mol
DOCKED: USER    (3) Torsional Free Energy           =  +1.49 kcal/mol
DOCKED: USER    (4) Unbound System's Energy         =  -1.51 kcal/mol
DOCKED: USER
DOCKED: USER
DOCKED: REMARK  5 active torsions:
DOCKED: REMARK  status: ('A' for Active; 'I' for Inactive)
DOCKED: REMARK    1  A    between atoms: C_2  and  C_19 
DOCKED: REMARK    2  A    between atoms: C_2  and  C_11 
DOCKED: REMARK    3  A    between atoms: C_19  and  C_20 
DOCKED: REMARK    4  A    between atoms: C_20  and  C_21 
DOCKED: REMARK    5  A    between atoms: C_21  and  N_22 
DOCKED: USER                              x       y       z     vdW  Elec       q    Type
DOCKED: USER                           _______ _______ _______ _____ _____    ______ ____
DOCKED: ROOT
DOCKED: ATOM      1  O   UNL     1     -47.140 -23.171  15.893 -0.07 -0.00    -0.346 OA 
DOCKED: ATOM      2  C   UNL     1     -48.466 -23.754  16.101 -0.17 +0.00    +0.130 C  
DOCKED: ATOM      3  C   UNL     1     -49.004 -23.930  14.711 -0.24 +0.00    +0.004 A  
DOCKED: ATOM      4  C   UNL     1     -48.030 -23.582  13.786 -0.33 +0.00    +0.006 A  
DOCKED: ATOM      5  C   UNL     1     -46.794 -23.171  14.488 -0.18 +0.00    +0.169 C  
DOCKED: ATOM      6  C   UNL     1     -50.252 -24.373  14.298 -0.24 -0.00    -0.001 A  
DOCKED: ATOM      7  C   UNL     1     -48.269 -23.660  12.424 -0.22 +0.00    +0.008 A  
DOCKED: ATOM      8  C   UNL     1     -50.510 -24.453  12.928 -0.29 +0.00    +0.010 A  
DOCKED: ATOM      9  C   UNL     1     -49.523 -24.099  11.996 -0.38 +0.00    +0.068 A  
DOCKED: ATOM     10  N   UNL     1     -50.032 -24.264   9.461 -1.93 -0.00    -0.191 NA 
DOCKED: ATOM     11  C   UNL     1     -49.804 -24.189  10.598 -0.52 +0.00    +0.101 C  
DOCKED: ENDROOT
DOCKED: BRANCH   2  12
DOCKED: ATOM     12  C   UNL     1     -48.301 -25.074  16.845 -0.24 +0.00    +0.038 C  
DOCKED: BRANCH  12  13
DOCKED: ATOM     13  C   UNL     1     -47.922 -24.846  18.307 -0.25 +0.00    +0.038 C  
DOCKED: BRANCH  13  14
DOCKED: ATOM     14  C   UNL     1     -46.427 -24.567  18.449 -0.02 +0.00    +0.251 C  
DOCKED: BRANCH  14  15
DOCKED: ATOM     15  N   UNL     1     -46.203 -23.464  19.376 -0.06 +0.00    +0.141 N  
DOCKED: ATOM     16  C   UNL     1     -45.792 -22.258  18.654 -0.03 +0.00    +0.285 C  
DOCKED: ATOM     17  C   UNL     1     -47.409 -23.199  20.162 -0.02 +0.00    +0.285 C  
DOCKED: ENDBRANCH  14  15
DOCKED: ENDBRANCH  13  14
DOCKED: ENDBRANCH  12  13
DOCKED: ENDBRANCH   2  12
DOCKED: BRANCH   2  18
DOCKED: ATOM     18  C   UNL     1     -49.251 -22.776  16.909 -0.08 +0.00    +0.006 A  
DOCKED: ATOM     19  C   UNL     1     -50.532 -23.105  17.351 -0.07 +0.00    +0.001 A  
DOCKED: ATOM     20  C   UNL     1     -51.265 -22.189  18.106 -0.03 +0.00    +0.029 A  
DOCKED: ATOM     21  C   UNL     1     -50.716 -20.946  18.419 -0.00 +0.00    +0.140 A  
DOCKED: ATOM     22  C   UNL     1     -49.435 -20.617  17.977 -0.01 +0.00    +0.029 A  
DOCKED: ATOM     23  F   UNL     1     -51.419 -20.067  19.145 +0.00 -0.00    -0.204 F  
DOCKED: ATOM     24  C   UNL     1     -48.701 -21.533  17.221 -0.04 +0.00    +0.001 A  
DOCKED: ENDBRANCH   2  18
DOCKED: TORSDOF 5
DOCKED: TER
DOCKED: ENDMDL
________________________________________________________________________________


    FINAL DOCKED STATE:
    ________________________


Run:   399 / 512
Time taken for this run:   0.002s

DOCKED: MODEL        399
DOCKED: USER    Run = 399
DOCKED: USER
DOCKED: USER    Estimated Free Energy of Binding    =  -4.12 kcal/mol  [=(1)+(2)+(3)-(4)]
DOCKED: USER
DOCKED: USER    (1) Final Intermolecular Energy     =  -5.61 kcal/mol
DOCKED: USER        vdW + Hbond + desolv Energy     =  -5.61 kcal/mol
DOCKED: USER        Electrostatic Energy            =  +0.00 kcal/mol
DOCKED: USER        Moving Ligand-Fixed Receptor    =  -5.61 kcal/mol
DOCKED: USER        Moving Ligand-Moving Receptor   =  +0.00 kcal/mol
DOCKED: USER    (2) Final Total Internal Energy     =  -1.36 kcal/mol
DOCKED: USER    (3) Torsional Free Energy           =  +1.49 kcal/mol
DOCKED: USER    (4) Unbound System's Energy         =  -1.36 kcal/mol
DOCKED: USER
DOCKED: USER
DOCKED: REMARK  5 active torsions:
DOCKED: REMARK  status: ('A' for Active; 'I' for Inactive)
DOCKED: REMARK    1  A    between atoms: C_2  and  C_19 
DOCKED: REMARK    2  A    between atoms: C_2  and  C_11 
DOCKED: REMARK    3  A    between atoms: C_19  and  C_20 
DOCKED: REMARK    4  A    between atoms: C_20  and  C_21 
DOCKED: REMARK    5  A    between atoms: C_21  and  N_22 
DOCKED: USER                              x       y       z     vdW  Elec       q    Type
DOCKED: USER                           _______ _______ _______ _____ _____    ______ ____
DOCKED: ROOT
DOCKED: ATOM      1  O   UNL     1     -40.378 -20.252   7.389 +0.01 -0.00    -0.346 OA 
DOCKED: ATOM      2  C   UNL     1     -41.837 -20.151   7.429 -0.07 +0.00    +0.130 C  
DOCKED: ATOM      3  C   UNL     1     -42.268 -21.427   8.093 -0.16 +0.00    +0.004 A  
DOCKED: ATOM      4  C   UNL     1     -41.151 -22.143   8.498 -0.09 +0.00    +0.006 A  
DOCKED: ATOM      5  C   UNL     1     -39.922 -21.397   8.147 -0.02 +0.00    +0.169 C  
DOCKED: ATOM      6  C   UNL     1     -43.547 -21.909   8.331 -0.32 -0.00    -0.001 A  
DOCKED: ATOM      7  C   UNL     1     -41.271 -23.361   9.146 -0.16 +0.00    +0.008 A  
DOCKED: ATOM      8  C   UNL     1     -43.685 -23.137   8.979 -0.22 +0.00    +0.010 A  
DOCKED: ATOM      9  C   UNL     1     -42.553 -23.859   9.385 -0.30 +0.00    +0.068 A  
DOCKED: ATOM     10  N   UNL     1     -42.844 -26.134  10.591 -2.48 -0.00    -0.191 NA 
DOCKED: ATOM     11  C   UNL     1     -42.713 -25.114  10.050 -0.34 +0.00    +0.101 C  
DOCKED: ENDROOT
DOCKED: BRANCH   2  12
DOCKED: ATOM     12  C   UNL     1     -42.214 -18.909   8.228 -0.05 +0.00    +0.038 C  
DOCKED: BRANCH  12  13
DOCKED: ATOM     13  C   UNL     1     -41.928 -19.097   9.717 -0.05 +0.00    +0.038 C  
DOCKED: BRANCH  13  14
DOCKED: ATOM     14  C   UNL     1     -43.178 -18.835  10.554 -0.07 +0.00    +0.251 C  
DOCKED: BRANCH  14  15
DOCKED: ATOM     15  N   UNL     1     -43.417 -19.944  11.470 -0.09 +0.00    +0.141 N  
DOCKED: ATOM     16  C   UNL     1     -42.197 -20.733  11.654 -0.07 +0.00    +0.285 C  
DOCKED: ATOM     17  C   UNL     1     -43.902 -19.451  12.761 -0.07 +0.00    +0.285 C  
DOCKED: ENDBRANCH  14  15
DOCKED: ENDBRANCH  13  14
DOCKED: ENDBRANCH  12  13
DOCKED: ENDBRANCH   2  12
DOCKED: BRANCH   2  18
DOCKED: ATOM     18  C   UNL     1     -42.306 -20.044   6.016 -0.13 +0.00    +0.006 A  
DOCKED: ATOM     19  C   UNL     1     -43.046 -18.935   5.609 -0.15 +0.00    +0.001 A  
DOCKED: ATOM     20  C   UNL     1     -43.484 -18.836   4.288 -0.21 +0.00    +0.029 A  
DOCKED: ATOM     21  C   UNL     1     -43.180 -19.846   3.376 -0.21 +0.00    +0.140 A  
DOCKED: ATOM     22  C   UNL     1     -42.440 -20.955   3.783 -0.14 +0.00    +0.029 A  
DOCKED: ATOM     23  F   UNL     1     -43.599 -19.750   2.107 -0.11 -0.00    -0.204 F  
DOCKED: ATOM     24  C   UNL     1     -42.002 -21.055   5.105 -0.11 +0.00    +0.001 A  
DOCKED: ENDBRANCH   2  18
DOCKED: TORSDOF 5
DOCKED: TER
DOCKED: ENDMDL
________________________________________________________________________________


    FINAL DOCKED STATE:
    ________________________


Run:   400 / 512
Time taken for this run:   0.002s

DOCKED: MODEL        400
DOCKED: USER    Run = 400
DOCKED: USER
DOCKED: USER    Estimated Free Energy of Binding    =  -4.11 kcal/mol  [=(1)+(2)+(3)-(4)]
DOCKED: USER
DOCKED: USER    (1) Final Intermolecular Energy     =  -5.60 kcal/mol
DOCKED: USER        vdW + Hbond + desolv Energy     =  -5.60 kcal/mol
DOCKED: USER        Electrostatic Energy            =  +0.00 kcal/mol
DOCKED: USER        Moving Ligand-Fixed Receptor    =  -5.60 kcal/mol
DOCKED: USER        Moving Ligand-Moving Receptor   =  +0.00 kcal/mol
DOCKED: USER    (2) Final Total Internal Energy     =  -1.31 kcal/mol
DOCKED: USER    (3) Torsional Free Energy           =  +1.49 kcal/mol
DOCKED: USER    (4) Unbound System's Energy         =  -1.31 kcal/mol
DOCKED: USER
DOCKED: USER
DOCKED: REMARK  5 active torsions:
DOCKED: REMARK  status: ('A' for Active; 'I' for Inactive)
DOCKED: REMARK    1  A    between atoms: C_2  and  C_19 
DOCKED: REMARK    2  A    between atoms: C_2  and  C_11 
DOCKED: REMARK    3  A    between atoms: C_19  and  C_20 
DOCKED: REMARK    4  A    between atoms: C_20  and  C_21 
DOCKED: REMARK    5  A    between atoms: C_21  and  N_22 
DOCKED: USER                              x       y       z     vdW  Elec       q    Type
DOCKED: USER                           _______ _______ _______ _____ _____    ______ ____
DOCKED: ROOT
DOCKED: ATOM      1  O   UNL     1     -40.583 -23.810   4.688 -0.02 -0.00    -0.346 OA 
DOCKED: ATOM      2  C   UNL     1     -40.544 -22.677   5.614 -0.09 +0.00    +0.130 C  
DOCKED: ATOM      3  C   UNL     1     -41.067 -23.245   6.901 -0.12 +0.00    +0.004 A  
DOCKED: ATOM      4  C   UNL     1     -41.282 -24.609   6.756 -0.17 +0.00    +0.006 A  
DOCKED: ATOM      5  C   UNL     1     -40.909 -25.033   5.388 -0.08 +0.00    +0.169 C  
DOCKED: ATOM      6  C   UNL     1     -41.322 -22.609   8.107 -0.12 -0.00    -0.001 A  
DOCKED: ATOM      7  C   UNL     1     -41.760 -25.378   7.803 -0.28 +0.00    +0.008 A  
DOCKED: ATOM      8  C   UNL     1     -41.808 -23.370   9.171 -0.22 +0.00    +0.010 A  
DOCKED: ATOM      9  C   UNL     1     -42.026 -24.748   9.020 -0.30 +0.00    +0.068 A  
DOCKED: ATOM     10  N   UNL     1     -42.925 -26.133  11.016 -2.67 -0.00    -0.191 NA 
DOCKED: ATOM     11  C   UNL     1     -42.522 -25.511  10.121 -0.40 +0.00    +0.101 C  
DOCKED: ENDROOT
DOCKED: BRANCH   2  12
DOCKED: ATOM     12  C   UNL     1     -39.103 -22.192   5.722 -0.02 +0.00    +0.038 C  
DOCKED: BRANCH  12  13
DOCKED: ATOM     13  C   UNL     1     -38.525 -21.852   4.349 -0.01 +0.00    +0.038 C  
DOCKED: BRANCH  13  14
DOCKED: ATOM     14  C   UNL     1     -37.948 -23.094   3.673 -0.00 +0.00    +0.251 C  
DOCKED: BRANCH  14  15
DOCKED: ATOM     15  N   UNL     1     -38.849 -23.569   2.630 -0.02 +0.00    +0.141 N  
DOCKED: ATOM     16  C   UNL     1     -38.703 -22.765   1.416 -0.00 +0.00    +0.285 C  
DOCKED: ATOM     17  C   UNL     1     -38.599 -24.981   2.336 -0.01 +0.00    +0.285 C  
DOCKED: ENDBRANCH  14  15
DOCKED: ENDBRANCH  13  14
DOCKED: ENDBRANCH  12  13
DOCKED: ENDBRANCH   2  12
DOCKED: BRANCH   2  18
DOCKED: ATOM     18  C   UNL     1     -41.427 -21.618   5.044 -0.12 +0.00    +0.006 A  
DOCKED: ATOM     19  C   UNL     1     -41.950 -20.626   5.873 -0.12 +0.00    +0.001 A  
DOCKED: ATOM     20  C   UNL     1     -42.777 -19.637   5.339 -0.16 +0.00    +0.029 A  
DOCKED: ATOM     21  C   UNL     1     -43.078 -19.640   3.978 -0.19 +0.00    +0.140 A  
DOCKED: ATOM     22  C   UNL     1     -42.553 -20.631   3.149 -0.21 +0.00    +0.029 A  
DOCKED: ATOM     23  F   UNL     1     -43.869 -18.689   3.465 -0.11 -0.00    -0.204 F  
DOCKED: ATOM     24  C   UNL     1     -41.727 -21.622   3.682 -0.15 +0.00    +0.001 A  
DOCKED: ENDBRANCH   2  18
DOCKED: TORSDOF 5
DOCKED: TER
DOCKED: ENDMDL
________________________________________________________________________________


    FINAL DOCKED STATE:
    ________________________


Run:   401 / 512
Time taken for this run:   0.002s

DOCKED: MODEL        401
DOCKED: USER    Run = 401
DOCKED: USER
DOCKED: USER    Estimated Free Energy of Binding    =  -5.38 kcal/mol  [=(1)+(2)+(3)-(4)]
DOCKED: USER
DOCKED: USER    (1) Final Intermolecular Energy     =  -6.87 kcal/mol
DOCKED: USER        vdW + Hbond + desolv Energy     =  -6.87 kcal/mol
DOCKED: USER        Electrostatic Energy            =  +0.00 kcal/mol
DOCKED: USER        Moving Ligand-Fixed Receptor    =  -6.87 kcal/mol
DOCKED: USER        Moving Ligand-Moving Receptor   =  +0.00 kcal/mol
DOCKED: USER    (2) Final Total Internal Energy     =  -1.12 kcal/mol
DOCKED: USER    (3) Torsional Free Energy           =  +1.49 kcal/mol
DOCKED: USER    (4) Unbound System's Energy         =  -1.12 kcal/mol
DOCKED: USER
DOCKED: USER
DOCKED: REMARK  5 active torsions:
DOCKED: REMARK  status: ('A' for Active; 'I' for Inactive)
DOCKED: REMARK    1  A    between atoms: C_2  and  C_19 
DOCKED: REMARK    2  A    between atoms: C_2  and  C_11 
DOCKED: REMARK    3  A    between atoms: C_19  and  C_20 
DOCKED: REMARK    4  A    between atoms: C_20  and  C_21 
DOCKED: REMARK    5  A    between atoms: C_21  and  N_22 
DOCKED: USER                              x       y       z     vdW  Elec       q    Type
DOCKED: USER                           _______ _______ _______ _____ _____    ______ ____
DOCKED: ROOT
DOCKED: ATOM      1  O   UNL     1     -48.031 -23.105  14.899 -0.07 -0.00    -0.346 OA 
DOCKED: ATOM      2  C   UNL     1     -49.447 -23.450  15.027 -0.15 +0.00    +0.130 C  
DOCKED: ATOM      3  C   UNL     1     -49.898 -23.655  13.610 -0.26 +0.00    +0.004 A  
DOCKED: ATOM      4  C   UNL     1     -48.811 -23.546  12.754 -0.37 +0.00    +0.006 A  
DOCKED: ATOM      5  C   UNL     1     -47.582 -23.278  13.534 -0.19 +0.00    +0.169 C  
DOCKED: ATOM      6  C   UNL     1     -51.166 -23.928  13.118 -0.28 -0.00    -0.001 A  
DOCKED: ATOM      7  C   UNL     1     -48.953 -23.700  11.386 -0.28 +0.00    +0.008 A  
DOCKED: ATOM      8  C   UNL     1     -51.326 -24.082  11.740 -0.37 +0.00    +0.010 A  
DOCKED: ATOM      9  C   UNL     1     -50.225 -23.968  10.879 -0.41 +0.00    +0.068 A  
DOCKED: ATOM     10  N   UNL     1     -50.557 -24.264   8.326 -3.01 -0.00    -0.191 NA 
DOCKED: ATOM     11  C   UNL     1     -50.408 -24.131   9.471 -0.28 +0.00    +0.101 C  
DOCKED: ENDROOT
DOCKED: BRANCH   2  12
DOCKED: ATOM     12  C   UNL     1     -49.561 -24.712  15.874 -0.27 +0.00    +0.038 C  
DOCKED: BRANCH  12  13
DOCKED: ATOM     13  C   UNL     1     -49.539 -24.386  17.366 -0.20 +0.00    +0.038 C  
DOCKED: BRANCH  13  14
DOCKED: ATOM     14  C   UNL     1     -48.194 -23.790  17.779 -0.10 +0.00    +0.251 C  
DOCKED: BRANCH  14  15
DOCKED: ATOM     15  N   UNL     1     -47.245 -24.851  18.093 -0.16 +0.00    +0.141 N  
DOCKED: ATOM     16  C   UNL     1     -46.219 -24.369  19.020 -0.10 +0.00    +0.285 C  
DOCKED: ATOM     17  C   UNL     1     -47.936 -26.011  18.660 -0.09 +0.00    +0.285 C  
DOCKED: ENDBRANCH  14  15
DOCKED: ENDBRANCH  13  14
DOCKED: ENDBRANCH  12  13
DOCKED: ENDBRANCH   2  12
DOCKED: BRANCH   2  18
DOCKED: ATOM     18  C   UNL     1     -50.119 -22.295  15.690 -0.08 +0.00    +0.006 A  
DOCKED: ATOM     19  C   UNL     1     -49.375 -21.177  16.065 -0.06 +0.00    +0.001 A  
DOCKED: ATOM     20  C   UNL     1     -50.005 -20.097  16.685 -0.02 +0.00    +0.029 A  
DOCKED: ATOM     21  C   UNL     1     -51.377 -20.136  16.928 -0.01 +0.00    +0.140 A  
DOCKED: ATOM     22  C   UNL     1     -52.121 -21.255  16.553 -0.04 +0.00    +0.029 A  
DOCKED: ATOM     23  F   UNL     1     -51.982 -19.099  17.522 +0.01 -0.00    -0.204 F  
DOCKED: ATOM     24  C   UNL     1     -51.492 -22.336  15.933 -0.07 +0.00    +0.001 A  
DOCKED: ENDBRANCH   2  18
DOCKED: TORSDOF 5
DOCKED: TER
DOCKED: ENDMDL
________________________________________________________________________________


    FINAL DOCKED STATE:
    ________________________


Run:   402 / 512
Time taken for this run:   0.002s

DOCKED: MODEL        402
DOCKED: USER    Run = 402
DOCKED: USER
DOCKED: USER    Estimated Free Energy of Binding    =  -4.65 kcal/mol  [=(1)+(2)+(3)-(4)]
DOCKED: USER
DOCKED: USER    (1) Final Intermolecular Energy     =  -6.14 kcal/mol
DOCKED: USER        vdW + Hbond + desolv Energy     =  -6.14 kcal/mol
DOCKED: USER        Electrostatic Energy            =  +0.00 kcal/mol
DOCKED: USER        Moving Ligand-Fixed Receptor    =  -6.14 kcal/mol
DOCKED: USER        Moving Ligand-Moving Receptor   =  +0.00 kcal/mol
DOCKED: USER    (2) Final Total Internal Energy     =  -1.30 kcal/mol
DOCKED: USER    (3) Torsional Free Energy           =  +1.49 kcal/mol
DOCKED: USER    (4) Unbound System's Energy         =  -1.30 kcal/mol
DOCKED: USER
DOCKED: USER
DOCKED: REMARK  5 active torsions:
DOCKED: REMARK  status: ('A' for Active; 'I' for Inactive)
DOCKED: REMARK    1  A    between atoms: C_2  and  C_19 
DOCKED: REMARK    2  A    between atoms: C_2  and  C_11 
DOCKED: REMARK    3  A    between atoms: C_19  and  C_20 
DOCKED: REMARK    4  A    between atoms: C_20  and  C_21 
DOCKED: REMARK    5  A    between atoms: C_21  and  N_22 
DOCKED: USER                              x       y       z     vdW  Elec       q    Type
DOCKED: USER                           _______ _______ _______ _____ _____    ______ ____
DOCKED: ROOT
DOCKED: ATOM      1  O   UNL     1     -49.070 -24.012  15.952 -0.06 -0.00    -0.346 OA 
DOCKED: ATOM      2  C   UNL     1     -48.615 -22.746  15.376 -0.13 +0.00    +0.130 C  
DOCKED: ATOM      3  C   UNL     1     -48.912 -22.890  13.912 -0.26 +0.00    +0.004 A  
DOCKED: ATOM      4  C   UNL     1     -49.580 -24.086  13.686 -0.28 +0.00    +0.006 A  
DOCKED: ATOM      5  C   UNL     1     -49.779 -24.799  14.967 -0.18 +0.00    +0.169 C  
DOCKED: ATOM      6  C   UNL     1     -48.625 -22.027  12.865 -0.32 -0.00    -0.001 A  
DOCKED: ATOM      7  C   UNL     1     -49.977 -24.460  12.414 -0.39 +0.00    +0.008 A  
DOCKED: ATOM      8  C   UNL     1     -49.016 -22.392  11.575 -0.12 +0.00    +0.010 A  
DOCKED: ATOM      9  C   UNL     1     -49.689 -23.602  11.351 -0.39 +0.00    +0.068 A  
DOCKED: ATOM     10  N   UNL     1     -50.404 -24.247   8.946 -2.28 -0.00    -0.191 NA 
DOCKED: ATOM     11  C   UNL     1     -50.083 -23.958  10.025 -0.49 +0.00    +0.101 C  
DOCKED: ENDROOT
DOCKED: BRANCH   2  12
DOCKED: ATOM     12  C   UNL     1     -49.392 -21.611  16.031 -0.07 +0.00    +0.038 C  
DOCKED: BRANCH  12  13
DOCKED: ATOM     13  C   UNL     1     -50.897 -21.873  15.996 -0.08 +0.00    +0.038 C  
DOCKED: BRANCH  13  14
DOCKED: ATOM     14  C   UNL     1     -51.625 -20.788  15.205 -0.05 +0.00    +0.251 C  
DOCKED: BRANCH  14  15
DOCKED: ATOM     15  N   UNL     1     -52.833 -21.330  14.594 -0.11 +0.00    +0.141 N  
DOCKED: ATOM     16  C   UNL     1     -53.358 -20.410  13.584 -0.15 +0.00    +0.285 C  
DOCKED: ATOM     17  C   UNL     1     -52.566 -22.640  13.998 -0.09 +0.00    +0.285 C  
DOCKED: ENDBRANCH  14  15
DOCKED: ENDBRANCH  13  14
DOCKED: ENDBRANCH  12  13
DOCKED: ENDBRANCH   2  12
DOCKED: BRANCH   2  18
DOCKED: ATOM     18  C   UNL     1     -47.155 -22.636  15.665 -0.17 +0.00    +0.006 A  
DOCKED: ATOM     19  C   UNL     1     -46.228 -23.228  14.808 -0.14 +0.00    +0.001 A  
DOCKED: ATOM     20  C   UNL     1     -44.864 -23.125  15.080 -0.08 +0.00    +0.029 A  
DOCKED: ATOM     21  C   UNL     1     -44.428 -22.429  16.206 -0.10 +0.00    +0.140 A  
DOCKED: ATOM     22  C   UNL     1     -45.355 -21.836  17.063 -0.08 +0.00    +0.029 A  
DOCKED: ATOM     23  F   UNL     1     -43.117 -22.328  16.465 -0.01 -0.00    -0.204 F  
DOCKED: ATOM     24  C   UNL     1     -46.720 -21.940  16.792 -0.09 +0.00    +0.001 A  
DOCKED: ENDBRANCH   2  18
DOCKED: TORSDOF 5
DOCKED: TER
DOCKED: ENDMDL
________________________________________________________________________________


    FINAL DOCKED STATE:
    ________________________


Run:   403 / 512
Time taken for this run:   0.002s

DOCKED: MODEL        403
DOCKED: USER    Run = 403
DOCKED: USER
DOCKED: USER    Estimated Free Energy of Binding    =  -4.61 kcal/mol  [=(1)+(2)+(3)-(4)]
DOCKED: USER
DOCKED: USER    (1) Final Intermolecular Energy     =  -6.10 kcal/mol
DOCKED: USER        vdW + Hbond + desolv Energy     =  -6.10 kcal/mol
DOCKED: USER        Electrostatic Energy            =  +0.00 kcal/mol
DOCKED: USER        Moving Ligand-Fixed Receptor    =  -6.10 kcal/mol
DOCKED: USER        Moving Ligand-Moving Receptor   =  +0.00 kcal/mol
DOCKED: USER    (2) Final Total Internal Energy     =  -1.34 kcal/mol
DOCKED: USER    (3) Torsional Free Energy           =  +1.49 kcal/mol
DOCKED: USER    (4) Unbound System's Energy         =  -1.34 kcal/mol
DOCKED: USER
DOCKED: USER
DOCKED: REMARK  5 active torsions:
DOCKED: REMARK  status: ('A' for Active; 'I' for Inactive)
DOCKED: REMARK    1  A    between atoms: C_2  and  C_19 
DOCKED: REMARK    2  A    between atoms: C_2  and  C_11 
DOCKED: REMARK    3  A    between atoms: C_19  and  C_20 
DOCKED: REMARK    4  A    between atoms: C_20  and  C_21 
DOCKED: REMARK    5  A    between atoms: C_21  and  N_22 
DOCKED: USER                              x       y       z     vdW  Elec       q    Type
DOCKED: USER                           _______ _______ _______ _____ _____    ______ ____
DOCKED: ROOT
DOCKED: ATOM      1  O   UNL     1     -46.587 -15.593   7.972 -0.09 -0.00    -0.346 OA 
DOCKED: ATOM      2  C   UNL     1     -45.260 -15.413   7.382 -0.18 +0.00    +0.130 C  
DOCKED: ATOM      3  C   UNL     1     -45.538 -14.730   6.074 -0.25 +0.00    +0.004 A  
DOCKED: ATOM      4  C   UNL     1     -46.892 -14.444   5.975 -0.23 +0.00    +0.006 A  
DOCKED: ATOM      5  C   UNL     1     -47.592 -14.900   7.196 -0.05 +0.00    +0.169 C  
DOCKED: ATOM      6  C   UNL     1     -44.660 -14.379   5.059 -0.22 -0.00    -0.001 A  
DOCKED: ATOM      7  C   UNL     1     -47.414 -13.806   4.863 -0.29 +0.00    +0.008 A  
DOCKED: ATOM      8  C   UNL     1     -45.172 -13.738   3.929 -0.28 +0.00    +0.010 A  
DOCKED: ATOM      9  C   UNL     1     -46.542 -13.453   3.832 -0.30 +0.00    +0.068 A  
DOCKED: ATOM     10  N   UNL     1     -47.459 -12.259   1.723 -2.42 -0.00    -0.191 NA 
DOCKED: ATOM     11  C   UNL     1     -47.048 -12.795   2.669 -0.34 +0.00    +0.101 C  
DOCKED: ENDROOT
DOCKED: BRANCH   2  12
DOCKED: ATOM     12  C   UNL     1     -44.422 -14.563   8.329 -0.17 +0.00    +0.038 C  
DOCKED: BRANCH  12  13
DOCKED: ATOM     13  C   UNL     1     -44.502 -15.084   9.763 -0.13 +0.00    +0.038 C  
DOCKED: BRANCH  13  14
DOCKED: ATOM     14  C   UNL     1     -45.618 -14.387  10.539 -0.11 +0.00    +0.251 C  
DOCKED: BRANCH  14  15
DOCKED: ATOM     15  N   UNL     1     -46.446 -15.369  11.229 -0.06 +0.00    +0.141 N  
DOCKED: ATOM     16  C   UNL     1     -46.035 -16.729  10.876 -0.06 +0.00    +0.285 C  
DOCKED: ATOM     17  C   UNL     1     -46.374 -15.177  12.678 -0.02 +0.00    +0.285 C  
DOCKED: ENDBRANCH  14  15
DOCKED: ENDBRANCH  13  14
DOCKED: ENDBRANCH  12  13
DOCKED: ENDBRANCH   2  12
DOCKED: BRANCH   2  18
DOCKED: ATOM     18  C   UNL     1     -44.669 -16.773   7.213 -0.13 +0.00    +0.006 A  
DOCKED: ATOM     19  C   UNL     1     -45.356 -17.894   7.679 -0.20 +0.00    +0.001 A  
DOCKED: ATOM     20  C   UNL     1     -44.802 -19.165   7.521 -0.23 +0.00    +0.029 A  
DOCKED: ATOM     21  C   UNL     1     -43.564 -19.313   6.898 -0.14 +0.00    +0.140 A  
DOCKED: ATOM     22  C   UNL     1     -42.878 -18.192   6.432 -0.07 +0.00    +0.029 A  
DOCKED: ATOM     23  F   UNL     1     -43.034 -20.534   6.745 -0.06 -0.00    -0.204 F  
DOCKED: ATOM     24  C   UNL     1     -43.431 -16.920   6.590 -0.07 +0.00    +0.001 A  
DOCKED: ENDBRANCH   2  18
DOCKED: TORSDOF 5
DOCKED: TER
DOCKED: ENDMDL
________________________________________________________________________________


    FINAL DOCKED STATE:
    ________________________


Run:   404 / 512
Time taken for this run:   0.002s

DOCKED: MODEL        404
DOCKED: USER    Run = 404
DOCKED: USER
DOCKED: USER    Estimated Free Energy of Binding    =  -4.23 kcal/mol  [=(1)+(2)+(3)-(4)]
DOCKED: USER
DOCKED: USER    (1) Final Intermolecular Energy     =  -5.72 kcal/mol
DOCKED: USER        vdW + Hbond + desolv Energy     =  -5.72 kcal/mol
DOCKED: USER        Electrostatic Energy            =  +0.00 kcal/mol
DOCKED: USER        Moving Ligand-Fixed Receptor    =  -5.72 kcal/mol
DOCKED: USER        Moving Ligand-Moving Receptor   =  +0.00 kcal/mol
DOCKED: USER    (2) Final Total Internal Energy     =  -1.22 kcal/mol
DOCKED: USER    (3) Torsional Free Energy           =  +1.49 kcal/mol
DOCKED: USER    (4) Unbound System's Energy         =  -1.22 kcal/mol
DOCKED: USER
DOCKED: USER
DOCKED: REMARK  5 active torsions:
DOCKED: REMARK  status: ('A' for Active; 'I' for Inactive)
DOCKED: REMARK    1  A    between atoms: C_2  and  C_19 
DOCKED: REMARK    2  A    between atoms: C_2  and  C_11 
DOCKED: REMARK    3  A    between atoms: C_19  and  C_20 
DOCKED: REMARK    4  A    between atoms: C_20  and  C_21 
DOCKED: REMARK    5  A    between atoms: C_21  and  N_22 
DOCKED: USER                              x       y       z     vdW  Elec       q    Type
DOCKED: USER                           _______ _______ _______ _____ _____    ______ ____
DOCKED: ROOT
DOCKED: ATOM      1  O   UNL     1     -40.748 -22.982   4.921 -0.02 -0.00    -0.346 OA 
DOCKED: ATOM      2  C   UNL     1     -40.917 -21.935   5.930 -0.09 +0.00    +0.130 C  
DOCKED: ATOM      3  C   UNL     1     -41.388 -22.679   7.146 -0.13 +0.00    +0.004 A  
DOCKED: ATOM      4  C   UNL     1     -41.383 -24.042   6.890 -0.16 +0.00    +0.006 A  
DOCKED: ATOM      5  C   UNL     1     -40.904 -24.293   5.512 -0.09 +0.00    +0.169 C  
DOCKED: ATOM      6  C   UNL     1     -41.778 -22.188   8.383 -0.15 -0.00    -0.001 A  
DOCKED: ATOM      7  C   UNL     1     -41.770 -24.958   7.853 -0.27 +0.00    +0.008 A  
DOCKED: ATOM      8  C   UNL     1     -42.176 -23.098   9.364 -0.25 +0.00    +0.010 A  
DOCKED: ATOM      9  C   UNL     1     -42.171 -24.476   9.100 -0.30 +0.00    +0.068 A  
DOCKED: ATOM     10  N   UNL     1     -42.910 -26.138  10.945 -2.67 -0.00    -0.191 NA 
DOCKED: ATOM     11  C   UNL     1     -42.579 -25.393  10.118 -0.40 +0.00    +0.101 C  
DOCKED: ENDROOT
DOCKED: BRANCH   2  12
DOCKED: ATOM     12  C   UNL     1     -39.573 -21.246   6.139 -0.02 +0.00    +0.038 C  
DOCKED: BRANCH  12  13
DOCKED: ATOM     13  C   UNL     1     -38.552 -21.687   5.092 -0.01 +0.00    +0.038 C  
DOCKED: BRANCH  13  14
DOCKED: ATOM     14  C   UNL     1     -37.556 -22.684   5.682 -0.00 +0.00    +0.251 C  
DOCKED: BRANCH  14  15
DOCKED: ATOM     15  N   UNL     1     -37.839 -24.030   5.201 -0.01 +0.00    +0.141 N  
DOCKED: ATOM     16  C   UNL     1     -37.433 -24.174   3.802 -0.00 +0.00    +0.285 C  
DOCKED: ATOM     17  C   UNL     1     -37.162 -25.028   6.031 -0.01 +0.00    +0.285 C  
DOCKED: ENDBRANCH  14  15
DOCKED: ENDBRANCH  13  14
DOCKED: ENDBRANCH  12  13
DOCKED: ENDBRANCH   2  12
DOCKED: BRANCH   2  18
DOCKED: ATOM     18  C   UNL     1     -41.935 -20.980   5.401 -0.12 +0.00    +0.006 A  
DOCKED: ATOM     19  C   UNL     1     -42.660 -20.178   6.281 -0.15 +0.00    +0.001 A  
DOCKED: ATOM     20  C   UNL     1     -43.612 -19.286   5.785 -0.19 +0.00    +0.029 A  
DOCKED: ATOM     21  C   UNL     1     -43.836 -19.197   4.412 -0.16 +0.00    +0.140 A  
DOCKED: ATOM     22  C   UNL     1     -43.110 -19.999   3.533 -0.22 +0.00    +0.029 A  
DOCKED: ATOM     23  F   UNL     1     -44.748 -18.339   3.937 -0.11 -0.00    -0.204 F  
DOCKED: ATOM     24  C   UNL     1     -42.158 -20.892   4.028 -0.17 +0.00    +0.001 A  
DOCKED: ENDBRANCH   2  18
DOCKED: TORSDOF 5
DOCKED: TER
DOCKED: ENDMDL
________________________________________________________________________________


    FINAL DOCKED STATE:
    ________________________


Run:   405 / 512
Time taken for this run:   0.002s

DOCKED: MODEL        405
DOCKED: USER    Run = 405
DOCKED: USER
DOCKED: USER    Estimated Free Energy of Binding    =  -3.91 kcal/mol  [=(1)+(2)+(3)-(4)]
DOCKED: USER
DOCKED: USER    (1) Final Intermolecular Energy     =  -5.40 kcal/mol
DOCKED: USER        vdW + Hbond + desolv Energy     =  -5.40 kcal/mol
DOCKED: USER        Electrostatic Energy            =  +0.00 kcal/mol
DOCKED: USER        Moving Ligand-Fixed Receptor    =  -5.40 kcal/mol
DOCKED: USER        Moving Ligand-Moving Receptor   =  +0.00 kcal/mol
DOCKED: USER    (2) Final Total Internal Energy     =  -1.39 kcal/mol
DOCKED: USER    (3) Torsional Free Energy           =  +1.49 kcal/mol
DOCKED: USER    (4) Unbound System's Energy         =  -1.39 kcal/mol
DOCKED: USER
DOCKED: USER
DOCKED: REMARK  5 active torsions:
DOCKED: REMARK  status: ('A' for Active; 'I' for Inactive)
DOCKED: REMARK    1  A    between atoms: C_2  and  C_19 
DOCKED: REMARK    2  A    between atoms: C_2  and  C_11 
DOCKED: REMARK    3  A    between atoms: C_19  and  C_20 
DOCKED: REMARK    4  A    between atoms: C_20  and  C_21 
DOCKED: REMARK    5  A    between atoms: C_21  and  N_22 
DOCKED: USER                              x       y       z     vdW  Elec       q    Type
DOCKED: USER                           _______ _______ _______ _____ _____    ______ ____
DOCKED: ROOT
DOCKED: ATOM      1  O   UNL     1     -44.365 -15.450   7.209 -0.04 -0.00    -0.346 OA 
DOCKED: ATOM      2  C   UNL     1     -45.781 -15.467   6.839 -0.23 +0.00    +0.130 C  
DOCKED: ATOM      3  C   UNL     1     -45.859 -14.523   5.674 -0.29 +0.00    +0.004 A  
DOCKED: ATOM      4  C   UNL     1     -44.584 -14.091   5.337 -0.20 +0.00    +0.006 A  
DOCKED: ATOM      5  C   UNL     1     -43.588 -14.718   6.233 -0.11 +0.00    +0.169 C  
DOCKED: ATOM      6  C   UNL     1     -46.968 -14.091   4.961 -0.30 -0.00    -0.001 A  
DOCKED: ATOM      7  C   UNL     1     -44.375 -13.214   4.287 -0.21 +0.00    +0.008 A  
DOCKED: ATOM      8  C   UNL     1     -46.774 -13.203   3.902 -0.41 +0.00    +0.010 A  
DOCKED: ATOM      9  C   UNL     1     -45.484 -12.767   3.566 -0.31 +0.00    +0.068 A  
DOCKED: ATOM     10  N   UNL     1     -45.158 -11.122   1.591 -0.77 -0.00    -0.191 NA 
DOCKED: ATOM     11  C   UNL     1     -45.304 -11.859   2.477 -0.38 +0.00    +0.101 C  
DOCKED: ENDROOT
DOCKED: BRANCH   2  12
DOCKED: ATOM     12  C   UNL     1     -46.167 -16.895   6.472 -0.12 +0.00    +0.038 C  
DOCKED: BRANCH  12  13
DOCKED: ATOM     13  C   UNL     1     -46.047 -17.830   7.674 -0.25 +0.00    +0.038 C  
DOCKED: BRANCH  13  14
DOCKED: ATOM     14  C   UNL     1     -44.863 -18.782   7.514 -0.17 +0.00    +0.251 C  
DOCKED: BRANCH  14  15
DOCKED: ATOM     15  N   UNL     1     -43.851 -18.190   6.647 -0.11 +0.00    +0.141 N  
DOCKED: ATOM     16  C   UNL     1     -42.558 -18.127   7.332 -0.02 +0.00    +0.285 C  
DOCKED: ATOM     17  C   UNL     1     -43.729 -18.950   5.403 -0.15 +0.00    +0.285 C  
DOCKED: ENDBRANCH  14  15
DOCKED: ENDBRANCH  13  14
DOCKED: ENDBRANCH  12  13
DOCKED: ENDBRANCH   2  12
DOCKED: BRANCH   2  18
DOCKED: ATOM     18  C   UNL     1     -46.549 -14.989   8.026 -0.26 +0.00    +0.006 A  
DOCKED: ATOM     19  C   UNL     1     -45.872 -14.490   9.138 -0.21 +0.00    +0.001 A  
DOCKED: ATOM     20  C   UNL     1     -46.591 -14.044  10.248 -0.19 +0.00    +0.029 A  
DOCKED: ATOM     21  C   UNL     1     -47.984 -14.098  10.244 -0.14 +0.00    +0.140 A  
DOCKED: ATOM     22  C   UNL     1     -48.660 -14.597   9.131 -0.26 +0.00    +0.029 A  
DOCKED: ATOM     23  F   UNL     1     -48.673 -13.668  11.309 -0.00 -0.00    -0.204 F  
DOCKED: ATOM     24  C   UNL     1     -47.942 -15.044   8.021 -0.28 +0.00    +0.001 A  
DOCKED: ENDBRANCH   2  18
DOCKED: TORSDOF 5
DOCKED: TER
DOCKED: ENDMDL
________________________________________________________________________________


    FINAL DOCKED STATE:
    ________________________


Run:   406 / 512
Time taken for this run:   0.002s

DOCKED: MODEL        406
DOCKED: USER    Run = 406
DOCKED: USER
DOCKED: USER    Estimated Free Energy of Binding    =  -3.98 kcal/mol  [=(1)+(2)+(3)-(4)]
DOCKED: USER
DOCKED: USER    (1) Final Intermolecular Energy     =  -5.47 kcal/mol
DOCKED: USER        vdW + Hbond + desolv Energy     =  -5.47 kcal/mol
DOCKED: USER        Electrostatic Energy            =  +0.00 kcal/mol
DOCKED: USER        Moving Ligand-Fixed Receptor    =  -5.47 kcal/mol
DOCKED: USER        Moving Ligand-Moving Receptor   =  +0.00 kcal/mol
DOCKED: USER    (2) Final Total Internal Energy     =  -1.41 kcal/mol
DOCKED: USER    (3) Torsional Free Energy           =  +1.49 kcal/mol
DOCKED: USER    (4) Unbound System's Energy         =  -1.41 kcal/mol
DOCKED: USER
DOCKED: USER
DOCKED: REMARK  5 active torsions:
DOCKED: REMARK  status: ('A' for Active; 'I' for Inactive)
DOCKED: REMARK    1  A    between atoms: C_2  and  C_19 
DOCKED: REMARK    2  A    between atoms: C_2  and  C_11 
DOCKED: REMARK    3  A    between atoms: C_19  and  C_20 
DOCKED: REMARK    4  A    between atoms: C_20  and  C_21 
DOCKED: REMARK    5  A    between atoms: C_21  and  N_22 
DOCKED: USER                              x       y       z     vdW  Elec       q    Type
DOCKED: USER                           _______ _______ _______ _____ _____    ______ ____
DOCKED: ROOT
DOCKED: ATOM      1  O   UNL     1     -46.415 -20.683  15.439 -0.04 -0.00    -0.346 OA 
DOCKED: ATOM      2  C   UNL     1     -47.522 -20.031  14.739 -0.11 +0.00    +0.130 C  
DOCKED: ATOM      3  C   UNL     1     -48.211 -21.159  14.026 -0.22 +0.00    +0.004 A  
DOCKED: ATOM      4  C   UNL     1     -47.617 -22.364  14.374 -0.24 +0.00    +0.006 A  
DOCKED: ATOM      5  C   UNL     1     -46.520 -22.123  15.338 -0.15 +0.00    +0.169 C  
DOCKED: ATOM      6  C   UNL     1     -49.284 -21.122  13.147 -0.26 -0.00    -0.001 A  
DOCKED: ATOM      7  C   UNL     1     -48.069 -23.566  13.857 -0.33 +0.00    +0.008 A  
DOCKED: ATOM      8  C   UNL     1     -49.748 -22.325  12.614 -0.29 +0.00    +0.010 A  
DOCKED: ATOM      9  C   UNL     1     -49.144 -23.541  12.968 -0.31 +0.00    +0.068 A  
DOCKED: ATOM     10  N   UNL     1     -50.034 -25.757  11.964 -2.54 -0.00    -0.191 NA 
DOCKED: ATOM     11  C   UNL     1     -49.635 -24.763  12.414 -0.33 +0.00    +0.101 C  
DOCKED: ENDROOT
DOCKED: BRANCH   2  12
DOCKED: ATOM     12  C   UNL     1     -48.413 -19.352  15.773 -0.05 +0.00    +0.038 C  
DOCKED: BRANCH  12  13
DOCKED: ATOM     13  C   UNL     1     -47.686 -19.178  17.105 -0.01 +0.00    +0.038 C  
DOCKED: BRANCH  13  14
DOCKED: ATOM     14  C   UNL     1     -47.358 -17.709  17.364 -0.00 +0.00    +0.251 C  
DOCKED: BRANCH  14  15
DOCKED: ATOM     15  N   UNL     1     -45.938 -17.550  17.654 -0.00 +0.00    +0.141 N  
DOCKED: ATOM     16  C   UNL     1     -45.204 -18.772  17.325 -0.00 +0.00    +0.285 C  
DOCKED: ATOM     17  C   UNL     1     -45.385 -16.412  16.917 -0.00 +0.00    +0.285 C  
DOCKED: ENDBRANCH  14  15
DOCKED: ENDBRANCH  13  14
DOCKED: ENDBRANCH  12  13
DOCKED: ENDBRANCH   2  12
DOCKED: BRANCH   2  18
DOCKED: ATOM     18  C   UNL     1     -46.922 -19.033  13.806 -0.14 +0.00    +0.006 A  
DOCKED: ATOM     19  C   UNL     1     -47.152 -17.672  14.001 -0.08 +0.00    +0.001 A  
DOCKED: ATOM     20  C   UNL     1     -46.590 -16.739  13.128 -0.06 +0.00    +0.029 A  
DOCKED: ATOM     21  C   UNL     1     -45.800 -17.169  12.063 -0.07 +0.00    +0.140 A  
DOCKED: ATOM     22  C   UNL     1     -45.570 -18.531  11.869 -0.14 +0.00    +0.029 A  
DOCKED: ATOM     23  F   UNL     1     -45.260 -16.274  11.226 -0.01 -0.00    -0.204 F  
DOCKED: ATOM     24  C   UNL     1     -46.132 -19.464  12.742 -0.10 +0.00    +0.001 A  
DOCKED: ENDBRANCH   2  18
DOCKED: TORSDOF 5
DOCKED: TER
DOCKED: ENDMDL
________________________________________________________________________________


    FINAL DOCKED STATE:
    ________________________


Run:   407 / 512
Time taken for this run:   0.002s

DOCKED: MODEL        407
DOCKED: USER    Run = 407
DOCKED: USER
DOCKED: USER    Estimated Free Energy of Binding    =  -3.77 kcal/mol  [=(1)+(2)+(3)-(4)]
DOCKED: USER
DOCKED: USER    (1) Final Intermolecular Energy     =  -5.26 kcal/mol
DOCKED: USER        vdW + Hbond + desolv Energy     =  -5.26 kcal/mol
DOCKED: USER        Electrostatic Energy            =  +0.00 kcal/mol
DOCKED: USER        Moving Ligand-Fixed Receptor    =  -5.26 kcal/mol
DOCKED: USER        Moving Ligand-Moving Receptor   =  +0.00 kcal/mol
DOCKED: USER    (2) Final Total Internal Energy     =  -1.44 kcal/mol
DOCKED: USER    (3) Torsional Free Energy           =  +1.49 kcal/mol
DOCKED: USER    (4) Unbound System's Energy         =  -1.44 kcal/mol
DOCKED: USER
DOCKED: USER
DOCKED: REMARK  5 active torsions:
DOCKED: REMARK  status: ('A' for Active; 'I' for Inactive)
DOCKED: REMARK    1  A    between atoms: C_2  and  C_19 
DOCKED: REMARK    2  A    between atoms: C_2  and  C_11 
DOCKED: REMARK    3  A    between atoms: C_19  and  C_20 
DOCKED: REMARK    4  A    between atoms: C_20  and  C_21 
DOCKED: REMARK    5  A    between atoms: C_21  and  N_22 
DOCKED: USER                              x       y       z     vdW  Elec       q    Type
DOCKED: USER                           _______ _______ _______ _____ _____    ______ ____
DOCKED: ROOT
DOCKED: ATOM      1  O   UNL     1     -49.410 -18.841  13.788 -0.09 -0.00    -0.346 OA 
DOCKED: ATOM      2  C   UNL     1     -48.109 -19.505  13.884 -0.16 +0.00    +0.130 C  
DOCKED: ATOM      3  C   UNL     1     -48.414 -20.941  13.571 -0.25 +0.00    +0.004 A  
DOCKED: ATOM      4  C   UNL     1     -49.750 -21.069  13.218 -0.25 +0.00    +0.006 A  
DOCKED: ATOM      5  C   UNL     1     -50.409 -19.744  13.260 -0.15 +0.00    +0.169 C  
DOCKED: ATOM      6  C   UNL     1     -47.574 -22.045  13.586 -0.18 -0.00    -0.001 A  
DOCKED: ATOM      7  C   UNL     1     -50.291 -22.296  12.874 -0.25 +0.00    +0.008 A  
DOCKED: ATOM      8  C   UNL     1     -48.105 -23.290  13.246 -0.32 +0.00    +0.010 A  
DOCKED: ATOM      9  C   UNL     1     -49.456 -23.415  12.891 -0.30 +0.00    +0.068 A  
DOCKED: ATOM     10  N   UNL     1     -50.409 -25.740  12.260 -2.54 -0.00    -0.191 NA 
DOCKED: ATOM     11  C   UNL     1     -49.982 -24.697  12.544 -0.32 +0.00    +0.101 C  
DOCKED: ENDROOT
DOCKED: BRANCH   2  12
DOCKED: ATOM     12  C   UNL     1     -47.164 -18.865  12.874 -0.15 +0.00    +0.038 C  
DOCKED: BRANCH  12  13
DOCKED: ATOM     13  C   UNL     1     -47.130 -17.346  13.029 -0.11 +0.00    +0.038 C  
DOCKED: BRANCH  13  14
DOCKED: ATOM     14  C   UNL     1     -45.747 -16.870  13.471 -0.03 +0.00    +0.251 C  
DOCKED: BRANCH  14  15
DOCKED: ATOM     15  N   UNL     1     -45.768 -16.486  14.877 -0.01 +0.00    +0.141 N  
DOCKED: ATOM     16  C   UNL     1     -44.499 -15.866  15.262 -0.00 +0.00    +0.285 C  
DOCKED: ATOM     17  C   UNL     1     -46.881 -15.574  15.146 -0.00 +0.00    +0.285 C  
DOCKED: ENDBRANCH  14  15
DOCKED: ENDBRANCH  13  14
DOCKED: ENDBRANCH  12  13
DOCKED: ENDBRANCH   2  12
DOCKED: BRANCH   2  18
DOCKED: ATOM     18  C   UNL     1     -47.620 -19.305  15.280 -0.06 +0.00    +0.006 A  
DOCKED: ATOM     19  C   UNL     1     -48.438 -18.683  16.222 -0.02 +0.00    +0.001 A  
DOCKED: ATOM     20  C   UNL     1     -47.979 -18.497  17.527 -0.00 +0.00    +0.029 A  
DOCKED: ATOM     21  C   UNL     1     -46.705 -18.933  17.887 -0.00 +0.00    +0.140 A  
DOCKED: ATOM     22  C   UNL     1     -45.888 -19.556  16.944 -0.02 +0.00    +0.029 A  
DOCKED: ATOM     23  F   UNL     1     -46.266 -18.756  19.140 -0.00 -0.00    -0.204 F  
DOCKED: ATOM     24  C   UNL     1     -46.345 -19.742  15.639 -0.06 +0.00    +0.001 A  
DOCKED: ENDBRANCH   2  18
DOCKED: TORSDOF 5
DOCKED: TER
DOCKED: ENDMDL
________________________________________________________________________________


    FINAL DOCKED STATE:
    ________________________


Run:   408 / 512
Time taken for this run:   0.002s

DOCKED: MODEL        408
DOCKED: USER    Run = 408
DOCKED: USER
DOCKED: USER    Estimated Free Energy of Binding    =  -3.68 kcal/mol  [=(1)+(2)+(3)-(4)]
DOCKED: USER
DOCKED: USER    (1) Final Intermolecular Energy     =  -5.17 kcal/mol
DOCKED: USER        vdW + Hbond + desolv Energy     =  -5.17 kcal/mol
DOCKED: USER        Electrostatic Energy            =  +0.00 kcal/mol
DOCKED: USER        Moving Ligand-Fixed Receptor    =  -5.17 kcal/mol
DOCKED: USER        Moving Ligand-Moving Receptor   =  +0.00 kcal/mol
DOCKED: USER    (2) Final Total Internal Energy     =  -1.38 kcal/mol
DOCKED: USER    (3) Torsional Free Energy           =  +1.49 kcal/mol
DOCKED: USER    (4) Unbound System's Energy         =  -1.38 kcal/mol
DOCKED: USER
DOCKED: USER
DOCKED: REMARK  5 active torsions:
DOCKED: REMARK  status: ('A' for Active; 'I' for Inactive)
DOCKED: REMARK    1  A    between atoms: C_2  and  C_19 
DOCKED: REMARK    2  A    between atoms: C_2  and  C_11 
DOCKED: REMARK    3  A    between atoms: C_19  and  C_20 
DOCKED: REMARK    4  A    between atoms: C_20  and  C_21 
DOCKED: REMARK    5  A    between atoms: C_21  and  N_22 
DOCKED: USER                              x       y       z     vdW  Elec       q    Type
DOCKED: USER                           _______ _______ _______ _____ _____    ______ ____
DOCKED: ROOT
DOCKED: ATOM      1  O   UNL     1     -43.821 -16.505   5.675 -0.01 -0.00    -0.346 OA 
DOCKED: ATOM      2  C   UNL     1     -43.072 -16.353   4.427 -0.08 +0.00    +0.130 C  
DOCKED: ATOM      3  C   UNL     1     -43.901 -15.391   3.626 -0.16 +0.00    +0.004 A  
DOCKED: ATOM      4  C   UNL     1     -44.970 -14.947   4.390 -0.23 +0.00    +0.006 A  
DOCKED: ATOM      5  C   UNL     1     -44.918 -15.564   5.734 -0.18 +0.00    +0.169 C  
DOCKED: ATOM      6  C   UNL     1     -43.717 -14.937   2.328 -0.16 -0.00    -0.001 A  
DOCKED: ATOM      7  C   UNL     1     -45.890 -14.043   3.887 -0.18 +0.00    +0.008 A  
DOCKED: ATOM      8  C   UNL     1     -44.638 -14.028   1.804 -0.19 +0.00    +0.010 A  
DOCKED: ATOM      9  C   UNL     1     -45.718 -13.583   2.580 +0.08 +0.00    +0.068 A  
DOCKED: ATOM     10  N   UNL     1     -47.407 -11.892   1.579 -2.37 -0.00    -0.191 NA 
DOCKED: ATOM     11  C   UNL     1     -46.650 -12.651   2.028 -0.36 +0.00    +0.101 C  
DOCKED: ENDROOT
DOCKED: BRANCH   2  12
DOCKED: ATOM     12  C   UNL     1     -41.687 -15.809   4.758 -0.02 +0.00    +0.038 C  
DOCKED: BRANCH  12  13
DOCKED: ATOM     13  C   UNL     1     -41.635 -14.290   4.611 -0.03 +0.00    +0.038 C  
DOCKED: BRANCH  13  14
DOCKED: ATOM     14  C   UNL     1     -40.938 -13.646   5.808 -0.02 +0.00    +0.251 C  
DOCKED: BRANCH  14  15
DOCKED: ATOM     15  N   UNL     1     -41.860 -12.769   6.521 -0.10 +0.00    +0.141 N  
DOCKED: ATOM     16  C   UNL     1     -42.847 -12.202   5.601 -0.10 +0.00    +0.285 C  
DOCKED: ATOM     17  C   UNL     1     -42.530 -13.494   7.601 -0.07 +0.00    +0.285 C  
DOCKED: ENDBRANCH  14  15
DOCKED: ENDBRANCH  13  14
DOCKED: ENDBRANCH  12  13
DOCKED: ENDBRANCH   2  12
DOCKED: BRANCH   2  18
DOCKED: ATOM     18  C   UNL     1     -42.984 -17.705   3.803 -0.12 +0.00    +0.006 A  
DOCKED: ATOM     19  C   UNL     1     -44.149 -18.396   3.471 -0.23 +0.00    +0.001 A  
DOCKED: ATOM     20  C   UNL     1     -44.066 -19.661   2.887 -0.22 +0.00    +0.029 A  
DOCKED: ATOM     21  C   UNL     1     -42.819 -20.233   2.636 -0.20 +0.00    +0.140 A  
DOCKED: ATOM     22  C   UNL     1     -41.655 -19.541   2.968 -0.07 +0.00    +0.029 A  
DOCKED: ATOM     23  F   UNL     1     -42.740 -21.446   2.075 -0.11 -0.00    -0.204 F  
DOCKED: ATOM     24  C   UNL     1     -41.737 -18.276   3.552 -0.04 +0.00    +0.001 A  
DOCKED: ENDBRANCH   2  18
DOCKED: TORSDOF 5
DOCKED: TER
DOCKED: ENDMDL
________________________________________________________________________________


    FINAL DOCKED STATE:
    ________________________


Run:   409 / 512
Time taken for this run:   0.002s

DOCKED: MODEL        409
DOCKED: USER    Run = 409
DOCKED: USER
DOCKED: USER    Estimated Free Energy of Binding    =  -3.90 kcal/mol  [=(1)+(2)+(3)-(4)]
DOCKED: USER
DOCKED: USER    (1) Final Intermolecular Energy     =  -5.39 kcal/mol
DOCKED: USER        vdW + Hbond + desolv Energy     =  -5.39 kcal/mol
DOCKED: USER        Electrostatic Energy            =  +0.00 kcal/mol
DOCKED: USER        Moving Ligand-Fixed Receptor    =  -5.39 kcal/mol
DOCKED: USER        Moving Ligand-Moving Receptor   =  +0.00 kcal/mol
DOCKED: USER    (2) Final Total Internal Energy     =  -1.45 kcal/mol
DOCKED: USER    (3) Torsional Free Energy           =  +1.49 kcal/mol
DOCKED: USER    (4) Unbound System's Energy         =  -1.45 kcal/mol
DOCKED: USER
DOCKED: USER
DOCKED: REMARK  5 active torsions:
DOCKED: REMARK  status: ('A' for Active; 'I' for Inactive)
DOCKED: REMARK    1  A    between atoms: C_2  and  C_19 
DOCKED: REMARK    2  A    between atoms: C_2  and  C_11 
DOCKED: REMARK    3  A    between atoms: C_19  and  C_20 
DOCKED: REMARK    4  A    between atoms: C_20  and  C_21 
DOCKED: REMARK    5  A    between atoms: C_21  and  N_22 
DOCKED: USER                              x       y       z     vdW  Elec       q    Type
DOCKED: USER                           _______ _______ _______ _____ _____    ______ ____
DOCKED: ROOT
DOCKED: ATOM      1  O   UNL     1     -46.438 -22.772  17.134 -0.05 -0.00    -0.346 OA 
DOCKED: ATOM      2  C   UNL     1     -46.306 -21.903  15.964 -0.12 +0.00    +0.130 C  
DOCKED: ATOM      3  C   UNL     1     -47.210 -22.533  14.945 -0.22 +0.00    +0.004 A  
DOCKED: ATOM      4  C   UNL     1     -47.884 -23.603  15.516 -0.21 +0.00    +0.006 A  
DOCKED: ATOM      5  C   UNL     1     -47.489 -23.746  16.935 -0.11 +0.00    +0.169 C  
DOCKED: ATOM      6  C   UNL     1     -47.427 -22.180  13.621 -0.14 -0.00    -0.001 A  
DOCKED: ATOM      7  C   UNL     1     -48.789 -24.356  14.788 -0.28 +0.00    +0.008 A  
DOCKED: ATOM      8  C   UNL     1     -48.334 -22.932  12.872 -0.31 +0.00    +0.010 A  
DOCKED: ATOM      9  C   UNL     1     -49.012 -24.014  13.453 -0.29 +0.00    +0.068 A  
DOCKED: ATOM     10  N   UNL     1     -50.692 -25.387  12.036 -2.32 -0.00    -0.191 NA 
DOCKED: ATOM     11  C   UNL     1     -49.938 -24.772  12.672 -0.22 +0.00    +0.101 C  
DOCKED: ENDROOT
DOCKED: BRANCH   2  12
DOCKED: ATOM     12  C   UNL     1     -46.743 -20.496  16.356 -0.06 +0.00    +0.038 C  
DOCKED: BRANCH  12  13
DOCKED: ATOM     13  C   UNL     1     -48.252 -20.424  16.580 -0.04 +0.00    +0.038 C  
DOCKED: BRANCH  13  14
DOCKED: ATOM     14  C   UNL     1     -48.956 -19.790  15.382 -0.04 +0.00    +0.251 C  
DOCKED: BRANCH  14  15
DOCKED: ATOM     15  N   UNL     1     -49.927 -20.717  14.815 -0.08 +0.00    +0.141 N  
DOCKED: ATOM     16  C   UNL     1     -50.913 -21.113  15.822 -0.01 +0.00    +0.285 C  
DOCKED: ATOM     17  C   UNL     1     -50.595 -20.120  13.657 -0.15 +0.00    +0.285 C  
DOCKED: ENDBRANCH  14  15
DOCKED: ENDBRANCH  13  14
DOCKED: ENDBRANCH  12  13
DOCKED: ENDBRANCH   2  12
DOCKED: BRANCH   2  18
DOCKED: ATOM     18  C   UNL     1     -44.869 -21.927  15.562 -0.15 +0.00    +0.006 A  
DOCKED: ATOM     19  C   UNL     1     -44.172 -23.134  15.543 -0.15 +0.00    +0.001 A  
DOCKED: ATOM     20  C   UNL     1     -42.828 -23.156  15.167 -0.18 +0.00    +0.029 A  
DOCKED: ATOM     21  C   UNL     1     -42.185 -21.972  14.810 -0.08 +0.00    +0.140 A  
DOCKED: ATOM     22  C   UNL     1     -42.883 -20.765  14.829 -0.08 +0.00    +0.029 A  
DOCKED: ATOM     23  F   UNL     1     -40.896 -21.993  14.447 +0.00 -0.00    -0.204 F  
DOCKED: ATOM     24  C   UNL     1     -44.227 -20.742  15.205 -0.10 +0.00    +0.001 A  
DOCKED: ENDBRANCH   2  18
DOCKED: TORSDOF 5
DOCKED: TER
DOCKED: ENDMDL
________________________________________________________________________________


    FINAL DOCKED STATE:
    ________________________


Run:   410 / 512
Time taken for this run:   0.002s

DOCKED: MODEL        410
DOCKED: USER    Run = 410
DOCKED: USER
DOCKED: USER    Estimated Free Energy of Binding    =  -4.64 kcal/mol  [=(1)+(2)+(3)-(4)]
DOCKED: USER
DOCKED: USER    (1) Final Intermolecular Energy     =  -6.13 kcal/mol
DOCKED: USER        vdW + Hbond + desolv Energy     =  -6.13 kcal/mol
DOCKED: USER        Electrostatic Energy            =  +0.00 kcal/mol
DOCKED: USER        Moving Ligand-Fixed Receptor    =  -6.13 kcal/mol
DOCKED: USER        Moving Ligand-Moving Receptor   =  +0.00 kcal/mol
DOCKED: USER    (2) Final Total Internal Energy     =  -0.95 kcal/mol
DOCKED: USER    (3) Torsional Free Energy           =  +1.49 kcal/mol
DOCKED: USER    (4) Unbound System's Energy         =  -0.95 kcal/mol
DOCKED: USER
DOCKED: USER
DOCKED: REMARK  5 active torsions:
DOCKED: REMARK  status: ('A' for Active; 'I' for Inactive)
DOCKED: REMARK    1  A    between atoms: C_2  and  C_19 
DOCKED: REMARK    2  A    between atoms: C_2  and  C_11 
DOCKED: REMARK    3  A    between atoms: C_19  and  C_20 
DOCKED: REMARK    4  A    between atoms: C_20  and  C_21 
DOCKED: REMARK    5  A    between atoms: C_21  and  N_22 
DOCKED: USER                              x       y       z     vdW  Elec       q    Type
DOCKED: USER                           _______ _______ _______ _____ _____    ______ ____
DOCKED: ROOT
DOCKED: ATOM      1  O   UNL     1     -48.728 -21.147  15.074 -0.02 -0.00    -0.346 OA 
DOCKED: ATOM      2  C   UNL     1     -47.823 -22.296  15.021 -0.17 +0.00    +0.130 C  
DOCKED: ATOM      3  C   UNL     1     -48.258 -23.040  13.792 -0.30 +0.00    +0.004 A  
DOCKED: ATOM      4  C   UNL     1     -49.249 -22.323  13.138 -0.31 +0.00    +0.006 A  
DOCKED: ATOM      5  C   UNL     1     -49.526 -21.067  13.870 -0.19 +0.00    +0.169 C  
DOCKED: ATOM      6  C   UNL     1     -47.804 -24.250  13.287 -0.38 -0.00    -0.001 A  
DOCKED: ATOM      7  C   UNL     1     -49.821 -22.788  11.967 -0.29 +0.00    +0.008 A  
DOCKED: ATOM      8  C   UNL     1     -48.374 -24.735  12.109 -0.27 +0.00    +0.010 A  
DOCKED: ATOM      9  C   UNL     1     -49.377 -24.007  11.452 -0.41 +0.00    +0.068 A  
DOCKED: ATOM     10  N   UNL     1     -50.411 -24.934   9.264 -1.71 -0.00    -0.191 NA 
DOCKED: ATOM     11  C   UNL     1     -49.948 -24.518  10.246 -0.53 +0.00    +0.101 C  
DOCKED: ENDROOT
DOCKED: BRANCH   2  12
DOCKED: ATOM     12  C   UNL     1     -46.392 -21.779  14.927 -0.19 +0.00    +0.038 C  
DOCKED: BRANCH  12  13
DOCKED: ATOM     13  C   UNL     1     -45.402 -22.765  15.544 -0.20 +0.00    +0.038 C  
DOCKED: BRANCH  13  14
DOCKED: ATOM     14  C   UNL     1     -44.022 -22.131  15.703 -0.10 +0.00    +0.251 C  
DOCKED: BRANCH  14  15
DOCKED: ATOM     15  N   UNL     1     -43.259 -22.828  16.732 -0.08 +0.00    +0.141 N  
DOCKED: ATOM     16  C   UNL     1     -44.156 -23.480  17.687 -0.05 +0.00    +0.285 C  
DOCKED: ATOM     17  C   UNL     1     -42.359 -23.813  16.128 -0.09 +0.00    +0.285 C  
DOCKED: ENDBRANCH  14  15
DOCKED: ENDBRANCH  13  14
DOCKED: ENDBRANCH  12  13
DOCKED: ENDBRANCH   2  12
DOCKED: BRANCH   2  18
DOCKED: ATOM     18  C   UNL     1     -48.032 -23.074  16.277 -0.14 +0.00    +0.006 A  
DOCKED: ATOM     19  C   UNL     1     -47.759 -22.489  17.513 -0.08 +0.00    +0.001 A  
DOCKED: ATOM     20  C   UNL     1     -47.955 -23.218  18.687 -0.08 +0.00    +0.029 A  
DOCKED: ATOM     21  C   UNL     1     -48.425 -24.529  18.623 -0.13 +0.00    +0.140 A  
DOCKED: ATOM     22  C   UNL     1     -48.699 -25.113  17.387 -0.15 +0.00    +0.029 A  
DOCKED: ATOM     23  F   UNL     1     -48.615 -25.227  19.750 -0.03 -0.00    -0.204 F  
DOCKED: ATOM     24  C   UNL     1     -48.502 -24.385  16.212 -0.24 +0.00    +0.001 A  
DOCKED: ENDBRANCH   2  18
DOCKED: TORSDOF 5
DOCKED: TER
DOCKED: ENDMDL
________________________________________________________________________________


    FINAL DOCKED STATE:
    ________________________


Run:   411 / 512
Time taken for this run:   0.002s

DOCKED: MODEL        411
DOCKED: USER    Run = 411
DOCKED: USER
DOCKED: USER    Estimated Free Energy of Binding    =  -4.27 kcal/mol  [=(1)+(2)+(3)-(4)]
DOCKED: USER
DOCKED: USER    (1) Final Intermolecular Energy     =  -5.76 kcal/mol
DOCKED: USER        vdW + Hbond + desolv Energy     =  -5.76 kcal/mol
DOCKED: USER        Electrostatic Energy            =  +0.00 kcal/mol
DOCKED: USER        Moving Ligand-Fixed Receptor    =  -5.76 kcal/mol
DOCKED: USER        Moving Ligand-Moving Receptor   =  +0.00 kcal/mol
DOCKED: USER    (2) Final Total Internal Energy     =  -1.39 kcal/mol
DOCKED: USER    (3) Torsional Free Energy           =  +1.49 kcal/mol
DOCKED: USER    (4) Unbound System's Energy         =  -1.39 kcal/mol
DOCKED: USER
DOCKED: USER
DOCKED: REMARK  5 active torsions:
DOCKED: REMARK  status: ('A' for Active; 'I' for Inactive)
DOCKED: REMARK    1  A    between atoms: C_2  and  C_19 
DOCKED: REMARK    2  A    between atoms: C_2  and  C_11 
DOCKED: REMARK    3  A    between atoms: C_19  and  C_20 
DOCKED: REMARK    4  A    between atoms: C_20  and  C_21 
DOCKED: REMARK    5  A    between atoms: C_21  and  N_22 
DOCKED: USER                              x       y       z     vdW  Elec       q    Type
DOCKED: USER                           _______ _______ _______ _____ _____    ______ ____
DOCKED: ROOT
DOCKED: ATOM      1  O   UNL     1     -45.504 -21.372  15.239 -0.08 -0.00    -0.346 OA 
DOCKED: ATOM      2  C   UNL     1     -46.522 -20.490  14.667 -0.13 +0.00    +0.130 C  
DOCKED: ATOM      3  C   UNL     1     -47.491 -21.434  14.015 -0.22 +0.00    +0.004 A  
DOCKED: ATOM      4  C   UNL     1     -47.120 -22.743  14.285 -0.23 +0.00    +0.006 A  
DOCKED: ATOM      5  C   UNL     1     -45.906 -22.758  15.131 -0.18 +0.00    +0.169 C  
DOCKED: ATOM      6  C   UNL     1     -48.617 -21.155  13.255 -0.28 -0.00    -0.001 A  
DOCKED: ATOM      7  C   UNL     1     -47.854 -23.814  13.803 -0.35 +0.00    +0.008 A  
DOCKED: ATOM      8  C   UNL     1     -49.365 -22.223  12.758 -0.32 +0.00    +0.010 A  
DOCKED: ATOM      9  C   UNL     1     -48.986 -23.546  13.031 -0.31 +0.00    +0.068 A  
DOCKED: ATOM     10  N   UNL     1     -50.400 -25.506  12.098 -2.56 -0.00    -0.191 NA 
DOCKED: ATOM     11  C   UNL     1     -49.765 -24.627  12.516 -0.37 +0.00    +0.101 C  
DOCKED: ENDROOT
DOCKED: BRANCH   2  12
DOCKED: ATOM     12  C   UNL     1     -47.149 -19.682  15.797 -0.05 +0.00    +0.038 C  
DOCKED: BRANCH  12  13
DOCKED: ATOM     13  C   UNL     1     -46.086 -19.138  16.749 -0.02 +0.00    +0.038 C  
DOCKED: BRANCH  13  14
DOCKED: ATOM     14  C   UNL     1     -46.283 -17.643  16.996 -0.00 +0.00    +0.251 C  
DOCKED: BRANCH  14  15
DOCKED: ATOM     15  N   UNL     1     -45.163 -16.887  16.449 -0.00 +0.00    +0.141 N  
DOCKED: ATOM     16  C   UNL     1     -44.024 -17.769  16.187 -0.00 +0.00    +0.285 C  
DOCKED: ATOM     17  C   UNL     1     -45.559 -16.192  15.223 -0.00 +0.00    +0.285 C  
DOCKED: ENDBRANCH  14  15
DOCKED: ENDBRANCH  13  14
DOCKED: ENDBRANCH  12  13
DOCKED: ENDBRANCH   2  12
DOCKED: BRANCH   2  18
DOCKED: ATOM     18  C   UNL     1     -45.829 -19.601  13.689 -0.14 +0.00    +0.006 A  
DOCKED: ATOM     19  C   UNL     1     -46.559 -18.659  12.965 -0.15 +0.00    +0.001 A  
DOCKED: ATOM     20  C   UNL     1     -45.910 -17.829  12.050 -0.12 +0.00    +0.029 A  
DOCKED: ATOM     21  C   UNL     1     -44.534 -17.940  11.862 -0.07 +0.00    +0.140 A  
DOCKED: ATOM     22  C   UNL     1     -43.804 -18.881  12.587 -0.09 +0.00    +0.029 A  
DOCKED: ATOM     23  F   UNL     1     -43.911 -17.141  10.986 -0.00 -0.00    -0.204 F  
DOCKED: ATOM     24  C   UNL     1     -44.452 -19.713  13.502 -0.10 +0.00    +0.001 A  
DOCKED: ENDBRANCH   2  18
DOCKED: TORSDOF 5
DOCKED: TER
DOCKED: ENDMDL
________________________________________________________________________________


    FINAL DOCKED STATE:
    ________________________


Run:   412 / 512
Time taken for this run:   0.002s

DOCKED: MODEL        412
DOCKED: USER    Run = 412
DOCKED: USER
DOCKED: USER    Estimated Free Energy of Binding    =  -4.06 kcal/mol  [=(1)+(2)+(3)-(4)]
DOCKED: USER
DOCKED: USER    (1) Final Intermolecular Energy     =  -5.55 kcal/mol
DOCKED: USER        vdW + Hbond + desolv Energy     =  -5.55 kcal/mol
DOCKED: USER        Electrostatic Energy            =  +0.00 kcal/mol
DOCKED: USER        Moving Ligand-Fixed Receptor    =  -5.55 kcal/mol
DOCKED: USER        Moving Ligand-Moving Receptor   =  +0.00 kcal/mol
DOCKED: USER    (2) Final Total Internal Energy     =  -1.10 kcal/mol
DOCKED: USER    (3) Torsional Free Energy           =  +1.49 kcal/mol
DOCKED: USER    (4) Unbound System's Energy         =  -1.10 kcal/mol
DOCKED: USER
DOCKED: USER
DOCKED: REMARK  5 active torsions:
DOCKED: REMARK  status: ('A' for Active; 'I' for Inactive)
DOCKED: REMARK    1  A    between atoms: C_2  and  C_19 
DOCKED: REMARK    2  A    between atoms: C_2  and  C_11 
DOCKED: REMARK    3  A    between atoms: C_19  and  C_20 
DOCKED: REMARK    4  A    between atoms: C_20  and  C_21 
DOCKED: REMARK    5  A    between atoms: C_21  and  N_22 
DOCKED: USER                              x       y       z     vdW  Elec       q    Type
DOCKED: USER                           _______ _______ _______ _____ _____    ______ ____
DOCKED: ROOT
DOCKED: ATOM      1  O   UNL     1     -47.287 -20.512  16.023 -0.01 -0.00    -0.346 OA 
DOCKED: ATOM      2  C   UNL     1     -47.935 -19.892  14.866 -0.09 +0.00    +0.130 C  
DOCKED: ATOM      3  C   UNL     1     -48.465 -21.058  14.083 -0.21 +0.00    +0.004 A  
DOCKED: ATOM      4  C   UNL     1     -48.236 -22.234  14.784 -0.18 +0.00    +0.006 A  
DOCKED: ATOM      5  C   UNL     1     -47.562 -21.931  16.067 -0.08 +0.00    +0.169 C  
DOCKED: ATOM      6  C   UNL     1     -49.107 -21.076  12.854 -0.22 -0.00    -0.001 A  
DOCKED: ATOM      7  C   UNL     1     -48.635 -23.461  14.283 -0.26 +0.00    +0.008 A  
DOCKED: ATOM      8  C   UNL     1     -49.511 -22.306  12.332 -0.28 +0.00    +0.010 A  
DOCKED: ATOM      9  C   UNL     1     -49.277 -23.492  13.044 -0.29 +0.00    +0.068 A  
DOCKED: ATOM     10  N   UNL     1     -50.046 -25.759  12.050 -2.59 -0.00    -0.191 NA 
DOCKED: ATOM     11  C   UNL     1     -49.700 -24.742  12.495 -0.31 +0.00    +0.101 C  
DOCKED: ENDROOT
DOCKED: BRANCH   2  12
DOCKED: ATOM     12  C   UNL     1     -49.037 -18.966  15.370 -0.06 +0.00    +0.038 C  
DOCKED: BRANCH  12  13
DOCKED: ATOM     13  C   UNL     1     -49.912 -18.466  14.222 -0.16 +0.00    +0.038 C  
DOCKED: BRANCH  13  14
DOCKED: ATOM     14  C   UNL     1     -50.335 -17.016  14.445 -0.05 +0.00    +0.251 C  
DOCKED: BRANCH  14  15
DOCKED: ATOM     15  N   UNL     1     -49.627 -16.133  13.525 -0.06 +0.00    +0.141 N  
DOCKED: ATOM     16  C   UNL     1     -48.829 -15.152  14.262 -0.01 +0.00    +0.285 C  
DOCKED: ATOM     17  C   UNL     1     -48.773 -16.907  12.623 -0.10 +0.00    +0.285 C  
DOCKED: ENDBRANCH  14  15
DOCKED: ENDBRANCH  13  14
DOCKED: ENDBRANCH  12  13
DOCKED: ENDBRANCH   2  12
DOCKED: BRANCH   2  18
DOCKED: ATOM     18  C   UNL     1     -46.883 -19.128  14.133 -0.13 +0.00    +0.006 A  
DOCKED: ATOM     19  C   UNL     1     -46.157 -18.136  14.791 -0.04 +0.00    +0.001 A  
DOCKED: ATOM     20  C   UNL     1     -45.174 -17.423  14.104 -0.03 +0.00    +0.029 A  
DOCKED: ATOM     21  C   UNL     1     -44.918 -17.702  12.763 -0.06 +0.00    +0.140 A  
DOCKED: ATOM     22  C   UNL     1     -45.645 -18.695  12.106 -0.14 +0.00    +0.029 A  
DOCKED: ATOM     23  F   UNL     1     -43.973 -17.019  12.104 -0.00 -0.00    -0.204 F  
DOCKED: ATOM     24  C   UNL     1     -46.629 -19.409  12.792 -0.16 +0.00    +0.001 A  
DOCKED: ENDBRANCH   2  18
DOCKED: TORSDOF 5
DOCKED: TER
DOCKED: ENDMDL
________________________________________________________________________________


    FINAL DOCKED STATE:
    ________________________


Run:   413 / 512
Time taken for this run:   0.002s

DOCKED: MODEL        413
DOCKED: USER    Run = 413
DOCKED: USER
DOCKED: USER    Estimated Free Energy of Binding    =  -4.95 kcal/mol  [=(1)+(2)+(3)-(4)]
DOCKED: USER
DOCKED: USER    (1) Final Intermolecular Energy     =  -6.44 kcal/mol
DOCKED: USER        vdW + Hbond + desolv Energy     =  -6.44 kcal/mol
DOCKED: USER        Electrostatic Energy            =  +0.00 kcal/mol
DOCKED: USER        Moving Ligand-Fixed Receptor    =  -6.44 kcal/mol
DOCKED: USER        Moving Ligand-Moving Receptor   =  +0.00 kcal/mol
DOCKED: USER    (2) Final Total Internal Energy     =  -0.92 kcal/mol
DOCKED: USER    (3) Torsional Free Energy           =  +1.49 kcal/mol
DOCKED: USER    (4) Unbound System's Energy         =  -0.92 kcal/mol
DOCKED: USER
DOCKED: USER
DOCKED: REMARK  5 active torsions:
DOCKED: REMARK  status: ('A' for Active; 'I' for Inactive)
DOCKED: REMARK    1  A    between atoms: C_2  and  C_19 
DOCKED: REMARK    2  A    between atoms: C_2  and  C_11 
DOCKED: REMARK    3  A    between atoms: C_19  and  C_20 
DOCKED: REMARK    4  A    between atoms: C_20  and  C_21 
DOCKED: REMARK    5  A    between atoms: C_21  and  N_22 
DOCKED: USER                              x       y       z     vdW  Elec       q    Type
DOCKED: USER                           _______ _______ _______ _____ _____    ______ ____
DOCKED: ROOT
DOCKED: ATOM      1  O   UNL     1     -51.155 -22.076  14.824 -0.01 -0.00    -0.346 OA 
DOCKED: ATOM      2  C   UNL     1     -49.733 -22.310  14.569 -0.13 +0.00    +0.130 C  
DOCKED: ATOM      3  C   UNL     1     -49.711 -22.939  13.206 -0.29 +0.00    +0.004 A  
DOCKED: ATOM      4  C   UNL     1     -50.996 -22.962  12.681 -0.26 +0.00    +0.006 A  
DOCKED: ATOM      5  C   UNL     1     -51.941 -22.347  13.640 -0.18 +0.00    +0.169 C  
DOCKED: ATOM      6  C   UNL     1     -48.639 -23.441  12.484 -0.37 -0.00    -0.001 A  
DOCKED: ATOM      7  C   UNL     1     -51.252 -23.487  11.426 -0.26 +0.00    +0.008 A  
DOCKED: ATOM      8  C   UNL     1     -48.882 -23.979  11.218 -0.16 +0.00    +0.010 A  
DOCKED: ATOM      9  C   UNL     1     -50.182 -24.001  10.693 -0.42 +0.00    +0.068 A  
DOCKED: ATOM     10  N   UNL     1     -50.598 -25.001   8.339 -2.25 -0.00    -0.191 NA 
DOCKED: ATOM     11  C   UNL     1     -50.411 -24.553   9.395 -0.34 +0.00    +0.101 C  
DOCKED: ENDROOT
DOCKED: BRANCH   2  12
DOCKED: ATOM     12  C   UNL     1     -49.008 -20.970  14.615 -0.16 +0.00    +0.038 C  
DOCKED: BRANCH  12  13
DOCKED: ATOM     13  C   UNL     1     -47.569 -21.098  14.117 -0.22 +0.00    +0.038 C  
DOCKED: BRANCH  13  14
DOCKED: ATOM     14  C   UNL     1     -47.104 -19.808  13.445 -0.15 +0.00    +0.251 C  
DOCKED: BRANCH  14  15
DOCKED: ATOM     15  N   UNL     1     -45.703 -19.550  13.757 -0.11 +0.00    +0.141 N  
DOCKED: ATOM     16  C   UNL     1     -45.513 -18.155  14.158 -0.04 +0.00    +0.285 C  
DOCKED: ATOM     17  C   UNL     1     -45.236 -20.450  14.813 -0.08 +0.00    +0.285 C  
DOCKED: ENDBRANCH  14  15
DOCKED: ENDBRANCH  13  14
DOCKED: ENDBRANCH  12  13
DOCKED: ENDBRANCH   2  12
DOCKED: BRANCH   2  18
DOCKED: ATOM     18  C   UNL     1     -49.243 -23.225  15.640 -0.14 +0.00    +0.006 A  
DOCKED: ATOM     19  C   UNL     1     -49.002 -24.568  15.353 -0.27 +0.00    +0.001 A  
DOCKED: ATOM     20  C   UNL     1     -48.543 -25.423  16.356 -0.14 +0.00    +0.029 A  
DOCKED: ATOM     21  C   UNL     1     -48.327 -24.935  17.643 -0.18 +0.00    +0.140 A  
DOCKED: ATOM     22  C   UNL     1     -48.568 -23.591  17.930 -0.11 +0.00    +0.029 A  
DOCKED: ATOM     23  F   UNL     1     -47.885 -25.755  18.605 -0.10 -0.00    -0.204 F  
DOCKED: ATOM     24  C   UNL     1     -49.027 -22.735  16.928 -0.08 +0.00    +0.001 A  
DOCKED: ENDBRANCH   2  18
DOCKED: TORSDOF 5
DOCKED: TER
DOCKED: ENDMDL
________________________________________________________________________________


    FINAL DOCKED STATE:
    ________________________


Run:   414 / 512
Time taken for this run:   0.002s

DOCKED: MODEL        414
DOCKED: USER    Run = 414
DOCKED: USER
DOCKED: USER    Estimated Free Energy of Binding    =  -3.79 kcal/mol  [=(1)+(2)+(3)-(4)]
DOCKED: USER
DOCKED: USER    (1) Final Intermolecular Energy     =  -5.28 kcal/mol
DOCKED: USER        vdW + Hbond + desolv Energy     =  -5.28 kcal/mol
DOCKED: USER        Electrostatic Energy            =  +0.00 kcal/mol
DOCKED: USER        Moving Ligand-Fixed Receptor    =  -5.28 kcal/mol
DOCKED: USER        Moving Ligand-Moving Receptor   =  +0.00 kcal/mol
DOCKED: USER    (2) Final Total Internal Energy     =  -1.34 kcal/mol
DOCKED: USER    (3) Torsional Free Energy           =  +1.49 kcal/mol
DOCKED: USER    (4) Unbound System's Energy         =  -1.34 kcal/mol
DOCKED: USER
DOCKED: USER
DOCKED: REMARK  5 active torsions:
DOCKED: REMARK  status: ('A' for Active; 'I' for Inactive)
DOCKED: REMARK    1  A    between atoms: C_2  and  C_19 
DOCKED: REMARK    2  A    between atoms: C_2  and  C_11 
DOCKED: REMARK    3  A    between atoms: C_19  and  C_20 
DOCKED: REMARK    4  A    between atoms: C_20  and  C_21 
DOCKED: REMARK    5  A    between atoms: C_21  and  N_22 
DOCKED: USER                              x       y       z     vdW  Elec       q    Type
DOCKED: USER                           _______ _______ _______ _____ _____    ______ ____
DOCKED: ROOT
DOCKED: ATOM      1  O   UNL     1     -48.110 -19.738  15.297 -0.01 -0.00    -0.346 OA 
DOCKED: ATOM      2  C   UNL     1     -49.563 -19.695  15.129 -0.07 +0.00    +0.130 C  
DOCKED: ATOM      3  C   UNL     1     -49.880 -20.975  14.411 -0.16 +0.00    +0.004 A  
DOCKED: ATOM      4  C   UNL     1     -48.726 -21.734  14.278 -0.20 +0.00    +0.006 A  
DOCKED: ATOM      5  C   UNL     1     -47.585 -21.027  14.901 -0.12 +0.00    +0.169 C  
DOCKED: ATOM      6  C   UNL     1     -51.095 -21.436  13.924 -0.20 -0.00    -0.001 A  
DOCKED: ATOM      7  C   UNL     1     -48.745 -22.970  13.654 -0.29 +0.00    +0.008 A  
DOCKED: ATOM      8  C   UNL     1     -51.129 -22.678  13.288 -0.24 +0.00    +0.010 A  
DOCKED: ATOM      9  C   UNL     1     -49.959 -23.441  13.155 -0.24 +0.00    +0.068 A  
DOCKED: ATOM     10  N   UNL     1     -50.059 -25.746  11.975 -2.53 -0.00    -0.191 NA 
DOCKED: ATOM     11  C   UNL     1     -50.014 -24.712  12.504 -0.33 +0.00    +0.101 C  
DOCKED: ENDROOT
DOCKED: BRANCH   2  12
DOCKED: ATOM     12  C   UNL     1     -50.207 -19.614  16.508 -0.03 +0.00    +0.038 C  
DOCKED: BRANCH  12  13
DOCKED: ATOM     13  C   UNL     1     -49.186 -19.873  17.615 -0.01 +0.00    +0.038 C  
DOCKED: BRANCH  13  14
DOCKED: ATOM     14  C   UNL     1     -49.193 -21.342  18.036 -0.01 +0.00    +0.251 C  
DOCKED: BRANCH  14  15
DOCKED: ATOM     15  N   UNL     1     -47.892 -21.949  17.779 -0.03 +0.00    +0.141 N  
DOCKED: ATOM     16  C   UNL     1     -46.890 -21.437  18.714 -0.01 +0.00    +0.285 C  
DOCKED: ATOM     17  C   UNL     1     -47.976 -23.407  17.872 -0.07 +0.00    +0.285 C  
DOCKED: ENDBRANCH  14  15
DOCKED: ENDBRANCH  13  14
DOCKED: ENDBRANCH  12  13
DOCKED: ENDBRANCH   2  12
DOCKED: BRANCH   2  18
DOCKED: ATOM     18  C   UNL     1     -49.873 -18.481  14.318 -0.14 +0.00    +0.006 A  
DOCKED: ATOM     19  C   UNL     1     -49.154 -18.220  13.153 -0.16 +0.00    +0.001 A  
DOCKED: ATOM     20  C   UNL     1     -49.444 -17.084  12.396 -0.11 +0.00    +0.029 A  
DOCKED: ATOM     21  C   UNL     1     -50.453 -16.213  12.805 -0.12 +0.00    +0.140 A  
DOCKED: ATOM     22  C   UNL     1     -51.172 -16.475  13.970 -0.09 +0.00    +0.029 A  
DOCKED: ATOM     23  F   UNL     1     -50.732 -15.124  12.077 -0.02 -0.00    -0.204 F  
DOCKED: ATOM     24  C   UNL     1     -50.882 -17.611  14.728 -0.08 +0.00    +0.001 A  
DOCKED: ENDBRANCH   2  18
DOCKED: TORSDOF 5
DOCKED: TER
DOCKED: ENDMDL
________________________________________________________________________________


    FINAL DOCKED STATE:
    ________________________


Run:   415 / 512
Time taken for this run:   0.002s

DOCKED: MODEL        415
DOCKED: USER    Run = 415
DOCKED: USER
DOCKED: USER    Estimated Free Energy of Binding    =  -4.12 kcal/mol  [=(1)+(2)+(3)-(4)]
DOCKED: USER
DOCKED: USER    (1) Final Intermolecular Energy     =  -5.61 kcal/mol
DOCKED: USER        vdW + Hbond + desolv Energy     =  -5.61 kcal/mol
DOCKED: USER        Electrostatic Energy            =  +0.00 kcal/mol
DOCKED: USER        Moving Ligand-Fixed Receptor    =  -5.61 kcal/mol
DOCKED: USER        Moving Ligand-Moving Receptor   =  +0.00 kcal/mol
DOCKED: USER    (2) Final Total Internal Energy     =  -1.02 kcal/mol
DOCKED: USER    (3) Torsional Free Energy           =  +1.49 kcal/mol
DOCKED: USER    (4) Unbound System's Energy         =  -1.02 kcal/mol
DOCKED: USER
DOCKED: USER
DOCKED: REMARK  5 active torsions:
DOCKED: REMARK  status: ('A' for Active; 'I' for Inactive)
DOCKED: REMARK    1  A    between atoms: C_2  and  C_19 
DOCKED: REMARK    2  A    between atoms: C_2  and  C_11 
DOCKED: REMARK    3  A    between atoms: C_19  and  C_20 
DOCKED: REMARK    4  A    between atoms: C_20  and  C_21 
DOCKED: REMARK    5  A    between atoms: C_21  and  N_22 
DOCKED: USER                              x       y       z     vdW  Elec       q    Type
DOCKED: USER                           _______ _______ _______ _____ _____    ______ ____
DOCKED: ROOT
DOCKED: ATOM      1  O   UNL     1     -50.894 -22.326  16.112 +0.00 -0.00    -0.346 OA 
DOCKED: ATOM      2  C   UNL     1     -49.478 -22.692  16.049 -0.08 +0.00    +0.130 C  
DOCKED: ATOM      3  C   UNL     1     -49.314 -23.259  14.669 -0.19 +0.00    +0.004 A  
DOCKED: ATOM      4  C   UNL     1     -50.503 -23.127  13.965 -0.20 +0.00    +0.006 A  
DOCKED: ATOM      5  C   UNL     1     -51.518 -22.462  14.814 -0.09 +0.00    +0.169 C  
DOCKED: ATOM      6  C   UNL     1     -48.199 -23.835  14.078 -0.33 -0.00    -0.001 A  
DOCKED: ATOM      7  C   UNL     1     -50.620 -23.566  12.658 -0.31 +0.00    +0.008 A  
DOCKED: ATOM      8  C   UNL     1     -48.302 -24.287  12.762 -0.39 +0.00    +0.010 A  
DOCKED: ATOM      9  C   UNL     1     -49.506 -24.153  12.055 -0.38 +0.00    +0.068 A  
DOCKED: ATOM     10  N   UNL     1     -49.662 -24.998   9.611 -1.51 -0.00    -0.191 NA 
DOCKED: ATOM     11  C   UNL     1     -49.593 -24.620  10.707 -0.53 +0.00    +0.101 C  
DOCKED: ENDROOT
DOCKED: BRANCH   2  12
DOCKED: ATOM     12  C   UNL     1     -48.644 -21.437  16.279 -0.07 +0.00    +0.038 C  
DOCKED: BRANCH  12  13
DOCKED: ATOM     13  C   UNL     1     -47.308 -21.515  15.543 -0.13 +0.00    +0.038 C  
DOCKED: BRANCH  13  14
DOCKED: ATOM     14  C   UNL     1     -46.138 -21.477  16.524 -0.05 +0.00    +0.251 C  
DOCKED: BRANCH  14  15
DOCKED: ATOM     15  N   UNL     1     -45.386 -22.725  16.464 -0.11 +0.00    +0.141 N  
DOCKED: ATOM     16  C   UNL     1     -44.375 -22.668  15.406 -0.11 +0.00    +0.285 C  
DOCKED: ATOM     17  C   UNL     1     -44.755 -23.010  17.754 -0.06 +0.00    +0.285 C  
DOCKED: ENDBRANCH  14  15
DOCKED: ENDBRANCH  13  14
DOCKED: ENDBRANCH  12  13
DOCKED: ENDBRANCH   2  12
DOCKED: BRANCH   2  18
DOCKED: ATOM     18  C   UNL     1     -49.240 -23.701  17.123 -0.14 +0.00    +0.006 A  
DOCKED: ATOM     19  C   UNL     1     -50.221 -23.938  18.086 -0.11 +0.00    +0.001 A  
DOCKED: ATOM     20  C   UNL     1     -49.997 -24.881  19.090 -0.15 +0.00    +0.029 A  
DOCKED: ATOM     21  C   UNL     1     -48.794 -25.584  19.130 -0.15 +0.00    +0.140 A  
DOCKED: ATOM     22  C   UNL     1     -47.813 -25.346  18.167 -0.24 +0.00    +0.029 A  
DOCKED: ATOM     23  F   UNL     1     -48.580 -26.491  20.093 -0.06 -0.00    -0.204 F  
DOCKED: ATOM     24  C   UNL     1     -48.036 -24.403  17.163 -0.20 +0.00    +0.001 A  
DOCKED: ENDBRANCH   2  18
DOCKED: TORSDOF 5
DOCKED: TER
DOCKED: ENDMDL
________________________________________________________________________________


    FINAL DOCKED STATE:
    ________________________


Run:   416 / 512
Time taken for this run:   0.002s

DOCKED: MODEL        416
DOCKED: USER    Run = 416
DOCKED: USER
DOCKED: USER    Estimated Free Energy of Binding    =  -4.71 kcal/mol  [=(1)+(2)+(3)-(4)]
DOCKED: USER
DOCKED: USER    (1) Final Intermolecular Energy     =  -6.20 kcal/mol
DOCKED: USER        vdW + Hbond + desolv Energy     =  -6.20 kcal/mol
DOCKED: USER        Electrostatic Energy            =  +0.00 kcal/mol
DOCKED: USER        Moving Ligand-Fixed Receptor    =  -6.20 kcal/mol
DOCKED: USER        Moving Ligand-Moving Receptor   =  +0.00 kcal/mol
DOCKED: USER    (2) Final Total Internal Energy     =  -1.31 kcal/mol
DOCKED: USER    (3) Torsional Free Energy           =  +1.49 kcal/mol
DOCKED: USER    (4) Unbound System's Energy         =  -1.31 kcal/mol
DOCKED: USER
DOCKED: USER
DOCKED: REMARK  5 active torsions:
DOCKED: REMARK  status: ('A' for Active; 'I' for Inactive)
DOCKED: REMARK    1  A    between atoms: C_2  and  C_19 
DOCKED: REMARK    2  A    between atoms: C_2  and  C_11 
DOCKED: REMARK    3  A    between atoms: C_19  and  C_20 
DOCKED: REMARK    4  A    between atoms: C_20  and  C_21 
DOCKED: REMARK    5  A    between atoms: C_21  and  N_22 
DOCKED: USER                              x       y       z     vdW  Elec       q    Type
DOCKED: USER                           _______ _______ _______ _____ _____    ______ ____
DOCKED: ROOT
DOCKED: ATOM      1  O   UNL     1     -51.258 -22.118  15.072 -0.00 -0.00    -0.346 OA 
DOCKED: ATOM      2  C   UNL     1     -49.827 -22.184  14.772 -0.11 +0.00    +0.130 C  
DOCKED: ATOM      3  C   UNL     1     -49.778 -22.738  13.377 -0.27 +0.00    +0.004 A  
DOCKED: ATOM      4  C   UNL     1     -51.067 -22.872  12.882 -0.26 +0.00    +0.006 A  
DOCKED: ATOM      5  C   UNL     1     -52.044 -22.412  13.894 -0.16 +0.00    +0.169 C  
DOCKED: ATOM      6  C   UNL     1     -48.679 -23.084  12.604 -0.35 -0.00    -0.001 A  
DOCKED: ATOM      7  C   UNL     1     -51.303 -23.359  11.608 -0.19 +0.00    +0.008 A  
DOCKED: ATOM      8  C   UNL     1     -48.900 -23.580  11.318 -0.17 +0.00    +0.010 A  
DOCKED: ATOM      9  C   UNL     1     -50.205 -23.716  10.823 -0.38 +0.00    +0.068 A  
DOCKED: ATOM     10  N   UNL     1     -50.581 -24.636   8.430 -2.64 -0.00    -0.191 NA 
DOCKED: ATOM     11  C   UNL     1     -50.412 -24.224   9.503 -0.27 +0.00    +0.101 C  
DOCKED: ENDROOT
DOCKED: BRANCH   2  12
DOCKED: ATOM     12  C   UNL     1     -49.247 -20.778  14.873 -0.13 +0.00    +0.038 C  
DOCKED: BRANCH  12  13
DOCKED: ATOM     13  C   UNL     1     -50.035 -19.920  15.861 -0.05 +0.00    +0.038 C  
DOCKED: BRANCH  13  14
DOCKED: ATOM     14  C   UNL     1     -50.116 -18.470  15.387 -0.03 +0.00    +0.251 C  
DOCKED: BRANCH  14  15
DOCKED: ATOM     15  N   UNL     1     -51.351 -18.247  14.645 -0.08 +0.00    +0.141 N  
DOCKED: ATOM     16  C   UNL     1     -51.138 -18.457  13.212 -0.15 +0.00    +0.285 C  
DOCKED: ATOM     17  C   UNL     1     -52.413 -19.128  15.135 -0.04 +0.00    +0.285 C  
DOCKED: ENDBRANCH  14  15
DOCKED: ENDBRANCH  13  14
DOCKED: ENDBRANCH  12  13
DOCKED: ENDBRANCH   2  12
DOCKED: BRANCH   2  18
DOCKED: ATOM     18  C   UNL     1     -49.211 -23.094  15.781 -0.13 +0.00    +0.006 A  
DOCKED: ATOM     19  C   UNL     1     -47.884 -22.909  16.168 -0.14 +0.00    +0.001 A  
DOCKED: ATOM     20  C   UNL     1     -47.309 -23.761  17.111 -0.10 +0.00    +0.029 A  
DOCKED: ATOM     21  C   UNL     1     -48.061 -24.795  17.667 -0.17 +0.00    +0.140 A  
DOCKED: ATOM     22  C   UNL     1     -49.388 -24.979  17.281 -0.08 +0.00    +0.029 A  
DOCKED: ATOM     23  F   UNL     1     -47.509 -25.611  18.575 -0.10 -0.00    -0.204 F  
DOCKED: ATOM     24  C   UNL     1     -49.964 -24.127  16.336 -0.18 +0.00    +0.001 A  
DOCKED: ENDBRANCH   2  18
DOCKED: TORSDOF 5
DOCKED: TER
DOCKED: ENDMDL
________________________________________________________________________________


    FINAL DOCKED STATE:
    ________________________


Run:   417 / 512
Time taken for this run:   0.002s

DOCKED: MODEL        417
DOCKED: USER    Run = 417
DOCKED: USER
DOCKED: USER    Estimated Free Energy of Binding    =  -4.41 kcal/mol  [=(1)+(2)+(3)-(4)]
DOCKED: USER
DOCKED: USER    (1) Final Intermolecular Energy     =  -5.90 kcal/mol
DOCKED: USER        vdW + Hbond + desolv Energy     =  -5.90 kcal/mol
DOCKED: USER        Electrostatic Energy            =  +0.00 kcal/mol
DOCKED: USER        Moving Ligand-Fixed Receptor    =  -5.90 kcal/mol
DOCKED: USER        Moving Ligand-Moving Receptor   =  +0.00 kcal/mol
DOCKED: USER    (2) Final Total Internal Energy     =  -1.28 kcal/mol
DOCKED: USER    (3) Torsional Free Energy           =  +1.49 kcal/mol
DOCKED: USER    (4) Unbound System's Energy         =  -1.28 kcal/mol
DOCKED: USER
DOCKED: USER
DOCKED: REMARK  5 active torsions:
DOCKED: REMARK  status: ('A' for Active; 'I' for Inactive)
DOCKED: REMARK    1  A    between atoms: C_2  and  C_19 
DOCKED: REMARK    2  A    between atoms: C_2  and  C_11 
DOCKED: REMARK    3  A    between atoms: C_19  and  C_20 
DOCKED: REMARK    4  A    between atoms: C_20  and  C_21 
DOCKED: REMARK    5  A    between atoms: C_21  and  N_22 
DOCKED: USER                              x       y       z     vdW  Elec       q    Type
DOCKED: USER                           _______ _______ _______ _____ _____    ______ ____
DOCKED: ROOT
DOCKED: ATOM      1  O   UNL     1     -47.780 -18.974  13.640 -0.07 -0.00    -0.346 OA 
DOCKED: ATOM      2  C   UNL     1     -49.168 -19.006  14.103 -0.15 +0.00    +0.130 C  
DOCKED: ATOM      3  C   UNL     1     -49.643 -20.378  13.724 -0.22 +0.00    +0.004 A  
DOCKED: ATOM      4  C   UNL     1     -48.588 -21.107  13.191 -0.27 +0.00    +0.006 A  
DOCKED: ATOM      5  C   UNL     1     -47.358 -20.284  13.192 -0.16 +0.00    +0.169 C  
DOCKED: ATOM      6  C   UNL     1     -50.904 -20.941  13.850 -0.21 -0.00    -0.001 A  
DOCKED: ATOM      7  C   UNL     1     -48.758 -22.413  12.765 -0.33 +0.00    +0.008 A  
DOCKED: ATOM      8  C   UNL     1     -51.092 -22.256  13.421 -0.22 +0.00    +0.010 A  
DOCKED: ATOM      9  C   UNL     1     -50.024 -22.988  12.882 -0.26 +0.00    +0.068 A  
DOCKED: ATOM     10  N   UNL     1     -50.405 -25.429  12.099 -2.56 -0.00    -0.191 NA 
DOCKED: ATOM     11  C   UNL     1     -50.234 -24.334  12.450 -0.36 +0.00    +0.101 C  
DOCKED: ENDROOT
DOCKED: BRANCH   2  12
DOCKED: ATOM     12  C   UNL     1     -49.179 -18.769  15.609 -0.05 +0.00    +0.038 C  
DOCKED: BRANCH  12  13
DOCKED: ATOM     13  C   UNL     1     -48.754 -17.342  15.951 -0.02 +0.00    +0.038 C  
DOCKED: BRANCH  13  14
DOCKED: ATOM     14  C   UNL     1     -47.233 -17.200  15.921 -0.01 +0.00    +0.251 C  
DOCKED: BRANCH  14  15
DOCKED: ATOM     15  N   UNL     1     -46.857 -15.793  15.852 -0.00 +0.00    +0.141 N  
DOCKED: ATOM     16  C   UNL     1     -45.402 -15.644  15.922 -0.00 +0.00    +0.285 C  
DOCKED: ATOM     17  C   UNL     1     -47.372 -15.181  14.626 -0.00 +0.00    +0.285 C  
DOCKED: ENDBRANCH  14  15
DOCKED: ENDBRANCH  13  14
DOCKED: ENDBRANCH  12  13
DOCKED: ENDBRANCH   2  12
DOCKED: BRANCH   2  18
DOCKED: ATOM     18  C   UNL     1     -49.893 -17.919  13.382 -0.19 +0.00    +0.006 A  
DOCKED: ATOM     19  C   UNL     1     -51.270 -17.776  13.541 -0.20 +0.00    +0.001 A  
DOCKED: ATOM     20  C   UNL     1     -51.947 -16.760  12.866 -0.17 +0.00    +0.029 A  
DOCKED: ATOM     21  C   UNL     1     -51.246 -15.889  12.033 -0.11 +0.00    +0.140 A  
DOCKED: ATOM     22  C   UNL     1     -49.868 -16.032  11.874 -0.16 +0.00    +0.029 A  
DOCKED: ATOM     23  F   UNL     1     -51.896 -14.912  11.386 -0.02 -0.00    -0.204 F  
DOCKED: ATOM     24  C   UNL     1     -49.190 -17.049  12.549 -0.15 +0.00    +0.001 A  
DOCKED: ENDBRANCH   2  18
DOCKED: TORSDOF 5
DOCKED: TER
DOCKED: ENDMDL
________________________________________________________________________________


    FINAL DOCKED STATE:
    ________________________


Run:   418 / 512
Time taken for this run:   0.002s

DOCKED: MODEL        418
DOCKED: USER    Run = 418
DOCKED: USER
DOCKED: USER    Estimated Free Energy of Binding    =  -4.71 kcal/mol  [=(1)+(2)+(3)-(4)]
DOCKED: USER
DOCKED: USER    (1) Final Intermolecular Energy     =  -6.20 kcal/mol
DOCKED: USER        vdW + Hbond + desolv Energy     =  -6.20 kcal/mol
DOCKED: USER        Electrostatic Energy            =  +0.00 kcal/mol
DOCKED: USER        Moving Ligand-Fixed Receptor    =  -6.20 kcal/mol
DOCKED: USER        Moving Ligand-Moving Receptor   =  +0.00 kcal/mol
DOCKED: USER    (2) Final Total Internal Energy     =  -0.96 kcal/mol
DOCKED: USER    (3) Torsional Free Energy           =  +1.49 kcal/mol
DOCKED: USER    (4) Unbound System's Energy         =  -0.96 kcal/mol
DOCKED: USER
DOCKED: USER
DOCKED: REMARK  5 active torsions:
DOCKED: REMARK  status: ('A' for Active; 'I' for Inactive)
DOCKED: REMARK    1  A    between atoms: C_2  and  C_19 
DOCKED: REMARK    2  A    between atoms: C_2  and  C_11 
DOCKED: REMARK    3  A    between atoms: C_19  and  C_20 
DOCKED: REMARK    4  A    between atoms: C_20  and  C_21 
DOCKED: REMARK    5  A    between atoms: C_21  and  N_22 
DOCKED: USER                              x       y       z     vdW  Elec       q    Type
DOCKED: USER                           _______ _______ _______ _____ _____    ______ ____
DOCKED: ROOT
DOCKED: ATOM      1  O   UNL     1     -48.679 -21.073  15.000 -0.02 -0.00    -0.346 OA 
DOCKED: ATOM      2  C   UNL     1     -47.782 -22.230  14.964 -0.17 +0.00    +0.130 C  
DOCKED: ATOM      3  C   UNL     1     -48.229 -22.992  13.750 -0.30 +0.00    +0.004 A  
DOCKED: ATOM      4  C   UNL     1     -49.218 -22.279  13.088 -0.31 +0.00    +0.006 A  
DOCKED: ATOM      5  C   UNL     1     -49.483 -21.009  13.799 -0.19 +0.00    +0.169 C  
DOCKED: ATOM      6  C   UNL     1     -47.786 -24.214  13.264 -0.38 -0.00    -0.001 A  
DOCKED: ATOM      7  C   UNL     1     -49.799 -22.761  11.928 -0.29 +0.00    +0.008 A  
DOCKED: ATOM      8  C   UNL     1     -48.365 -24.715  12.097 -0.26 +0.00    +0.010 A  
DOCKED: ATOM      9  C   UNL     1     -49.367 -23.992  11.432 -0.41 +0.00    +0.068 A  
DOCKED: ATOM     10  N   UNL     1     -50.418 -24.949   9.266 -1.70 -0.00    -0.191 NA 
DOCKED: ATOM     11  C   UNL     1     -49.947 -24.520  10.238 -0.53 +0.00    +0.101 C  
DOCKED: ENDROOT
DOCKED: BRANCH   2  12
DOCKED: ATOM     12  C   UNL     1     -46.348 -21.725  14.854 -0.18 +0.00    +0.038 C  
DOCKED: BRANCH  12  13
DOCKED: ATOM     13  C   UNL     1     -45.353 -22.757  15.382 -0.21 +0.00    +0.038 C  
DOCKED: BRANCH  13  14
DOCKED: ATOM     14  C   UNL     1     -43.943 -22.174  15.451 -0.11 +0.00    +0.251 C  
DOCKED: BRANCH  14  15
DOCKED: ATOM     15  N   UNL     1     -42.980 -23.216  15.787 -0.13 +0.00    +0.141 N  
DOCKED: ATOM     16  C   UNL     1     -43.315 -23.834  17.071 -0.03 +0.00    +0.285 C  
DOCKED: ATOM     17  C   UNL     1     -42.929 -24.231  14.733 -0.12 +0.00    +0.285 C  
DOCKED: ENDBRANCH  14  15
DOCKED: ENDBRANCH  13  14
DOCKED: ENDBRANCH  12  13
DOCKED: ENDBRANCH   2  12
DOCKED: BRANCH   2  18
DOCKED: ATOM     18  C   UNL     1     -47.992 -22.984  16.234 -0.14 +0.00    +0.006 A  
DOCKED: ATOM     19  C   UNL     1     -48.401 -24.316  16.194 -0.23 +0.00    +0.001 A  
DOCKED: ATOM     20  C   UNL     1     -48.597 -25.020  17.383 -0.22 +0.00    +0.029 A  
DOCKED: ATOM     21  C   UNL     1     -48.383 -24.392  18.608 -0.13 +0.00    +0.140 A  
DOCKED: ATOM     22  C   UNL     1     -47.973 -23.060  18.648 -0.07 +0.00    +0.029 A  
DOCKED: ATOM     23  F   UNL     1     -48.569 -25.069  19.749 -0.02 -0.00    -0.204 F  
DOCKED: ATOM     24  C   UNL     1     -47.777 -22.354  17.459 -0.07 +0.00    +0.001 A  
DOCKED: ENDBRANCH   2  18
DOCKED: TORSDOF 5
DOCKED: TER
DOCKED: ENDMDL
________________________________________________________________________________


    FINAL DOCKED STATE:
    ________________________


Run:   419 / 512
Time taken for this run:   0.002s

DOCKED: MODEL        419
DOCKED: USER    Run = 419
DOCKED: USER
DOCKED: USER    Estimated Free Energy of Binding    =  -5.56 kcal/mol  [=(1)+(2)+(3)-(4)]
DOCKED: USER
DOCKED: USER    (1) Final Intermolecular Energy     =  -7.05 kcal/mol
DOCKED: USER        vdW + Hbond + desolv Energy     =  -7.05 kcal/mol
DOCKED: USER        Electrostatic Energy            =  +0.00 kcal/mol
DOCKED: USER        Moving Ligand-Fixed Receptor    =  -7.05 kcal/mol
DOCKED: USER        Moving Ligand-Moving Receptor   =  +0.00 kcal/mol
DOCKED: USER    (2) Final Total Internal Energy     =  -1.29 kcal/mol
DOCKED: USER    (3) Torsional Free Energy           =  +1.49 kcal/mol
DOCKED: USER    (4) Unbound System's Energy         =  -1.29 kcal/mol
DOCKED: USER
DOCKED: USER
DOCKED: REMARK  5 active torsions:
DOCKED: REMARK  status: ('A' for Active; 'I' for Inactive)
DOCKED: REMARK    1  A    between atoms: C_2  and  C_19 
DOCKED: REMARK    2  A    between atoms: C_2  and  C_11 
DOCKED: REMARK    3  A    between atoms: C_19  and  C_20 
DOCKED: REMARK    4  A    between atoms: C_20  and  C_21 
DOCKED: REMARK    5  A    between atoms: C_21  and  N_22 
DOCKED: USER                              x       y       z     vdW  Elec       q    Type
DOCKED: USER                           _______ _______ _______ _____ _____    ______ ____
DOCKED: ROOT
DOCKED: ATOM      1  O   UNL     1     -47.287 -24.850  14.694 -0.16 -0.00    -0.346 OA 
DOCKED: ATOM      2  C   UNL     1     -47.784 -23.475  14.630 -0.26 +0.00    +0.130 C  
DOCKED: ATOM      3  C   UNL     1     -48.419 -23.385  13.273 -0.34 +0.00    +0.004 A  
DOCKED: ATOM      4  C   UNL     1     -48.387 -24.628  12.658 -0.41 +0.00    +0.006 A  
DOCKED: ATOM      5  C   UNL     1     -47.750 -25.617  13.558 +0.07 +0.00    +0.169 C  
DOCKED: ATOM      6  C   UNL     1     -48.989 -22.291  12.637 -0.34 -0.00    -0.001 A  
DOCKED: ATOM      7  C   UNL     1     -48.917 -24.821  11.394 -0.43 +0.00    +0.008 A  
DOCKED: ATOM      8  C   UNL     1     -49.524 -22.469  11.360 +0.13 +0.00    +0.010 A  
DOCKED: ATOM      9  C   UNL     1     -49.488 -23.728  10.742 -0.40 +0.00    +0.068 A  
DOCKED: ATOM     10  N   UNL     1     -50.494 -24.024   8.373 -3.06 -0.00    -0.191 NA 
DOCKED: ATOM     11  C   UNL     1     -50.042 -23.891   9.435 -0.43 +0.00    +0.101 C  
DOCKED: ENDROOT
DOCKED: BRANCH   2  12
DOCKED: ATOM     12  C   UNL     1     -48.779 -23.268  15.766 -0.17 +0.00    +0.038 C  
DOCKED: BRANCH  12  13
DOCKED: ATOM     13  C   UNL     1     -48.842 -24.490  16.680 -0.25 +0.00    +0.038 C  
DOCKED: BRANCH  13  14
DOCKED: ATOM     14  C   UNL     1     -48.775 -24.080  18.150 -0.10 +0.00    +0.251 C  
DOCKED: BRANCH  14  15
DOCKED: ATOM     15  N   UNL     1     -47.870 -22.950  18.321 -0.05 +0.00    +0.141 N  
DOCKED: ATOM     16  C   UNL     1     -48.430 -21.977  19.260 -0.01 +0.00    +0.285 C  
DOCKED: ATOM     17  C   UNL     1     -46.558 -23.406  18.785 -0.06 +0.00    +0.285 C  
DOCKED: ENDBRANCH  14  15
DOCKED: ENDBRANCH  13  14
DOCKED: ENDBRANCH  12  13
DOCKED: ENDBRANCH   2  12
DOCKED: BRANCH   2  18
DOCKED: ATOM     18  C   UNL     1     -46.601 -22.577  14.780 -0.22 +0.00    +0.006 A  
DOCKED: ATOM     19  C   UNL     1     -45.329 -23.123  14.949 -0.02 +0.00    +0.001 A  
DOCKED: ATOM     20  C   UNL     1     -44.225 -22.282  15.089 -0.16 +0.00    +0.029 A  
DOCKED: ATOM     21  C   UNL     1     -44.393 -20.898  15.060 -0.09 +0.00    +0.140 A  
DOCKED: ATOM     22  C   UNL     1     -45.666 -20.353  14.892 -0.11 +0.00    +0.029 A  
DOCKED: ATOM     23  F   UNL     1     -43.332 -20.091  15.193 -0.01 -0.00    -0.204 F  
DOCKED: ATOM     24  C   UNL     1     -46.772 -21.194  14.752 -0.16 +0.00    +0.001 A  
DOCKED: ENDBRANCH   2  18
DOCKED: TORSDOF 5
DOCKED: TER
DOCKED: ENDMDL
________________________________________________________________________________


    FINAL DOCKED STATE:
    ________________________


Run:   420 / 512
Time taken for this run:   0.002s

DOCKED: MODEL        420
DOCKED: USER    Run = 420
DOCKED: USER
DOCKED: USER    Estimated Free Energy of Binding    =  -5.45 kcal/mol  [=(1)+(2)+(3)-(4)]
DOCKED: USER
DOCKED: USER    (1) Final Intermolecular Energy     =  -6.94 kcal/mol
DOCKED: USER        vdW + Hbond + desolv Energy     =  -6.94 kcal/mol
DOCKED: USER        Electrostatic Energy            =  +0.00 kcal/mol
DOCKED: USER        Moving Ligand-Fixed Receptor    =  -6.94 kcal/mol
DOCKED: USER        Moving Ligand-Moving Receptor   =  +0.00 kcal/mol
DOCKED: USER    (2) Final Total Internal Energy     =  -1.30 kcal/mol
DOCKED: USER    (3) Torsional Free Energy           =  +1.49 kcal/mol
DOCKED: USER    (4) Unbound System's Energy         =  -1.30 kcal/mol
DOCKED: USER
DOCKED: USER
DOCKED: REMARK  5 active torsions:
DOCKED: REMARK  status: ('A' for Active; 'I' for Inactive)
DOCKED: REMARK    1  A    between atoms: C_2  and  C_19 
DOCKED: REMARK    2  A    between atoms: C_2  and  C_11 
DOCKED: REMARK    3  A    between atoms: C_19  and  C_20 
DOCKED: REMARK    4  A    between atoms: C_20  and  C_21 
DOCKED: REMARK    5  A    between atoms: C_21  and  N_22 
DOCKED: USER                              x       y       z     vdW  Elec       q    Type
DOCKED: USER                           _______ _______ _______ _____ _____    ______ ____
DOCKED: ROOT
DOCKED: ATOM      1  O   UNL     1     -48.265 -21.380  14.858 -0.04 -0.00    -0.346 OA 
DOCKED: ATOM      2  C   UNL     1     -47.888 -22.794  14.878 -0.20 +0.00    +0.130 C  
DOCKED: ATOM      3  C   UNL     1     -48.391 -23.319  13.564 -0.33 +0.00    +0.004 A  
DOCKED: ATOM      4  C   UNL     1     -48.911 -22.275  12.813 -0.33 +0.00    +0.006 A  
DOCKED: ATOM      5  C   UNL     1     -48.779 -21.004  13.559 -0.22 +0.00    +0.169 C  
DOCKED: ATOM      6  C   UNL     1     -48.379 -24.615  13.069 -0.41 -0.00    -0.001 A  
DOCKED: ATOM      7  C   UNL     1     -49.438 -22.488  11.550 -0.09 +0.00    +0.008 A  
DOCKED: ATOM      8  C   UNL     1     -48.911 -24.847  11.799 -0.46 +0.00    +0.010 A  
DOCKED: ATOM      9  C   UNL     1     -49.437 -23.788  11.044 -0.40 +0.00    +0.068 A  
DOCKED: ATOM     10  N   UNL     1     -50.412 -24.253   8.689 -2.60 -0.00    -0.191 NA 
DOCKED: ATOM     11  C   UNL     1     -49.976 -24.045   9.745 -0.48 +0.00    +0.101 C  
DOCKED: ENDROOT
DOCKED: BRANCH   2  12
DOCKED: ATOM     12  C   UNL     1     -46.373 -22.887  15.012 -0.24 +0.00    +0.038 C  
DOCKED: BRANCH  12  13
DOCKED: ATOM     13  C   UNL     1     -45.785 -21.603  15.594 -0.15 +0.00    +0.038 C  
DOCKED: BRANCH  13  14
DOCKED: ATOM     14  C   UNL     1     -44.689 -21.041  14.690 -0.05 +0.00    +0.251 C  
DOCKED: BRANCH  14  15
DOCKED: ATOM     15  N   UNL     1     -44.922 -19.625  14.431 -0.08 +0.00    +0.141 N  
DOCKED: ATOM     16  C   UNL     1     -45.153 -19.393  13.004 -0.08 +0.00    +0.285 C  
DOCKED: ATOM     17  C   UNL     1     -46.057 -19.137  15.215 -0.03 +0.00    +0.285 C  
DOCKED: ENDBRANCH  14  15
DOCKED: ENDBRANCH  13  14
DOCKED: ENDBRANCH  12  13
DOCKED: ENDBRANCH   2  12
DOCKED: BRANCH   2  18
DOCKED: ATOM     18  C   UNL     1     -48.572 -23.412  16.051 -0.16 +0.00    +0.006 A  
DOCKED: ATOM     19  C   UNL     1     -49.665 -22.774  16.636 -0.08 +0.00    +0.001 A  
DOCKED: ATOM     20  C   UNL     1     -50.303 -23.353  17.734 -0.08 +0.00    +0.029 A  
DOCKED: ATOM     21  C   UNL     1     -49.848 -24.568  18.244 -0.11 +0.00    +0.140 A  
DOCKED: ATOM     22  C   UNL     1     -48.755 -25.206  17.658 -0.10 +0.00    +0.029 A  
DOCKED: ATOM     23  F   UNL     1     -50.462 -25.124  19.296 -0.02 -0.00    -0.204 F  
DOCKED: ATOM     24  C   UNL     1     -48.115 -24.627  16.561 -0.19 +0.00    +0.001 A  
DOCKED: ENDBRANCH   2  18
DOCKED: TORSDOF 5
DOCKED: TER
DOCKED: ENDMDL
________________________________________________________________________________


    FINAL DOCKED STATE:
    ________________________


Run:   421 / 512
Time taken for this run:   0.002s

DOCKED: MODEL        421
DOCKED: USER    Run = 421
DOCKED: USER
DOCKED: USER    Estimated Free Energy of Binding    =  -4.13 kcal/mol  [=(1)+(2)+(3)-(4)]
DOCKED: USER
DOCKED: USER    (1) Final Intermolecular Energy     =  -5.63 kcal/mol
DOCKED: USER        vdW + Hbond + desolv Energy     =  -5.63 kcal/mol
DOCKED: USER        Electrostatic Energy            =  +0.00 kcal/mol
DOCKED: USER        Moving Ligand-Fixed Receptor    =  -5.63 kcal/mol
DOCKED: USER        Moving Ligand-Moving Receptor   =  +0.00 kcal/mol
DOCKED: USER    (2) Final Total Internal Energy     =  -1.18 kcal/mol
DOCKED: USER    (3) Torsional Free Energy           =  +1.49 kcal/mol
DOCKED: USER    (4) Unbound System's Energy         =  -1.18 kcal/mol
DOCKED: USER
DOCKED: USER
DOCKED: REMARK  5 active torsions:
DOCKED: REMARK  status: ('A' for Active; 'I' for Inactive)
DOCKED: REMARK    1  A    between atoms: C_2  and  C_19 
DOCKED: REMARK    2  A    between atoms: C_2  and  C_11 
DOCKED: REMARK    3  A    between atoms: C_19  and  C_20 
DOCKED: REMARK    4  A    between atoms: C_20  and  C_21 
DOCKED: REMARK    5  A    between atoms: C_21  and  N_22 
DOCKED: USER                              x       y       z     vdW  Elec       q    Type
DOCKED: USER                           _______ _______ _______ _____ _____    ______ ____
DOCKED: ROOT
DOCKED: ATOM      1  O   UNL     1     -44.509 -15.975   6.619 -0.03 -0.00    -0.346 OA 
DOCKED: ATOM      2  C   UNL     1     -43.466 -15.713   5.627 -0.08 +0.00    +0.130 C  
DOCKED: ATOM      3  C   UNL     1     -44.162 -14.885   4.585 -0.17 +0.00    +0.004 A  
DOCKED: ATOM      4  C   UNL     1     -45.456 -14.605   4.999 -0.28 +0.00    +0.006 A  
DOCKED: ATOM      5  C   UNL     1     -45.700 -15.207   6.328 -0.23 +0.00    +0.169 C  
DOCKED: ATOM      6  C   UNL     1     -43.683 -14.409   3.373 -0.14 -0.00    -0.001 A  
DOCKED: ATOM      7  C   UNL     1     -46.313 -13.847   4.219 -0.32 +0.00    +0.008 A  
DOCKED: ATOM      8  C   UNL     1     -44.537 -13.647   2.574 -0.22 +0.00    +0.010 A  
DOCKED: ATOM      9  C   UNL     1     -45.845 -13.367   2.995 -0.24 +0.00    +0.068 A  
DOCKED: ATOM     10  N   UNL     1     -47.402 -11.945   1.490 -2.42 -0.00    -0.191 NA 
DOCKED: ATOM     11  C   UNL     1     -46.704 -12.584   2.165 -0.40 +0.00    +0.101 C  
DOCKED: ENDROOT
DOCKED: BRANCH   2  12
DOCKED: ATOM     12  C   UNL     1     -42.325 -14.970   6.310 -0.06 +0.00    +0.038 C  
DOCKED: BRANCH  12  13
DOCKED: ATOM     13  C   UNL     1     -42.041 -15.542   7.698 -0.04 +0.00    +0.038 C  
DOCKED: BRANCH  13  14
DOCKED: ATOM     14  C   UNL     1     -41.952 -14.430   8.742 -0.06 +0.00    +0.251 C  
DOCKED: BRANCH  14  15
DOCKED: ATOM     15  N   UNL     1     -43.012 -14.578   9.732 -0.08 +0.00    +0.141 N  
DOCKED: ATOM     16  C   UNL     1     -42.731 -13.763  10.915 -0.06 +0.00    +0.285 C  
DOCKED: ATOM     17  C   UNL     1     -44.308 -14.209   9.159 -0.09 +0.00    +0.285 C  
DOCKED: ENDBRANCH  14  15
DOCKED: ENDBRANCH  13  14
DOCKED: ENDBRANCH  12  13
DOCKED: ENDBRANCH   2  12
DOCKED: BRANCH   2  18
DOCKED: ATOM     18  C   UNL     1     -43.014 -17.038   5.110 -0.07 +0.00    +0.006 A  
DOCKED: ATOM     19  C   UNL     1     -41.654 -17.285   4.923 -0.02 +0.00    +0.001 A  
DOCKED: ATOM     20  C   UNL     1     -41.232 -18.524   4.440 -0.02 +0.00    +0.029 A  
DOCKED: ATOM     21  C   UNL     1     -42.169 -19.513   4.144 -0.11 +0.00    +0.140 A  
DOCKED: ATOM     22  C   UNL     1     -43.529 -19.265   4.331 -0.22 +0.00    +0.029 A  
DOCKED: ATOM     23  F   UNL     1     -41.763 -20.703   3.681 -0.05 -0.00    -0.204 F  
DOCKED: ATOM     24  C   UNL     1     -43.952 -18.026   4.814 -0.21 +0.00    +0.001 A  
DOCKED: ENDBRANCH   2  18
DOCKED: TORSDOF 5
DOCKED: TER
DOCKED: ENDMDL
________________________________________________________________________________


    FINAL DOCKED STATE:
    ________________________


Run:   422 / 512
Time taken for this run:   0.002s

DOCKED: MODEL        422
DOCKED: USER    Run = 422
DOCKED: USER
DOCKED: USER    Estimated Free Energy of Binding    =  -3.89 kcal/mol  [=(1)+(2)+(3)-(4)]
DOCKED: USER
DOCKED: USER    (1) Final Intermolecular Energy     =  -5.39 kcal/mol
DOCKED: USER        vdW + Hbond + desolv Energy     =  -5.39 kcal/mol
DOCKED: USER        Electrostatic Energy            =  +0.00 kcal/mol
DOCKED: USER        Moving Ligand-Fixed Receptor    =  -5.39 kcal/mol
DOCKED: USER        Moving Ligand-Moving Receptor   =  +0.00 kcal/mol
DOCKED: USER    (2) Final Total Internal Energy     =  -1.41 kcal/mol
DOCKED: USER    (3) Torsional Free Energy           =  +1.49 kcal/mol
DOCKED: USER    (4) Unbound System's Energy         =  -1.41 kcal/mol
DOCKED: USER
DOCKED: USER
DOCKED: REMARK  5 active torsions:
DOCKED: REMARK  status: ('A' for Active; 'I' for Inactive)
DOCKED: REMARK    1  A    between atoms: C_2  and  C_19 
DOCKED: REMARK    2  A    between atoms: C_2  and  C_11 
DOCKED: REMARK    3  A    between atoms: C_19  and  C_20 
DOCKED: REMARK    4  A    between atoms: C_20  and  C_21 
DOCKED: REMARK    5  A    between atoms: C_21  and  N_22 
DOCKED: USER                              x       y       z     vdW  Elec       q    Type
DOCKED: USER                           _______ _______ _______ _____ _____    ______ ____
DOCKED: ROOT
DOCKED: ATOM      1  O   UNL     1     -48.431 -22.029  17.653 -0.01 -0.00    -0.346 OA 
DOCKED: ATOM      2  C   UNL     1     -47.247 -22.340  16.850 -0.08 +0.00    +0.130 C  
DOCKED: ATOM      3  C   UNL     1     -47.803 -23.057  15.654 -0.18 +0.00    +0.004 A  
DOCKED: ATOM      4  C   UNL     1     -49.189 -23.059  15.713 -0.13 +0.00    +0.006 A  
DOCKED: ATOM      5  C   UNL     1     -49.641 -22.343  16.926 -0.04 +0.00    +0.169 C  
DOCKED: ATOM      6  C   UNL     1     -47.134 -23.651  14.593 -0.27 -0.00    -0.001 A  
DOCKED: ATOM      7  C   UNL     1     -49.951 -23.654  14.722 -0.18 +0.00    +0.008 A  
DOCKED: ATOM      8  C   UNL     1     -47.889 -24.259  13.589 -0.39 +0.00    +0.010 A  
DOCKED: ATOM      9  C   UNL     1     -49.290 -24.260  13.653 -0.26 +0.00    +0.068 A  
DOCKED: ATOM     10  N   UNL     1     -50.661 -25.393  11.769 -2.13 -0.00    -0.191 NA 
DOCKED: ATOM     11  C   UNL     1     -50.046 -24.886  12.614 -0.19 +0.00    +0.101 C  
DOCKED: ENDROOT
DOCKED: BRANCH   2  12
DOCKED: ATOM     12  C   UNL     1     -46.553 -21.032  16.488 -0.07 +0.00    +0.038 C  
DOCKED: BRANCH  12  13
DOCKED: ATOM     13  C   UNL     1     -46.880 -20.605  15.059 -0.13 +0.00    +0.038 C  
DOCKED: BRANCH  13  14
DOCKED: ATOM     14  C   UNL     1     -48.171 -19.791  15.010 -0.06 +0.00    +0.251 C  
DOCKED: BRANCH  14  15
DOCKED: ATOM     15  N   UNL     1     -49.116 -20.394  14.078 -0.14 +0.00    +0.141 N  
DOCKED: ATOM     16  C   UNL     1     -50.155 -19.433  13.702 -0.16 +0.00    +0.285 C  
DOCKED: ATOM     17  C   UNL     1     -48.423 -20.884  12.886 -0.13 +0.00    +0.285 C  
DOCKED: ENDBRANCH  14  15
DOCKED: ENDBRANCH  13  14
DOCKED: ENDBRANCH  12  13
DOCKED: ENDBRANCH   2  12
DOCKED: BRANCH   2  18
DOCKED: ATOM     18  C   UNL     1     -46.366 -23.203  17.689 -0.11 +0.00    +0.006 A  
DOCKED: ATOM     19  C   UNL     1     -44.980 -23.087  17.591 -0.10 +0.00    +0.001 A  
DOCKED: ATOM     20  C   UNL     1     -44.156 -23.896  18.376 -0.12 +0.00    +0.029 A  
DOCKED: ATOM     21  C   UNL     1     -44.720 -24.818  19.257 -0.13 +0.00    +0.140 A  
DOCKED: ATOM     22  C   UNL     1     -46.106 -24.933  19.354 -0.17 +0.00    +0.029 A  
DOCKED: ATOM     23  F   UNL     1     -43.929 -25.592  20.011 -0.07 -0.00    -0.204 F  
DOCKED: ATOM     24  C   UNL     1     -46.930 -24.125  18.569 -0.16 +0.00    +0.001 A  
DOCKED: ENDBRANCH   2  18
DOCKED: TORSDOF 5
DOCKED: TER
DOCKED: ENDMDL
________________________________________________________________________________


    FINAL DOCKED STATE:
    ________________________


Run:   423 / 512
Time taken for this run:   0.002s

DOCKED: MODEL        423
DOCKED: USER    Run = 423
DOCKED: USER
DOCKED: USER    Estimated Free Energy of Binding    =  -4.47 kcal/mol  [=(1)+(2)+(3)-(4)]
DOCKED: USER
DOCKED: USER    (1) Final Intermolecular Energy     =  -5.96 kcal/mol
DOCKED: USER        vdW + Hbond + desolv Energy     =  -5.96 kcal/mol
DOCKED: USER        Electrostatic Energy            =  +0.00 kcal/mol
DOCKED: USER        Moving Ligand-Fixed Receptor    =  -5.96 kcal/mol
DOCKED: USER        Moving Ligand-Moving Receptor   =  +0.00 kcal/mol
DOCKED: USER    (2) Final Total Internal Energy     =  -1.11 kcal/mol
DOCKED: USER    (3) Torsional Free Energy           =  +1.49 kcal/mol
DOCKED: USER    (4) Unbound System's Energy         =  -1.11 kcal/mol
DOCKED: USER
DOCKED: USER
DOCKED: REMARK  5 active torsions:
DOCKED: REMARK  status: ('A' for Active; 'I' for Inactive)
DOCKED: REMARK    1  A    between atoms: C_2  and  C_19 
DOCKED: REMARK    2  A    between atoms: C_2  and  C_11 
DOCKED: REMARK    3  A    between atoms: C_19  and  C_20 
DOCKED: REMARK    4  A    between atoms: C_20  and  C_21 
DOCKED: REMARK    5  A    between atoms: C_21  and  N_22 
DOCKED: USER                              x       y       z     vdW  Elec       q    Type
DOCKED: USER                           _______ _______ _______ _____ _____    ______ ____
DOCKED: ROOT
DOCKED: ATOM      1  O   UNL     1     -45.152 -15.679   7.156 -0.05 -0.00    -0.346 OA 
DOCKED: ATOM      2  C   UNL     1     -43.982 -15.402   6.322 -0.11 +0.00    +0.130 C  
DOCKED: ATOM      3  C   UNL     1     -44.547 -14.660   5.145 -0.20 +0.00    +0.004 A  
DOCKED: ATOM      4  C   UNL     1     -45.902 -14.435   5.341 -0.30 +0.00    +0.006 A  
DOCKED: ATOM      5  C   UNL     1     -46.319 -14.992   6.647 -0.26 +0.00    +0.169 C  
DOCKED: ATOM      6  C   UNL     1     -43.909 -14.211   3.997 -0.16 -0.00    -0.001 A  
DOCKED: ATOM      7  C   UNL     1     -46.664 -13.762   4.402 -0.35 +0.00    +0.008 A  
DOCKED: ATOM      8  C   UNL     1     -44.665 -13.534   3.039 -0.24 +0.00    +0.010 A  
DOCKED: ATOM      9  C   UNL     1     -46.035 -13.310   3.241 -0.27 +0.00    +0.068 A  
DOCKED: ATOM     10  N   UNL     1     -47.408 -12.045   1.444 -2.48 -0.00    -0.191 NA 
DOCKED: ATOM     11  C   UNL     1     -46.792 -12.613   2.249 -0.39 +0.00    +0.101 C  
DOCKED: ENDROOT
DOCKED: BRANCH   2  12
DOCKED: ATOM     12  C   UNL     1     -42.998 -14.567   7.132 -0.12 +0.00    +0.038 C  
DOCKED: BRANCH  12  13
DOCKED: ATOM     13  C   UNL     1     -43.002 -13.108   6.681 -0.09 +0.00    +0.038 C  
DOCKED: BRANCH  13  14
DOCKED: ATOM     14  C   UNL     1     -41.771 -12.791   5.834 -0.07 +0.00    +0.251 C  
DOCKED: BRANCH  14  15
DOCKED: ATOM     15  N   UNL     1     -41.717 -11.366   5.530 -0.09 +0.00    +0.141 N  
DOCKED: ATOM     16  C   UNL     1     -40.521 -11.050   4.748 -0.01 +0.00    +0.285 C  
DOCKED: ATOM     17  C   UNL     1     -42.920 -10.947   4.808 -0.13 +0.00    +0.285 C  
DOCKED: ENDBRANCH  14  15
DOCKED: ENDBRANCH  13  14
DOCKED: ENDBRANCH  12  13
DOCKED: ENDBRANCH   2  12
DOCKED: BRANCH   2  18
DOCKED: ATOM     18  C   UNL     1     -43.390 -16.720   5.949 -0.07 +0.00    +0.006 A  
DOCKED: ATOM     19  C   UNL     1     -44.186 -17.696   5.351 -0.19 +0.00    +0.001 A  
DOCKED: ATOM     20  C   UNL     1     -43.631 -18.929   5.003 -0.20 +0.00    +0.029 A  
DOCKED: ATOM     21  C   UNL     1     -42.283 -19.183   5.254 -0.09 +0.00    +0.140 A  
DOCKED: ATOM     22  C   UNL     1     -41.489 -18.206   5.852 -0.02 +0.00    +0.029 A  
DOCKED: ATOM     23  F   UNL     1     -41.751 -20.365   4.918 -0.04 -0.00    -0.204 F  
DOCKED: ATOM     24  C   UNL     1     -42.042 -16.973   6.201 -0.02 +0.00    +0.001 A  
DOCKED: ENDBRANCH   2  18
DOCKED: TORSDOF 5
DOCKED: TER
DOCKED: ENDMDL
________________________________________________________________________________


    FINAL DOCKED STATE:
    ________________________


Run:   424 / 512
Time taken for this run:   0.002s

DOCKED: MODEL        424
DOCKED: USER    Run = 424
DOCKED: USER
DOCKED: USER    Estimated Free Energy of Binding    =  -4.74 kcal/mol  [=(1)+(2)+(3)-(4)]
DOCKED: USER
DOCKED: USER    (1) Final Intermolecular Energy     =  -6.23 kcal/mol
DOCKED: USER        vdW + Hbond + desolv Energy     =  -6.23 kcal/mol
DOCKED: USER        Electrostatic Energy            =  +0.00 kcal/mol
DOCKED: USER        Moving Ligand-Fixed Receptor    =  -6.23 kcal/mol
DOCKED: USER        Moving Ligand-Moving Receptor   =  +0.00 kcal/mol
DOCKED: USER    (2) Final Total Internal Energy     =  -1.34 kcal/mol
DOCKED: USER    (3) Torsional Free Energy           =  +1.49 kcal/mol
DOCKED: USER    (4) Unbound System's Energy         =  -1.34 kcal/mol
DOCKED: USER
DOCKED: USER
DOCKED: REMARK  5 active torsions:
DOCKED: REMARK  status: ('A' for Active; 'I' for Inactive)
DOCKED: REMARK    1  A    between atoms: C_2  and  C_19 
DOCKED: REMARK    2  A    between atoms: C_2  and  C_11 
DOCKED: REMARK    3  A    between atoms: C_19  and  C_20 
DOCKED: REMARK    4  A    between atoms: C_20  and  C_21 
DOCKED: REMARK    5  A    between atoms: C_21  and  N_22 
DOCKED: USER                              x       y       z     vdW  Elec       q    Type
DOCKED: USER                           _______ _______ _______ _____ _____    ______ ____
DOCKED: ROOT
DOCKED: ATOM      1  O   UNL     1     -43.611 -15.913   6.043 -0.01 -0.00    -0.346 OA 
DOCKED: ATOM      2  C   UNL     1     -44.953 -15.762   6.607 -0.17 +0.00    +0.130 C  
DOCKED: ATOM      3  C   UNL     1     -45.670 -14.903   5.606 -0.28 +0.00    +0.004 A  
DOCKED: ATOM      4  C   UNL     1     -44.847 -14.676   4.512 -0.23 +0.00    +0.006 A  
DOCKED: ATOM      5  C   UNL     1     -43.553 -15.368   4.704 -0.10 +0.00    +0.169 C  
DOCKED: ATOM      6  C   UNL     1     -46.952 -14.375   5.654 -0.20 -0.00    -0.001 A  
DOCKED: ATOM      7  C   UNL     1     -45.272 -13.915   3.436 -0.23 +0.00    +0.008 A  
DOCKED: ATOM      8  C   UNL     1     -47.393 -13.602   4.579 -0.36 +0.00    +0.010 A  
DOCKED: ATOM      9  C   UNL     1     -46.557 -13.373   3.476 -0.25 +0.00    +0.068 A  
DOCKED: ATOM     10  N   UNL     1     -47.410 -11.936   1.495 -2.43 -0.00    -0.191 NA 
DOCKED: ATOM     11  C   UNL     1     -47.027 -12.580   2.384 -0.37 +0.00    +0.101 C  
DOCKED: ENDROOT
DOCKED: BRANCH   2  12
DOCKED: ATOM     12  C   UNL     1     -45.574 -17.146   6.755 -0.23 +0.00    +0.038 C  
DOCKED: BRANCH  12  13
DOCKED: ATOM     13  C   UNL     1     -44.502 -18.232   6.825 -0.19 +0.00    +0.038 C  
DOCKED: BRANCH  13  14
DOCKED: ATOM     14  C   UNL     1     -44.568 -18.983   8.154 -0.15 +0.00    +0.251 C  
DOCKED: BRANCH  14  15
DOCKED: ATOM     15  N   UNL     1     -43.232 -19.133   8.719 -0.07 +0.00    +0.141 N  
DOCKED: ATOM     16  C   UNL     1     -42.241 -18.445   7.890 -0.01 +0.00    +0.285 C  
DOCKED: ATOM     17  C   UNL     1     -43.191 -18.621  10.089 -0.05 +0.00    +0.285 C  
DOCKED: ENDBRANCH  14  15
DOCKED: ENDBRANCH  13  14
DOCKED: ENDBRANCH  12  13
DOCKED: ENDBRANCH   2  12
DOCKED: BRANCH   2  18
DOCKED: ATOM     18  C   UNL     1     -44.795 -15.098   7.935 -0.17 +0.00    +0.006 A  
DOCKED: ATOM     19  C   UNL     1     -43.520 -14.859   8.447 -0.12 +0.00    +0.001 A  
DOCKED: ATOM     20  C   UNL     1     -43.374 -14.239   9.688 -0.10 +0.00    +0.029 A  
DOCKED: ATOM     21  C   UNL     1     -44.502 -13.859  10.415 -0.08 +0.00    +0.140 A  
DOCKED: ATOM     22  C   UNL     1     -45.776 -14.098   9.902 -0.18 +0.00    +0.029 A  
DOCKED: ATOM     23  F   UNL     1     -44.361 -13.262  11.606 -0.04 -0.00    -0.204 F  
DOCKED: ATOM     24  C   UNL     1     -45.924 -14.718   8.660 -0.21 +0.00    +0.001 A  
DOCKED: ENDBRANCH   2  18
DOCKED: TORSDOF 5
DOCKED: TER
DOCKED: ENDMDL
________________________________________________________________________________


    FINAL DOCKED STATE:
    ________________________


Run:   425 / 512
Time taken for this run:   0.002s

DOCKED: MODEL        425
DOCKED: USER    Run = 425
DOCKED: USER
DOCKED: USER    Estimated Free Energy of Binding    =  -3.95 kcal/mol  [=(1)+(2)+(3)-(4)]
DOCKED: USER
DOCKED: USER    (1) Final Intermolecular Energy     =  -5.44 kcal/mol
DOCKED: USER        vdW + Hbond + desolv Energy     =  -5.44 kcal/mol
DOCKED: USER        Electrostatic Energy            =  +0.00 kcal/mol
DOCKED: USER        Moving Ligand-Fixed Receptor    =  -5.44 kcal/mol
DOCKED: USER        Moving Ligand-Moving Receptor   =  +0.00 kcal/mol
DOCKED: USER    (2) Final Total Internal Energy     =  -1.26 kcal/mol
DOCKED: USER    (3) Torsional Free Energy           =  +1.49 kcal/mol
DOCKED: USER    (4) Unbound System's Energy         =  -1.26 kcal/mol
DOCKED: USER
DOCKED: USER
DOCKED: REMARK  5 active torsions:
DOCKED: REMARK  status: ('A' for Active; 'I' for Inactive)
DOCKED: REMARK    1  A    between atoms: C_2  and  C_19 
DOCKED: REMARK    2  A    between atoms: C_2  and  C_11 
DOCKED: REMARK    3  A    between atoms: C_19  and  C_20 
DOCKED: REMARK    4  A    between atoms: C_20  and  C_21 
DOCKED: REMARK    5  A    between atoms: C_21  and  N_22 
DOCKED: USER                              x       y       z     vdW  Elec       q    Type
DOCKED: USER                           _______ _______ _______ _____ _____    ______ ____
DOCKED: ROOT
DOCKED: ATOM      1  O   UNL     1     -47.620 -19.543  14.332 -0.04 -0.00    -0.346 OA 
DOCKED: ATOM      2  C   UNL     1     -46.970 -20.610  15.092 -0.11 +0.00    +0.130 C  
DOCKED: ATOM      3  C   UNL     1     -47.545 -21.869  14.510 -0.21 +0.00    +0.004 A  
DOCKED: ATOM      4  C   UNL     1     -48.367 -21.554  13.437 -0.28 +0.00    +0.006 A  
DOCKED: ATOM      5  C   UNL     1     -48.383 -20.088  13.230 -0.19 +0.00    +0.169 C  
DOCKED: ATOM      6  C   UNL     1     -47.347 -23.188  14.891 -0.25 -0.00    -0.001 A  
DOCKED: ATOM      7  C   UNL     1     -49.019 -22.539  12.716 -0.34 +0.00    +0.008 A  
DOCKED: ATOM      8  C   UNL     1     -48.001 -24.193  14.176 -0.35 +0.00    +0.010 A  
DOCKED: ATOM      9  C   UNL     1     -48.833 -23.869  13.094 -0.32 +0.00    +0.068 A  
DOCKED: ATOM     10  N   UNL     1     -50.029 -25.759  11.785 -2.42 -0.00    -0.191 NA 
DOCKED: ATOM     11  C   UNL     1     -49.493 -24.911  12.372 -0.28 +0.00    +0.101 C  
DOCKED: ENDROOT
DOCKED: BRANCH   2  12
DOCKED: ATOM     12  C   UNL     1     -45.463 -20.497  14.891 -0.13 +0.00    +0.038 C  
DOCKED: BRANCH  12  13
DOCKED: ATOM     13  C   UNL     1     -45.091 -19.191  14.191 -0.10 +0.00    +0.038 C  
DOCKED: BRANCH  13  14
DOCKED: ATOM     14  C   UNL     1     -44.436 -19.460  12.838 -0.06 +0.00    +0.251 C  
DOCKED: BRANCH  14  15
DOCKED: ATOM     15  N   UNL     1     -44.756 -18.392  11.899 -0.10 +0.00    +0.141 N  
DOCKED: ATOM     16  C   UNL     1     -45.067 -18.942  10.578 -0.09 +0.00    +0.285 C  
DOCKED: ATOM     17  C   UNL     1     -45.877 -17.590  12.392 -0.07 +0.00    +0.285 C  
DOCKED: ENDBRANCH  14  15
DOCKED: ENDBRANCH  13  14
DOCKED: ENDBRANCH  12  13
DOCKED: ENDBRANCH   2  12
DOCKED: BRANCH   2  18
DOCKED: ATOM     18  C   UNL     1     -47.337 -20.412  16.525 -0.04 +0.00    +0.006 A  
DOCKED: ATOM     19  C   UNL     1     -48.470 -19.670  16.857 -0.02 +0.00    +0.001 A  
DOCKED: ATOM     20  C   UNL     1     -48.813 -19.485  18.197 -0.00 +0.00    +0.029 A  
DOCKED: ATOM     21  C   UNL     1     -48.023 -20.042  19.202 -0.00 +0.00    +0.140 A  
DOCKED: ATOM     22  C   UNL     1     -46.890 -20.784  18.869 -0.01 +0.00    +0.029 A  
DOCKED: ATOM     23  F   UNL     1     -48.353 -19.866  20.488 +0.00 -0.00    -0.204 F  
DOCKED: ATOM     24  C   UNL     1     -46.546 -20.969  17.529 -0.03 +0.00    +0.001 A  
DOCKED: ENDBRANCH   2  18
DOCKED: TORSDOF 5
DOCKED: TER
DOCKED: ENDMDL
________________________________________________________________________________


    FINAL DOCKED STATE:
    ________________________


Run:   426 / 512
Time taken for this run:   0.002s

DOCKED: MODEL        426
DOCKED: USER    Run = 426
DOCKED: USER
DOCKED: USER    Estimated Free Energy of Binding    =  -4.85 kcal/mol  [=(1)+(2)+(3)-(4)]
DOCKED: USER
DOCKED: USER    (1) Final Intermolecular Energy     =  -6.34 kcal/mol
DOCKED: USER        vdW + Hbond + desolv Energy     =  -6.34 kcal/mol
DOCKED: USER        Electrostatic Energy            =  +0.00 kcal/mol
DOCKED: USER        Moving Ligand-Fixed Receptor    =  -6.34 kcal/mol
DOCKED: USER        Moving Ligand-Moving Receptor   =  +0.00 kcal/mol
DOCKED: USER    (2) Final Total Internal Energy     =  -1.34 kcal/mol
DOCKED: USER    (3) Torsional Free Energy           =  +1.49 kcal/mol
DOCKED: USER    (4) Unbound System's Energy         =  -1.34 kcal/mol
DOCKED: USER
DOCKED: USER
DOCKED: REMARK  5 active torsions:
DOCKED: REMARK  status: ('A' for Active; 'I' for Inactive)
DOCKED: REMARK    1  A    between atoms: C_2  and  C_19 
DOCKED: REMARK    2  A    between atoms: C_2  and  C_11 
DOCKED: REMARK    3  A    between atoms: C_19  and  C_20 
DOCKED: REMARK    4  A    between atoms: C_20  and  C_21 
DOCKED: REMARK    5  A    between atoms: C_21  and  N_22 
DOCKED: USER                              x       y       z     vdW  Elec       q    Type
DOCKED: USER                           _______ _______ _______ _____ _____    ______ ____
DOCKED: ROOT
DOCKED: ATOM      1  O   UNL     1     -44.398 -15.876   6.636 -0.03 -0.00    -0.346 OA 
DOCKED: ATOM      2  C   UNL     1     -45.777 -15.584   7.031 -0.22 +0.00    +0.130 C  
DOCKED: ATOM      3  C   UNL     1     -46.309 -14.757   5.896 -0.29 +0.00    +0.004 A  
DOCKED: ATOM      4  C   UNL     1     -45.356 -14.676   4.890 -0.27 +0.00    +0.006 A  
DOCKED: ATOM      5  C   UNL     1     -44.150 -15.443   5.278 -0.13 +0.00    +0.169 C  
DOCKED: ATOM      6  C   UNL     1     -47.541 -14.136   5.760 +0.12 -0.00    -0.001 A  
DOCKED: ATOM      7  C   UNL     1     -45.598 -13.973   3.723 -0.21 +0.00    +0.008 A  
DOCKED: ATOM      8  C   UNL     1     -47.799 -13.419   4.590 -0.40 +0.00    +0.010 A  
DOCKED: ATOM      9  C   UNL     1     -46.833 -13.338   3.577 -0.27 +0.00    +0.068 A  
DOCKED: ATOM     10  N   UNL     1     -47.345 -12.003   1.416 -2.36 -0.00    -0.191 NA 
DOCKED: ATOM     11  C   UNL     1     -47.115 -12.601   2.386 -0.32 +0.00    +0.101 C  
DOCKED: ENDROOT
DOCKED: BRANCH   2  12
DOCKED: ATOM     12  C   UNL     1     -46.519 -16.904   7.202 -0.27 +0.00    +0.038 C  
DOCKED: BRANCH  12  13
DOCKED: ATOM     13  C   UNL     1     -46.027 -17.664   8.432 -0.17 +0.00    +0.038 C  
DOCKED: BRANCH  13  14
DOCKED: ATOM     14  C   UNL     1     -45.368 -18.984   8.033 -0.20 +0.00    +0.251 C  
DOCKED: BRANCH  14  15
DOCKED: ATOM     15  N   UNL     1     -43.954 -18.778   7.743 -0.11 +0.00    +0.141 N  
DOCKED: ATOM     16  C   UNL     1     -43.163 -18.819   8.975 -0.04 +0.00    +0.285 C  
DOCKED: ATOM     17  C   UNL     1     -43.470 -19.784   6.796 -0.14 +0.00    +0.285 C  
DOCKED: ENDBRANCH  14  15
DOCKED: ENDBRANCH  13  14
DOCKED: ENDBRANCH  12  13
DOCKED: ENDBRANCH   2  12
DOCKED: BRANCH   2  18
DOCKED: ATOM     18  C   UNL     1     -45.712 -14.832   8.318 -0.21 +0.00    +0.006 A  
DOCKED: ATOM     19  C   UNL     1     -46.888 -14.484   8.982 -0.25 +0.00    +0.001 A  
DOCKED: ATOM     20  C   UNL     1     -46.825 -13.780  10.185 -0.21 +0.00    +0.029 A  
DOCKED: ATOM     21  C   UNL     1     -45.589 -13.426  10.723 -0.13 +0.00    +0.140 A  
DOCKED: ATOM     22  C   UNL     1     -44.413 -13.775  10.058 -0.03 +0.00    +0.029 A  
DOCKED: ATOM     23  F   UNL     1     -45.529 -12.752  11.879 -0.05 -0.00    -0.204 F  
DOCKED: ATOM     24  C   UNL     1     -44.474 -14.478   8.854 -0.15 +0.00    +0.001 A  
DOCKED: ENDBRANCH   2  18
DOCKED: TORSDOF 5
DOCKED: TER
DOCKED: ENDMDL
________________________________________________________________________________


    FINAL DOCKED STATE:
    ________________________


Run:   427 / 512
Time taken for this run:   0.002s

DOCKED: MODEL        427
DOCKED: USER    Run = 427
DOCKED: USER
DOCKED: USER    Estimated Free Energy of Binding    =  -5.27 kcal/mol  [=(1)+(2)+(3)-(4)]
DOCKED: USER
DOCKED: USER    (1) Final Intermolecular Energy     =  -6.76 kcal/mol
DOCKED: USER        vdW + Hbond + desolv Energy     =  -6.76 kcal/mol
DOCKED: USER        Electrostatic Energy            =  +0.00 kcal/mol
DOCKED: USER        Moving Ligand-Fixed Receptor    =  -6.76 kcal/mol
DOCKED: USER        Moving Ligand-Moving Receptor   =  +0.00 kcal/mol
DOCKED: USER    (2) Final Total Internal Energy     =  -1.06 kcal/mol
DOCKED: USER    (3) Torsional Free Energy           =  +1.49 kcal/mol
DOCKED: USER    (4) Unbound System's Energy         =  -1.06 kcal/mol
DOCKED: USER
DOCKED: USER
DOCKED: REMARK  5 active torsions:
DOCKED: REMARK  status: ('A' for Active; 'I' for Inactive)
DOCKED: REMARK    1  A    between atoms: C_2  and  C_19 
DOCKED: REMARK    2  A    between atoms: C_2  and  C_11 
DOCKED: REMARK    3  A    between atoms: C_19  and  C_20 
DOCKED: REMARK    4  A    between atoms: C_20  and  C_21 
DOCKED: REMARK    5  A    between atoms: C_21  and  N_22 
DOCKED: USER                              x       y       z     vdW  Elec       q    Type
DOCKED: USER                           _______ _______ _______ _____ _____    ______ ____
DOCKED: ROOT
DOCKED: ATOM      1  O   UNL     1     -47.309 -23.825  14.782 -0.14 -0.00    -0.346 OA 
DOCKED: ATOM      2  C   UNL     1     -48.560 -23.069  14.862 -0.18 +0.00    +0.130 C  
DOCKED: ATOM      3  C   UNL     1     -49.201 -23.292  13.523 -0.29 +0.00    +0.004 A  
DOCKED: ATOM      4  C   UNL     1     -48.439 -24.186  12.784 -0.40 +0.00    +0.006 A  
DOCKED: ATOM      5  C   UNL     1     -47.266 -24.620  13.575 -0.20 +0.00    +0.169 C  
DOCKED: ATOM      6  C   UNL     1     -50.371 -22.756  13.004 -0.28 -0.00    -0.001 A  
DOCKED: ATOM      7  C   UNL     1     -48.814 -24.570  11.508 -0.33 +0.00    +0.008 A  
DOCKED: ATOM      8  C   UNL     1     -50.760 -23.130  11.717 -0.18 +0.00    +0.010 A  
DOCKED: ATOM      9  C   UNL     1     -49.986 -24.033  10.973 -0.43 +0.00    +0.068 A  
DOCKED: ATOM     10  N   UNL     1     -50.741 -24.710   8.589 -2.48 -0.00    -0.191 NA 
DOCKED: ATOM     11  C   UNL     1     -50.402 -24.406   9.658 -0.35 +0.00    +0.101 C  
DOCKED: ENDROOT
DOCKED: BRANCH   2  12
DOCKED: ATOM     12  C   UNL     1     -49.387 -23.623  16.015 -0.18 +0.00    +0.038 C  
DOCKED: BRANCH  12  13
DOCKED: ATOM     13  C   UNL     1     -48.614 -24.687  16.794 -0.27 +0.00    +0.038 C  
DOCKED: BRANCH  13  14
DOCKED: ATOM     14  C   UNL     1     -49.263 -24.955  18.150 -0.10 +0.00    +0.251 C  
DOCKED: BRANCH  14  15
DOCKED: ATOM     15  N   UNL     1     -48.296 -25.544  19.068 -0.20 +0.00    +0.141 N  
DOCKED: ATOM     16  C   UNL     1     -46.949 -25.043  18.790 -0.12 +0.00    +0.285 C  
DOCKED: ATOM     17  C   UNL     1     -48.665 -25.264  20.457 -0.08 +0.00    +0.285 C  
DOCKED: ENDBRANCH  14  15
DOCKED: ENDBRANCH  13  14
DOCKED: ENDBRANCH  12  13
DOCKED: ENDBRANCH   2  12
DOCKED: BRANCH   2  18
DOCKED: ATOM     18  C   UNL     1     -48.193 -21.642  15.100 -0.13 +0.00    +0.006 A  
DOCKED: ATOM     19  C   UNL     1     -47.606 -20.894  14.080 -0.21 +0.00    +0.001 A  
DOCKED: ATOM     20  C   UNL     1     -47.263 -19.560  14.304 -0.13 +0.00    +0.029 A  
DOCKED: ATOM     21  C   UNL     1     -47.507 -18.976  15.546 -0.03 +0.00    +0.140 A  
DOCKED: ATOM     22  C   UNL     1     -48.094 -19.725  16.566 -0.02 +0.00    +0.029 A  
DOCKED: ATOM     23  F   UNL     1     -47.179 -17.696  15.760 +0.00 -0.00    -0.204 F  
DOCKED: ATOM     24  C   UNL     1     -48.437 -21.060  16.343 -0.05 +0.00    +0.001 A  
DOCKED: ENDBRANCH   2  18
DOCKED: TORSDOF 5
DOCKED: TER
DOCKED: ENDMDL
________________________________________________________________________________


    FINAL DOCKED STATE:
    ________________________


Run:   428 / 512
Time taken for this run:   0.002s

DOCKED: MODEL        428
DOCKED: USER    Run = 428
DOCKED: USER
DOCKED: USER    Estimated Free Energy of Binding    =  -6.02 kcal/mol  [=(1)+(2)+(3)-(4)]
DOCKED: USER
DOCKED: USER    (1) Final Intermolecular Energy     =  -7.51 kcal/mol
DOCKED: USER        vdW + Hbond + desolv Energy     =  -7.51 kcal/mol
DOCKED: USER        Electrostatic Energy            =  +0.00 kcal/mol
DOCKED: USER        Moving Ligand-Fixed Receptor    =  -7.51 kcal/mol
DOCKED: USER        Moving Ligand-Moving Receptor   =  +0.00 kcal/mol
DOCKED: USER    (2) Final Total Internal Energy     =  -0.97 kcal/mol
DOCKED: USER    (3) Torsional Free Energy           =  +1.49 kcal/mol
DOCKED: USER    (4) Unbound System's Energy         =  -0.97 kcal/mol
DOCKED: USER
DOCKED: USER
DOCKED: REMARK  5 active torsions:
DOCKED: REMARK  status: ('A' for Active; 'I' for Inactive)
DOCKED: REMARK    1  A    between atoms: C_2  and  C_19 
DOCKED: REMARK    2  A    between atoms: C_2  and  C_11 
DOCKED: REMARK    3  A    between atoms: C_19  and  C_20 
DOCKED: REMARK    4  A    between atoms: C_20  and  C_21 
DOCKED: REMARK    5  A    between atoms: C_21  and  N_22 
DOCKED: USER                              x       y       z     vdW  Elec       q    Type
DOCKED: USER                           _______ _______ _______ _____ _____    ______ ____
DOCKED: ROOT
DOCKED: ATOM      1  O   UNL     1     -48.224 -21.602  14.633 -0.05 -0.00    -0.346 OA 
DOCKED: ATOM      2  C   UNL     1     -47.876 -23.023  14.610 -0.23 +0.00    +0.130 C  
DOCKED: ATOM      3  C   UNL     1     -48.402 -23.501  13.288 -0.35 +0.00    +0.004 A  
DOCKED: ATOM      4  C   UNL     1     -48.907 -22.426  12.570 -0.35 +0.00    +0.006 A  
DOCKED: ATOM      5  C   UNL     1     -48.741 -21.179  13.350 -0.23 +0.00    +0.169 C  
DOCKED: ATOM      6  C   UNL     1     -48.421 -24.783  12.757 -0.37 -0.00    -0.001 A  
DOCKED: ATOM      7  C   UNL     1     -49.449 -22.594  11.307 -0.05 +0.00    +0.008 A  
DOCKED: ATOM      8  C   UNL     1     -48.969 -24.969  11.487 -0.45 +0.00    +0.010 A  
DOCKED: ATOM      9  C   UNL     1     -49.480 -23.879  10.766 -0.42 +0.00    +0.068 A  
DOCKED: ATOM     10  N   UNL     1     -50.485 -24.259   8.408 -2.91 -0.00    -0.191 NA 
DOCKED: ATOM     11  C   UNL     1     -50.035 -24.089   9.466 -0.44 +0.00    +0.101 C  
DOCKED: ENDROOT
DOCKED: BRANCH   2  12
DOCKED: ATOM     12  C   UNL     1     -46.362 -23.151  14.728 -0.22 +0.00    +0.038 C  
DOCKED: BRANCH  12  13
DOCKED: ATOM     13  C   UNL     1     -45.765 -21.990  15.521 -0.18 +0.00    +0.038 C  
DOCKED: BRANCH  13  14
DOCKED: ATOM     14  C   UNL     1     -44.449 -22.396  16.183 -0.10 +0.00    +0.251 C  
DOCKED: BRANCH  14  15
DOCKED: ATOM     15  N   UNL     1     -43.336 -21.665  15.588 -0.08 +0.00    +0.141 N  
DOCKED: ATOM     16  C   UNL     1     -42.332 -21.339  16.603 -0.01 +0.00    +0.285 C  
DOCKED: ATOM     17  C   UNL     1     -42.729 -22.442  14.506 -0.09 +0.00    +0.285 C  
DOCKED: ENDBRANCH  14  15
DOCKED: ENDBRANCH  13  14
DOCKED: ENDBRANCH  12  13
DOCKED: ENDBRANCH   2  12
DOCKED: BRANCH   2  18
DOCKED: ATOM     18  C   UNL     1     -48.562 -23.659  15.773 -0.19 +0.00    +0.006 A  
DOCKED: ATOM     19  C   UNL     1     -49.954 -23.725  15.809 -0.16 +0.00    +0.001 A  
DOCKED: ATOM     20  C   UNL     1     -50.594 -24.320  16.897 -0.15 +0.00    +0.029 A  
DOCKED: ATOM     21  C   UNL     1     -49.842 -24.847  17.946 -0.06 +0.00    +0.140 A  
DOCKED: ATOM     22  C   UNL     1     -48.450 -24.781  17.908 -0.22 +0.00    +0.029 A  
DOCKED: ATOM     23  F   UNL     1     -50.457 -25.420  18.989 -0.04 -0.00    -0.204 F  
DOCKED: ATOM     24  C   UNL     1     -47.808 -24.186  16.821 -0.16 +0.00    +0.001 A  
DOCKED: ENDBRANCH   2  18
DOCKED: TORSDOF 5
DOCKED: TER
DOCKED: ENDMDL
________________________________________________________________________________


    FINAL DOCKED STATE:
    ________________________


Run:   429 / 512
Time taken for this run:   0.002s

DOCKED: MODEL        429
DOCKED: USER    Run = 429
DOCKED: USER
DOCKED: USER    Estimated Free Energy of Binding    =  -4.06 kcal/mol  [=(1)+(2)+(3)-(4)]
DOCKED: USER
DOCKED: USER    (1) Final Intermolecular Energy     =  -5.56 kcal/mol
DOCKED: USER        vdW + Hbond + desolv Energy     =  -5.56 kcal/mol
DOCKED: USER        Electrostatic Energy            =  +0.00 kcal/mol
DOCKED: USER        Moving Ligand-Fixed Receptor    =  -5.56 kcal/mol
DOCKED: USER        Moving Ligand-Moving Receptor   =  +0.00 kcal/mol
DOCKED: USER    (2) Final Total Internal Energy     =  -1.34 kcal/mol
DOCKED: USER    (3) Torsional Free Energy           =  +1.49 kcal/mol
DOCKED: USER    (4) Unbound System's Energy         =  -1.34 kcal/mol
DOCKED: USER
DOCKED: USER
DOCKED: REMARK  5 active torsions:
DOCKED: REMARK  status: ('A' for Active; 'I' for Inactive)
DOCKED: REMARK    1  A    between atoms: C_2  and  C_19 
DOCKED: REMARK    2  A    between atoms: C_2  and  C_11 
DOCKED: REMARK    3  A    between atoms: C_19  and  C_20 
DOCKED: REMARK    4  A    between atoms: C_20  and  C_21 
DOCKED: REMARK    5  A    between atoms: C_21  and  N_22 
DOCKED: USER                              x       y       z     vdW  Elec       q    Type
DOCKED: USER                           _______ _______ _______ _____ _____    ______ ____
DOCKED: ROOT
DOCKED: ATOM      1  O   UNL     1     -50.230 -19.010  14.401 -0.05 -0.00    -0.346 OA 
DOCKED: ATOM      2  C   UNL     1     -48.823 -19.383  14.247 -0.14 +0.00    +0.130 C  
DOCKED: ATOM      3  C   UNL     1     -48.878 -20.809  13.783 -0.23 +0.00    +0.004 A  
DOCKED: ATOM      4  C   UNL     1     -50.199 -21.185  13.582 -0.23 +0.00    +0.006 A  
DOCKED: ATOM      5  C   UNL     1     -51.096 -20.047  13.883 -0.19 +0.00    +0.169 C  
DOCKED: ATOM      6  C   UNL     1     -47.841 -21.700  13.546 -0.25 -0.00    -0.001 A  
DOCKED: ATOM      7  C   UNL     1     -50.528 -22.457  13.146 -0.25 +0.00    +0.008 A  
DOCKED: ATOM      8  C   UNL     1     -48.157 -22.988  13.109 -0.31 +0.00    +0.010 A  
DOCKED: ATOM      9  C   UNL     1     -49.494 -23.364  12.910 -0.29 +0.00    +0.068 A  
DOCKED: ATOM     10  N   UNL     1     -50.046 -25.760  12.094 -2.62 -0.00    -0.191 NA 
DOCKED: ATOM     11  C   UNL     1     -49.798 -24.686  12.460 -0.35 +0.00    +0.101 C  
DOCKED: ENDROOT
DOCKED: BRANCH   2  12
DOCKED: ATOM     12  C   UNL     1     -48.186 -18.450  13.223 -0.16 +0.00    +0.038 C  
DOCKED: BRANCH  12  13
DOCKED: ATOM     13  C   UNL     1     -46.759 -18.879  12.891 -0.17 +0.00    +0.038 C  
DOCKED: BRANCH  13  14
DOCKED: ATOM     14  C   UNL     1     -45.740 -17.922  13.507 -0.06 +0.00    +0.251 C  
DOCKED: BRANCH  14  15
DOCKED: ATOM     15  N   UNL     1     -44.626 -18.668  14.082 -0.05 +0.00    +0.141 N  
DOCKED: ATOM     16  C   UNL     1     -44.199 -18.065  15.346 -0.01 +0.00    +0.285 C  
DOCKED: ATOM     17  C   UNL     1     -44.996 -20.070  14.288 -0.07 +0.00    +0.285 C  
DOCKED: ENDBRANCH  14  15
DOCKED: ENDBRANCH  13  14
DOCKED: ENDBRANCH  12  13
DOCKED: ENDBRANCH   2  12
DOCKED: BRANCH   2  18
DOCKED: ATOM     18  C   UNL     1     -48.182 -19.231  15.586 -0.05 +0.00    +0.006 A  
DOCKED: ATOM     19  C   UNL     1     -47.857 -17.961  16.062 -0.02 +0.00    +0.001 A  
DOCKED: ATOM     20  C   UNL     1     -47.258 -17.821  17.315 -0.00 +0.00    +0.029 A  
DOCKED: ATOM     21  C   UNL     1     -46.985 -18.948  18.088 -0.00 +0.00    +0.140 A  
DOCKED: ATOM     22  C   UNL     1     -47.311 -20.218  17.610 -0.01 +0.00    +0.029 A  
DOCKED: ATOM     23  F   UNL     1     -46.411 -18.813  19.291 +0.00 -0.00    -0.204 F  
DOCKED: ATOM     24  C   UNL     1     -47.910 -20.359  16.358 -0.04 +0.00    +0.001 A  
DOCKED: ENDBRANCH   2  18
DOCKED: TORSDOF 5
DOCKED: TER
DOCKED: ENDMDL
________________________________________________________________________________


    FINAL DOCKED STATE:
    ________________________


Run:   430 / 512
Time taken for this run:   0.002s

DOCKED: MODEL        430
DOCKED: USER    Run = 430
DOCKED: USER
DOCKED: USER    Estimated Free Energy of Binding    =  -5.09 kcal/mol  [=(1)+(2)+(3)-(4)]
DOCKED: USER
DOCKED: USER    (1) Final Intermolecular Energy     =  -6.58 kcal/mol
DOCKED: USER        vdW + Hbond + desolv Energy     =  -6.58 kcal/mol
DOCKED: USER        Electrostatic Energy            =  +0.00 kcal/mol
DOCKED: USER        Moving Ligand-Fixed Receptor    =  -6.58 kcal/mol
DOCKED: USER        Moving Ligand-Moving Receptor   =  +0.00 kcal/mol
DOCKED: USER    (2) Final Total Internal Energy     =  -1.03 kcal/mol
DOCKED: USER    (3) Torsional Free Energy           =  +1.49 kcal/mol
DOCKED: USER    (4) Unbound System's Energy         =  -1.03 kcal/mol
DOCKED: USER
DOCKED: USER
DOCKED: REMARK  5 active torsions:
DOCKED: REMARK  status: ('A' for Active; 'I' for Inactive)
DOCKED: REMARK    1  A    between atoms: C_2  and  C_19 
DOCKED: REMARK    2  A    between atoms: C_2  and  C_11 
DOCKED: REMARK    3  A    between atoms: C_19  and  C_20 
DOCKED: REMARK    4  A    between atoms: C_20  and  C_21 
DOCKED: REMARK    5  A    between atoms: C_21  and  N_22 
DOCKED: USER                              x       y       z     vdW  Elec       q    Type
DOCKED: USER                           _______ _______ _______ _____ _____    ______ ____
DOCKED: ROOT
DOCKED: ATOM      1  O   UNL     1     -51.671 -22.315  14.990 -0.00 -0.00    -0.346 OA 
DOCKED: ATOM      2  C   UNL     1     -50.238 -22.175  14.728 -0.11 +0.00    +0.130 C  
DOCKED: ATOM      3  C   UNL     1     -50.075 -22.697  13.330 -0.26 +0.00    +0.004 A  
DOCKED: ATOM      4  C   UNL     1     -51.319 -23.005  12.798 -0.27 +0.00    +0.006 A  
DOCKED: ATOM      5  C   UNL     1     -52.377 -22.701  13.788 -0.17 +0.00    +0.169 C  
DOCKED: ATOM      6  C   UNL     1     -48.919 -22.874  12.584 -0.37 -0.00    -0.001 A  
DOCKED: ATOM      7  C   UNL     1     -51.451 -23.502  11.513 -0.27 +0.00    +0.008 A  
DOCKED: ATOM      8  C   UNL     1     -49.035 -23.379  11.287 -0.22 +0.00    +0.010 A  
DOCKED: ATOM      9  C   UNL     1     -50.295 -23.690  10.755 -0.36 +0.00    +0.068 A  
DOCKED: ATOM     10  N   UNL     1     -50.474 -24.620   8.343 -2.66 -0.00    -0.191 NA 
DOCKED: ATOM     11  C   UNL     1     -50.394 -24.204   9.425 -0.29 +0.00    +0.101 C  
DOCKED: ENDROOT
DOCKED: BRANCH   2  12
DOCKED: ATOM     12  C   UNL     1     -49.865 -20.702  14.859 -0.13 +0.00    +0.038 C  
DOCKED: BRANCH  12  13
DOCKED: ATOM     13  C   UNL     1     -48.423 -20.533  15.333 -0.09 +0.00    +0.038 C  
DOCKED: BRANCH  13  14
DOCKED: ATOM     14  C   UNL     1     -47.481 -20.303  14.153 -0.13 +0.00    +0.251 C  
DOCKED: BRANCH  14  15
DOCKED: ATOM     15  N   UNL     1     -46.199 -20.956  14.392 -0.13 +0.00    +0.141 N  
DOCKED: ATOM     16  C   UNL     1     -45.469 -20.282  15.467 -0.05 +0.00    +0.285 C  
DOCKED: ATOM     17  C   UNL     1     -46.395 -22.369  14.720 -0.11 +0.00    +0.285 C  
DOCKED: ENDBRANCH  14  15
DOCKED: ENDBRANCH  13  14
DOCKED: ENDBRANCH  12  13
DOCKED: ENDBRANCH   2  12
DOCKED: BRANCH   2  18
DOCKED: ATOM     18  C   UNL     1     -49.525 -23.003  15.745 -0.12 +0.00    +0.006 A  
DOCKED: ATOM     19  C   UNL     1     -49.499 -22.598  17.079 -0.07 +0.00    +0.001 A  
DOCKED: ATOM     20  C   UNL     1     -48.833 -23.373  18.028 -0.09 +0.00    +0.029 A  
DOCKED: ATOM     21  C   UNL     1     -48.194 -24.550  17.643 -0.17 +0.00    +0.140 A  
DOCKED: ATOM     22  C   UNL     1     -48.220 -24.955  16.309 -0.19 +0.00    +0.029 A  
DOCKED: ATOM     23  F   UNL     1     -47.555 -25.295  18.555 -0.09 -0.00    -0.204 F  
DOCKED: ATOM     24  C   UNL     1     -48.887 -24.180  15.358 -0.24 +0.00    +0.001 A  
DOCKED: ENDBRANCH   2  18
DOCKED: TORSDOF 5
DOCKED: TER
DOCKED: ENDMDL
________________________________________________________________________________


    FINAL DOCKED STATE:
    ________________________


Run:   431 / 512
Time taken for this run:   0.002s

DOCKED: MODEL        431
DOCKED: USER    Run = 431
DOCKED: USER
DOCKED: USER    Estimated Free Energy of Binding    =  -4.59 kcal/mol  [=(1)+(2)+(3)-(4)]
DOCKED: USER
DOCKED: USER    (1) Final Intermolecular Energy     =  -6.08 kcal/mol
DOCKED: USER        vdW + Hbond + desolv Energy     =  -6.08 kcal/mol
DOCKED: USER        Electrostatic Energy            =  +0.00 kcal/mol
DOCKED: USER        Moving Ligand-Fixed Receptor    =  -6.08 kcal/mol
DOCKED: USER        Moving Ligand-Moving Receptor   =  +0.00 kcal/mol
DOCKED: USER    (2) Final Total Internal Energy     =  -1.32 kcal/mol
DOCKED: USER    (3) Torsional Free Energy           =  +1.49 kcal/mol
DOCKED: USER    (4) Unbound System's Energy         =  -1.32 kcal/mol
DOCKED: USER
DOCKED: USER
DOCKED: REMARK  5 active torsions:
DOCKED: REMARK  status: ('A' for Active; 'I' for Inactive)
DOCKED: REMARK    1  A    between atoms: C_2  and  C_19 
DOCKED: REMARK    2  A    between atoms: C_2  and  C_11 
DOCKED: REMARK    3  A    between atoms: C_19  and  C_20 
DOCKED: REMARK    4  A    between atoms: C_20  and  C_21 
DOCKED: REMARK    5  A    between atoms: C_21  and  N_22 
DOCKED: USER                              x       y       z     vdW  Elec       q    Type
DOCKED: USER                           _______ _______ _______ _____ _____    ______ ____
DOCKED: ROOT
DOCKED: ATOM      1  O   UNL     1     -47.107 -23.677  15.049 -0.12 -0.00    -0.346 OA 
DOCKED: ATOM      2  C   UNL     1     -48.184 -22.691  14.949 -0.17 +0.00    +0.130 C  
DOCKED: ATOM      3  C   UNL     1     -48.806 -22.972  13.612 -0.30 +0.00    +0.004 A  
DOCKED: ATOM      4  C   UNL     1     -48.209 -24.089  13.045 -0.39 +0.00    +0.006 A  
DOCKED: ATOM      5  C   UNL     1     -47.176 -24.625  13.959 -0.20 +0.00    +0.169 C  
DOCKED: ATOM      6  C   UNL     1     -49.825 -22.298  12.954 -0.29 -0.00    -0.001 A  
DOCKED: ATOM      7  C   UNL     1     -48.605 -24.567  11.807 -0.30 +0.00    +0.008 A  
DOCKED: ATOM      8  C   UNL     1     -50.232 -22.766  11.704 +0.04 +0.00    +0.010 A  
DOCKED: ATOM      9  C   UNL     1     -49.625 -23.894  11.133 -0.42 +0.00    +0.068 A  
DOCKED: ATOM     10  N   UNL     1     -50.409 -24.738   8.812 -2.14 -0.00    -0.191 NA 
DOCKED: ATOM     11  C   UNL     1     -50.057 -24.359   9.853 -0.50 +0.00    +0.101 C  
DOCKED: ENDROOT
DOCKED: BRANCH   2  12
DOCKED: ATOM     12  C   UNL     1     -49.148 -22.912  16.109 -0.13 +0.00    +0.038 C  
DOCKED: BRANCH  12  13
DOCKED: ATOM     13  C   UNL     1     -49.263 -24.393  16.464 -0.24 +0.00    +0.038 C  
DOCKED: BRANCH  13  14
DOCKED: ATOM     14  C   UNL     1     -50.510 -25.013  15.835 -0.10 +0.00    +0.251 C  
DOCKED: BRANCH  14  15
DOCKED: ATOM     15  N   UNL     1     -51.538 -23.998  15.641 -0.11 +0.00    +0.141 N  
DOCKED: ATOM     16  C   UNL     1     -52.157 -24.136  14.322 -0.08 +0.00    +0.285 C  
DOCKED: ATOM     17  C   UNL     1     -52.555 -24.087  16.690 -0.04 +0.00    +0.285 C  
DOCKED: ENDBRANCH  14  15
DOCKED: ENDBRANCH  13  14
DOCKED: ENDBRANCH  12  13
DOCKED: ENDBRANCH   2  12
DOCKED: BRANCH   2  18
DOCKED: ATOM     18  C   UNL     1     -47.550 -21.342  15.025 -0.15 +0.00    +0.006 A  
DOCKED: ATOM     19  C   UNL     1     -47.432 -20.696  16.255 -0.05 +0.00    +0.001 A  
DOCKED: ATOM     20  C   UNL     1     -46.839 -19.435  16.324 -0.03 +0.00    +0.029 A  
DOCKED: ATOM     21  C   UNL     1     -46.366 -18.822  15.165 -0.04 +0.00    +0.140 A  
DOCKED: ATOM     22  C   UNL     1     -46.484 -19.469  13.935 -0.14 +0.00    +0.029 A  
DOCKED: ATOM     23  F   UNL     1     -45.795 -17.612  15.232 -0.00 -0.00    -0.204 F  
DOCKED: ATOM     24  C   UNL     1     -47.077 -20.731  13.865 -0.19 +0.00    +0.001 A  
DOCKED: ENDBRANCH   2  18
DOCKED: TORSDOF 5
DOCKED: TER
DOCKED: ENDMDL
________________________________________________________________________________


    FINAL DOCKED STATE:
    ________________________


Run:   432 / 512
Time taken for this run:   0.002s

DOCKED: MODEL        432
DOCKED: USER    Run = 432
DOCKED: USER
DOCKED: USER    Estimated Free Energy of Binding    =  -4.25 kcal/mol  [=(1)+(2)+(3)-(4)]
DOCKED: USER
DOCKED: USER    (1) Final Intermolecular Energy     =  -5.74 kcal/mol
DOCKED: USER        vdW + Hbond + desolv Energy     =  -5.74 kcal/mol
DOCKED: USER        Electrostatic Energy            =  +0.00 kcal/mol
DOCKED: USER        Moving Ligand-Fixed Receptor    =  -5.74 kcal/mol
DOCKED: USER        Moving Ligand-Moving Receptor   =  +0.00 kcal/mol
DOCKED: USER    (2) Final Total Internal Energy     =  -1.19 kcal/mol
DOCKED: USER    (3) Torsional Free Energy           =  +1.49 kcal/mol
DOCKED: USER    (4) Unbound System's Energy         =  -1.19 kcal/mol
DOCKED: USER
DOCKED: USER
DOCKED: REMARK  5 active torsions:
DOCKED: REMARK  status: ('A' for Active; 'I' for Inactive)
DOCKED: REMARK    1  A    between atoms: C_2  and  C_19 
DOCKED: REMARK    2  A    between atoms: C_2  and  C_11 
DOCKED: REMARK    3  A    between atoms: C_19  and  C_20 
DOCKED: REMARK    4  A    between atoms: C_20  and  C_21 
DOCKED: REMARK    5  A    between atoms: C_21  and  N_22 
DOCKED: USER                              x       y       z     vdW  Elec       q    Type
DOCKED: USER                           _______ _______ _______ _____ _____    ______ ____
DOCKED: ROOT
DOCKED: ATOM      1  O   UNL     1     -51.273 -19.053  14.222 -0.08 -0.00    -0.346 OA 
DOCKED: ATOM      2  C   UNL     1     -49.840 -19.169  13.944 -0.18 +0.00    +0.130 C  
DOCKED: ATOM      3  C   UNL     1     -49.669 -20.601  13.527 -0.23 +0.00    +0.004 A  
DOCKED: ATOM      4  C   UNL     1     -50.910 -21.221  13.465 -0.19 +0.00    +0.006 A  
DOCKED: ATOM      5  C   UNL     1     -51.973 -20.253  13.818 -0.19 +0.00    +0.169 C  
DOCKED: ATOM      6  C   UNL     1     -48.510 -21.297  13.217 -0.29 -0.00    -0.001 A  
DOCKED: ATOM      7  C   UNL     1     -51.034 -22.549  13.097 -0.24 +0.00    +0.008 A  
DOCKED: ATOM      8  C   UNL     1     -48.618 -22.639  12.848 -0.34 +0.00    +0.010 A  
DOCKED: ATOM      9  C   UNL     1     -49.874 -23.261  12.788 -0.28 +0.00    +0.068 A  
DOCKED: ATOM     10  N   UNL     1     -50.039 -25.753  12.095 -2.61 -0.00    -0.191 NA 
DOCKED: ATOM     11  C   UNL     1     -49.965 -24.635  12.406 -0.38 +0.00    +0.101 C  
DOCKED: ENDROOT
DOCKED: BRANCH   2  12
DOCKED: ATOM     12  C   UNL     1     -49.482 -18.182  12.839 -0.12 +0.00    +0.038 C  
DOCKED: BRANCH  12  13
DOCKED: ATOM     13  C   UNL     1     -50.052 -16.795  13.125 -0.17 +0.00    +0.038 C  
DOCKED: BRANCH  13  14
DOCKED: ATOM     14  C   UNL     1     -51.450 -16.642  12.529 -0.08 +0.00    +0.251 C  
DOCKED: BRANCH  14  15
DOCKED: ATOM     15  N   UNL     1     -52.025 -15.356  12.906 -0.08 +0.00    +0.141 N  
DOCKED: ATOM     16  C   UNL     1     -53.292 -15.132  12.208 -0.10 +0.00    +0.285 C  
DOCKED: ATOM     17  C   UNL     1     -52.223 -15.284  14.354 -0.01 +0.00    +0.285 C  
DOCKED: ENDBRANCH  14  15
DOCKED: ENDBRANCH  13  14
DOCKED: ENDBRANCH  12  13
DOCKED: ENDBRANCH   2  12
DOCKED: BRANCH   2  18
DOCKED: ATOM     18  C   UNL     1     -49.123 -18.843  15.211 -0.06 +0.00    +0.006 A  
DOCKED: ATOM     19  C   UNL     1     -47.734 -18.948  15.272 -0.05 +0.00    +0.001 A  
DOCKED: ATOM     20  C   UNL     1     -47.064 -18.643  16.457 -0.02 +0.00    +0.029 A  
DOCKED: ATOM     21  C   UNL     1     -47.783 -18.232  17.579 -0.00 +0.00    +0.140 A  
DOCKED: ATOM     22  C   UNL     1     -49.172 -18.127  17.517 -0.00 +0.00    +0.029 A  
DOCKED: ATOM     23  F   UNL     1     -47.140 -17.938  18.716 -0.00 -0.00    -0.204 F  
DOCKED: ATOM     24  C   UNL     1     -49.843 -18.433  16.332 -0.02 +0.00    +0.001 A  
DOCKED: ENDBRANCH   2  18
DOCKED: TORSDOF 5
DOCKED: TER
DOCKED: ENDMDL
________________________________________________________________________________


    FINAL DOCKED STATE:
    ________________________


Run:   433 / 512
Time taken for this run:   0.002s

DOCKED: MODEL        433
DOCKED: USER    Run = 433
DOCKED: USER
DOCKED: USER    Estimated Free Energy of Binding    =  -4.43 kcal/mol  [=(1)+(2)+(3)-(4)]
DOCKED: USER
DOCKED: USER    (1) Final Intermolecular Energy     =  -5.92 kcal/mol
DOCKED: USER        vdW + Hbond + desolv Energy     =  -5.92 kcal/mol
DOCKED: USER        Electrostatic Energy            =  +0.00 kcal/mol
DOCKED: USER        Moving Ligand-Fixed Receptor    =  -5.92 kcal/mol
DOCKED: USER        Moving Ligand-Moving Receptor   =  +0.00 kcal/mol
DOCKED: USER    (2) Final Total Internal Energy     =  -1.29 kcal/mol
DOCKED: USER    (3) Torsional Free Energy           =  +1.49 kcal/mol
DOCKED: USER    (4) Unbound System's Energy         =  -1.29 kcal/mol
DOCKED: USER
DOCKED: USER
DOCKED: REMARK  5 active torsions:
DOCKED: REMARK  status: ('A' for Active; 'I' for Inactive)
DOCKED: REMARK    1  A    between atoms: C_2  and  C_19 
DOCKED: REMARK    2  A    between atoms: C_2  and  C_11 
DOCKED: REMARK    3  A    between atoms: C_19  and  C_20 
DOCKED: REMARK    4  A    between atoms: C_20  and  C_21 
DOCKED: REMARK    5  A    between atoms: C_21  and  N_22 
DOCKED: USER                              x       y       z     vdW  Elec       q    Type
DOCKED: USER                           _______ _______ _______ _____ _____    ______ ____
DOCKED: ROOT
DOCKED: ATOM      1  O   UNL     1     -45.403 -15.454   7.039 -0.07 -0.00    -0.346 OA 
DOCKED: ATOM      2  C   UNL     1     -44.192 -15.114   6.292 -0.14 +0.00    +0.130 C  
DOCKED: ATOM      3  C   UNL     1     -44.707 -14.393   5.080 -0.22 +0.00    +0.004 A  
DOCKED: ATOM      4  C   UNL     1     -46.082 -14.236   5.179 -0.30 +0.00    +0.006 A  
DOCKED: ATOM      5  C   UNL     1     -46.564 -14.823   6.450 -0.26 +0.00    +0.169 C  
DOCKED: ATOM      6  C   UNL     1     -44.012 -13.904   3.983 -0.17 -0.00    -0.001 A  
DOCKED: ATOM      7  C   UNL     1     -46.808 -13.594   4.190 -0.36 +0.00    +0.008 A  
DOCKED: ATOM      8  C   UNL     1     -44.730 -13.258   2.975 -0.25 +0.00    +0.010 A  
DOCKED: ATOM      9  C   UNL     1     -46.121 -13.104   3.079 -0.31 +0.00    +0.068 A  
DOCKED: ATOM     10  N   UNL     1     -47.422 -11.895   1.193 -2.54 -0.00    -0.191 NA 
DOCKED: ATOM     11  C   UNL     1     -46.839 -12.438   2.038 -0.34 +0.00    +0.101 C  
DOCKED: ENDROOT
DOCKED: BRANCH   2  12
DOCKED: ATOM     12  C   UNL     1     -43.311 -14.237   7.174 -0.15 +0.00    +0.038 C  
DOCKED: BRANCH  12  13
DOCKED: ATOM     13  C   UNL     1     -43.792 -14.245   8.624 -0.13 +0.00    +0.038 C  
DOCKED: BRANCH  13  14
DOCKED: ATOM     14  C   UNL     1     -43.624 -15.628   9.251 -0.05 +0.00    +0.251 C  
DOCKED: BRANCH  14  15
DOCKED: ATOM     15  N   UNL     1     -42.366 -15.704   9.984 -0.02 +0.00    +0.141 N  
DOCKED: ATOM     16  C   UNL     1     -41.392 -16.517   9.254 -0.00 +0.00    +0.285 C  
DOCKED: ATOM     17  C   UNL     1     -41.829 -14.364  10.226 -0.05 +0.00    +0.285 C  
DOCKED: ENDBRANCH  14  15
DOCKED: ENDBRANCH  13  14
DOCKED: ENDBRANCH  12  13
DOCKED: ENDBRANCH   2  12
DOCKED: BRANCH   2  18
DOCKED: ATOM     18  C   UNL     1     -43.510 -16.399   5.958 -0.08 +0.00    +0.006 A  
DOCKED: ATOM     19  C   UNL     1     -42.165 -16.399   5.589 -0.03 +0.00    +0.001 A  
DOCKED: ATOM     20  C   UNL     1     -41.529 -17.601   5.277 -0.01 +0.00    +0.029 A  
DOCKED: ATOM     21  C   UNL     1     -42.238 -18.800   5.334 -0.06 +0.00    +0.140 A  
DOCKED: ATOM     22  C   UNL     1     -43.582 -18.799   5.703 -0.18 +0.00    +0.029 A  
DOCKED: ATOM     23  F   UNL     1     -41.626 -19.954   5.036 -0.02 -0.00    -0.204 F  
DOCKED: ATOM     24  C   UNL     1     -44.220 -17.597   6.015 -0.16 +0.00    +0.001 A  
DOCKED: ENDBRANCH   2  18
DOCKED: TORSDOF 5
DOCKED: TER
DOCKED: ENDMDL
________________________________________________________________________________


    FINAL DOCKED STATE:
    ________________________


Run:   434 / 512
Time taken for this run:   0.002s

DOCKED: MODEL        434
DOCKED: USER    Run = 434
DOCKED: USER
DOCKED: USER    Estimated Free Energy of Binding    =  -3.86 kcal/mol  [=(1)+(2)+(3)-(4)]
DOCKED: USER
DOCKED: USER    (1) Final Intermolecular Energy     =  -5.35 kcal/mol
DOCKED: USER        vdW + Hbond + desolv Energy     =  -5.35 kcal/mol
DOCKED: USER        Electrostatic Energy            =  +0.00 kcal/mol
DOCKED: USER        Moving Ligand-Fixed Receptor    =  -5.35 kcal/mol
DOCKED: USER        Moving Ligand-Moving Receptor   =  +0.00 kcal/mol
DOCKED: USER    (2) Final Total Internal Energy     =  -1.37 kcal/mol
DOCKED: USER    (3) Torsional Free Energy           =  +1.49 kcal/mol
DOCKED: USER    (4) Unbound System's Energy         =  -1.37 kcal/mol
DOCKED: USER
DOCKED: USER
DOCKED: REMARK  5 active torsions:
DOCKED: REMARK  status: ('A' for Active; 'I' for Inactive)
DOCKED: REMARK    1  A    between atoms: C_2  and  C_19 
DOCKED: REMARK    2  A    between atoms: C_2  and  C_11 
DOCKED: REMARK    3  A    between atoms: C_19  and  C_20 
DOCKED: REMARK    4  A    between atoms: C_20  and  C_21 
DOCKED: REMARK    5  A    between atoms: C_21  and  N_22 
DOCKED: USER                              x       y       z     vdW  Elec       q    Type
DOCKED: USER                           _______ _______ _______ _____ _____    ______ ____
DOCKED: ROOT
DOCKED: ATOM      1  O   UNL     1     -48.085 -19.907  15.537 -0.01 -0.00    -0.346 OA 
DOCKED: ATOM      2  C   UNL     1     -49.430 -19.672  15.008 -0.08 +0.00    +0.130 C  
DOCKED: ATOM      3  C   UNL     1     -49.746 -20.934  14.258 -0.18 +0.00    +0.004 A  
DOCKED: ATOM      4  C   UNL     1     -48.721 -21.852  14.435 -0.18 +0.00    +0.006 A  
DOCKED: ATOM      5  C   UNL     1     -47.676 -21.276  15.311 -0.10 +0.00    +0.169 C  
DOCKED: ATOM      6  C   UNL     1     -50.858 -21.248  13.490 -0.20 -0.00    -0.001 A  
DOCKED: ATOM      7  C   UNL     1     -48.768 -23.106  13.851 -0.28 +0.00    +0.008 A  
DOCKED: ATOM      8  C   UNL     1     -50.918 -22.507  12.891 -0.23 +0.00    +0.010 A  
DOCKED: ATOM      9  C   UNL     1     -49.878 -23.431  13.071 -0.26 +0.00    +0.068 A  
DOCKED: ATOM     10  N   UNL     1     -50.024 -25.762  11.948 -2.51 -0.00    -0.191 NA 
DOCKED: ATOM     11  C   UNL     1     -49.959 -24.717  12.451 -0.34 +0.00    +0.101 C  
DOCKED: ENDROOT
DOCKED: BRANCH   2  12
DOCKED: ATOM     12  C   UNL     1     -50.373 -19.426  16.179 -0.04 +0.00    +0.038 C  
DOCKED: BRANCH  12  13
DOCKED: ATOM     13  C   UNL     1     -50.925 -20.737  16.735 -0.04 +0.00    +0.038 C  
DOCKED: BRANCH  13  14
DOCKED: ATOM     14  C   UNL     1     -49.947 -21.371  17.722 -0.01 +0.00    +0.251 C  
DOCKED: BRANCH  14  15
DOCKED: ATOM     15  N   UNL     1     -50.244 -22.788  17.891 -0.03 +0.00    +0.141 N  
DOCKED: ATOM     16  C   UNL     1     -50.657 -23.384  16.620 -0.04 +0.00    +0.285 C  
DOCKED: ATOM     17  C   UNL     1     -49.082 -23.498  18.430 -0.04 +0.00    +0.285 C  
DOCKED: ENDBRANCH  14  15
DOCKED: ENDBRANCH  13  14
DOCKED: ENDBRANCH  12  13
DOCKED: ENDBRANCH   2  12
DOCKED: BRANCH   2  18
DOCKED: ATOM     18  C   UNL     1     -49.347 -18.474  14.122 -0.14 +0.00    +0.006 A  
DOCKED: ATOM     19  C   UNL     1     -48.234 -18.290  13.302 -0.15 +0.00    +0.001 A  
DOCKED: ATOM     20  C   UNL     1     -48.158 -17.169  12.474 -0.09 +0.00    +0.029 A  
DOCKED: ATOM     21  C   UNL     1     -49.193 -16.235  12.468 -0.12 +0.00    +0.140 A  
DOCKED: ATOM     22  C   UNL     1     -50.305 -16.420  13.288 -0.13 +0.00    +0.029 A  
DOCKED: ATOM     23  F   UNL     1     -49.120 -15.160  11.672 -0.02 -0.00    -0.204 F  
DOCKED: ATOM     24  C   UNL     1     -50.382 -17.541  14.117 -0.13 +0.00    +0.001 A  
DOCKED: ENDBRANCH   2  18
DOCKED: TORSDOF 5
DOCKED: TER
DOCKED: ENDMDL
________________________________________________________________________________


    FINAL DOCKED STATE:
    ________________________


Run:   435 / 512
Time taken for this run:   0.002s

DOCKED: MODEL        435
DOCKED: USER    Run = 435
DOCKED: USER
DOCKED: USER    Estimated Free Energy of Binding    =  -5.45 kcal/mol  [=(1)+(2)+(3)-(4)]
DOCKED: USER
DOCKED: USER    (1) Final Intermolecular Energy     =  -6.94 kcal/mol
DOCKED: USER        vdW + Hbond + desolv Energy     =  -6.94 kcal/mol
DOCKED: USER        Electrostatic Energy            =  +0.00 kcal/mol
DOCKED: USER        Moving Ligand-Fixed Receptor    =  -6.94 kcal/mol
DOCKED: USER        Moving Ligand-Moving Receptor   =  +0.00 kcal/mol
DOCKED: USER    (2) Final Total Internal Energy     =  -1.55 kcal/mol
DOCKED: USER    (3) Torsional Free Energy           =  +1.49 kcal/mol
DOCKED: USER    (4) Unbound System's Energy         =  -1.55 kcal/mol
DOCKED: USER
DOCKED: USER
DOCKED: REMARK  5 active torsions:
DOCKED: REMARK  status: ('A' for Active; 'I' for Inactive)
DOCKED: REMARK    1  A    between atoms: C_2  and  C_19 
DOCKED: REMARK    2  A    between atoms: C_2  and  C_11 
DOCKED: REMARK    3  A    between atoms: C_19  and  C_20 
DOCKED: REMARK    4  A    between atoms: C_20  and  C_21 
DOCKED: REMARK    5  A    between atoms: C_21  and  N_22 
DOCKED: USER                              x       y       z     vdW  Elec       q    Type
DOCKED: USER                           _______ _______ _______ _____ _____    ______ ____
DOCKED: ROOT
DOCKED: ATOM      1  O   UNL     1     -48.262 -23.087  14.683 -0.07 -0.00    -0.346 OA 
DOCKED: ATOM      2  C   UNL     1     -49.701 -23.346  14.740 -0.15 +0.00    +0.130 C  
DOCKED: ATOM      3  C   UNL     1     -50.086 -23.554  13.304 -0.28 +0.00    +0.004 A  
DOCKED: ATOM      4  C   UNL     1     -48.951 -23.527  12.507 -0.39 +0.00    +0.006 A  
DOCKED: ATOM      5  C   UNL     1     -47.752 -23.315  13.348 -0.22 +0.00    +0.169 C  
DOCKED: ATOM      6  C   UNL     1     -51.340 -23.763  12.749 -0.31 -0.00    -0.001 A  
DOCKED: ATOM      7  C   UNL     1     -49.028 -23.701  11.136 -0.23 +0.00    +0.008 A  
DOCKED: ATOM      8  C   UNL     1     -51.436 -23.936  11.367 -0.29 +0.00    +0.010 A  
DOCKED: ATOM      9  C   UNL     1     -50.285 -23.905  10.565 -0.40 +0.00    +0.068 A  
DOCKED: ATOM     10  N   UNL     1     -50.497 -24.235   8.004 -3.10 -0.00    -0.191 NA 
DOCKED: ATOM     11  C   UNL     1     -50.402 -24.087   9.152 -0.28 +0.00    +0.101 C  
DOCKED: ENDROOT
DOCKED: BRANCH   2  12
DOCKED: ATOM     12  C   UNL     1     -49.935 -24.581  15.602 -0.26 +0.00    +0.038 C  
DOCKED: BRANCH  12  13
DOCKED: ATOM     13  C   UNL     1     -48.653 -25.018  16.309 -0.29 +0.00    +0.038 C  
DOCKED: BRANCH  13  14
DOCKED: ATOM     14  C   UNL     1     -48.515 -24.333  17.668 -0.13 +0.00    +0.251 C  
DOCKED: BRANCH  14  15
DOCKED: ATOM     15  N   UNL     1     -47.871 -23.033  17.518 -0.07 +0.00    +0.141 N  
DOCKED: ATOM     16  C   UNL     1     -48.157 -22.180  18.672 -0.01 +0.00    +0.285 C  
DOCKED: ATOM     17  C   UNL     1     -46.426 -23.191  17.349 -0.05 +0.00    +0.285 C  
DOCKED: ENDBRANCH  14  15
DOCKED: ENDBRANCH  13  14
DOCKED: ENDBRANCH  12  13
DOCKED: ENDBRANCH   2  12
DOCKED: BRANCH   2  18
DOCKED: ATOM     18  C   UNL     1     -50.338 -22.140  15.344 -0.09 +0.00    +0.006 A  
DOCKED: ATOM     19  C   UNL     1     -50.941 -22.225  16.598 -0.05 +0.00    +0.001 A  
DOCKED: ATOM     20  C   UNL     1     -51.537 -21.095  17.162 -0.02 +0.00    +0.029 A  
DOCKED: ATOM     21  C   UNL     1     -51.528 -19.884  16.472 -0.01 +0.00    +0.140 A  
DOCKED: ATOM     22  C   UNL     1     -50.924 -19.800  15.218 -0.08 +0.00    +0.029 A  
DOCKED: ATOM     23  F   UNL     1     -52.098 -18.800  17.014 +0.01 -0.00    -0.204 F  
DOCKED: ATOM     24  C   UNL     1     -50.329 -20.929  14.653 -0.14 +0.00    +0.001 A  
DOCKED: ENDBRANCH   2  18
DOCKED: TORSDOF 5
DOCKED: TER
DOCKED: ENDMDL
________________________________________________________________________________


    FINAL DOCKED STATE:
    ________________________


Run:   436 / 512
Time taken for this run:   0.002s

DOCKED: MODEL        436
DOCKED: USER    Run = 436
DOCKED: USER
DOCKED: USER    Estimated Free Energy of Binding    =  -4.28 kcal/mol  [=(1)+(2)+(3)-(4)]
DOCKED: USER
DOCKED: USER    (1) Final Intermolecular Energy     =  -5.77 kcal/mol
DOCKED: USER        vdW + Hbond + desolv Energy     =  -5.77 kcal/mol
DOCKED: USER        Electrostatic Energy            =  +0.00 kcal/mol
DOCKED: USER        Moving Ligand-Fixed Receptor    =  -5.77 kcal/mol
DOCKED: USER        Moving Ligand-Moving Receptor   =  +0.00 kcal/mol
DOCKED: USER    (2) Final Total Internal Energy     =  -1.46 kcal/mol
DOCKED: USER    (3) Torsional Free Energy           =  +1.49 kcal/mol
DOCKED: USER    (4) Unbound System's Energy         =  -1.46 kcal/mol
DOCKED: USER
DOCKED: USER
DOCKED: REMARK  5 active torsions:
DOCKED: REMARK  status: ('A' for Active; 'I' for Inactive)
DOCKED: REMARK    1  A    between atoms: C_2  and  C_19 
DOCKED: REMARK    2  A    between atoms: C_2  and  C_11 
DOCKED: REMARK    3  A    between atoms: C_19  and  C_20 
DOCKED: REMARK    4  A    between atoms: C_20  and  C_21 
DOCKED: REMARK    5  A    between atoms: C_21  and  N_22 
DOCKED: USER                              x       y       z     vdW  Elec       q    Type
DOCKED: USER                           _______ _______ _______ _____ _____    ______ ____
DOCKED: ROOT
DOCKED: ATOM      1  O   UNL     1     -50.776 -21.765  15.115 -0.01 -0.00    -0.346 OA 
DOCKED: ATOM      2  C   UNL     1     -49.463 -22.390  14.953 -0.11 +0.00    +0.130 C  
DOCKED: ATOM      3  C   UNL     1     -49.531 -23.022  13.593 -0.26 +0.00    +0.004 A  
DOCKED: ATOM      4  C   UNL     1     -50.735 -22.694  12.985 -0.25 +0.00    +0.006 A  
DOCKED: ATOM      5  C   UNL     1     -51.529 -21.824  13.881 -0.16 +0.00    +0.169 C  
DOCKED: ATOM      6  C   UNL     1     -48.598 -23.815  12.941 -0.38 -0.00    -0.001 A  
DOCKED: ATOM      7  C   UNL     1     -51.048 -23.146  11.715 -0.14 +0.00    +0.008 A  
DOCKED: ATOM      8  C   UNL     1     -48.901 -24.283  11.661 -0.41 +0.00    +0.010 A  
DOCKED: ATOM      9  C   UNL     1     -50.119 -23.950  11.051 -0.41 +0.00    +0.068 A  
DOCKED: ATOM     10  N   UNL     1     -50.648 -24.831   8.672 -2.21 -0.00    -0.191 NA 
DOCKED: ATOM     11  C   UNL     1     -50.411 -24.436   9.739 -0.36 +0.00    +0.101 C  
DOCKED: ENDROOT
DOCKED: BRANCH   2  12
DOCKED: ATOM     12  C   UNL     1     -48.396 -21.306  15.051 -0.13 +0.00    +0.038 C  
DOCKED: BRANCH  12  13
DOCKED: ATOM     13  C   UNL     1     -49.022 -19.923  15.222 -0.09 +0.00    +0.038 C  
DOCKED: BRANCH  13  14
DOCKED: ATOM     14  C   UNL     1     -49.281 -19.616  16.696 -0.01 +0.00    +0.251 C  
DOCKED: BRANCH  14  15
DOCKED: ATOM     15  N   UNL     1     -48.594 -20.584  17.544 -0.01 +0.00    +0.141 N  
DOCKED: ATOM     16  C   UNL     1     -47.266 -20.093  17.915 -0.00 +0.00    +0.285 C  
DOCKED: ATOM     17  C   UNL     1     -49.383 -20.870  18.743 -0.00 +0.00    +0.285 C  
DOCKED: ENDBRANCH  14  15
DOCKED: ENDBRANCH  13  14
DOCKED: ENDBRANCH  12  13
DOCKED: ENDBRANCH   2  12
DOCKED: BRANCH   2  18
DOCKED: ATOM     18  C   UNL     1     -49.317 -23.390  16.052 -0.14 +0.00    +0.006 A  
DOCKED: ATOM     19  C   UNL     1     -48.105 -24.055  16.232 -0.20 +0.00    +0.001 A  
DOCKED: ATOM     20  C   UNL     1     -47.970 -24.990  17.259 -0.15 +0.00    +0.029 A  
DOCKED: ATOM     21  C   UNL     1     -49.046 -25.256  18.105 -0.01 +0.00    +0.140 A  
DOCKED: ATOM     22  C   UNL     1     -50.258 -24.590  17.924 -0.14 +0.00    +0.029 A  
DOCKED: ATOM     23  F   UNL     1     -48.916 -26.152  19.092 -0.05 -0.00    -0.204 F  
DOCKED: ATOM     24  C   UNL     1     -50.394 -23.656  16.896 -0.12 +0.00    +0.001 A  
DOCKED: ENDBRANCH   2  18
DOCKED: TORSDOF 5
DOCKED: TER
DOCKED: ENDMDL
________________________________________________________________________________


    FINAL DOCKED STATE:
    ________________________


Run:   437 / 512
Time taken for this run:   0.002s

DOCKED: MODEL        437
DOCKED: USER    Run = 437
DOCKED: USER
DOCKED: USER    Estimated Free Energy of Binding    =  -5.61 kcal/mol  [=(1)+(2)+(3)-(4)]
DOCKED: USER
DOCKED: USER    (1) Final Intermolecular Energy     =  -7.10 kcal/mol
DOCKED: USER        vdW + Hbond + desolv Energy     =  -7.10 kcal/mol
DOCKED: USER        Electrostatic Energy            =  +0.00 kcal/mol
DOCKED: USER        Moving Ligand-Fixed Receptor    =  -7.10 kcal/mol
DOCKED: USER        Moving Ligand-Moving Receptor   =  +0.00 kcal/mol
DOCKED: USER    (2) Final Total Internal Energy     =  -0.70 kcal/mol
DOCKED: USER    (3) Torsional Free Energy           =  +1.49 kcal/mol
DOCKED: USER    (4) Unbound System's Energy         =  -0.70 kcal/mol
DOCKED: USER
DOCKED: USER
DOCKED: REMARK  5 active torsions:
DOCKED: REMARK  status: ('A' for Active; 'I' for Inactive)
DOCKED: REMARK    1  A    between atoms: C_2  and  C_19 
DOCKED: REMARK    2  A    between atoms: C_2  and  C_11 
DOCKED: REMARK    3  A    between atoms: C_19  and  C_20 
DOCKED: REMARK    4  A    between atoms: C_20  and  C_21 
DOCKED: REMARK    5  A    between atoms: C_21  and  N_22 
DOCKED: USER                              x       y       z     vdW  Elec       q    Type
DOCKED: USER                           _______ _______ _______ _____ _____    ______ ____
DOCKED: ROOT
DOCKED: ATOM      1  O   UNL     1     -52.162 -23.805  14.972 -0.05 -0.00    -0.346 OA 
DOCKED: ATOM      2  C   UNL     1     -50.892 -23.099  14.802 -0.12 +0.00    +0.130 C  
DOCKED: ATOM      3  C   UNL     1     -50.578 -23.270  13.343 -0.25 +0.00    +0.004 A  
DOCKED: ATOM      4  C   UNL     1     -51.629 -23.920  12.713 -0.30 +0.00    +0.006 A  
DOCKED: ATOM      5  C   UNL     1     -52.701 -24.209  13.692 -0.16 +0.00    +0.169 C  
DOCKED: ATOM      6  C   UNL     1     -49.457 -22.871  12.630 -0.35 -0.00    -0.001 A  
DOCKED: ATOM      7  C   UNL     1     -51.596 -24.198  11.357 -0.28 +0.00    +0.008 A  
DOCKED: ATOM      8  C   UNL     1     -49.406 -23.148  11.262 -0.38 +0.00    +0.010 A  
DOCKED: ATOM      9  C   UNL     1     -50.471 -23.807  10.629 -0.33 +0.00    +0.068 A  
DOCKED: ATOM     10  N   UNL     1     -50.346 -24.300   8.089 -2.86 -0.00    -0.191 NA 
DOCKED: ATOM     11  C   UNL     1     -50.402 -24.079   9.228 -0.28 +0.00    +0.101 C  
DOCKED: ENDROOT
DOCKED: BRANCH   2  12
DOCKED: ATOM     12  C   UNL     1     -51.093 -21.641  15.198 -0.11 +0.00    +0.038 C  
DOCKED: BRANCH  12  13
DOCKED: ATOM     13  C   UNL     1     -49.880 -20.790  14.828 -0.13 +0.00    +0.038 C  
DOCKED: BRANCH  13  14
DOCKED: ATOM     14  C   UNL     1     -50.046 -20.172  13.441 -0.15 +0.00    +0.251 C  
DOCKED: BRANCH  14  15
DOCKED: ATOM     15  N   UNL     1     -48.775 -19.632  12.971 -0.12 +0.00    +0.141 N  
DOCKED: ATOM     16  C   UNL     1     -48.493 -18.347  13.611 -0.11 +0.00    +0.285 C  
DOCKED: ATOM     17  C   UNL     1     -47.687 -20.577  13.229 -0.15 +0.00    +0.285 C  
DOCKED: ENDBRANCH  14  15
DOCKED: ENDBRANCH  13  14
DOCKED: ENDBRANCH  12  13
DOCKED: ENDBRANCH   2  12
DOCKED: BRANCH   2  18
DOCKED: ATOM     18  C   UNL     1     -49.898 -23.767  15.692 -0.16 +0.00    +0.006 A  
DOCKED: ATOM     19  C   UNL     1     -49.089 -24.786  15.192 -0.28 +0.00    +0.001 A  
DOCKED: ATOM     20  C   UNL     1     -48.160 -25.410  16.027 -0.07 +0.00    +0.029 A  
DOCKED: ATOM     21  C   UNL     1     -48.042 -25.014  17.358 -0.14 +0.00    +0.140 A  
DOCKED: ATOM     22  C   UNL     1     -48.852 -23.994  17.857 -0.14 +0.00    +0.029 A  
DOCKED: ATOM     23  F   UNL     1     -47.150 -25.612  18.158 -0.06 -0.00    -0.204 F  
DOCKED: ATOM     24  C   UNL     1     -49.781 -23.370  17.024 -0.11 +0.00    +0.001 A  
DOCKED: ENDBRANCH   2  18
DOCKED: TORSDOF 5
DOCKED: TER
DOCKED: ENDMDL
________________________________________________________________________________


    FINAL DOCKED STATE:
    ________________________


Run:   438 / 512
Time taken for this run:   0.002s

DOCKED: MODEL        438
DOCKED: USER    Run = 438
DOCKED: USER
DOCKED: USER    Estimated Free Energy of Binding    =  -3.53 kcal/mol  [=(1)+(2)+(3)-(4)]
DOCKED: USER
DOCKED: USER    (1) Final Intermolecular Energy     =  -5.02 kcal/mol
DOCKED: USER        vdW + Hbond + desolv Energy     =  -5.02 kcal/mol
DOCKED: USER        Electrostatic Energy            =  +0.00 kcal/mol
DOCKED: USER        Moving Ligand-Fixed Receptor    =  -5.02 kcal/mol
DOCKED: USER        Moving Ligand-Moving Receptor   =  +0.00 kcal/mol
DOCKED: USER    (2) Final Total Internal Energy     =  -1.54 kcal/mol
DOCKED: USER    (3) Torsional Free Energy           =  +1.49 kcal/mol
DOCKED: USER    (4) Unbound System's Energy         =  -1.54 kcal/mol
DOCKED: USER
DOCKED: USER
DOCKED: REMARK  5 active torsions:
DOCKED: REMARK  status: ('A' for Active; 'I' for Inactive)
DOCKED: REMARK    1  A    between atoms: C_2  and  C_19 
DOCKED: REMARK    2  A    between atoms: C_2  and  C_11 
DOCKED: REMARK    3  A    between atoms: C_19  and  C_20 
DOCKED: REMARK    4  A    between atoms: C_20  and  C_21 
DOCKED: REMARK    5  A    between atoms: C_21  and  N_22 
DOCKED: USER                              x       y       z     vdW  Elec       q    Type
DOCKED: USER                           _______ _______ _______ _____ _____    ______ ____
DOCKED: ROOT
DOCKED: ATOM      1  O   UNL     1     -42.543 -13.595   6.159 -0.05 -0.00    -0.346 OA 
DOCKED: ATOM      2  C   UNL     1     -42.394 -12.434   5.280 -0.12 +0.00    +0.130 C  
DOCKED: ATOM      3  C   UNL     1     -43.680 -12.401   4.507 -0.19 +0.00    +0.004 A  
DOCKED: ATOM      4  C   UNL     1     -44.535 -13.387   4.979 -0.16 +0.00    +0.006 A  
DOCKED: ATOM      5  C   UNL     1     -43.888 -14.122   6.089 -0.13 +0.00    +0.169 C  
DOCKED: ATOM      6  C   UNL     1     -44.068 -11.558   3.476 -0.24 -0.00    -0.001 A  
DOCKED: ATOM      7  C   UNL     1     -45.796 -13.568   4.437 -0.30 +0.00    +0.008 A  
DOCKED: ATOM      8  C   UNL     1     -45.335 -11.729   2.916 -0.37 +0.00    +0.010 A  
DOCKED: ATOM      9  C   UNL     1     -46.195 -12.729   3.395 -0.39 +0.00    +0.068 A  
DOCKED: ATOM     10  N   UNL     1     -48.543 -13.018   2.338 -2.47 -0.00    -0.191 NA 
DOCKED: ATOM     11  C   UNL     1     -47.489 -12.889   2.812 -0.20 +0.00    +0.101 C  
DOCKED: ENDROOT
DOCKED: BRANCH   2  12
DOCKED: ATOM     12  C   UNL     1     -42.190 -11.196   6.146 -0.16 +0.00    +0.038 C  
DOCKED: BRANCH  12  13
DOCKED: ATOM     13  C   UNL     1     -41.342 -11.511   7.376 -0.09 +0.00    +0.038 C  
DOCKED: BRANCH  13  14
DOCKED: ATOM     14  C   UNL     1     -39.862 -11.243   7.107 -0.03 +0.00    +0.251 C  
DOCKED: BRANCH  14  15
DOCKED: ATOM     15  N   UNL     1     -39.151 -12.497   6.886 -0.01 +0.00    +0.141 N  
DOCKED: ATOM     16  C   UNL     1     -37.733 -12.350   7.215 -0.00 +0.00    +0.285 C  
DOCKED: ATOM     17  C   UNL     1     -39.748 -13.574   7.678 -0.01 +0.00    +0.285 C  
DOCKED: ENDBRANCH  14  15
DOCKED: ENDBRANCH  13  14
DOCKED: ENDBRANCH  12  13
DOCKED: ENDBRANCH   2  12
DOCKED: BRANCH   2  18
DOCKED: ATOM     18  C   UNL     1     -41.203 -12.690   4.418 -0.04 +0.00    +0.006 A  
DOCKED: ATOM     19  C   UNL     1     -40.705 -13.986   4.284 -0.01 +0.00    +0.001 A  
DOCKED: ATOM     20  C   UNL     1     -39.592 -14.223   3.478 -0.00 +0.00    +0.029 A  
DOCKED: ATOM     21  C   UNL     1     -38.978 -13.167   2.807 +0.00 +0.00    +0.140 A  
DOCKED: ATOM     22  C   UNL     1     -39.477 -11.871   2.941 -0.01 +0.00    +0.029 A  
DOCKED: ATOM     23  F   UNL     1     -37.910 -13.396   2.031 +0.00 -0.00    -0.204 F  
DOCKED: ATOM     24  C   UNL     1     -40.591 -11.632   3.747 -0.03 +0.00    +0.001 A  
DOCKED: ENDBRANCH   2  18
DOCKED: TORSDOF 5
DOCKED: TER
DOCKED: ENDMDL
________________________________________________________________________________


    FINAL DOCKED STATE:
    ________________________


Run:   439 / 512
Time taken for this run:   0.002s

DOCKED: MODEL        439
DOCKED: USER    Run = 439
DOCKED: USER
DOCKED: USER    Estimated Free Energy of Binding    =  -3.76 kcal/mol  [=(1)+(2)+(3)-(4)]
DOCKED: USER
DOCKED: USER    (1) Final Intermolecular Energy     =  -5.26 kcal/mol
DOCKED: USER        vdW + Hbond + desolv Energy     =  -5.26 kcal/mol
DOCKED: USER        Electrostatic Energy            =  +0.00 kcal/mol
DOCKED: USER        Moving Ligand-Fixed Receptor    =  -5.26 kcal/mol
DOCKED: USER        Moving Ligand-Moving Receptor   =  +0.00 kcal/mol
DOCKED: USER    (2) Final Total Internal Energy     =  -1.51 kcal/mol
DOCKED: USER    (3) Torsional Free Energy           =  +1.49 kcal/mol
DOCKED: USER    (4) Unbound System's Energy         =  -1.51 kcal/mol
DOCKED: USER
DOCKED: USER
DOCKED: REMARK  5 active torsions:
DOCKED: REMARK  status: ('A' for Active; 'I' for Inactive)
DOCKED: REMARK    1  A    between atoms: C_2  and  C_19 
DOCKED: REMARK    2  A    between atoms: C_2  and  C_11 
DOCKED: REMARK    3  A    between atoms: C_19  and  C_20 
DOCKED: REMARK    4  A    between atoms: C_20  and  C_21 
DOCKED: REMARK    5  A    between atoms: C_21  and  N_22 
DOCKED: USER                              x       y       z     vdW  Elec       q    Type
DOCKED: USER                           _______ _______ _______ _____ _____    ______ ____
DOCKED: ROOT
DOCKED: ATOM      1  O   UNL     1     -44.206 -15.393   7.211 -0.04 -0.00    -0.346 OA 
DOCKED: ATOM      2  C   UNL     1     -45.619 -15.466   6.834 -0.22 +0.00    +0.130 C  
DOCKED: ATOM      3  C   UNL     1     -45.730 -14.524   5.670 -0.28 +0.00    +0.004 A  
DOCKED: ATOM      4  C   UNL     1     -44.472 -14.039   5.340 -0.19 +0.00    +0.006 A  
DOCKED: ATOM      5  C   UNL     1     -43.455 -14.628   6.240 -0.10 +0.00    +0.169 C  
DOCKED: ATOM      6  C   UNL     1     -46.852 -14.135   4.954 -0.31 -0.00    -0.001 A  
DOCKED: ATOM      7  C   UNL     1     -44.294 -13.151   4.293 -0.20 +0.00    +0.008 A  
DOCKED: ATOM      8  C   UNL     1     -46.690 -13.237   3.898 -0.41 +0.00    +0.010 A  
DOCKED: ATOM      9  C   UNL     1     -45.417 -12.748   3.569 -0.30 +0.00    +0.068 A  
DOCKED: ATOM     10  N   UNL     1     -45.150 -11.087   1.599 -0.78 -0.00    -0.191 NA 
DOCKED: ATOM     11  C   UNL     1     -45.269 -11.831   2.483 -0.37 +0.00    +0.101 C  
DOCKED: ENDROOT
DOCKED: BRANCH   2  12
DOCKED: ATOM     12  C   UNL     1     -45.945 -16.908   6.462 -0.20 +0.00    +0.038 C  
DOCKED: BRANCH  12  13
DOCKED: ATOM     13  C   UNL     1     -46.105 -17.781   7.705 -0.25 +0.00    +0.038 C  
DOCKED: BRANCH  13  14
DOCKED: ATOM     14  C   UNL     1     -44.749 -18.263   8.217 -0.11 +0.00    +0.251 C  
DOCKED: BRANCH  14  15
DOCKED: ATOM     15  N   UNL     1     -44.330 -17.472   9.368 -0.06 +0.00    +0.141 N  
DOCKED: ATOM     16  C   UNL     1     -45.057 -17.884  10.569 -0.08 +0.00    +0.285 C  
DOCKED: ATOM     17  C   UNL     1     -42.887 -17.596   9.580 -0.01 +0.00    +0.285 C  
DOCKED: ENDBRANCH  14  15
DOCKED: ENDBRANCH  13  14
DOCKED: ENDBRANCH  12  13
DOCKED: ENDBRANCH   2  12
DOCKED: BRANCH   2  18
DOCKED: ATOM     18  C   UNL     1     -46.410 -15.024   8.019 -0.25 +0.00    +0.006 A  
DOCKED: ATOM     19  C   UNL     1     -47.803 -15.022   7.965 -0.30 +0.00    +0.001 A  
DOCKED: ATOM     20  C   UNL     1     -48.542 -14.607   9.074 -0.26 +0.00    +0.029 A  
DOCKED: ATOM     21  C   UNL     1     -47.888 -14.196  10.234 -0.14 +0.00    +0.140 A  
DOCKED: ATOM     22  C   UNL     1     -46.494 -14.198  10.287 -0.18 +0.00    +0.029 A  
DOCKED: ATOM     23  F   UNL     1     -48.597 -13.800  11.298 -0.00 -0.00    -0.204 F  
DOCKED: ATOM     24  C   UNL     1     -45.754 -14.612   9.178 -0.20 +0.00    +0.001 A  
DOCKED: ENDBRANCH   2  18
DOCKED: TORSDOF 5
DOCKED: TER
DOCKED: ENDMDL
________________________________________________________________________________


    FINAL DOCKED STATE:
    ________________________


Run:   440 / 512
Time taken for this run:   0.002s

DOCKED: MODEL        440
DOCKED: USER    Run = 440
DOCKED: USER
DOCKED: USER    Estimated Free Energy of Binding    =  -4.04 kcal/mol  [=(1)+(2)+(3)-(4)]
DOCKED: USER
DOCKED: USER    (1) Final Intermolecular Energy     =  -5.53 kcal/mol
DOCKED: USER        vdW + Hbond + desolv Energy     =  -5.53 kcal/mol
DOCKED: USER        Electrostatic Energy            =  +0.00 kcal/mol
DOCKED: USER        Moving Ligand-Fixed Receptor    =  -5.53 kcal/mol
DOCKED: USER        Moving Ligand-Moving Receptor   =  +0.00 kcal/mol
DOCKED: USER    (2) Final Total Internal Energy     =  -1.34 kcal/mol
DOCKED: USER    (3) Torsional Free Energy           =  +1.49 kcal/mol
DOCKED: USER    (4) Unbound System's Energy         =  -1.34 kcal/mol
DOCKED: USER
DOCKED: USER
DOCKED: REMARK  5 active torsions:
DOCKED: REMARK  status: ('A' for Active; 'I' for Inactive)
DOCKED: REMARK    1  A    between atoms: C_2  and  C_19 
DOCKED: REMARK    2  A    between atoms: C_2  and  C_11 
DOCKED: REMARK    3  A    between atoms: C_19  and  C_20 
DOCKED: REMARK    4  A    between atoms: C_20  and  C_21 
DOCKED: REMARK    5  A    between atoms: C_21  and  N_22 
DOCKED: USER                              x       y       z     vdW  Elec       q    Type
DOCKED: USER                           _______ _______ _______ _____ _____    ______ ____
DOCKED: ROOT
DOCKED: ATOM      1  O   UNL     1     -50.723 -21.787  15.126 -0.01 -0.00    -0.346 OA 
DOCKED: ATOM      2  C   UNL     1     -49.339 -22.159  14.826 -0.12 +0.00    +0.130 C  
DOCKED: ATOM      3  C   UNL     1     -49.425 -22.804  13.473 -0.27 +0.00    +0.004 A  
DOCKED: ATOM      4  C   UNL     1     -50.724 -22.710  12.993 -0.26 +0.00    +0.006 A  
DOCKED: ATOM      5  C   UNL     1     -51.572 -21.996  13.973 -0.15 +0.00    +0.169 C  
DOCKED: ATOM      6  C   UNL     1     -48.431 -23.416  12.723 -0.34 -0.00    -0.001 A  
DOCKED: ATOM      7  C   UNL     1     -51.073 -23.224  11.756 -0.19 +0.00    +0.008 A  
DOCKED: ATOM      8  C   UNL     1     -48.769 -23.943  11.475 -0.05 +0.00    +0.010 A  
DOCKED: ATOM      9  C   UNL     1     -50.083 -23.847  10.994 -0.41 +0.00    +0.068 A  
DOCKED: ATOM     10  N   UNL     1     -50.674 -24.831   8.671 -2.23 -0.00    -0.191 NA 
DOCKED: ATOM     11  C   UNL     1     -50.409 -24.390   9.713 -0.35 +0.00    +0.101 C  
DOCKED: ENDROOT
DOCKED: BRANCH   2  12
DOCKED: ATOM     12  C   UNL     1     -48.488 -20.895  14.828 -0.14 +0.00    +0.038 C  
DOCKED: BRANCH  12  13
DOCKED: ATOM     13  C   UNL     1     -49.250 -19.712  15.422 -0.07 +0.00    +0.038 C  
DOCKED: BRANCH  13  14
DOCKED: ATOM     14  C   UNL     1     -49.397 -19.857  16.935 -0.01 +0.00    +0.251 C  
DOCKED: BRANCH  14  15
DOCKED: ATOM     15  N   UNL     1     -50.387 -18.913  17.441 -0.01 +0.00    +0.141 N  
DOCKED: ATOM     16  C   UNL     1     -50.921 -18.093  16.353 -0.01 +0.00    +0.285 C  
DOCKED: ATOM     17  C   UNL     1     -51.472 -19.621  18.123 +0.00 +0.00    +0.285 C  
DOCKED: ENDBRANCH  14  15
DOCKED: ENDBRANCH  13  14
DOCKED: ENDBRANCH  12  13
DOCKED: ENDBRANCH   2  12
DOCKED: BRANCH   2  18
DOCKED: ATOM     18  C   UNL     1     -48.901 -23.104  15.895 -0.13 +0.00    +0.006 A  
DOCKED: ATOM     19  C   UNL     1     -49.771 -24.094  16.349 -0.18 +0.00    +0.001 A  
DOCKED: ATOM     20  C   UNL     1     -49.360 -24.977  17.348 -0.09 +0.00    +0.029 A  
DOCKED: ATOM     21  C   UNL     1     -48.080 -24.870  17.891 -0.18 +0.00    +0.140 A  
DOCKED: ATOM     22  C   UNL     1     -47.210 -23.880  17.435 -0.11 +0.00    +0.029 A  
DOCKED: ATOM     23  F   UNL     1     -47.685 -25.719  18.848 -0.10 -0.00    -0.204 F  
DOCKED: ATOM     24  C   UNL     1     -47.621 -22.995  16.436 -0.14 +0.00    +0.001 A  
DOCKED: ENDBRANCH   2  18
DOCKED: TORSDOF 5
DOCKED: TER
DOCKED: ENDMDL
________________________________________________________________________________


    FINAL DOCKED STATE:
    ________________________


Run:   441 / 512
Time taken for this run:   0.002s

DOCKED: MODEL        441
DOCKED: USER    Run = 441
DOCKED: USER
DOCKED: USER    Estimated Free Energy of Binding    =  -5.42 kcal/mol  [=(1)+(2)+(3)-(4)]
DOCKED: USER
DOCKED: USER    (1) Final Intermolecular Energy     =  -6.91 kcal/mol
DOCKED: USER        vdW + Hbond + desolv Energy     =  -6.91 kcal/mol
DOCKED: USER        Electrostatic Energy            =  +0.00 kcal/mol
DOCKED: USER        Moving Ligand-Fixed Receptor    =  -6.91 kcal/mol
DOCKED: USER        Moving Ligand-Moving Receptor   =  +0.00 kcal/mol
DOCKED: USER    (2) Final Total Internal Energy     =  -0.93 kcal/mol
DOCKED: USER    (3) Torsional Free Energy           =  +1.49 kcal/mol
DOCKED: USER    (4) Unbound System's Energy         =  -0.93 kcal/mol
DOCKED: USER
DOCKED: USER
DOCKED: REMARK  5 active torsions:
DOCKED: REMARK  status: ('A' for Active; 'I' for Inactive)
DOCKED: REMARK    1  A    between atoms: C_2  and  C_19 
DOCKED: REMARK    2  A    between atoms: C_2  and  C_11 
DOCKED: REMARK    3  A    between atoms: C_19  and  C_20 
DOCKED: REMARK    4  A    between atoms: C_20  and  C_21 
DOCKED: REMARK    5  A    between atoms: C_21  and  N_22 
DOCKED: USER                              x       y       z     vdW  Elec       q    Type
DOCKED: USER                           _______ _______ _______ _____ _____    ______ ____
DOCKED: ROOT
DOCKED: ATOM      1  O   UNL     1     -52.115 -23.217  14.933 -0.01 -0.00    -0.346 OA 
DOCKED: ATOM      2  C   UNL     1     -50.783 -22.646  14.726 -0.12 +0.00    +0.130 C  
DOCKED: ATOM      3  C   UNL     1     -50.492 -22.928  13.280 -0.25 +0.00    +0.004 A  
DOCKED: ATOM      4  C   UNL     1     -51.602 -23.509  12.685 -0.30 +0.00    +0.006 A  
DOCKED: ATOM      5  C   UNL     1     -52.693 -23.639  13.676 -0.17 +0.00    +0.169 C  
DOCKED: ATOM      6  C   UNL     1     -49.340 -22.679  12.548 -0.35 -0.00    -0.001 A  
DOCKED: ATOM      7  C   UNL     1     -51.599 -23.864  11.346 -0.24 +0.00    +0.008 A  
DOCKED: ATOM      8  C   UNL     1     -49.320 -23.035  11.198 -0.34 +0.00    +0.010 A  
DOCKED: ATOM      9  C   UNL     1     -50.444 -23.624  10.601 -0.31 +0.00    +0.068 A  
DOCKED: ATOM     10  N   UNL     1     -50.375 -24.269   8.092 -2.94 -0.00    -0.191 NA 
DOCKED: ATOM     11  C   UNL     1     -50.406 -23.980   9.217 -0.27 +0.00    +0.101 C  
DOCKED: ENDROOT
DOCKED: BRANCH   2  12
DOCKED: ATOM     12  C   UNL     1     -50.843 -21.156  15.039 -0.12 +0.00    +0.038 C  
DOCKED: BRANCH  12  13
DOCKED: ATOM     13  C   UNL     1     -49.515 -20.467  14.730 -0.14 +0.00    +0.038 C  
DOCKED: BRANCH  13  14
DOCKED: ATOM     14  C   UNL     1     -49.660 -19.494  13.562 -0.16 +0.00    +0.251 C  
DOCKED: BRANCH  14  15
DOCKED: ATOM     15  N   UNL     1     -49.581 -18.117  14.036 -0.11 +0.00    +0.141 N  
DOCKED: ATOM     16  C   UNL     1     -48.582 -17.366  13.273 -0.10 +0.00    +0.285 C  
DOCKED: ATOM     17  C   UNL     1     -50.887 -17.464  13.944 -0.11 +0.00    +0.285 C  
DOCKED: ENDBRANCH  14  15
DOCKED: ENDBRANCH  13  14
DOCKED: ENDBRANCH  12  13
DOCKED: ENDBRANCH   2  12
DOCKED: BRANCH   2  18
DOCKED: ATOM     18  C   UNL     1     -49.855 -23.355  15.655 -0.14 +0.00    +0.006 A  
DOCKED: ATOM     19  C   UNL     1     -48.922 -24.260  15.151 -0.26 +0.00    +0.001 A  
DOCKED: ATOM     20  C   UNL     1     -48.055 -24.922  16.021 -0.02 +0.00    +0.029 A  
DOCKED: ATOM     21  C   UNL     1     -48.122 -24.678  17.392 -0.17 +0.00    +0.140 A  
DOCKED: ATOM     22  C   UNL     1     -49.055 -23.772  17.895 -0.12 +0.00    +0.029 A  
DOCKED: ATOM     23  F   UNL     1     -47.288 -25.312  18.227 -0.08 -0.00    -0.204 F  
DOCKED: ATOM     24  C   UNL     1     -49.924 -23.110  17.026 -0.09 +0.00    +0.001 A  
DOCKED: ENDBRANCH   2  18
DOCKED: TORSDOF 5
DOCKED: TER
DOCKED: ENDMDL
________________________________________________________________________________


    FINAL DOCKED STATE:
    ________________________


Run:   442 / 512
Time taken for this run:   0.002s

DOCKED: MODEL        442
DOCKED: USER    Run = 442
DOCKED: USER
DOCKED: USER    Estimated Free Energy of Binding    =  -3.74 kcal/mol  [=(1)+(2)+(3)-(4)]
DOCKED: USER
DOCKED: USER    (1) Final Intermolecular Energy     =  -5.23 kcal/mol
DOCKED: USER        vdW + Hbond + desolv Energy     =  -5.23 kcal/mol
DOCKED: USER        Electrostatic Energy            =  +0.00 kcal/mol
DOCKED: USER        Moving Ligand-Fixed Receptor    =  -5.23 kcal/mol
DOCKED: USER        Moving Ligand-Moving Receptor   =  +0.00 kcal/mol
DOCKED: USER    (2) Final Total Internal Energy     =  -1.12 kcal/mol
DOCKED: USER    (3) Torsional Free Energy           =  +1.49 kcal/mol
DOCKED: USER    (4) Unbound System's Energy         =  -1.12 kcal/mol
DOCKED: USER
DOCKED: USER
DOCKED: REMARK  5 active torsions:
DOCKED: REMARK  status: ('A' for Active; 'I' for Inactive)
DOCKED: REMARK    1  A    between atoms: C_2  and  C_19 
DOCKED: REMARK    2  A    between atoms: C_2  and  C_11 
DOCKED: REMARK    3  A    between atoms: C_19  and  C_20 
DOCKED: REMARK    4  A    between atoms: C_20  and  C_21 
DOCKED: REMARK    5  A    between atoms: C_21  and  N_22 
DOCKED: USER                              x       y       z     vdW  Elec       q    Type
DOCKED: USER                           _______ _______ _______ _____ _____    ______ ____
DOCKED: ROOT
DOCKED: ATOM      1  O   UNL     1     -47.409 -22.470  17.337 -0.02 -0.00    -0.346 OA 
DOCKED: ATOM      2  C   UNL     1     -47.007 -21.730  16.139 -0.09 +0.00    +0.130 C  
DOCKED: ATOM      3  C   UNL     1     -47.659 -22.484  15.016 -0.20 +0.00    +0.004 A  
DOCKED: ATOM      4  C   UNL     1     -48.452 -23.498  15.532 -0.19 +0.00    +0.006 A  
DOCKED: ATOM      5  C   UNL     1     -48.393 -23.479  17.011 -0.11 +0.00    +0.169 C  
DOCKED: ATOM      6  C   UNL     1     -47.565 -22.281  13.647 -0.19 -0.00    -0.001 A  
DOCKED: ATOM      7  C   UNL     1     -49.172 -24.343  14.704 -0.26 +0.00    +0.008 A  
DOCKED: ATOM      8  C   UNL     1     -48.282 -23.127  12.798 -0.30 +0.00    +0.010 A  
DOCKED: ATOM      9  C   UNL     1     -49.081 -24.152  13.325 -0.30 +0.00    +0.068 A  
DOCKED: ATOM     10  N   UNL     1     -50.402 -25.701  11.722 -2.33 -0.00    -0.191 NA 
DOCKED: ATOM     11  C   UNL     1     -49.809 -25.007  12.441 -0.22 +0.00    +0.101 C  
DOCKED: ENDROOT
DOCKED: BRANCH   2  12
DOCKED: ATOM     12  C   UNL     1     -47.513 -20.298  16.264 -0.05 +0.00    +0.038 C  
DOCKED: BRANCH  12  13
DOCKED: ATOM     13  C   UNL     1     -49.040 -20.243  16.251 -0.04 +0.00    +0.038 C  
DOCKED: BRANCH  13  14
DOCKED: ATOM     14  C   UNL     1     -49.537 -18.884  15.764 -0.02 +0.00    +0.251 C  
DOCKED: BRANCH  14  15
DOCKED: ATOM     15  N   UNL     1     -50.424 -19.048  14.619 -0.09 +0.00    +0.141 N  
DOCKED: ATOM     16  C   UNL     1     -49.902 -20.065  13.704 -0.15 +0.00    +0.285 C  
DOCKED: ATOM     17  C   UNL     1     -51.773 -19.406  15.059 -0.05 +0.00    +0.285 C  
DOCKED: ENDBRANCH  14  15
DOCKED: ENDBRANCH  13  14
DOCKED: ENDBRANCH  12  13
DOCKED: ENDBRANCH   2  12
DOCKED: BRANCH   2  18
DOCKED: ATOM     18  C   UNL     1     -45.517 -21.771  16.080 -0.12 +0.00    +0.006 A  
DOCKED: ATOM     19  C   UNL     1     -44.879 -22.587  15.146 -0.18 +0.00    +0.001 A  
DOCKED: ATOM     20  C   UNL     1     -43.485 -22.625  15.092 -0.17 +0.00    +0.029 A  
DOCKED: ATOM     21  C   UNL     1     -42.732 -21.847  15.971 -0.06 +0.00    +0.140 A  
DOCKED: ATOM     22  C   UNL     1     -43.371 -21.032  16.904 -0.04 +0.00    +0.029 A  
DOCKED: ATOM     23  F   UNL     1     -41.394 -21.882  15.917 +0.00 -0.00    -0.204 F  
DOCKED: ATOM     24  C   UNL     1     -44.765 -20.993  16.959 -0.05 +0.00    +0.001 A  
DOCKED: ENDBRANCH   2  18
DOCKED: TORSDOF 5
DOCKED: TER
DOCKED: ENDMDL
________________________________________________________________________________


    FINAL DOCKED STATE:
    ________________________


Run:   443 / 512
Time taken for this run:   0.002s

DOCKED: MODEL        443
DOCKED: USER    Run = 443
DOCKED: USER
DOCKED: USER    Estimated Free Energy of Binding    =  -3.71 kcal/mol  [=(1)+(2)+(3)-(4)]
DOCKED: USER
DOCKED: USER    (1) Final Intermolecular Energy     =  -5.20 kcal/mol
DOCKED: USER        vdW + Hbond + desolv Energy     =  -5.20 kcal/mol
DOCKED: USER        Electrostatic Energy            =  +0.00 kcal/mol
DOCKED: USER        Moving Ligand-Fixed Receptor    =  -5.20 kcal/mol
DOCKED: USER        Moving Ligand-Moving Receptor   =  +0.00 kcal/mol
DOCKED: USER    (2) Final Total Internal Energy     =  -1.48 kcal/mol
DOCKED: USER    (3) Torsional Free Energy           =  +1.49 kcal/mol
DOCKED: USER    (4) Unbound System's Energy         =  -1.48 kcal/mol
DOCKED: USER
DOCKED: USER
DOCKED: REMARK  5 active torsions:
DOCKED: REMARK  status: ('A' for Active; 'I' for Inactive)
DOCKED: REMARK    1  A    between atoms: C_2  and  C_19 
DOCKED: REMARK    2  A    between atoms: C_2  and  C_11 
DOCKED: REMARK    3  A    between atoms: C_19  and  C_20 
DOCKED: REMARK    4  A    between atoms: C_20  and  C_21 
DOCKED: REMARK    5  A    between atoms: C_21  and  N_22 
DOCKED: USER                              x       y       z     vdW  Elec       q    Type
DOCKED: USER                           _______ _______ _______ _____ _____    ______ ____
DOCKED: ROOT
DOCKED: ATOM      1  O   UNL     1     -44.105 -15.185   7.181 -0.04 -0.00    -0.346 OA 
DOCKED: ATOM      2  C   UNL     1     -45.482 -15.354   6.714 -0.21 +0.00    +0.130 C  
DOCKED: ATOM      3  C   UNL     1     -45.596 -14.385   5.573 -0.25 +0.00    +0.004 A  
DOCKED: ATOM      4  C   UNL     1     -44.363 -13.794   5.337 -0.17 +0.00    +0.006 A  
DOCKED: ATOM      5  C   UNL     1     -43.359 -14.332   6.282 -0.11 +0.00    +0.169 C  
DOCKED: ATOM      6  C   UNL     1     -46.701 -14.061   4.799 -0.31 -0.00    -0.001 A  
DOCKED: ATOM      7  C   UNL     1     -44.192 -12.862   4.328 -0.20 +0.00    +0.008 A  
DOCKED: ATOM      8  C   UNL     1     -46.546 -13.119   3.780 -0.42 +0.00    +0.010 A  
DOCKED: ATOM      9  C   UNL     1     -45.297 -12.523   3.546 -0.30 +0.00    +0.068 A  
DOCKED: ATOM     10  N   UNL     1     -45.043 -10.782   1.644 -0.81 -0.00    -0.191 NA 
DOCKED: ATOM     11  C   UNL     1     -45.157 -11.562   2.497 -0.33 +0.00    +0.101 C  
DOCKED: ENDROOT
DOCKED: BRANCH   2  12
DOCKED: ATOM     12  C   UNL     1     -45.670 -16.803   6.283 -0.20 +0.00    +0.038 C  
DOCKED: BRANCH  12  13
DOCKED: ATOM     13  C   UNL     1     -44.660 -17.723   6.966 -0.17 +0.00    +0.038 C  
DOCKED: BRANCH  13  14
DOCKED: ATOM     14  C   UNL     1     -45.261 -18.371   8.212 -0.15 +0.00    +0.251 C  
DOCKED: BRANCH  14  15
DOCKED: ATOM     15  N   UNL     1     -44.821 -17.666   9.411 -0.08 +0.00    +0.141 N  
DOCKED: ATOM     16  C   UNL     1     -45.157 -18.433  10.612 -0.10 +0.00    +0.285 C  
DOCKED: ATOM     17  C   UNL     1     -43.381 -17.409   9.359 -0.02 +0.00    +0.285 C  
DOCKED: ENDBRANCH  14  15
DOCKED: ENDBRANCH  13  14
DOCKED: ENDBRANCH  12  13
DOCKED: ENDBRANCH   2  12
DOCKED: BRANCH   2  18
DOCKED: ATOM     18  C   UNL     1     -46.376 -15.012   7.859 -0.26 +0.00    +0.006 A  
DOCKED: ATOM     19  C   UNL     1     -45.826 -14.637   9.085 -0.20 +0.00    +0.001 A  
DOCKED: ATOM     20  C   UNL     1     -46.663 -14.318  10.154 -0.18 +0.00    +0.029 A  
DOCKED: ATOM     21  C   UNL     1     -48.047 -14.374   9.998 -0.15 +0.00    +0.140 A  
DOCKED: ATOM     22  C   UNL     1     -48.596 -14.749   8.772 -0.28 +0.00    +0.029 A  
DOCKED: ATOM     23  F   UNL     1     -48.851 -14.066  11.024 -0.00 -0.00    -0.204 F  
DOCKED: ATOM     24  C   UNL     1     -47.760 -15.069   7.701 -0.25 +0.00    +0.001 A  
DOCKED: ENDBRANCH   2  18
DOCKED: TORSDOF 5
DOCKED: TER
DOCKED: ENDMDL
________________________________________________________________________________


    FINAL DOCKED STATE:
    ________________________


Run:   444 / 512
Time taken for this run:   0.002s

DOCKED: MODEL        444
DOCKED: USER    Run = 444
DOCKED: USER
DOCKED: USER    Estimated Free Energy of Binding    =  -5.72 kcal/mol  [=(1)+(2)+(3)-(4)]
DOCKED: USER
DOCKED: USER    (1) Final Intermolecular Energy     =  -7.21 kcal/mol
DOCKED: USER        vdW + Hbond + desolv Energy     =  -7.21 kcal/mol
DOCKED: USER        Electrostatic Energy            =  +0.00 kcal/mol
DOCKED: USER        Moving Ligand-Fixed Receptor    =  -7.21 kcal/mol
DOCKED: USER        Moving Ligand-Moving Receptor   =  +0.00 kcal/mol
DOCKED: USER    (2) Final Total Internal Energy     =  -1.47 kcal/mol
DOCKED: USER    (3) Torsional Free Energy           =  +1.49 kcal/mol
DOCKED: USER    (4) Unbound System's Energy         =  -1.47 kcal/mol
DOCKED: USER
DOCKED: USER
DOCKED: REMARK  5 active torsions:
DOCKED: REMARK  status: ('A' for Active; 'I' for Inactive)
DOCKED: REMARK    1  A    between atoms: C_2  and  C_19 
DOCKED: REMARK    2  A    between atoms: C_2  and  C_11 
DOCKED: REMARK    3  A    between atoms: C_19  and  C_20 
DOCKED: REMARK    4  A    between atoms: C_20  and  C_21 
DOCKED: REMARK    5  A    between atoms: C_21  and  N_22 
DOCKED: USER                              x       y       z     vdW  Elec       q    Type
DOCKED: USER                           _______ _______ _______ _____ _____    ______ ____
DOCKED: ROOT
DOCKED: ATOM      1  O   UNL     1     -47.994 -21.412  14.516 -0.06 -0.00    -0.346 OA 
DOCKED: ATOM      2  C   UNL     1     -47.830 -22.865  14.563 -0.23 +0.00    +0.130 C  
DOCKED: ATOM      3  C   UNL     1     -48.392 -23.332  13.251 -0.34 +0.00    +0.004 A  
DOCKED: ATOM      4  C   UNL     1     -48.743 -22.236  12.476 -0.32 +0.00    +0.006 A  
DOCKED: ATOM      5  C   UNL     1     -48.432 -20.986  13.205 -0.23 +0.00    +0.169 C  
DOCKED: ATOM      6  C   UNL     1     -48.566 -24.624  12.776 -0.42 -0.00    -0.001 A  
DOCKED: ATOM      7  C   UNL     1     -49.283 -22.391  11.211 +0.08 +0.00    +0.008 A  
DOCKED: ATOM      8  C   UNL     1     -49.113 -24.797  11.503 -0.48 +0.00    +0.010 A  
DOCKED: ATOM      9  C   UNL     1     -49.469 -23.686  10.725 -0.39 +0.00    +0.068 A  
DOCKED: ATOM     10  N   UNL     1     -50.476 -24.042   8.364 -3.06 -0.00    -0.191 NA 
DOCKED: ATOM     11  C   UNL     1     -50.025 -23.882   9.423 -0.42 +0.00    +0.101 C  
DOCKED: ENDROOT
DOCKED: BRANCH   2  12
DOCKED: ATOM     12  C   UNL     1     -46.347 -23.179  14.719 -0.22 +0.00    +0.038 C  
DOCKED: BRANCH  12  13
DOCKED: ATOM     13  C   UNL     1     -45.635 -22.108  15.542 -0.18 +0.00    +0.038 C  
DOCKED: BRANCH  13  14
DOCKED: ATOM     14  C   UNL     1     -45.412 -22.577  16.979 -0.07 +0.00    +0.251 C  
DOCKED: BRANCH  14  15
DOCKED: ATOM     15  N   UNL     1     -45.852 -21.554  17.920 -0.03 +0.00    +0.141 N  
DOCKED: ATOM     16  C   UNL     1     -45.865 -20.237  17.283 -0.01 +0.00    +0.285 C  
DOCKED: ATOM     17  C   UNL     1     -47.179 -21.876  18.448 -0.02 +0.00    +0.285 C  
DOCKED: ENDBRANCH  14  15
DOCKED: ENDBRANCH  13  14
DOCKED: ENDBRANCH  12  13
DOCKED: ENDBRANCH   2  12
DOCKED: BRANCH   2  18
DOCKED: ATOM     18  C   UNL     1     -48.611 -23.355  15.736 -0.16 +0.00    +0.006 A  
DOCKED: ATOM     19  C   UNL     1     -49.705 -22.626  16.199 -0.09 +0.00    +0.001 A  
DOCKED: ATOM     20  C   UNL     1     -50.434 -23.085  17.297 -0.07 +0.00    +0.029 A  
DOCKED: ATOM     21  C   UNL     1     -50.067 -24.272  17.930 -0.09 +0.00    +0.140 A  
DOCKED: ATOM     22  C   UNL     1     -48.972 -25.001  17.467 -0.17 +0.00    +0.029 A  
DOCKED: ATOM     23  F   UNL     1     -50.768 -24.713  18.983 -0.02 -0.00    -0.204 F  
DOCKED: ATOM     24  C   UNL     1     -48.242 -24.542  16.369 -0.22 +0.00    +0.001 A  
DOCKED: ENDBRANCH   2  18
DOCKED: TORSDOF 5
DOCKED: TER
DOCKED: ENDMDL
________________________________________________________________________________


    FINAL DOCKED STATE:
    ________________________


Run:   445 / 512
Time taken for this run:   0.002s

DOCKED: MODEL        445
DOCKED: USER    Run = 445
DOCKED: USER
DOCKED: USER    Estimated Free Energy of Binding    =  -4.05 kcal/mol  [=(1)+(2)+(3)-(4)]
DOCKED: USER
DOCKED: USER    (1) Final Intermolecular Energy     =  -5.54 kcal/mol
DOCKED: USER        vdW + Hbond + desolv Energy     =  -5.54 kcal/mol
DOCKED: USER        Electrostatic Energy            =  +0.00 kcal/mol
DOCKED: USER        Moving Ligand-Fixed Receptor    =  -5.54 kcal/mol
DOCKED: USER        Moving Ligand-Moving Receptor   =  +0.00 kcal/mol
DOCKED: USER    (2) Final Total Internal Energy     =  -1.54 kcal/mol
DOCKED: USER    (3) Torsional Free Energy           =  +1.49 kcal/mol
DOCKED: USER    (4) Unbound System's Energy         =  -1.54 kcal/mol
DOCKED: USER
DOCKED: USER
DOCKED: REMARK  5 active torsions:
DOCKED: REMARK  status: ('A' for Active; 'I' for Inactive)
DOCKED: REMARK    1  A    between atoms: C_2  and  C_19 
DOCKED: REMARK    2  A    between atoms: C_2  and  C_11 
DOCKED: REMARK    3  A    between atoms: C_19  and  C_20 
DOCKED: REMARK    4  A    between atoms: C_20  and  C_21 
DOCKED: REMARK    5  A    between atoms: C_21  and  N_22 
DOCKED: USER                              x       y       z     vdW  Elec       q    Type
DOCKED: USER                           _______ _______ _______ _____ _____    ______ ____
DOCKED: ROOT
DOCKED: ATOM      1  O   UNL     1     -48.808 -19.035  14.793 -0.02 -0.00    -0.346 OA 
DOCKED: ATOM      2  C   UNL     1     -50.260 -19.091  14.619 -0.12 +0.00    +0.130 C  
DOCKED: ATOM      3  C   UNL     1     -50.499 -20.452  14.032 -0.20 +0.00    +0.004 A  
DOCKED: ATOM      4  C   UNL     1     -49.303 -21.154  13.978 -0.21 +0.00    +0.006 A  
DOCKED: ATOM      5  C   UNL     1     -48.208 -20.325  14.529 -0.12 +0.00    +0.169 C  
DOCKED: ATOM      6  C   UNL     1     -51.682 -21.027  13.591 -0.23 -0.00    -0.001 A  
DOCKED: ATOM      7  C   UNL     1     -49.248 -22.445  13.481 -0.28 +0.00    +0.008 A  
DOCKED: ATOM      8  C   UNL     1     -51.642 -22.326  13.083 -0.21 +0.00    +0.010 A  
DOCKED: ATOM      9  C   UNL     1     -50.431 -23.032  13.029 -0.23 +0.00    +0.068 A  
DOCKED: ATOM     10  N   UNL     1     -50.392 -25.444  12.085 -2.55 -0.00    -0.191 NA 
DOCKED: ATOM     11  C   UNL     1     -50.409 -24.362  12.508 -0.35 +0.00    +0.101 C  
DOCKED: ENDROOT
DOCKED: BRANCH   2  12
DOCKED: ATOM     12  C   UNL     1     -50.916 -18.910  15.983 -0.04 +0.00    +0.038 C  
DOCKED: BRANCH  12  13
DOCKED: ATOM     13  C   UNL     1     -49.938 -18.322  16.998 -0.01 +0.00    +0.038 C  
DOCKED: BRANCH  13  14
DOCKED: ATOM     14  C   UNL     1     -49.844 -16.804  16.857 -0.00 +0.00    +0.251 C  
DOCKED: BRANCH  14  15
DOCKED: ATOM     15  N   UNL     1     -48.452 -16.392  16.726 -0.00 +0.00    +0.141 N  
DOCKED: ATOM     16  C   UNL     1     -47.554 -17.464  17.157 -0.00 +0.00    +0.285 C  
DOCKED: ATOM     17  C   UNL     1     -48.156 -16.006  15.345 -0.00 +0.00    +0.285 C  
DOCKED: ENDBRANCH  14  15
DOCKED: ENDBRANCH  13  14
DOCKED: ENDBRANCH  12  13
DOCKED: ENDBRANCH   2  12
DOCKED: BRANCH   2  18
DOCKED: ATOM     18  C   UNL     1     -50.631 -17.984  13.691 -0.19 +0.00    +0.006 A  
DOCKED: ATOM     19  C   UNL     1     -51.941 -17.507  13.664 -0.18 +0.00    +0.001 A  
DOCKED: ATOM     20  C   UNL     1     -52.287 -16.471  12.795 -0.16 +0.00    +0.029 A  
DOCKED: ATOM     21  C   UNL     1     -51.323 -15.914  11.956 -0.09 +0.00    +0.140 A  
DOCKED: ATOM     22  C   UNL     1     -50.013 -16.391  11.984 -0.12 +0.00    +0.029 A  
DOCKED: ATOM     23  F   UNL     1     -51.655 -14.919  11.123 -0.03 -0.00    -0.204 F  
DOCKED: ATOM     24  C   UNL     1     -49.666 -17.428  12.852 -0.18 +0.00    +0.001 A  
DOCKED: ENDBRANCH   2  18
DOCKED: TORSDOF 5
DOCKED: TER
DOCKED: ENDMDL
________________________________________________________________________________


    FINAL DOCKED STATE:
    ________________________


Run:   446 / 512
Time taken for this run:   0.002s

DOCKED: MODEL        446
DOCKED: USER    Run = 446
DOCKED: USER
DOCKED: USER    Estimated Free Energy of Binding    =  -5.49 kcal/mol  [=(1)+(2)+(3)-(4)]
DOCKED: USER
DOCKED: USER    (1) Final Intermolecular Energy     =  -6.98 kcal/mol
DOCKED: USER        vdW + Hbond + desolv Energy     =  -6.98 kcal/mol
DOCKED: USER        Electrostatic Energy            =  +0.00 kcal/mol
DOCKED: USER        Moving Ligand-Fixed Receptor    =  -6.98 kcal/mol
DOCKED: USER        Moving Ligand-Moving Receptor   =  +0.00 kcal/mol
DOCKED: USER    (2) Final Total Internal Energy     =  -1.32 kcal/mol
DOCKED: USER    (3) Torsional Free Energy           =  +1.49 kcal/mol
DOCKED: USER    (4) Unbound System's Energy         =  -1.32 kcal/mol
DOCKED: USER
DOCKED: USER
DOCKED: REMARK  5 active torsions:
DOCKED: REMARK  status: ('A' for Active; 'I' for Inactive)
DOCKED: REMARK    1  A    between atoms: C_2  and  C_19 
DOCKED: REMARK    2  A    between atoms: C_2  and  C_11 
DOCKED: REMARK    3  A    between atoms: C_19  and  C_20 
DOCKED: REMARK    4  A    between atoms: C_20  and  C_21 
DOCKED: REMARK    5  A    between atoms: C_21  and  N_22 
DOCKED: USER                              x       y       z     vdW  Elec       q    Type
DOCKED: USER                           _______ _______ _______ _____ _____    ______ ____
DOCKED: ROOT
DOCKED: ATOM      1  O   UNL     1     -48.404 -22.814  14.809 -0.05 -0.00    -0.346 OA 
DOCKED: ATOM      2  C   UNL     1     -49.802 -23.244  14.867 -0.14 +0.00    +0.130 C  
DOCKED: ATOM      3  C   UNL     1     -50.159 -23.498  13.431 -0.26 +0.00    +0.004 A  
DOCKED: ATOM      4  C   UNL     1     -49.035 -23.336  12.634 -0.37 +0.00    +0.006 A  
DOCKED: ATOM      5  C   UNL     1     -47.870 -22.980  13.475 -0.24 +0.00    +0.169 C  
DOCKED: ATOM      6  C   UNL     1     -51.379 -23.857  12.876 -0.30 -0.00    -0.001 A  
DOCKED: ATOM      7  C   UNL     1     -49.090 -23.519  11.263 -0.28 +0.00    +0.008 A  
DOCKED: ATOM      8  C   UNL     1     -51.452 -24.041  11.494 -0.32 +0.00    +0.010 A  
DOCKED: ATOM      9  C   UNL     1     -50.313 -23.874  10.692 -0.40 +0.00    +0.068 A  
DOCKED: ATOM     10  N   UNL     1     -50.483 -24.230   8.131 -3.06 -0.00    -0.191 NA 
DOCKED: ATOM     11  C   UNL     1     -50.407 -24.070   9.280 -0.28 +0.00    +0.101 C  
DOCKED: ENDROOT
DOCKED: BRANCH   2  12
DOCKED: ATOM     12  C   UNL     1     -49.886 -24.497  15.730 -0.25 +0.00    +0.038 C  
DOCKED: BRANCH  12  13
DOCKED: ATOM     13  C   UNL     1     -48.500 -25.073  16.012 -0.30 +0.00    +0.038 C  
DOCKED: BRANCH  13  14
DOCKED: ATOM     14  C   UNL     1     -48.011 -24.673  17.403 -0.14 +0.00    +0.251 C  
DOCKED: BRANCH  14  15
DOCKED: ATOM     15  N   UNL     1     -49.135 -24.258  18.235 -0.11 +0.00    +0.141 N  
DOCKED: ATOM     16  C   UNL     1     -49.585 -25.362  19.084 -0.08 +0.00    +0.285 C  
DOCKED: ATOM     17  C   UNL     1     -48.768 -23.102  19.056 -0.02 +0.00    +0.285 C  
DOCKED: ENDBRANCH  14  15
DOCKED: ENDBRANCH  13  14
DOCKED: ENDBRANCH  12  13
DOCKED: ENDBRANCH   2  12
DOCKED: BRANCH   2  18
DOCKED: ATOM     18  C   UNL     1     -50.579 -22.122  15.469 -0.09 +0.00    +0.006 A  
DOCKED: ATOM     19  C   UNL     1     -50.800 -20.955  14.738 -0.13 +0.00    +0.001 A  
DOCKED: ATOM     20  C   UNL     1     -51.527 -19.907  15.303 -0.08 +0.00    +0.029 A  
DOCKED: ATOM     21  C   UNL     1     -52.032 -20.026  16.596 -0.01 +0.00    +0.140 A  
DOCKED: ATOM     22  C   UNL     1     -51.812 -21.193  17.327 -0.02 +0.00    +0.029 A  
DOCKED: ATOM     23  F   UNL     1     -52.732 -19.020  17.137 +0.01 -0.00    -0.204 F  
DOCKED: ATOM     24  C   UNL     1     -51.084 -22.242  16.763 -0.05 +0.00    +0.001 A  
DOCKED: ENDBRANCH   2  18
DOCKED: TORSDOF 5
DOCKED: TER
DOCKED: ENDMDL
________________________________________________________________________________


    FINAL DOCKED STATE:
    ________________________


Run:   447 / 512
Time taken for this run:   0.002s

DOCKED: MODEL        447
DOCKED: USER    Run = 447
DOCKED: USER
DOCKED: USER    Estimated Free Energy of Binding    =  -4.19 kcal/mol  [=(1)+(2)+(3)-(4)]
DOCKED: USER
DOCKED: USER    (1) Final Intermolecular Energy     =  -5.68 kcal/mol
DOCKED: USER        vdW + Hbond + desolv Energy     =  -5.68 kcal/mol
DOCKED: USER        Electrostatic Energy            =  +0.00 kcal/mol
DOCKED: USER        Moving Ligand-Fixed Receptor    =  -5.68 kcal/mol
DOCKED: USER        Moving Ligand-Moving Receptor   =  +0.00 kcal/mol
DOCKED: USER    (2) Final Total Internal Energy     =  -1.25 kcal/mol
DOCKED: USER    (3) Torsional Free Energy           =  +1.49 kcal/mol
DOCKED: USER    (4) Unbound System's Energy         =  -1.25 kcal/mol
DOCKED: USER
DOCKED: USER
DOCKED: REMARK  5 active torsions:
DOCKED: REMARK  status: ('A' for Active; 'I' for Inactive)
DOCKED: REMARK    1  A    between atoms: C_2  and  C_19 
DOCKED: REMARK    2  A    between atoms: C_2  and  C_11 
DOCKED: REMARK    3  A    between atoms: C_19  and  C_20 
DOCKED: REMARK    4  A    between atoms: C_20  and  C_21 
DOCKED: REMARK    5  A    between atoms: C_21  and  N_22 
DOCKED: USER                              x       y       z     vdW  Elec       q    Type
DOCKED: USER                           _______ _______ _______ _____ _____    ______ ____
DOCKED: ROOT
DOCKED: ATOM      1  O   UNL     1     -48.621 -19.449  15.135 -0.01 -0.00    -0.346 OA 
DOCKED: ATOM      2  C   UNL     1     -50.045 -19.463  14.798 -0.10 +0.00    +0.130 C  
DOCKED: ATOM      3  C   UNL     1     -50.248 -20.802  14.150 -0.19 +0.00    +0.004 A  
DOCKED: ATOM      4  C   UNL     1     -49.071 -21.534  14.211 -0.19 +0.00    +0.006 A  
DOCKED: ATOM      5  C   UNL     1     -48.026 -20.748  14.904 -0.10 +0.00    +0.169 C  
DOCKED: ATOM      6  C   UNL     1     -51.387 -21.335  13.563 -0.22 -0.00    -0.001 A  
DOCKED: ATOM      7  C   UNL     1     -48.989 -22.813  13.687 -0.27 +0.00    +0.008 A  
DOCKED: ATOM      8  C   UNL     1     -51.320 -22.622  13.027 -0.24 +0.00    +0.010 A  
DOCKED: ATOM      9  C   UNL     1     -50.127 -23.357  13.090 -0.24 +0.00    +0.068 A  
DOCKED: ATOM     10  N   UNL     1     -50.038 -25.745  12.089 -2.61 -0.00    -0.191 NA 
DOCKED: ATOM     11  C   UNL     1     -50.078 -24.674  12.537 -0.34 +0.00    +0.101 C  
DOCKED: ENDROOT
DOCKED: BRANCH   2  12
DOCKED: ATOM     12  C   UNL     1     -50.847 -19.298  16.083 -0.04 +0.00    +0.038 C  
DOCKED: BRANCH  12  13
DOCKED: ATOM     13  C   UNL     1     -51.710 -20.527  16.362 -0.05 +0.00    +0.038 C  
DOCKED: BRANCH  13  14
DOCKED: ATOM     14  C   UNL     1     -51.178 -21.312  17.560 -0.00 +0.00    +0.251 C  
DOCKED: BRANCH  14  15
DOCKED: ATOM     15  N   UNL     1     -50.869 -22.683  17.171 -0.03 +0.00    +0.141 N  
DOCKED: ATOM     16  C   UNL     1     -49.425 -22.918  17.215 -0.03 +0.00    +0.285 C  
DOCKED: ATOM     17  C   UNL     1     -51.565 -23.635  18.038 -0.03 +0.00    +0.285 C  
DOCKED: ENDBRANCH  14  15
DOCKED: ENDBRANCH  13  14
DOCKED: ENDBRANCH  12  13
DOCKED: ENDBRANCH   2  12
DOCKED: BRANCH   2  18
DOCKED: ATOM     18  C   UNL     1     -50.284 -18.323  13.865 -0.19 +0.00    +0.006 A  
DOCKED: ATOM     19  C   UNL     1     -49.238 -17.830  13.086 -0.16 +0.00    +0.001 A  
DOCKED: ATOM     20  C   UNL     1     -49.462 -16.764  12.214 -0.13 +0.00    +0.029 A  
DOCKED: ATOM     21  C   UNL     1     -50.730 -16.193  12.122 -0.10 +0.00    +0.140 A  
DOCKED: ATOM     22  C   UNL     1     -51.776 -16.688  12.901 -0.17 +0.00    +0.029 A  
DOCKED: ATOM     23  F   UNL     1     -50.946 -15.171  11.283 -0.03 -0.00    -0.204 F  
DOCKED: ATOM     24  C   UNL     1     -51.553 -17.754  13.774 -0.19 +0.00    +0.001 A  
DOCKED: ENDBRANCH   2  18
DOCKED: TORSDOF 5
DOCKED: TER
DOCKED: ENDMDL
________________________________________________________________________________


    FINAL DOCKED STATE:
    ________________________


Run:   448 / 512
Time taken for this run:   0.002s

DOCKED: MODEL        448
DOCKED: USER    Run = 448
DOCKED: USER
DOCKED: USER    Estimated Free Energy of Binding    =  -4.07 kcal/mol  [=(1)+(2)+(3)-(4)]
DOCKED: USER
DOCKED: USER    (1) Final Intermolecular Energy     =  -5.56 kcal/mol
DOCKED: USER        vdW + Hbond + desolv Energy     =  -5.56 kcal/mol
DOCKED: USER        Electrostatic Energy            =  +0.00 kcal/mol
DOCKED: USER        Moving Ligand-Fixed Receptor    =  -5.56 kcal/mol
DOCKED: USER        Moving Ligand-Moving Receptor   =  +0.00 kcal/mol
DOCKED: USER    (2) Final Total Internal Energy     =  -1.29 kcal/mol
DOCKED: USER    (3) Torsional Free Energy           =  +1.49 kcal/mol
DOCKED: USER    (4) Unbound System's Energy         =  -1.29 kcal/mol
DOCKED: USER
DOCKED: USER
DOCKED: REMARK  5 active torsions:
DOCKED: REMARK  status: ('A' for Active; 'I' for Inactive)
DOCKED: REMARK    1  A    between atoms: C_2  and  C_19 
DOCKED: REMARK    2  A    between atoms: C_2  and  C_11 
DOCKED: REMARK    3  A    between atoms: C_19  and  C_20 
DOCKED: REMARK    4  A    between atoms: C_20  and  C_21 
DOCKED: REMARK    5  A    between atoms: C_21  and  N_22 
DOCKED: USER                              x       y       z     vdW  Elec       q    Type
DOCKED: USER                           _______ _______ _______ _____ _____    ______ ____
DOCKED: ROOT
DOCKED: ATOM      1  O   UNL     1     -48.995 -18.867  13.923 -0.07 -0.00    -0.346 OA 
DOCKED: ATOM      2  C   UNL     1     -47.780 -19.644  14.170 -0.14 +0.00    +0.130 C  
DOCKED: ATOM      3  C   UNL     1     -48.163 -21.043  13.783 -0.24 +0.00    +0.004 A  
DOCKED: ATOM      4  C   UNL     1     -49.447 -21.047  13.256 -0.26 +0.00    +0.006 A  
DOCKED: ATOM      5  C   UNL     1     -49.990 -19.670  13.246 -0.17 +0.00    +0.169 C  
DOCKED: ATOM      6  C   UNL     1     -47.429 -22.217  13.878 -0.21 -0.00    -0.001 A  
DOCKED: ATOM      7  C   UNL     1     -50.040 -22.217  12.813 -0.26 +0.00    +0.008 A  
DOCKED: ATOM      8  C   UNL     1     -48.016 -23.405  13.440 -0.32 +0.00    +0.010 A  
DOCKED: ATOM      9  C   UNL     1     -49.314 -23.405  12.910 -0.30 +0.00    +0.068 A  
DOCKED: ATOM     10  N   UNL     1     -50.371 -25.628  12.100 -2.55 -0.00    -0.191 NA 
DOCKED: ATOM     11  C   UNL     1     -49.897 -24.631  12.464 -0.38 +0.00    +0.101 C  
DOCKED: ENDROOT
DOCKED: BRANCH   2  12
DOCKED: ATOM     12  C   UNL     1     -46.660 -19.075  13.308 -0.17 +0.00    +0.038 C  
DOCKED: BRANCH  12  13
DOCKED: ATOM     13  C   UNL     1     -46.133 -17.759  13.877 -0.07 +0.00    +0.038 C  
DOCKED: BRANCH  13  14
DOCKED: ATOM     14  C   UNL     1     -46.963 -16.576  13.383 -0.04 +0.00    +0.251 C  
DOCKED: BRANCH  14  15
DOCKED: ATOM     15  N   UNL     1     -47.678 -16.932  12.163 -0.09 +0.00    +0.141 N  
DOCKED: ATOM     16  C   UNL     1     -49.063 -16.460  12.221 -0.10 +0.00    +0.285 C  
DOCKED: ATOM     17  C   UNL     1     -47.002 -16.380  10.989 -0.05 +0.00    +0.285 C  
DOCKED: ENDBRANCH  14  15
DOCKED: ENDBRANCH  13  14
DOCKED: ENDBRANCH  12  13
DOCKED: ENDBRANCH   2  12
DOCKED: BRANCH   2  18
DOCKED: ATOM     18  C   UNL     1     -47.464 -19.509  15.622 -0.05 +0.00    +0.006 A  
DOCKED: ATOM     19  C   UNL     1     -48.445 -19.071  16.511 -0.02 +0.00    +0.001 A  
DOCKED: ATOM     20  C   UNL     1     -48.148 -18.945  17.869 -0.00 +0.00    +0.029 A  
DOCKED: ATOM     21  C   UNL     1     -46.872 -19.256  18.335 -0.00 +0.00    +0.140 A  
DOCKED: ATOM     22  C   UNL     1     -45.891 -19.694  17.446 -0.01 +0.00    +0.029 A  
DOCKED: ATOM     23  F   UNL     1     -46.588 -19.136  19.639 +0.00 -0.00    -0.204 F  
DOCKED: ATOM     24  C   UNL     1     -46.187 -19.820  16.087 -0.04 +0.00    +0.001 A  
DOCKED: ENDBRANCH   2  18
DOCKED: TORSDOF 5
DOCKED: TER
DOCKED: ENDMDL
________________________________________________________________________________


    FINAL DOCKED STATE:
    ________________________


Run:   449 / 512
Time taken for this run:   0.002s

DOCKED: MODEL        449
DOCKED: USER    Run = 449
DOCKED: USER
DOCKED: USER    Estimated Free Energy of Binding    =  -5.59 kcal/mol  [=(1)+(2)+(3)-(4)]
DOCKED: USER
DOCKED: USER    (1) Final Intermolecular Energy     =  -7.09 kcal/mol
DOCKED: USER        vdW + Hbond + desolv Energy     =  -7.09 kcal/mol
DOCKED: USER        Electrostatic Energy            =  +0.00 kcal/mol
DOCKED: USER        Moving Ligand-Fixed Receptor    =  -7.09 kcal/mol
DOCKED: USER        Moving Ligand-Moving Receptor   =  +0.00 kcal/mol
DOCKED: USER    (2) Final Total Internal Energy     =  -1.34 kcal/mol
DOCKED: USER    (3) Torsional Free Energy           =  +1.49 kcal/mol
DOCKED: USER    (4) Unbound System's Energy         =  -1.34 kcal/mol
DOCKED: USER
DOCKED: USER
DOCKED: REMARK  5 active torsions:
DOCKED: REMARK  status: ('A' for Active; 'I' for Inactive)
DOCKED: REMARK    1  A    between atoms: C_2  and  C_19 
DOCKED: REMARK    2  A    between atoms: C_2  and  C_11 
DOCKED: REMARK    3  A    between atoms: C_19  and  C_20 
DOCKED: REMARK    4  A    between atoms: C_20  and  C_21 
DOCKED: REMARK    5  A    between atoms: C_21  and  N_22 
DOCKED: USER                              x       y       z     vdW  Elec       q    Type
DOCKED: USER                           _______ _______ _______ _____ _____    ______ ____
DOCKED: ROOT
DOCKED: ATOM      1  O   UNL     1     -48.562 -21.504  14.915 -0.03 -0.00    -0.346 OA 
DOCKED: ATOM      2  C   UNL     1     -47.983 -22.847  14.870 -0.20 +0.00    +0.130 C  
DOCKED: ATOM      3  C   UNL     1     -48.445 -23.394  13.551 -0.33 +0.00    +0.004 A  
DOCKED: ATOM      4  C   UNL     1     -49.134 -22.412  12.853 -0.33 +0.00    +0.006 A  
DOCKED: ATOM      5  C   UNL     1     -49.165 -21.162  13.645 -0.21 +0.00    +0.169 C  
DOCKED: ATOM      6  C   UNL     1     -48.260 -24.657  13.006 -0.42 -0.00    -0.001 A  
DOCKED: ATOM      7  C   UNL     1     -49.663 -22.657  11.597 -0.16 +0.00    +0.008 A  
DOCKED: ATOM      8  C   UNL     1     -48.791 -24.920  11.742 -0.41 +0.00    +0.010 A  
DOCKED: ATOM      9  C   UNL     1     -49.488 -23.925  11.042 -0.42 +0.00    +0.068 A  
DOCKED: ATOM     10  N   UNL     1     -50.457 -24.446   8.695 -2.48 -0.00    -0.191 NA 
DOCKED: ATOM     11  C   UNL     1     -50.023 -24.212   9.748 -0.49 +0.00    +0.101 C  
DOCKED: ENDROOT
DOCKED: BRANCH   2  12
DOCKED: ATOM     12  C   UNL     1     -46.467 -22.722  14.963 -0.24 +0.00    +0.038 C  
DOCKED: BRANCH  12  13
DOCKED: ATOM     13  C   UNL     1     -46.051 -21.334  15.445 -0.14 +0.00    +0.038 C  
DOCKED: BRANCH  13  14
DOCKED: ATOM     14  C   UNL     1     -45.358 -20.551  14.331 -0.05 +0.00    +0.251 C  
DOCKED: BRANCH  14  15
DOCKED: ATOM     15  N   UNL     1     -45.936 -19.217  14.213 -0.08 +0.00    +0.141 N  
DOCKED: ATOM     16  C   UNL     1     -46.446 -18.993  12.859 -0.12 +0.00    +0.285 C  
DOCKED: ATOM     17  C   UNL     1     -47.005 -19.030  15.195 -0.03 +0.00    +0.285 C  
DOCKED: ENDBRANCH  14  15
DOCKED: ENDBRANCH  13  14
DOCKED: ENDBRANCH  12  13
DOCKED: ENDBRANCH   2  12
DOCKED: BRANCH   2  18
DOCKED: ATOM     18  C   UNL     1     -48.534 -23.599  16.036 -0.17 +0.00    +0.006 A  
DOCKED: ATOM     19  C   UNL     1     -49.853 -24.048  16.015 -0.18 +0.00    +0.001 A  
DOCKED: ATOM     20  C   UNL     1     -50.367 -24.751  17.106 -0.10 +0.00    +0.029 A  
DOCKED: ATOM     21  C   UNL     1     -49.562 -25.002  18.215 -0.08 +0.00    +0.140 A  
DOCKED: ATOM     22  C   UNL     1     -48.242 -24.552  18.236 -0.19 +0.00    +0.029 A  
DOCKED: ATOM     23  F   UNL     1     -50.055 -25.678  19.261 -0.04 -0.00    -0.204 F  
DOCKED: ATOM     24  C   UNL     1     -47.727 -23.849  17.145 -0.16 +0.00    +0.001 A  
DOCKED: ENDBRANCH   2  18
DOCKED: TORSDOF 5
DOCKED: TER
DOCKED: ENDMDL
________________________________________________________________________________


    FINAL DOCKED STATE:
    ________________________


Run:   450 / 512
Time taken for this run:   0.002s

DOCKED: MODEL        450
DOCKED: USER    Run = 450
DOCKED: USER
DOCKED: USER    Estimated Free Energy of Binding    =  -3.97 kcal/mol  [=(1)+(2)+(3)-(4)]
DOCKED: USER
DOCKED: USER    (1) Final Intermolecular Energy     =  -5.47 kcal/mol
DOCKED: USER        vdW + Hbond + desolv Energy     =  -5.47 kcal/mol
DOCKED: USER        Electrostatic Energy            =  +0.00 kcal/mol
DOCKED: USER        Moving Ligand-Fixed Receptor    =  -5.47 kcal/mol
DOCKED: USER        Moving Ligand-Moving Receptor   =  +0.00 kcal/mol
DOCKED: USER    (2) Final Total Internal Energy     =  -1.21 kcal/mol
DOCKED: USER    (3) Torsional Free Energy           =  +1.49 kcal/mol
DOCKED: USER    (4) Unbound System's Energy         =  -1.21 kcal/mol
DOCKED: USER
DOCKED: USER
DOCKED: REMARK  5 active torsions:
DOCKED: REMARK  status: ('A' for Active; 'I' for Inactive)
DOCKED: REMARK    1  A    between atoms: C_2  and  C_19 
DOCKED: REMARK    2  A    between atoms: C_2  and  C_11 
DOCKED: REMARK    3  A    between atoms: C_19  and  C_20 
DOCKED: REMARK    4  A    between atoms: C_20  and  C_21 
DOCKED: REMARK    5  A    between atoms: C_21  and  N_22 
DOCKED: USER                              x       y       z     vdW  Elec       q    Type
DOCKED: USER                           _______ _______ _______ _____ _____    ______ ____
DOCKED: ROOT
DOCKED: ATOM      1  O   UNL     1     -47.393 -19.989  15.178 -0.02 -0.00    -0.346 OA 
DOCKED: ATOM      2  C   UNL     1     -48.808 -19.718  14.922 -0.09 +0.00    +0.130 C  
DOCKED: ATOM      3  C   UNL     1     -49.293 -20.962  14.235 -0.18 +0.00    +0.004 A  
DOCKED: ATOM      4  C   UNL     1     -48.275 -21.904  14.200 -0.22 +0.00    +0.006 A  
DOCKED: ATOM      5  C   UNL     1     -47.067 -21.363  14.863 -0.14 +0.00    +0.169 C  
DOCKED: ATOM      6  C   UNL     1     -50.540 -21.241  13.694 -0.22 -0.00    -0.001 A  
DOCKED: ATOM      7  C   UNL     1     -48.464 -23.148  13.623 -0.31 +0.00    +0.008 A  
DOCKED: ATOM      8  C   UNL     1     -50.745 -22.490  13.104 -0.24 +0.00    +0.010 A  
DOCKED: ATOM      9  C   UNL     1     -49.712 -23.438  13.070 -0.26 +0.00    +0.068 A  
DOCKED: ATOM     10  N   UNL     1     -50.127 -25.749  11.973 -2.52 -0.00    -0.191 NA 
DOCKED: ATOM     11  C   UNL     1     -49.941 -24.712  12.464 -0.34 +0.00    +0.101 C  
DOCKED: ENDROOT
DOCKED: BRANCH   2  12
DOCKED: ATOM     12  C   UNL     1     -49.501 -19.469  16.257 -0.03 +0.00    +0.038 C  
DOCKED: BRANCH  12  13
DOCKED: ATOM     13  C   UNL     1     -49.412 -20.692  17.167 -0.03 +0.00    +0.038 C  
DOCKED: BRANCH  13  14
DOCKED: ATOM     14  C   UNL     1     -48.188 -20.612  18.077 -0.00 +0.00    +0.251 C  
DOCKED: BRANCH  14  15
DOCKED: ATOM     15  N   UNL     1     -47.440 -21.863  18.033 -0.03 +0.00    +0.141 N  
DOCKED: ATOM     16  C   UNL     1     -46.159 -21.723  18.727 -0.01 +0.00    +0.285 C  
DOCKED: ATOM     17  C   UNL     1     -48.221 -22.951  18.624 -0.03 +0.00    +0.285 C  
DOCKED: ENDBRANCH  14  15
DOCKED: ENDBRANCH  13  14
DOCKED: ENDBRANCH  12  13
DOCKED: ENDBRANCH   2  12
DOCKED: BRANCH   2  18
DOCKED: ATOM     18  C   UNL     1     -48.870 -18.509  14.050 -0.14 +0.00    +0.006 A  
DOCKED: ATOM     19  C   UNL     1     -50.019 -18.245  13.305 -0.21 +0.00    +0.001 A  
DOCKED: ATOM     20  C   UNL     1     -50.075 -17.115  12.489 -0.13 +0.00    +0.029 A  
DOCKED: ATOM     21  C   UNL     1     -48.984 -16.250  12.419 -0.11 +0.00    +0.140 A  
DOCKED: ATOM     22  C   UNL     1     -47.835 -16.515  13.164 -0.08 +0.00    +0.029 A  
DOCKED: ATOM     23  F   UNL     1     -49.039 -15.164  11.638 -0.02 -0.00    -0.204 F  
DOCKED: ATOM     24  C   UNL     1     -47.778 -17.646  13.980 -0.09 +0.00    +0.001 A  
DOCKED: ENDBRANCH   2  18
DOCKED: TORSDOF 5
DOCKED: TER
DOCKED: ENDMDL
________________________________________________________________________________


    FINAL DOCKED STATE:
    ________________________


Run:   451 / 512
Time taken for this run:   0.002s

DOCKED: MODEL        451
DOCKED: USER    Run = 451
DOCKED: USER
DOCKED: USER    Estimated Free Energy of Binding    =  -4.06 kcal/mol  [=(1)+(2)+(3)-(4)]
DOCKED: USER
DOCKED: USER    (1) Final Intermolecular Energy     =  -5.55 kcal/mol
DOCKED: USER        vdW + Hbond + desolv Energy     =  -5.55 kcal/mol
DOCKED: USER        Electrostatic Energy            =  +0.00 kcal/mol
DOCKED: USER        Moving Ligand-Fixed Receptor    =  -5.55 kcal/mol
DOCKED: USER        Moving Ligand-Moving Receptor   =  +0.00 kcal/mol
DOCKED: USER    (2) Final Total Internal Energy     =  -1.34 kcal/mol
DOCKED: USER    (3) Torsional Free Energy           =  +1.49 kcal/mol
DOCKED: USER    (4) Unbound System's Energy         =  -1.34 kcal/mol
DOCKED: USER
DOCKED: USER
DOCKED: REMARK  5 active torsions:
DOCKED: REMARK  status: ('A' for Active; 'I' for Inactive)
DOCKED: REMARK    1  A    between atoms: C_2  and  C_19 
DOCKED: REMARK    2  A    between atoms: C_2  and  C_11 
DOCKED: REMARK    3  A    between atoms: C_19  and  C_20 
DOCKED: REMARK    4  A    between atoms: C_20  and  C_21 
DOCKED: REMARK    5  A    between atoms: C_21  and  N_22 
DOCKED: USER                              x       y       z     vdW  Elec       q    Type
DOCKED: USER                           _______ _______ _______ _____ _____    ______ ____
DOCKED: ROOT
DOCKED: ATOM      1  O   UNL     1     -45.660 -21.106  14.984 -0.08 -0.00    -0.346 OA 
DOCKED: ATOM      2  C   UNL     1     -46.849 -20.320  14.648 -0.13 +0.00    +0.130 C  
DOCKED: ATOM      3  C   UNL     1     -47.781 -21.323  14.033 -0.22 +0.00    +0.004 A  
DOCKED: ATOM      4  C   UNL     1     -47.221 -22.590  14.112 -0.20 +0.00    +0.006 A  
DOCKED: ATOM      5  C   UNL     1     -45.905 -22.518  14.785 -0.08 +0.00    +0.169 C  
DOCKED: ATOM      6  C   UNL     1     -49.030 -21.131  13.461 -0.26 -0.00    -0.001 A  
DOCKED: ATOM      7  C   UNL     1     -47.883 -23.702  13.620 -0.34 +0.00    +0.008 A  
DOCKED: ATOM      8  C   UNL     1     -49.709 -22.242  12.957 -0.29 +0.00    +0.010 A  
DOCKED: ATOM      9  C   UNL     1     -49.138 -23.521  13.036 -0.30 +0.00    +0.068 A  
DOCKED: ATOM     10  N   UNL     1     -50.426 -25.562  12.095 -2.55 -0.00    -0.191 NA 
DOCKED: ATOM     11  C   UNL     1     -49.848 -24.647  12.516 -0.36 +0.00    +0.101 C  
DOCKED: ENDROOT
DOCKED: BRANCH   2  12
DOCKED: ATOM     12  C   UNL     1     -47.399 -19.706  15.930 -0.05 +0.00    +0.038 C  
DOCKED: BRANCH  12  13
DOCKED: ATOM     13  C   UNL     1     -46.397 -19.819  17.077 -0.02 +0.00    +0.038 C  
DOCKED: BRANCH  13  14
DOCKED: ATOM     14  C   UNL     1     -45.217 -18.872  16.872 -0.01 +0.00    +0.251 C  
DOCKED: BRANCH  14  15
DOCKED: ATOM     15  N   UNL     1     -45.652 -17.486  16.991 -0.00 +0.00    +0.141 N  
DOCKED: ATOM     16  C   UNL     1     -45.114 -16.879  18.210 +0.00 +0.00    +0.285 C  
DOCKED: ATOM     17  C   UNL     1     -45.244 -16.714  15.817 -0.00 +0.00    +0.285 C  
DOCKED: ENDBRANCH  14  15
DOCKED: ENDBRANCH  13  14
DOCKED: ENDBRANCH  12  13
DOCKED: ENDBRANCH   2  12
DOCKED: BRANCH   2  18
DOCKED: ATOM     18  C   UNL     1     -46.415 -19.263  13.687 -0.15 +0.00    +0.006 A  
DOCKED: ATOM     19  C   UNL     1     -45.240 -19.427  12.955 -0.11 +0.00    +0.001 A  
DOCKED: ATOM     20  C   UNL     1     -44.836 -18.438  12.057 -0.12 +0.00    +0.029 A  
DOCKED: ATOM     21  C   UNL     1     -45.607 -17.288  11.893 -0.07 +0.00    +0.140 A  
DOCKED: ATOM     22  C   UNL     1     -46.783 -17.126  12.625 -0.09 +0.00    +0.029 A  
DOCKED: ATOM     23  F   UNL     1     -45.220 -16.340  11.030 -0.01 -0.00    -0.204 F  
DOCKED: ATOM     24  C   UNL     1     -47.188 -18.114  13.524 -0.12 +0.00    +0.001 A  
DOCKED: ENDBRANCH   2  18
DOCKED: TORSDOF 5
DOCKED: TER
DOCKED: ENDMDL
________________________________________________________________________________


    FINAL DOCKED STATE:
    ________________________


Run:   452 / 512
Time taken for this run:   0.002s

DOCKED: MODEL        452
DOCKED: USER    Run = 452
DOCKED: USER
DOCKED: USER    Estimated Free Energy of Binding    =  -4.46 kcal/mol  [=(1)+(2)+(3)-(4)]
DOCKED: USER
DOCKED: USER    (1) Final Intermolecular Energy     =  -5.95 kcal/mol
DOCKED: USER        vdW + Hbond + desolv Energy     =  -5.95 kcal/mol
DOCKED: USER        Electrostatic Energy            =  +0.00 kcal/mol
DOCKED: USER        Moving Ligand-Fixed Receptor    =  -5.95 kcal/mol
DOCKED: USER        Moving Ligand-Moving Receptor   =  +0.00 kcal/mol
DOCKED: USER    (2) Final Total Internal Energy     =  -1.49 kcal/mol
DOCKED: USER    (3) Torsional Free Energy           =  +1.49 kcal/mol
DOCKED: USER    (4) Unbound System's Energy         =  -1.49 kcal/mol
DOCKED: USER
DOCKED: USER
DOCKED: REMARK  5 active torsions:
DOCKED: REMARK  status: ('A' for Active; 'I' for Inactive)
DOCKED: REMARK    1  A    between atoms: C_2  and  C_19 
DOCKED: REMARK    2  A    between atoms: C_2  and  C_11 
DOCKED: REMARK    3  A    between atoms: C_19  and  C_20 
DOCKED: REMARK    4  A    between atoms: C_20  and  C_21 
DOCKED: REMARK    5  A    between atoms: C_21  and  N_22 
DOCKED: USER                              x       y       z     vdW  Elec       q    Type
DOCKED: USER                           _______ _______ _______ _____ _____    ______ ____
DOCKED: ROOT
DOCKED: ATOM      1  O   UNL     1     -48.490 -23.953  15.640 -0.07 -0.00    -0.346 OA 
DOCKED: ATOM      2  C   UNL     1     -48.373 -22.629  15.027 -0.16 +0.00    +0.130 C  
DOCKED: ATOM      3  C   UNL     1     -48.775 -22.857  13.599 -0.30 +0.00    +0.004 A  
DOCKED: ATOM      4  C   UNL     1     -49.192 -24.170  13.435 -0.33 +0.00    +0.006 A  
DOCKED: ATOM      5  C   UNL     1     -49.108 -24.889  14.726 -0.13 +0.00    +0.169 C  
DOCKED: ATOM      6  C   UNL     1     -48.783 -21.969  12.532 -0.31 -0.00    -0.001 A  
DOCKED: ATOM      7  C   UNL     1     -49.624 -24.641  12.207 -0.43 +0.00    +0.008 A  
DOCKED: ATOM      8  C   UNL     1     -49.212 -22.430  11.287 +0.01 +0.00    +0.010 A  
DOCKED: ATOM      9  C   UNL     1     -49.630 -23.760  11.125 -0.41 +0.00    +0.068 A  
DOCKED: ATOM     10  N   UNL     1     -50.425 -24.582   8.800 -2.30 -0.00    -0.191 NA 
DOCKED: ATOM     11  C   UNL     1     -50.068 -24.213   9.843 -0.50 +0.00    +0.101 C  
DOCKED: ENDROOT
DOCKED: BRANCH   2  12
DOCKED: ATOM     12  C   UNL     1     -49.306 -21.673  15.761 -0.09 +0.00    +0.038 C  
DOCKED: BRANCH  12  13
DOCKED: ATOM     13  C   UNL     1     -49.528 -22.112  17.207 -0.05 +0.00    +0.038 C  
DOCKED: BRANCH  13  14
DOCKED: ATOM     14  C   UNL     1     -48.582 -21.378  18.156 -0.01 +0.00    +0.251 C  
DOCKED: BRANCH  14  15
DOCKED: ATOM     15  N   UNL     1     -47.986 -22.313  19.103 -0.02 +0.00    +0.141 N  
DOCKED: ATOM     16  C   UNL     1     -48.676 -23.603  19.058 -0.04 +0.00    +0.285 C  
DOCKED: ATOM     17  C   UNL     1     -46.560 -22.489  18.824 -0.03 +0.00    +0.285 C  
DOCKED: ENDBRANCH  14  15
DOCKED: ENDBRANCH  13  14
DOCKED: ENDBRANCH  12  13
DOCKED: ENDBRANCH   2  12
DOCKED: BRANCH   2  18
DOCKED: ATOM     18  C   UNL     1     -46.949 -22.206  15.170 -0.19 +0.00    +0.006 A  
DOCKED: ATOM     19  C   UNL     1     -45.926 -23.140  15.010 -0.14 +0.00    +0.001 A  
DOCKED: ATOM     20  C   UNL     1     -44.594 -22.744  15.144 -0.17 +0.00    +0.029 A  
DOCKED: ATOM     21  C   UNL     1     -44.288 -21.415  15.436 -0.09 +0.00    +0.140 A  
DOCKED: ATOM     22  C   UNL     1     -45.312 -20.482  15.595 -0.08 +0.00    +0.029 A  
DOCKED: ATOM     23  F   UNL     1     -43.010 -21.035  15.563 -0.01 -0.00    -0.204 F  
DOCKED: ATOM     24  C   UNL     1     -46.644 -20.877  15.462 -0.11 +0.00    +0.001 A  
DOCKED: ENDBRANCH   2  18
DOCKED: TORSDOF 5
DOCKED: TER
DOCKED: ENDMDL
________________________________________________________________________________


    FINAL DOCKED STATE:
    ________________________


Run:   453 / 512
Time taken for this run:   0.002s

DOCKED: MODEL        453
DOCKED: USER    Run = 453
DOCKED: USER
DOCKED: USER    Estimated Free Energy of Binding    =  -5.65 kcal/mol  [=(1)+(2)+(3)-(4)]
DOCKED: USER
DOCKED: USER    (1) Final Intermolecular Energy     =  -7.14 kcal/mol
DOCKED: USER        vdW + Hbond + desolv Energy     =  -7.14 kcal/mol
DOCKED: USER        Electrostatic Energy            =  +0.00 kcal/mol
DOCKED: USER        Moving Ligand-Fixed Receptor    =  -7.14 kcal/mol
DOCKED: USER        Moving Ligand-Moving Receptor   =  +0.00 kcal/mol
DOCKED: USER    (2) Final Total Internal Energy     =  -1.02 kcal/mol
DOCKED: USER    (3) Torsional Free Energy           =  +1.49 kcal/mol
DOCKED: USER    (4) Unbound System's Energy         =  -1.02 kcal/mol
DOCKED: USER
DOCKED: USER
DOCKED: REMARK  5 active torsions:
DOCKED: REMARK  status: ('A' for Active; 'I' for Inactive)
DOCKED: REMARK    1  A    between atoms: C_2  and  C_19 
DOCKED: REMARK    2  A    between atoms: C_2  and  C_11 
DOCKED: REMARK    3  A    between atoms: C_19  and  C_20 
DOCKED: REMARK    4  A    between atoms: C_20  and  C_21 
DOCKED: REMARK    5  A    between atoms: C_21  and  N_22 
DOCKED: USER                              x       y       z     vdW  Elec       q    Type
DOCKED: USER                           _______ _______ _______ _____ _____    ______ ____
DOCKED: ROOT
DOCKED: ATOM      1  O   UNL     1     -48.022 -21.321  14.440 -0.07 -0.00    -0.346 OA 
DOCKED: ATOM      2  C   UNL     1     -47.861 -22.770  14.564 -0.22 +0.00    +0.130 C  
DOCKED: ATOM      3  C   UNL     1     -48.418 -23.305  13.277 -0.34 +0.00    +0.004 A  
DOCKED: ATOM      4  C   UNL     1     -48.764 -22.251  12.444 -0.31 +0.00    +0.006 A  
DOCKED: ATOM      5  C   UNL     1     -48.454 -20.964  13.106 -0.22 +0.00    +0.169 C  
DOCKED: ATOM      6  C   UNL     1     -48.593 -24.620  12.871 -0.41 -0.00    -0.001 A  
DOCKED: ATOM      7  C   UNL     1     -49.299 -22.472  11.186 +0.04 +0.00    +0.008 A  
DOCKED: ATOM      8  C   UNL     1     -49.135 -24.860  11.607 -0.48 +0.00    +0.010 A  
DOCKED: ATOM      9  C   UNL     1     -49.486 -23.791  10.769 -0.41 +0.00    +0.068 A  
DOCKED: ATOM     10  N   UNL     1     -50.485 -24.271   8.427 -2.88 -0.00    -0.191 NA 
DOCKED: ATOM     11  C   UNL     1     -50.037 -24.056   9.477 -0.44 +0.00    +0.101 C  
DOCKED: ENDROOT
DOCKED: BRANCH   2  12
DOCKED: ATOM     12  C   UNL     1     -46.379 -23.077  14.743 -0.23 +0.00    +0.038 C  
DOCKED: BRANCH  12  13
DOCKED: ATOM     13  C   UNL     1     -45.673 -21.977  15.532 -0.18 +0.00    +0.038 C  
DOCKED: BRANCH  13  14
DOCKED: ATOM     14  C   UNL     1     -44.158 -22.170  15.509 -0.11 +0.00    +0.251 C  
DOCKED: BRANCH  14  15
DOCKED: ATOM     15  N   UNL     1     -43.554 -21.321  14.489 -0.10 +0.00    +0.141 N  
DOCKED: ATOM     16  C   UNL     1     -44.124 -19.974  14.534 -0.06 +0.00    +0.285 C  
DOCKED: ATOM     17  C   UNL     1     -42.101 -21.263  14.660 -0.05 +0.00    +0.285 C  
DOCKED: ENDBRANCH  14  15
DOCKED: ENDBRANCH  13  14
DOCKED: ENDBRANCH  12  13
DOCKED: ENDBRANCH   2  12
DOCKED: BRANCH   2  18
DOCKED: ATOM     18  C   UNL     1     -48.647 -23.195  15.759 -0.15 +0.00    +0.006 A  
DOCKED: ATOM     19  C   UNL     1     -48.818 -24.551  16.034 -0.26 +0.00    +0.001 A  
DOCKED: ATOM     20  C   UNL     1     -49.554 -24.948  17.151 -0.06 +0.00    +0.029 A  
DOCKED: ATOM     21  C   UNL     1     -50.115 -23.988  17.993 -0.08 +0.00    +0.140 A  
DOCKED: ATOM     22  C   UNL     1     -49.943 -22.632  17.718 -0.05 +0.00    +0.029 A  
DOCKED: ATOM     23  F   UNL     1     -50.820 -24.369  19.066 -0.01 -0.00    -0.204 F  
DOCKED: ATOM     24  C   UNL     1     -49.208 -22.234  16.600 -0.07 +0.00    +0.001 A  
DOCKED: ENDBRANCH   2  18
DOCKED: TORSDOF 5
DOCKED: TER
DOCKED: ENDMDL
________________________________________________________________________________


    FINAL DOCKED STATE:
    ________________________


Run:   454 / 512
Time taken for this run:   0.002s

DOCKED: MODEL        454
DOCKED: USER    Run = 454
DOCKED: USER
DOCKED: USER    Estimated Free Energy of Binding    =  -3.80 kcal/mol  [=(1)+(2)+(3)-(4)]
DOCKED: USER
DOCKED: USER    (1) Final Intermolecular Energy     =  -5.29 kcal/mol
DOCKED: USER        vdW + Hbond + desolv Energy     =  -5.29 kcal/mol
DOCKED: USER        Electrostatic Energy            =  +0.00 kcal/mol
DOCKED: USER        Moving Ligand-Fixed Receptor    =  -5.29 kcal/mol
DOCKED: USER        Moving Ligand-Moving Receptor   =  +0.00 kcal/mol
DOCKED: USER    (2) Final Total Internal Energy     =  -1.57 kcal/mol
DOCKED: USER    (3) Torsional Free Energy           =  +1.49 kcal/mol
DOCKED: USER    (4) Unbound System's Energy         =  -1.57 kcal/mol
DOCKED: USER
DOCKED: USER
DOCKED: REMARK  5 active torsions:
DOCKED: REMARK  status: ('A' for Active; 'I' for Inactive)
DOCKED: REMARK    1  A    between atoms: C_2  and  C_19 
DOCKED: REMARK    2  A    between atoms: C_2  and  C_11 
DOCKED: REMARK    3  A    between atoms: C_19  and  C_20 
DOCKED: REMARK    4  A    between atoms: C_20  and  C_21 
DOCKED: REMARK    5  A    between atoms: C_21  and  N_22 
DOCKED: USER                              x       y       z     vdW  Elec       q    Type
DOCKED: USER                           _______ _______ _______ _____ _____    ______ ____
DOCKED: ROOT
DOCKED: ATOM      1  O   UNL     1     -43.808 -19.886   7.298 -0.03 -0.00    -0.346 OA 
DOCKED: ATOM      2  C   UNL     1     -42.497 -20.395   6.890 -0.13 +0.00    +0.130 C  
DOCKED: ATOM      3  C   UNL     1     -42.366 -21.690   7.639 -0.17 +0.00    +0.004 A  
DOCKED: ATOM      4  C   UNL     1     -43.542 -21.953   8.326 -0.32 +0.00    +0.006 A  
DOCKED: ATOM      5  C   UNL     1     -44.524 -20.874   8.074 -0.29 +0.00    +0.169 C  
DOCKED: ATOM      6  C   UNL     1     -41.296 -22.570   7.697 -0.12 -0.00    -0.001 A  
DOCKED: ATOM      7  C   UNL     1     -43.688 -23.095   9.094 -0.19 +0.00    +0.008 A  
DOCKED: ATOM      8  C   UNL     1     -41.425 -23.724   8.471 -0.18 +0.00    +0.010 A  
DOCKED: ATOM      9  C   UNL     1     -42.615 -23.986   9.166 -0.31 +0.00    +0.068 A  
DOCKED: ATOM     10  N   UNL     1     -42.824 -26.140  10.590 -2.46 -0.00    -0.191 NA 
DOCKED: ATOM     11  C   UNL     1     -42.730 -25.174   9.952 -0.37 +0.00    +0.101 C  
DOCKED: ENDROOT
DOCKED: BRANCH   2  12
DOCKED: ATOM     12  C   UNL     1     -42.501 -20.581   5.378 -0.15 +0.00    +0.038 C  
DOCKED: BRANCH  12  13
DOCKED: ATOM     13  C   UNL     1     -43.499 -19.642   4.703 -0.19 +0.00    +0.038 C  
DOCKED: BRANCH  13  14
DOCKED: ATOM     14  C   UNL     1     -42.857 -18.293   4.387 -0.10 +0.00    +0.251 C  
DOCKED: BRANCH  14  15
DOCKED: ATOM     15  N   UNL     1     -43.143 -17.334   5.448 -0.06 +0.00    +0.141 N  
DOCKED: ATOM     16  C   UNL     1     -42.820 -15.974   5.015 -0.03 +0.00    +0.285 C  
DOCKED: ATOM     17  C   UNL     1     -44.548 -17.417   5.853 -0.13 +0.00    +0.285 C  
DOCKED: ENDBRANCH  14  15
DOCKED: ENDBRANCH  13  14
DOCKED: ENDBRANCH  12  13
DOCKED: ENDBRANCH   2  12
DOCKED: BRANCH   2  18
DOCKED: ATOM     18  C   UNL     1     -41.486 -19.378   7.305 -0.04 +0.00    +0.006 A  
DOCKED: ATOM     19  C   UNL     1     -40.291 -19.256   6.598 -0.01 +0.00    +0.001 A  
DOCKED: ATOM     20  C   UNL     1     -39.347 -18.305   6.987 -0.00 +0.00    +0.029 A  
DOCKED: ATOM     21  C   UNL     1     -39.598 -17.479   8.082 +0.00 +0.00    +0.140 A  
DOCKED: ATOM     22  C   UNL     1     -40.794 -17.602   8.789 -0.01 +0.00    +0.029 A  
DOCKED: ATOM     23  F   UNL     1     -38.692 -16.566   8.454 +0.00 -0.00    -0.204 F  
DOCKED: ATOM     24  C   UNL     1     -41.740 -18.553   8.400 -0.02 +0.00    +0.001 A  
DOCKED: ENDBRANCH   2  18
DOCKED: TORSDOF 5
DOCKED: TER
DOCKED: ENDMDL
________________________________________________________________________________


    FINAL DOCKED STATE:
    ________________________


Run:   455 / 512
Time taken for this run:   0.002s

DOCKED: MODEL        455
DOCKED: USER    Run = 455
DOCKED: USER
DOCKED: USER    Estimated Free Energy of Binding    =  -3.88 kcal/mol  [=(1)+(2)+(3)-(4)]
DOCKED: USER
DOCKED: USER    (1) Final Intermolecular Energy     =  -5.37 kcal/mol
DOCKED: USER        vdW + Hbond + desolv Energy     =  -5.37 kcal/mol
DOCKED: USER        Electrostatic Energy            =  +0.00 kcal/mol
DOCKED: USER        Moving Ligand-Fixed Receptor    =  -5.37 kcal/mol
DOCKED: USER        Moving Ligand-Moving Receptor   =  +0.00 kcal/mol
DOCKED: USER    (2) Final Total Internal Energy     =  -1.12 kcal/mol
DOCKED: USER    (3) Torsional Free Energy           =  +1.49 kcal/mol
DOCKED: USER    (4) Unbound System's Energy         =  -1.12 kcal/mol
DOCKED: USER
DOCKED: USER
DOCKED: REMARK  5 active torsions:
DOCKED: REMARK  status: ('A' for Active; 'I' for Inactive)
DOCKED: REMARK    1  A    between atoms: C_2  and  C_19 
DOCKED: REMARK    2  A    between atoms: C_2  and  C_11 
DOCKED: REMARK    3  A    between atoms: C_19  and  C_20 
DOCKED: REMARK    4  A    between atoms: C_20  and  C_21 
DOCKED: REMARK    5  A    between atoms: C_21  and  N_22 
DOCKED: USER                              x       y       z     vdW  Elec       q    Type
DOCKED: USER                           _______ _______ _______ _____ _____    ______ ____
DOCKED: ROOT
DOCKED: ATOM      1  O   UNL     1     -46.497 -19.864  14.368 -0.06 -0.00    -0.346 OA 
DOCKED: ATOM      2  C   UNL     1     -45.985 -21.066  15.027 -0.13 +0.00    +0.130 C  
DOCKED: ATOM      3  C   UNL     1     -46.873 -22.163  14.515 -0.19 +0.00    +0.004 A  
DOCKED: ATOM      4  C   UNL     1     -47.744 -21.653  13.563 -0.23 +0.00    +0.006 A  
DOCKED: ATOM      5  C   UNL     1     -47.488 -20.207  13.372 -0.19 +0.00    +0.169 C  
DOCKED: ATOM      6  C   UNL     1     -46.900 -23.508  14.856 -0.23 -0.00    -0.001 A  
DOCKED: ATOM      7  C   UNL     1     -48.669 -22.462  12.925 -0.33 +0.00    +0.008 A  
DOCKED: ATOM      8  C   UNL     1     -47.830 -24.335  14.225 -0.35 +0.00    +0.010 A  
DOCKED: ATOM      9  C   UNL     1     -48.710 -23.815  13.265 -0.31 +0.00    +0.068 A  
DOCKED: ATOM     10  N   UNL     1     -50.421 -25.380  12.109 -2.54 -0.00    -0.191 NA 
DOCKED: ATOM     11  C   UNL     1     -49.654 -24.678  12.628 -0.30 +0.00    +0.101 C  
DOCKED: ENDROOT
DOCKED: BRANCH   2  12
DOCKED: ATOM     12  C   UNL     1     -44.525 -21.250  14.630 -0.05 +0.00    +0.038 C  
DOCKED: BRANCH  12  13
DOCKED: ATOM     13  C   UNL     1     -43.953 -22.548  15.196 -0.19 +0.00    +0.038 C  
DOCKED: BRANCH  13  14
DOCKED: ATOM     14  C   UNL     1     -42.697 -22.279  16.024 -0.06 +0.00    +0.251 C  
DOCKED: BRANCH  14  15
DOCKED: ATOM     15  N   UNL     1     -42.091 -21.013  15.629 -0.03 +0.00    +0.141 N  
DOCKED: ATOM     16  C   UNL     1     -41.488 -20.347  16.785 -0.00 +0.00    +0.285 C  
DOCKED: ATOM     17  C   UNL     1     -41.087 -21.225  14.585 -0.02 +0.00    +0.285 C  
DOCKED: ENDBRANCH  14  15
DOCKED: ENDBRANCH  13  14
DOCKED: ENDBRANCH  12  13
DOCKED: ENDBRANCH   2  12
DOCKED: BRANCH   2  18
DOCKED: ATOM     18  C   UNL     1     -46.119 -20.848  16.497 -0.06 +0.00    +0.006 A  
DOCKED: ATOM     19  C   UNL     1     -47.247 -21.316  17.171 -0.04 +0.00    +0.001 A  
DOCKED: ATOM     20  C   UNL     1     -47.371 -21.110  18.545 -0.01 +0.00    +0.029 A  
DOCKED: ATOM     21  C   UNL     1     -46.368 -20.439  19.244 -0.00 +0.00    +0.140 A  
DOCKED: ATOM     22  C   UNL     1     -45.241 -19.972  18.570 -0.01 +0.00    +0.029 A  
DOCKED: ATOM     23  F   UNL     1     -46.487 -20.244  20.564 -0.00 -0.00    -0.204 F  
DOCKED: ATOM     24  C   UNL     1     -45.115 -20.176  17.194 -0.02 +0.00    +0.001 A  
DOCKED: ENDBRANCH   2  18
DOCKED: TORSDOF 5
DOCKED: TER
DOCKED: ENDMDL
________________________________________________________________________________


    FINAL DOCKED STATE:
    ________________________


Run:   456 / 512
Time taken for this run:   0.002s

DOCKED: MODEL        456
DOCKED: USER    Run = 456
DOCKED: USER
DOCKED: USER    Estimated Free Energy of Binding    =  -3.76 kcal/mol  [=(1)+(2)+(3)-(4)]
DOCKED: USER
DOCKED: USER    (1) Final Intermolecular Energy     =  -5.25 kcal/mol
DOCKED: USER        vdW + Hbond + desolv Energy     =  -5.25 kcal/mol
DOCKED: USER        Electrostatic Energy            =  +0.00 kcal/mol
DOCKED: USER        Moving Ligand-Fixed Receptor    =  -5.25 kcal/mol
DOCKED: USER        Moving Ligand-Moving Receptor   =  +0.00 kcal/mol
DOCKED: USER    (2) Final Total Internal Energy     =  -1.07 kcal/mol
DOCKED: USER    (3) Torsional Free Energy           =  +1.49 kcal/mol
DOCKED: USER    (4) Unbound System's Energy         =  -1.07 kcal/mol
DOCKED: USER
DOCKED: USER
DOCKED: REMARK  5 active torsions:
DOCKED: REMARK  status: ('A' for Active; 'I' for Inactive)
DOCKED: REMARK    1  A    between atoms: C_2  and  C_19 
DOCKED: REMARK    2  A    between atoms: C_2  and  C_11 
DOCKED: REMARK    3  A    between atoms: C_19  and  C_20 
DOCKED: REMARK    4  A    between atoms: C_20  and  C_21 
DOCKED: REMARK    5  A    between atoms: C_21  and  N_22 
DOCKED: USER                              x       y       z     vdW  Elec       q    Type
DOCKED: USER                           _______ _______ _______ _____ _____    ______ ____
DOCKED: ROOT
DOCKED: ATOM      1  O   UNL     1     -48.786 -19.004  14.546 -0.03 -0.00    -0.346 OA 
DOCKED: ATOM      2  C   UNL     1     -47.770 -19.900  15.100 -0.08 +0.00    +0.130 C  
DOCKED: ATOM      3  C   UNL     1     -48.144 -21.248  14.555 -0.17 +0.00    +0.004 A  
DOCKED: ATOM      4  C   UNL     1     -49.212 -21.117  13.678 -0.24 +0.00    +0.006 A  
DOCKED: ATOM      5  C   UNL     1     -49.605 -19.694  13.574 -0.19 +0.00    +0.169 C  
DOCKED: ATOM      6  C   UNL     1     -47.577 -22.489  14.805 -0.22 -0.00    -0.001 A  
DOCKED: ATOM      7  C   UNL     1     -49.750 -22.215  13.029 -0.29 +0.00    +0.008 A  
DOCKED: ATOM      8  C   UNL     1     -48.112 -23.607  14.162 -0.31 +0.00    +0.010 A  
DOCKED: ATOM      9  C   UNL     1     -49.193 -23.470  13.278 -0.28 +0.00    +0.068 A  
DOCKED: ATOM     10  N   UNL     1     -50.157 -25.564  12.097 -2.52 -0.00    -0.191 NA 
DOCKED: ATOM     11  C   UNL     1     -49.725 -24.625  12.627 -0.35 +0.00    +0.101 C  
DOCKED: ENDROOT
DOCKED: BRANCH   2  12
DOCKED: ATOM     12  C   UNL     1     -46.400 -19.428  14.627 -0.11 +0.00    +0.038 C  
DOCKED: BRANCH  12  13
DOCKED: ATOM     13  C   UNL     1     -46.161 -19.792  13.163 -0.11 +0.00    +0.038 C  
DOCKED: BRANCH  13  14
DOCKED: ATOM     14  C   UNL     1     -46.277 -18.562  12.265 -0.09 +0.00    +0.251 C  
DOCKED: BRANCH  14  15
DOCKED: ATOM     15  N   UNL     1     -45.047 -18.369  11.507 -0.11 +0.00    +0.141 N  
DOCKED: ATOM     16  C   UNL     1     -45.248 -17.392  10.435 -0.06 +0.00    +0.285 C  
DOCKED: ATOM     17  C   UNL     1     -43.960 -17.938  12.388 -0.04 +0.00    +0.285 C  
DOCKED: ENDBRANCH  14  15
DOCKED: ENDBRANCH  13  14
DOCKED: ENDBRANCH  12  13
DOCKED: ENDBRANCH   2  12
DOCKED: BRANCH   2  18
DOCKED: ATOM     18  C   UNL     1     -47.882 -19.822  16.586 -0.03 +0.00    +0.006 A  
DOCKED: ATOM     19  C   UNL     1     -48.907 -20.502  17.243 -0.02 +0.00    +0.001 A  
DOCKED: ATOM     20  C   UNL     1     -49.011 -20.428  18.633 -0.00 +0.00    +0.029 A  
DOCKED: ATOM     21  C   UNL     1     -48.092 -19.675  19.362 +0.00 +0.00    +0.140 A  
DOCKED: ATOM     22  C   UNL     1     -47.067 -18.996  18.704 -0.00 +0.00    +0.029 A  
DOCKED: ATOM     23  F   UNL     1     -48.191 -19.606  20.696 +0.00 -0.00    -0.204 F  
DOCKED: ATOM     24  C   UNL     1     -46.962 -19.069  17.314 -0.01 +0.00    +0.001 A  
DOCKED: ENDBRANCH   2  18
DOCKED: TORSDOF 5
DOCKED: TER
DOCKED: ENDMDL
________________________________________________________________________________


    FINAL DOCKED STATE:
    ________________________


Run:   457 / 512
Time taken for this run:   0.002s

DOCKED: MODEL        457
DOCKED: USER    Run = 457
DOCKED: USER
DOCKED: USER    Estimated Free Energy of Binding    =  -3.74 kcal/mol  [=(1)+(2)+(3)-(4)]
DOCKED: USER
DOCKED: USER    (1) Final Intermolecular Energy     =  -5.23 kcal/mol
DOCKED: USER        vdW + Hbond + desolv Energy     =  -5.23 kcal/mol
DOCKED: USER        Electrostatic Energy            =  +0.00 kcal/mol
DOCKED: USER        Moving Ligand-Fixed Receptor    =  -5.23 kcal/mol
DOCKED: USER        Moving Ligand-Moving Receptor   =  +0.00 kcal/mol
DOCKED: USER    (2) Final Total Internal Energy     =  -1.22 kcal/mol
DOCKED: USER    (3) Torsional Free Energy           =  +1.49 kcal/mol
DOCKED: USER    (4) Unbound System's Energy         =  -1.22 kcal/mol
DOCKED: USER
DOCKED: USER
DOCKED: REMARK  5 active torsions:
DOCKED: REMARK  status: ('A' for Active; 'I' for Inactive)
DOCKED: REMARK    1  A    between atoms: C_2  and  C_19 
DOCKED: REMARK    2  A    between atoms: C_2  and  C_11 
DOCKED: REMARK    3  A    between atoms: C_19  and  C_20 
DOCKED: REMARK    4  A    between atoms: C_20  and  C_21 
DOCKED: REMARK    5  A    between atoms: C_21  and  N_22 
DOCKED: USER                              x       y       z     vdW  Elec       q    Type
DOCKED: USER                           _______ _______ _______ _____ _____    ______ ____
DOCKED: ROOT
DOCKED: ATOM      1  O   UNL     1     -48.468 -20.888  16.558 -0.00 -0.00    -0.346 OA 
DOCKED: ATOM      2  C   UNL     1     -47.990 -20.426  15.255 -0.08 +0.00    +0.130 C  
DOCKED: ATOM      3  C   UNL     1     -48.420 -21.510  14.309 -0.20 +0.00    +0.004 A  
DOCKED: ATOM      4  C   UNL     1     -49.173 -22.454  14.992 -0.14 +0.00    +0.006 A  
DOCKED: ATOM      5  C   UNL     1     -49.303 -22.060  16.413 -0.05 +0.00    +0.169 C  
DOCKED: ATOM      6  C   UNL     1     -48.174 -21.644  12.951 -0.25 -0.00    -0.001 A  
DOCKED: ATOM      7  C   UNL     1     -49.700 -23.560  14.348 -0.21 +0.00    +0.008 A  
DOCKED: ATOM      8  C   UNL     1     -48.694 -22.756  12.287 -0.29 +0.00    +0.010 A  
DOCKED: ATOM      9  C   UNL     1     -49.454 -23.709  12.982 -0.30 +0.00    +0.068 A  
DOCKED: ATOM     10  N   UNL     1     -50.410 -25.759  11.718 -2.36 -0.00    -0.191 NA 
DOCKED: ATOM     11  C   UNL     1     -49.980 -24.840  12.285 -0.35 +0.00    +0.101 C  
DOCKED: ENDROOT
DOCKED: BRANCH   2  12
DOCKED: ATOM     12  C   UNL     1     -48.640 -19.082  14.951 -0.09 +0.00    +0.038 C  
DOCKED: BRANCH  12  13
DOCKED: ATOM     13  C   UNL     1     -50.017 -19.260  14.314 -0.17 +0.00    +0.038 C  
DOCKED: BRANCH  13  14
DOCKED: ATOM     14  C   UNL     1     -51.117 -19.254  15.372 -0.04 +0.00    +0.251 C  
DOCKED: BRANCH  14  15
DOCKED: ATOM     15  N   UNL     1     -52.279 -19.999  14.901 -0.08 +0.00    +0.141 N  
DOCKED: ATOM     16  C   UNL     1     -53.215 -19.112  14.208 -0.11 +0.00    +0.285 C  
DOCKED: ATOM     17  C   UNL     1     -51.866 -21.092  14.018 -0.11 +0.00    +0.285 C  
DOCKED: ENDBRANCH  14  15
DOCKED: ENDBRANCH  13  14
DOCKED: ENDBRANCH  12  13
DOCKED: ENDBRANCH   2  12
DOCKED: BRANCH   2  18
DOCKED: ATOM     18  C   UNL     1     -46.506 -20.296  15.355 -0.09 +0.00    +0.006 A  
DOCKED: ATOM     19  C   UNL     1     -45.682 -21.267  14.786 -0.13 +0.00    +0.001 A  
DOCKED: ATOM     20  C   UNL     1     -44.295 -21.144  14.881 -0.11 +0.00    +0.029 A  
DOCKED: ATOM     21  C   UNL     1     -43.735 -20.053  15.542 -0.04 +0.00    +0.140 A  
DOCKED: ATOM     22  C   UNL     1     -44.560 -19.082  16.110 -0.02 +0.00    +0.029 A  
DOCKED: ATOM     23  F   UNL     1     -42.404 -19.934  15.631 -0.00 -0.00    -0.204 F  
DOCKED: ATOM     24  C   UNL     1     -45.948 -19.204  16.017 -0.03 +0.00    +0.001 A  
DOCKED: ENDBRANCH   2  18
DOCKED: TORSDOF 5
DOCKED: TER
DOCKED: ENDMDL
________________________________________________________________________________


    FINAL DOCKED STATE:
    ________________________


Run:   458 / 512
Time taken for this run:   0.002s

DOCKED: MODEL        458
DOCKED: USER    Run = 458
DOCKED: USER
DOCKED: USER    Estimated Free Energy of Binding    =  -4.17 kcal/mol  [=(1)+(2)+(3)-(4)]
DOCKED: USER
DOCKED: USER    (1) Final Intermolecular Energy     =  -5.66 kcal/mol
DOCKED: USER        vdW + Hbond + desolv Energy     =  -5.66 kcal/mol
DOCKED: USER        Electrostatic Energy            =  +0.00 kcal/mol
DOCKED: USER        Moving Ligand-Fixed Receptor    =  -5.66 kcal/mol
DOCKED: USER        Moving Ligand-Moving Receptor   =  +0.00 kcal/mol
DOCKED: USER    (2) Final Total Internal Energy     =  -1.33 kcal/mol
DOCKED: USER    (3) Torsional Free Energy           =  +1.49 kcal/mol
DOCKED: USER    (4) Unbound System's Energy         =  -1.33 kcal/mol
DOCKED: USER
DOCKED: USER
DOCKED: REMARK  5 active torsions:
DOCKED: REMARK  status: ('A' for Active; 'I' for Inactive)
DOCKED: REMARK    1  A    between atoms: C_2  and  C_19 
DOCKED: REMARK    2  A    between atoms: C_2  and  C_11 
DOCKED: REMARK    3  A    between atoms: C_19  and  C_20 
DOCKED: REMARK    4  A    between atoms: C_20  and  C_21 
DOCKED: REMARK    5  A    between atoms: C_21  and  N_22 
DOCKED: USER                              x       y       z     vdW  Elec       q    Type
DOCKED: USER                           _______ _______ _______ _____ _____    ______ ____
DOCKED: ROOT
DOCKED: ATOM      1  O   UNL     1     -42.262 -11.500   6.056 -0.08 -0.00    -0.346 OA 
DOCKED: ATOM      2  C   UNL     1     -42.478 -12.935   5.866 -0.12 +0.00    +0.130 C  
DOCKED: ATOM      3  C   UNL     1     -43.651 -13.001   4.931 -0.17 +0.00    +0.004 A  
DOCKED: ATOM      4  C   UNL     1     -44.004 -11.720   4.534 -0.22 +0.00    +0.006 A  
DOCKED: ATOM      5  C   UNL     1     -43.096 -10.732   5.159 -0.19 +0.00    +0.169 C  
DOCKED: ATOM      6  C   UNL     1     -44.342 -14.108   4.460 -0.20 -0.00    -0.001 A  
DOCKED: ATOM      7  C   UNL     1     -45.057 -11.500   3.662 -0.32 +0.00    +0.008 A  
DOCKED: ATOM      8  C   UNL     1     -45.409 -13.903   3.584 -0.23 +0.00    +0.010 A  
DOCKED: ATOM      9  C   UNL     1     -45.764 -12.605   3.187 -0.36 +0.00    +0.068 A  
DOCKED: ATOM     10  N   UNL     1     -47.746 -12.260   1.554 -2.56 -0.00    -0.191 NA 
DOCKED: ATOM     11  C   UNL     1     -46.858 -12.414   2.287 -0.37 +0.00    +0.101 C  
DOCKED: ENDROOT
DOCKED: BRANCH   2  12
DOCKED: ATOM     12  C   UNL     1     -41.211 -13.539   5.272 -0.04 +0.00    +0.038 C  
DOCKED: BRANCH  12  13
DOCKED: ATOM     13  C   UNL     1     -41.295 -13.624   3.749 -0.03 +0.00    +0.038 C  
DOCKED: BRANCH  13  14
DOCKED: ATOM     14  C   UNL     1     -40.785 -12.340   3.099 -0.00 +0.00    +0.251 C  
DOCKED: BRANCH  14  15
DOCKED: ATOM     15  N   UNL     1     -41.815 -11.760   2.245 -0.06 +0.00    +0.141 N  
DOCKED: ATOM     16  C   UNL     1     -41.245 -10.729   1.376 -0.03 +0.00    +0.285 C  
DOCKED: ATOM     17  C   UNL     1     -42.465 -12.798   1.443 -0.03 +0.00    +0.285 C  
DOCKED: ENDBRANCH  14  15
DOCKED: ENDBRANCH  13  14
DOCKED: ENDBRANCH  12  13
DOCKED: ENDBRANCH   2  12
DOCKED: BRANCH   2  18
DOCKED: ATOM     18  C   UNL     1     -42.772 -13.514   7.209 -0.12 +0.00    +0.006 A  
DOCKED: ATOM     19  C   UNL     1     -43.997 -14.137   7.447 -0.11 +0.00    +0.001 A  
DOCKED: ATOM     20  C   UNL     1     -44.270 -14.677   8.704 -0.14 +0.00    +0.029 A  
DOCKED: ATOM     21  C   UNL     1     -43.320 -14.596   9.720 -0.09 +0.00    +0.140 A  
DOCKED: ATOM     22  C   UNL     1     -42.095 -13.974   9.482 -0.08 +0.00    +0.029 A  
DOCKED: ATOM     23  F   UNL     1     -43.582 -15.117  10.926 -0.01 -0.00    -0.204 F  
DOCKED: ATOM     24  C   UNL     1     -41.820 -13.432   8.225 -0.10 +0.00    +0.001 A  
DOCKED: ENDBRANCH   2  18
DOCKED: TORSDOF 5
DOCKED: TER
DOCKED: ENDMDL
________________________________________________________________________________


    FINAL DOCKED STATE:
    ________________________


Run:   459 / 512
Time taken for this run:   0.002s

DOCKED: MODEL        459
DOCKED: USER    Run = 459
DOCKED: USER
DOCKED: USER    Estimated Free Energy of Binding    =  -3.91 kcal/mol  [=(1)+(2)+(3)-(4)]
DOCKED: USER
DOCKED: USER    (1) Final Intermolecular Energy     =  -5.40 kcal/mol
DOCKED: USER        vdW + Hbond + desolv Energy     =  -5.40 kcal/mol
DOCKED: USER        Electrostatic Energy            =  +0.00 kcal/mol
DOCKED: USER        Moving Ligand-Fixed Receptor    =  -5.40 kcal/mol
DOCKED: USER        Moving Ligand-Moving Receptor   =  +0.00 kcal/mol
DOCKED: USER    (2) Final Total Internal Energy     =  -1.35 kcal/mol
DOCKED: USER    (3) Torsional Free Energy           =  +1.49 kcal/mol
DOCKED: USER    (4) Unbound System's Energy         =  -1.35 kcal/mol
DOCKED: USER
DOCKED: USER
DOCKED: REMARK  5 active torsions:
DOCKED: REMARK  status: ('A' for Active; 'I' for Inactive)
DOCKED: REMARK    1  A    between atoms: C_2  and  C_19 
DOCKED: REMARK    2  A    between atoms: C_2  and  C_11 
DOCKED: REMARK    3  A    between atoms: C_19  and  C_20 
DOCKED: REMARK    4  A    between atoms: C_20  and  C_21 
DOCKED: REMARK    5  A    between atoms: C_21  and  N_22 
DOCKED: USER                              x       y       z     vdW  Elec       q    Type
DOCKED: USER                           _______ _______ _______ _____ _____    ______ ____
DOCKED: ROOT
DOCKED: ATOM      1  O   UNL     1     -44.117 -20.049   7.812 -0.06 -0.00    -0.346 OA 
DOCKED: ATOM      2  C   UNL     1     -42.991 -19.882   8.733 -0.12 +0.00    +0.130 C  
DOCKED: ATOM      3  C   UNL     1     -42.742 -21.268   9.251 -0.20 +0.00    +0.004 A  
DOCKED: ATOM      4  C   UNL     1     -43.576 -22.167   8.601 -0.32 +0.00    +0.006 A  
DOCKED: ATOM      5  C   UNL     1     -44.415 -21.450   7.614 -0.11 +0.00    +0.169 C  
DOCKED: ATOM      6  C   UNL     1     -41.840 -21.702  10.212 -0.15 -0.00    -0.001 A  
DOCKED: ATOM      7  C   UNL     1     -43.543 -23.520   8.890 -0.23 +0.00    +0.008 A  
DOCKED: ATOM      8  C   UNL     1     -41.797 -23.063  10.518 -0.22 +0.00    +0.010 A  
DOCKED: ATOM      9  C   UNL     1     -42.644 -23.968   9.859 -0.25 +0.00    +0.068 A  
DOCKED: ATOM     10  N   UNL     1     -42.535 -26.489  10.448 -2.20 -0.00    -0.191 NA 
DOCKED: ATOM     11  C   UNL     1     -42.584 -25.358  10.184 -0.39 +0.00    +0.101 C  
DOCKED: ENDROOT
DOCKED: BRANCH   2  12
DOCKED: ATOM     12  C   UNL     1     -41.809 -19.318   7.953 -0.05 +0.00    +0.038 C  
DOCKED: BRANCH  12  13
DOCKED: ATOM     13  C   UNL     1     -41.565 -20.103   6.666 -0.08 +0.00    +0.038 C  
DOCKED: BRANCH  13  14
DOCKED: ATOM     14  C   UNL     1     -41.839 -19.241   5.436 -0.06 +0.00    +0.251 C  
DOCKED: BRANCH  14  15
DOCKED: ATOM     15  N   UNL     1     -43.224 -19.397   5.005 -0.19 +0.00    +0.141 N  
DOCKED: ATOM     16  C   UNL     1     -43.987 -18.177   5.272 -0.15 +0.00    +0.285 C  
DOCKED: ATOM     17  C   UNL     1     -43.286 -19.734   3.582 -0.20 +0.00    +0.285 C  
DOCKED: ENDBRANCH  14  15
DOCKED: ENDBRANCH  13  14
DOCKED: ENDBRANCH  12  13
DOCKED: ENDBRANCH   2  12
DOCKED: BRANCH   2  18
DOCKED: ATOM     18  C   UNL     1     -43.436 -18.934   9.797 -0.11 +0.00    +0.006 A  
DOCKED: ATOM     19  C   UNL     1     -42.798 -17.704   9.945 -0.03 +0.00    +0.001 A  
DOCKED: ATOM     20  C   UNL     1     -43.214 -16.819  10.941 -0.03 +0.00    +0.029 A  
DOCKED: ATOM     21  C   UNL     1     -44.267 -17.166  11.786 -0.04 +0.00    +0.140 A  
DOCKED: ATOM     22  C   UNL     1     -44.905 -18.397  11.637 -0.13 +0.00    +0.029 A  
DOCKED: ATOM     23  F   UNL     1     -44.667 -16.316  12.740 +0.00 -0.00    -0.204 F  
DOCKED: ATOM     24  C   UNL     1     -44.489 -19.283  10.641 -0.11 +0.00    +0.001 A  
DOCKED: ENDBRANCH   2  18
DOCKED: TORSDOF 5
DOCKED: TER
DOCKED: ENDMDL
________________________________________________________________________________


    FINAL DOCKED STATE:
    ________________________


Run:   460 / 512
Time taken for this run:   0.002s

DOCKED: MODEL        460
DOCKED: USER    Run = 460
DOCKED: USER
DOCKED: USER    Estimated Free Energy of Binding    =  -4.22 kcal/mol  [=(1)+(2)+(3)-(4)]
DOCKED: USER
DOCKED: USER    (1) Final Intermolecular Energy     =  -5.71 kcal/mol
DOCKED: USER        vdW + Hbond + desolv Energy     =  -5.71 kcal/mol
DOCKED: USER        Electrostatic Energy            =  +0.00 kcal/mol
DOCKED: USER        Moving Ligand-Fixed Receptor    =  -5.71 kcal/mol
DOCKED: USER        Moving Ligand-Moving Receptor   =  +0.00 kcal/mol
DOCKED: USER    (2) Final Total Internal Energy     =  -1.29 kcal/mol
DOCKED: USER    (3) Torsional Free Energy           =  +1.49 kcal/mol
DOCKED: USER    (4) Unbound System's Energy         =  -1.29 kcal/mol
DOCKED: USER
DOCKED: USER
DOCKED: REMARK  5 active torsions:
DOCKED: REMARK  status: ('A' for Active; 'I' for Inactive)
DOCKED: REMARK    1  A    between atoms: C_2  and  C_19 
DOCKED: REMARK    2  A    between atoms: C_2  and  C_11 
DOCKED: REMARK    3  A    between atoms: C_19  and  C_20 
DOCKED: REMARK    4  A    between atoms: C_20  and  C_21 
DOCKED: REMARK    5  A    between atoms: C_21  and  N_22 
DOCKED: USER                              x       y       z     vdW  Elec       q    Type
DOCKED: USER                           _______ _______ _______ _____ _____    ______ ____
DOCKED: ROOT
DOCKED: ATOM      1  O   UNL     1     -45.351 -21.510  15.234 -0.08 -0.00    -0.346 OA 
DOCKED: ATOM      2  C   UNL     1     -46.307 -20.586  14.622 -0.13 +0.00    +0.130 C  
DOCKED: ATOM      3  C   UNL     1     -47.316 -21.489  13.974 -0.20 +0.00    +0.004 A  
DOCKED: ATOM      4  C   UNL     1     -47.025 -22.810  14.281 -0.22 +0.00    +0.006 A  
DOCKED: ATOM      5  C   UNL     1     -45.830 -22.873  15.152 -0.15 +0.00    +0.169 C  
DOCKED: ATOM      6  C   UNL     1     -48.410 -21.166  13.184 -0.28 -0.00    -0.001 A  
DOCKED: ATOM      7  C   UNL     1     -47.810 -23.849  13.810 -0.35 +0.00    +0.008 A  
DOCKED: ATOM      8  C   UNL     1     -49.209 -22.202  12.698 -0.32 +0.00    +0.010 A  
DOCKED: ATOM      9  C   UNL     1     -48.910 -23.537  13.010 -0.31 +0.00    +0.068 A  
DOCKED: ATOM     10  N   UNL     1     -50.416 -25.436  12.095 -2.56 -0.00    -0.191 NA 
DOCKED: ATOM     11  C   UNL     1     -49.740 -24.584  12.505 -0.37 +0.00    +0.101 C  
DOCKED: ENDROOT
DOCKED: BRANCH   2  12
DOCKED: ATOM     12  C   UNL     1     -46.908 -19.716  15.720 -0.06 +0.00    +0.038 C  
DOCKED: BRANCH  12  13
DOCKED: ATOM     13  C   UNL     1     -46.161 -19.891  17.041 -0.02 +0.00    +0.038 C  
DOCKED: BRANCH  13  14
DOCKED: ATOM     14  C   UNL     1     -45.048 -18.855  17.184 -0.00 +0.00    +0.251 C  
DOCKED: BRANCH  14  15
DOCKED: ATOM     15  N   UNL     1     -43.903 -19.433  17.877 -0.00 +0.00    +0.141 N  
DOCKED: ATOM     16  C   UNL     1     -43.926 -19.079  19.297 -0.00 +0.00    +0.285 C  
DOCKED: ATOM     17  C   UNL     1     -43.884 -20.888  17.717 -0.01 +0.00    +0.285 C  
DOCKED: ENDBRANCH  14  15
DOCKED: ENDBRANCH  13  14
DOCKED: ENDBRANCH  12  13
DOCKED: ENDBRANCH   2  12
DOCKED: BRANCH   2  18
DOCKED: ATOM     18  C   UNL     1     -45.547 -19.761  13.638 -0.13 +0.00    +0.006 A  
DOCKED: ATOM     19  C   UNL     1     -44.168 -19.926  13.508 -0.06 +0.00    +0.001 A  
DOCKED: ATOM     20  C   UNL     1     -43.458 -19.154  12.587 -0.10 +0.00    +0.029 A  
DOCKED: ATOM     21  C   UNL     1     -44.127 -18.220  11.798 -0.07 +0.00    +0.140 A  
DOCKED: ATOM     22  C   UNL     1     -45.506 -18.056  11.928 -0.12 +0.00    +0.029 A  
DOCKED: ATOM     23  F   UNL     1     -43.446 -17.481  10.913 -0.00 -0.00    -0.204 F  
DOCKED: ATOM     24  C   UNL     1     -46.217 -18.827  12.849 -0.16 +0.00    +0.001 A  
DOCKED: ENDBRANCH   2  18
DOCKED: TORSDOF 5
DOCKED: TER
DOCKED: ENDMDL
________________________________________________________________________________


    FINAL DOCKED STATE:
    ________________________


Run:   461 / 512
Time taken for this run:   0.002s

DOCKED: MODEL        461
DOCKED: USER    Run = 461
DOCKED: USER
DOCKED: USER    Estimated Free Energy of Binding    =  -3.88 kcal/mol  [=(1)+(2)+(3)-(4)]
DOCKED: USER
DOCKED: USER    (1) Final Intermolecular Energy     =  -5.37 kcal/mol
DOCKED: USER        vdW + Hbond + desolv Energy     =  -5.37 kcal/mol
DOCKED: USER        Electrostatic Energy            =  +0.00 kcal/mol
DOCKED: USER        Moving Ligand-Fixed Receptor    =  -5.37 kcal/mol
DOCKED: USER        Moving Ligand-Moving Receptor   =  +0.00 kcal/mol
DOCKED: USER    (2) Final Total Internal Energy     =  -1.48 kcal/mol
DOCKED: USER    (3) Torsional Free Energy           =  +1.49 kcal/mol
DOCKED: USER    (4) Unbound System's Energy         =  -1.48 kcal/mol
DOCKED: USER
DOCKED: USER
DOCKED: REMARK  5 active torsions:
DOCKED: REMARK  status: ('A' for Active; 'I' for Inactive)
DOCKED: REMARK    1  A    between atoms: C_2  and  C_19 
DOCKED: REMARK    2  A    between atoms: C_2  and  C_11 
DOCKED: REMARK    3  A    between atoms: C_19  and  C_20 
DOCKED: REMARK    4  A    between atoms: C_20  and  C_21 
DOCKED: REMARK    5  A    between atoms: C_21  and  N_22 
DOCKED: USER                              x       y       z     vdW  Elec       q    Type
DOCKED: USER                           _______ _______ _______ _____ _____    ______ ____
DOCKED: ROOT
DOCKED: ATOM      1  O   UNL     1     -46.167 -21.101  15.898 -0.04 -0.00    -0.346 OA 
DOCKED: ATOM      2  C   UNL     1     -47.162 -20.262  15.228 -0.09 +0.00    +0.130 C  
DOCKED: ATOM      3  C   UNL     1     -47.986 -21.240  14.443 -0.18 +0.00    +0.004 A  
DOCKED: ATOM      4  C   UNL     1     -47.571 -22.534  14.726 -0.22 +0.00    +0.006 A  
DOCKED: ATOM      5  C   UNL     1     -46.468 -22.503  15.712 -0.15 +0.00    +0.169 C  
DOCKED: ATOM      6  C   UNL     1     -49.028 -21.005  13.558 -0.25 -0.00    -0.001 A  
DOCKED: ATOM      7  C   UNL     1     -48.176 -23.630  14.134 -0.31 +0.00    +0.008 A  
DOCKED: ATOM      8  C   UNL     1     -49.645 -22.100  12.950 -0.29 +0.00    +0.010 A  
DOCKED: ATOM      9  C   UNL     1     -49.221 -23.406  13.238 -0.28 +0.00    +0.068 A  
DOCKED: ATOM     10  N   UNL     1     -50.392 -25.416  12.096 -2.56 -0.00    -0.191 NA 
DOCKED: ATOM     11  C   UNL     1     -49.866 -24.514  12.608 -0.35 +0.00    +0.101 C  
DOCKED: ENDROOT
DOCKED: BRANCH   2  12
DOCKED: ATOM     12  C   UNL     1     -47.967 -19.525  16.291 -0.03 +0.00    +0.038 C  
DOCKED: BRANCH  12  13
DOCKED: ATOM     13  C   UNL     1     -49.230 -20.298  16.668 -0.03 +0.00    +0.038 C  
DOCKED: BRANCH  13  14
DOCKED: ATOM     14  C   UNL     1     -48.952 -21.291  17.794 -0.01 +0.00    +0.251 C  
DOCKED: BRANCH  14  15
DOCKED: ATOM     15  N   UNL     1     -49.875 -22.417  17.717 -0.03 +0.00    +0.141 N  
DOCKED: ATOM     16  C   UNL     1     -50.737 -22.298  16.540 -0.01 +0.00    +0.285 C  
DOCKED: ATOM     17  C   UNL     1     -49.142 -23.684  17.684 -0.07 +0.00    +0.285 C  
DOCKED: ENDBRANCH  14  15
DOCKED: ENDBRANCH  13  14
DOCKED: ENDBRANCH  12  13
DOCKED: ENDBRANCH   2  12
DOCKED: BRANCH   2  18
DOCKED: ATOM     18  C   UNL     1     -46.413 -19.305  14.361 -0.11 +0.00    +0.006 A  
DOCKED: ATOM     19  C   UNL     1     -45.769 -19.764  13.213 -0.09 +0.00    +0.001 A  
DOCKED: ATOM     20  C   UNL     1     -45.068 -18.868  12.403 -0.13 +0.00    +0.029 A  
DOCKED: ATOM     21  C   UNL     1     -45.013 -17.517  12.743 -0.05 +0.00    +0.140 A  
DOCKED: ATOM     22  C   UNL     1     -45.658 -17.060  13.892 -0.03 +0.00    +0.029 A  
DOCKED: ATOM     23  F   UNL     1     -44.343 -16.658  11.965 -0.00 -0.00    -0.204 F  
DOCKED: ATOM     24  C   UNL     1     -46.358 -17.955  14.703 -0.04 +0.00    +0.001 A  
DOCKED: ENDBRANCH   2  18
DOCKED: TORSDOF 5
DOCKED: TER
DOCKED: ENDMDL
________________________________________________________________________________


    FINAL DOCKED STATE:
    ________________________


Run:   462 / 512
Time taken for this run:   0.002s

DOCKED: MODEL        462
DOCKED: USER    Run = 462
DOCKED: USER
DOCKED: USER    Estimated Free Energy of Binding    =  -3.83 kcal/mol  [=(1)+(2)+(3)-(4)]
DOCKED: USER
DOCKED: USER    (1) Final Intermolecular Energy     =  -5.33 kcal/mol
DOCKED: USER        vdW + Hbond + desolv Energy     =  -5.33 kcal/mol
DOCKED: USER        Electrostatic Energy            =  +0.00 kcal/mol
DOCKED: USER        Moving Ligand-Fixed Receptor    =  -5.33 kcal/mol
DOCKED: USER        Moving Ligand-Moving Receptor   =  +0.00 kcal/mol
DOCKED: USER    (2) Final Total Internal Energy     =  -1.09 kcal/mol
DOCKED: USER    (3) Torsional Free Energy           =  +1.49 kcal/mol
DOCKED: USER    (4) Unbound System's Energy         =  -1.09 kcal/mol
DOCKED: USER
DOCKED: USER
DOCKED: REMARK  5 active torsions:
DOCKED: REMARK  status: ('A' for Active; 'I' for Inactive)
DOCKED: REMARK    1  A    between atoms: C_2  and  C_19 
DOCKED: REMARK    2  A    between atoms: C_2  and  C_11 
DOCKED: REMARK    3  A    between atoms: C_19  and  C_20 
DOCKED: REMARK    4  A    between atoms: C_20  and  C_21 
DOCKED: REMARK    5  A    between atoms: C_21  and  N_22 
DOCKED: USER                              x       y       z     vdW  Elec       q    Type
DOCKED: USER                           _______ _______ _______ _____ _____    ______ ____
DOCKED: ROOT
DOCKED: ATOM      1  O   UNL     1     -48.020 -19.120  14.165 -0.04 -0.00    -0.346 OA 
DOCKED: ATOM      2  C   UNL     1     -47.151 -20.129  14.772 -0.11 +0.00    +0.130 C  
DOCKED: ATOM      3  C   UNL     1     -47.731 -21.432  14.304 -0.20 +0.00    +0.004 A  
DOCKED: ATOM      4  C   UNL     1     -48.771 -21.189  13.418 -0.27 +0.00    +0.006 A  
DOCKED: ATOM      5  C   UNL     1     -48.941 -19.731  13.231 -0.16 +0.00    +0.169 C  
DOCKED: ATOM      6  C   UNL     1     -47.360 -22.730  14.627 -0.25 -0.00    -0.001 A  
DOCKED: ATOM      7  C   UNL     1     -49.475 -22.227  12.832 -0.31 +0.00    +0.008 A  
DOCKED: ATOM      8  C   UNL     1     -48.063 -23.787  14.047 -0.33 +0.00    +0.010 A  
DOCKED: ATOM      9  C   UNL     1     -49.115 -23.536  13.154 -0.29 +0.00    +0.068 A  
DOCKED: ATOM     10  N   UNL     1     -50.397 -25.521  12.091 -2.55 -0.00    -0.191 NA 
DOCKED: ATOM     11  C   UNL     1     -49.823 -24.631  12.568 -0.36 +0.00    +0.101 C  
DOCKED: ENDROOT
DOCKED: BRANCH   2  12
DOCKED: ATOM     12  C   UNL     1     -45.727 -19.901  14.277 -0.13 +0.00    +0.038 C  
DOCKED: BRANCH  12  13
DOCKED: ATOM     13  C   UNL     1     -44.793 -21.019  14.735 -0.12 +0.00    +0.038 C  
DOCKED: BRANCH  13  14
DOCKED: ATOM     14  C   UNL     1     -43.329 -20.604  14.594 -0.07 +0.00    +0.251 C  
DOCKED: BRANCH  14  15
DOCKED: ATOM     15  N   UNL     1     -43.076 -19.377  15.341 -0.02 +0.00    +0.141 N  
DOCKED: ATOM     16  C   UNL     1     -42.752 -19.680  16.736 -0.01 +0.00    +0.285 C  
DOCKED: ATOM     17  C   UNL     1     -41.991 -18.612  14.723 -0.01 +0.00    +0.285 C  
DOCKED: ENDBRANCH  14  15
DOCKED: ENDBRANCH  13  14
DOCKED: ENDBRANCH  12  13
DOCKED: ENDBRANCH   2  12
DOCKED: BRANCH   2  18
DOCKED: ATOM     18  C   UNL     1     -47.241 -19.950  16.251 -0.04 +0.00    +0.006 A  
DOCKED: ATOM     19  C   UNL     1     -48.180 -20.675  16.984 -0.03 +0.00    +0.001 A  
DOCKED: ATOM     20  C   UNL     1     -48.264 -20.506  18.367 -0.01 +0.00    +0.029 A  
DOCKED: ATOM     21  C   UNL     1     -47.410 -19.614  19.014 -0.00 +0.00    +0.140 A  
DOCKED: ATOM     22  C   UNL     1     -46.472 -18.890  18.279 -0.00 +0.00    +0.029 A  
DOCKED: ATOM     23  F   UNL     1     -47.490 -19.454  20.341 +0.00 -0.00    -0.204 F  
DOCKED: ATOM     24  C   UNL     1     -46.387 -19.057  16.896 -0.01 +0.00    +0.001 A  
DOCKED: ENDBRANCH   2  18
DOCKED: TORSDOF 5
DOCKED: TER
DOCKED: ENDMDL
________________________________________________________________________________


    FINAL DOCKED STATE:
    ________________________


Run:   463 / 512
Time taken for this run:   0.002s

DOCKED: MODEL        463
DOCKED: USER    Run = 463
DOCKED: USER
DOCKED: USER    Estimated Free Energy of Binding    =  -4.18 kcal/mol  [=(1)+(2)+(3)-(4)]
DOCKED: USER
DOCKED: USER    (1) Final Intermolecular Energy     =  -5.67 kcal/mol
DOCKED: USER        vdW + Hbond + desolv Energy     =  -5.67 kcal/mol
DOCKED: USER        Electrostatic Energy            =  +0.00 kcal/mol
DOCKED: USER        Moving Ligand-Fixed Receptor    =  -5.67 kcal/mol
DOCKED: USER        Moving Ligand-Moving Receptor   =  +0.00 kcal/mol
DOCKED: USER    (2) Final Total Internal Energy     =  -0.97 kcal/mol
DOCKED: USER    (3) Torsional Free Energy           =  +1.49 kcal/mol
DOCKED: USER    (4) Unbound System's Energy         =  -0.97 kcal/mol
DOCKED: USER
DOCKED: USER
DOCKED: REMARK  5 active torsions:
DOCKED: REMARK  status: ('A' for Active; 'I' for Inactive)
DOCKED: REMARK    1  A    between atoms: C_2  and  C_19 
DOCKED: REMARK    2  A    between atoms: C_2  and  C_11 
DOCKED: REMARK    3  A    between atoms: C_19  and  C_20 
DOCKED: REMARK    4  A    between atoms: C_20  and  C_21 
DOCKED: REMARK    5  A    between atoms: C_21  and  N_22 
DOCKED: USER                              x       y       z     vdW  Elec       q    Type
DOCKED: USER                           _______ _______ _______ _____ _____    ______ ____
DOCKED: ROOT
DOCKED: ATOM      1  O   UNL     1     -45.695 -15.947   7.236 -0.07 -0.00    -0.346 OA 
DOCKED: ATOM      2  C   UNL     1     -44.450 -15.411   6.684 -0.14 +0.00    +0.130 C  
DOCKED: ATOM      3  C   UNL     1     -44.899 -14.603   5.501 -0.23 +0.00    +0.004 A  
DOCKED: ATOM      4  C   UNL     1     -46.286 -14.588   5.445 -0.29 +0.00    +0.006 A  
DOCKED: ATOM      5  C   UNL     1     -46.843 -15.361   6.578 -0.14 +0.00    +0.169 C  
DOCKED: ATOM      6  C   UNL     1     -44.141 -13.927   4.556 -0.18 -0.00    -0.001 A  
DOCKED: ATOM      7  C   UNL     1     -46.959 -13.905   4.447 -0.26 +0.00    +0.008 A  
DOCKED: ATOM      8  C   UNL     1     -44.806 -13.237   3.540 -0.26 +0.00    +0.010 A  
DOCKED: ATOM      9  C   UNL     1     -46.207 -13.226   3.487 -0.33 +0.00    +0.068 A  
DOCKED: ATOM     10  N   UNL     1     -47.409 -11.931   1.592 -2.39 -0.00    -0.191 NA 
DOCKED: ATOM     11  C   UNL     1     -46.870 -12.512   2.441 -0.39 +0.00    +0.101 C  
DOCKED: ENDROOT
DOCKED: BRANCH   2  12
DOCKED: ATOM     12  C   UNL     1     -43.772 -14.565   7.756 -0.16 +0.00    +0.038 C  
DOCKED: BRANCH  12  13
DOCKED: ATOM     13  C   UNL     1     -44.528 -14.636   9.082 -0.16 +0.00    +0.038 C  
DOCKED: BRANCH  13  14
DOCKED: ATOM     14  C   UNL     1     -43.566 -14.569  10.267 -0.08 +0.00    +0.251 C  
DOCKED: BRANCH  14  15
DOCKED: ATOM     15  N   UNL     1     -43.786 -13.347  11.031 -0.06 +0.00    +0.141 N  
DOCKED: ATOM     16  C   UNL     1     -44.702 -13.594  12.146 -0.06 +0.00    +0.285 C  
DOCKED: ATOM     17  C   UNL     1     -42.517 -12.812  11.525 +0.01 +0.00    +0.285 C  
DOCKED: ENDBRANCH  14  15
DOCKED: ENDBRANCH  13  14
DOCKED: ENDBRANCH  12  13
DOCKED: ENDBRANCH   2  12
DOCKED: BRANCH   2  18
DOCKED: ATOM     18  C   UNL     1     -43.603 -16.579   6.304 -0.08 +0.00    +0.006 A  
DOCKED: ATOM     19  C   UNL     1     -42.228 -16.417   6.138 -0.02 +0.00    +0.001 A  
DOCKED: ATOM     20  C   UNL     1     -41.437 -17.510   5.782 -0.01 +0.00    +0.029 A  
DOCKED: ATOM     21  C   UNL     1     -42.021 -18.762   5.593 -0.05 +0.00    +0.140 A  
DOCKED: ATOM     22  C   UNL     1     -43.396 -18.923   5.760 -0.17 +0.00    +0.029 A  
DOCKED: ATOM     23  F   UNL     1     -41.261 -19.811   5.254 -0.01 -0.00    -0.204 F  
DOCKED: ATOM     24  C   UNL     1     -44.189 -17.830   6.116 -0.17 +0.00    +0.001 A  
DOCKED: ENDBRANCH   2  18
DOCKED: TORSDOF 5
DOCKED: TER
DOCKED: ENDMDL
________________________________________________________________________________


    FINAL DOCKED STATE:
    ________________________


Run:   464 / 512
Time taken for this run:   0.002s

DOCKED: MODEL        464
DOCKED: USER    Run = 464
DOCKED: USER
DOCKED: USER    Estimated Free Energy of Binding    =  -5.42 kcal/mol  [=(1)+(2)+(3)-(4)]
DOCKED: USER
DOCKED: USER    (1) Final Intermolecular Energy     =  -6.91 kcal/mol
DOCKED: USER        vdW + Hbond + desolv Energy     =  -6.91 kcal/mol
DOCKED: USER        Electrostatic Energy            =  +0.00 kcal/mol
DOCKED: USER        Moving Ligand-Fixed Receptor    =  -6.91 kcal/mol
DOCKED: USER        Moving Ligand-Moving Receptor   =  +0.00 kcal/mol
DOCKED: USER    (2) Final Total Internal Energy     =  -1.28 kcal/mol
DOCKED: USER    (3) Torsional Free Energy           =  +1.49 kcal/mol
DOCKED: USER    (4) Unbound System's Energy         =  -1.28 kcal/mol
DOCKED: USER
DOCKED: USER
DOCKED: REMARK  5 active torsions:
DOCKED: REMARK  status: ('A' for Active; 'I' for Inactive)
DOCKED: REMARK    1  A    between atoms: C_2  and  C_19 
DOCKED: REMARK    2  A    between atoms: C_2  and  C_11 
DOCKED: REMARK    3  A    between atoms: C_19  and  C_20 
DOCKED: REMARK    4  A    between atoms: C_20  and  C_21 
DOCKED: REMARK    5  A    between atoms: C_21  and  N_22 
DOCKED: USER                              x       y       z     vdW  Elec       q    Type
DOCKED: USER                           _______ _______ _______ _____ _____    ______ ____
DOCKED: ROOT
DOCKED: ATOM      1  O   UNL     1     -47.364 -24.477  14.999 -0.11 -0.00    -0.346 OA 
DOCKED: ATOM      2  C   UNL     1     -47.898 -23.140  14.736 -0.23 +0.00    +0.130 C  
DOCKED: ATOM      3  C   UNL     1     -48.505 -23.258  13.368 -0.33 +0.00    +0.004 A  
DOCKED: ATOM      4  C   UNL     1     -48.423 -24.574  12.933 -0.41 +0.00    +0.006 A  
DOCKED: ATOM      5  C   UNL     1     -47.779 -25.408  13.972 -0.18 +0.00    +0.169 C  
DOCKED: ATOM      6  C   UNL     1     -49.092 -22.282  12.577 -0.34 -0.00    -0.001 A  
DOCKED: ATOM      7  C   UNL     1     -48.919 -24.956  11.698 -0.46 +0.00    +0.008 A  
DOCKED: ATOM      8  C   UNL     1     -49.592 -22.651  11.327 -0.05 +0.00    +0.010 A  
DOCKED: ATOM      9  C   UNL     1     -49.506 -23.982  10.890 -0.43 +0.00    +0.068 A  
DOCKED: ATOM     10  N   UNL     1     -50.450 -24.634   8.567 -2.46 -0.00    -0.191 NA 
DOCKED: ATOM     11  C   UNL     1     -50.026 -24.341   9.609 -0.44 +0.00    +0.101 C  
DOCKED: ENDROOT
DOCKED: BRANCH   2  12
DOCKED: ATOM     12  C   UNL     1     -48.924 -22.810  15.814 -0.14 +0.00    +0.038 C  
DOCKED: BRANCH  12  13
DOCKED: ATOM     13  C   UNL     1     -48.708 -23.656  17.067 -0.16 +0.00    +0.038 C  
DOCKED: BRANCH  13  14
DOCKED: ATOM     14  C   UNL     1     -47.618 -23.057  17.953 -0.06 +0.00    +0.251 C  
DOCKED: BRANCH  14  15
DOCKED: ATOM     15  N   UNL     1     -47.021 -24.090  18.792 -0.11 +0.00    +0.141 N  
DOCKED: ATOM     16  C   UNL     1     -47.458 -23.942  20.181 -0.04 +0.00    +0.285 C  
DOCKED: ATOM     17  C   UNL     1     -47.363 -25.422  18.292 -0.05 +0.00    +0.285 C  
DOCKED: ENDBRANCH  14  15
DOCKED: ENDBRANCH  13  14
DOCKED: ENDBRANCH  12  13
DOCKED: ENDBRANCH   2  12
DOCKED: BRANCH   2  18
DOCKED: ATOM     18  C   UNL     1     -46.745 -22.194  14.782 -0.21 +0.00    +0.006 A  
DOCKED: ATOM     19  C   UNL     1     -45.471 -22.662  15.098 -0.19 +0.00    +0.001 A  
DOCKED: ATOM     20  C   UNL     1     -44.394 -21.776  15.140 -0.14 +0.00    +0.029 A  
DOCKED: ATOM     21  C   UNL     1     -44.593 -20.423  14.866 -0.08 +0.00    +0.140 A  
DOCKED: ATOM     22  C   UNL     1     -45.868 -19.955  14.550 -0.11 +0.00    +0.029 A  
DOCKED: ATOM     23  F   UNL     1     -43.559 -19.573  14.905 -0.01 -0.00    -0.204 F  
DOCKED: ATOM     24  C   UNL     1     -46.946 -20.841  14.508 -0.17 +0.00    +0.001 A  
DOCKED: ENDBRANCH   2  18
DOCKED: TORSDOF 5
DOCKED: TER
DOCKED: ENDMDL
________________________________________________________________________________


    FINAL DOCKED STATE:
    ________________________


Run:   465 / 512
Time taken for this run:   0.002s

DOCKED: MODEL        465
DOCKED: USER    Run = 465
DOCKED: USER
DOCKED: USER    Estimated Free Energy of Binding    =  -3.73 kcal/mol  [=(1)+(2)+(3)-(4)]
DOCKED: USER
DOCKED: USER    (1) Final Intermolecular Energy     =  -5.22 kcal/mol
DOCKED: USER        vdW + Hbond + desolv Energy     =  -5.22 kcal/mol
DOCKED: USER        Electrostatic Energy            =  +0.00 kcal/mol
DOCKED: USER        Moving Ligand-Fixed Receptor    =  -5.22 kcal/mol
DOCKED: USER        Moving Ligand-Moving Receptor   =  +0.00 kcal/mol
DOCKED: USER    (2) Final Total Internal Energy     =  -1.25 kcal/mol
DOCKED: USER    (3) Torsional Free Energy           =  +1.49 kcal/mol
DOCKED: USER    (4) Unbound System's Energy         =  -1.25 kcal/mol
DOCKED: USER
DOCKED: USER
DOCKED: REMARK  5 active torsions:
DOCKED: REMARK  status: ('A' for Active; 'I' for Inactive)
DOCKED: REMARK    1  A    between atoms: C_2  and  C_19 
DOCKED: REMARK    2  A    between atoms: C_2  and  C_11 
DOCKED: REMARK    3  A    between atoms: C_19  and  C_20 
DOCKED: REMARK    4  A    between atoms: C_20  and  C_21 
DOCKED: REMARK    5  A    between atoms: C_21  and  N_22 
DOCKED: USER                              x       y       z     vdW  Elec       q    Type
DOCKED: USER                           _______ _______ _______ _____ _____    ______ ____
DOCKED: ROOT
DOCKED: ATOM      1  O   UNL     1     -48.810 -21.308  17.094 -0.00 -0.00    -0.346 OA 
DOCKED: ATOM      2  C   UNL     1     -47.627 -21.405  16.238 -0.06 +0.00    +0.130 C  
DOCKED: ATOM      3  C   UNL     1     -48.042 -22.362  15.158 -0.16 +0.00    +0.004 A  
DOCKED: ATOM      4  C   UNL     1     -49.379 -22.697  15.319 -0.12 +0.00    +0.006 A  
DOCKED: ATOM      5  C   UNL     1     -49.937 -21.986  16.491 -0.04 +0.00    +0.169 C  
DOCKED: ATOM      6  C   UNL     1     -47.299 -22.886  14.110 -0.24 -0.00    -0.001 A  
DOCKED: ATOM      7  C   UNL     1     -50.015 -23.564  14.448 -0.19 +0.00    +0.008 A  
DOCKED: ATOM      8  C   UNL     1     -47.925 -23.765  13.225 -0.34 +0.00    +0.010 A  
DOCKED: ATOM      9  C   UNL     1     -49.276 -24.102  13.393 -0.28 +0.00    +0.068 A  
DOCKED: ATOM     10  N   UNL     1     -50.408 -25.734  11.729 -2.35 -0.00    -0.191 NA 
DOCKED: ATOM     11  C   UNL     1     -49.900 -25.003  12.476 -0.21 +0.00    +0.101 C  
DOCKED: ENDROOT
DOCKED: BRANCH   2  12
DOCKED: ATOM     12  C   UNL     1     -47.301 -20.015  15.705 -0.06 +0.00    +0.038 C  
DOCKED: BRANCH  12  13
DOCKED: ATOM     13  C   UNL     1     -48.545 -19.328  15.145 -0.08 +0.00    +0.038 C  
DOCKED: BRANCH  13  14
DOCKED: ATOM     14  C   UNL     1     -48.566 -19.390  13.619 -0.15 +0.00    +0.251 C  
DOCKED: BRANCH  14  15
DOCKED: ATOM     15  N   UNL     1     -49.803 -18.813  13.105 -0.18 +0.00    +0.141 N  
DOCKED: ATOM     16  C   UNL     1     -50.955 -19.301  13.866 -0.15 +0.00    +0.285 C  
DOCKED: ATOM     17  C   UNL     1     -49.748 -17.351  13.149 -0.13 +0.00    +0.285 C  
DOCKED: ENDBRANCH  14  15
DOCKED: ENDBRANCH  13  14
DOCKED: ENDBRANCH  12  13
DOCKED: ENDBRANCH   2  12
DOCKED: BRANCH   2  18
DOCKED: ATOM     18  C   UNL     1     -46.517 -21.930  17.085 -0.08 +0.00    +0.006 A  
DOCKED: ATOM     19  C   UNL     1     -46.707 -23.084  17.846 -0.11 +0.00    +0.001 A  
DOCKED: ATOM     20  C   UNL     1     -45.668 -23.574  18.638 -0.11 +0.00    +0.029 A  
DOCKED: ATOM     21  C   UNL     1     -44.442 -22.911  18.669 -0.06 +0.00    +0.140 A  
DOCKED: ATOM     22  C   UNL     1     -44.252 -21.758  17.908 -0.04 +0.00    +0.029 A  
DOCKED: ATOM     23  F   UNL     1     -43.444 -23.382  19.428 -0.01 -0.00    -0.204 F  
DOCKED: ATOM     24  C   UNL     1     -45.291 -21.266  17.115 -0.05 +0.00    +0.001 A  
DOCKED: ENDBRANCH   2  18
DOCKED: TORSDOF 5
DOCKED: TER
DOCKED: ENDMDL
________________________________________________________________________________


    FINAL DOCKED STATE:
    ________________________


Run:   466 / 512
Time taken for this run:   0.002s

DOCKED: MODEL        466
DOCKED: USER    Run = 466
DOCKED: USER
DOCKED: USER    Estimated Free Energy of Binding    =  -4.00 kcal/mol  [=(1)+(2)+(3)-(4)]
DOCKED: USER
DOCKED: USER    (1) Final Intermolecular Energy     =  -5.49 kcal/mol
DOCKED: USER        vdW + Hbond + desolv Energy     =  -5.49 kcal/mol
DOCKED: USER        Electrostatic Energy            =  +0.00 kcal/mol
DOCKED: USER        Moving Ligand-Fixed Receptor    =  -5.49 kcal/mol
DOCKED: USER        Moving Ligand-Moving Receptor   =  +0.00 kcal/mol
DOCKED: USER    (2) Final Total Internal Energy     =  -1.46 kcal/mol
DOCKED: USER    (3) Torsional Free Energy           =  +1.49 kcal/mol
DOCKED: USER    (4) Unbound System's Energy         =  -1.46 kcal/mol
DOCKED: USER
DOCKED: USER
DOCKED: REMARK  5 active torsions:
DOCKED: REMARK  status: ('A' for Active; 'I' for Inactive)
DOCKED: REMARK    1  A    between atoms: C_2  and  C_19 
DOCKED: REMARK    2  A    between atoms: C_2  and  C_11 
DOCKED: REMARK    3  A    between atoms: C_19  and  C_20 
DOCKED: REMARK    4  A    between atoms: C_20  and  C_21 
DOCKED: REMARK    5  A    between atoms: C_21  and  N_22 
DOCKED: USER                              x       y       z     vdW  Elec       q    Type
DOCKED: USER                           _______ _______ _______ _____ _____    ______ ____
DOCKED: ROOT
DOCKED: ATOM      1  O   UNL     1     -47.313 -23.306  15.973 -0.07 -0.00    -0.346 OA 
DOCKED: ATOM      2  C   UNL     1     -48.673 -23.821  16.136 -0.17 +0.00    +0.130 C  
DOCKED: ATOM      3  C   UNL     1     -49.172 -23.971  14.728 -0.24 +0.00    +0.004 A  
DOCKED: ATOM      4  C   UNL     1     -48.151 -23.673  13.836 -0.34 +0.00    +0.006 A  
DOCKED: ATOM      5  C   UNL     1     -46.920 -23.324  14.581 -0.21 +0.00    +0.169 C  
DOCKED: ATOM      6  C   UNL     1     -50.426 -24.351  14.272 -0.24 -0.00    -0.001 A  
DOCKED: ATOM      7  C   UNL     1     -48.347 -23.741  12.467 -0.31 +0.00    +0.008 A  
DOCKED: ATOM      8  C   UNL     1     -50.641 -24.419  12.894 -0.28 +0.00    +0.010 A  
DOCKED: ATOM      9  C   UNL     1     -49.606 -24.116  11.997 -0.38 +0.00    +0.068 A  
DOCKED: ATOM     10  N   UNL     1     -50.037 -24.258   9.446 -1.93 -0.00    -0.191 NA 
DOCKED: ATOM     11  C   UNL     1     -49.844 -24.194  10.590 -0.52 +0.00    +0.101 C  
DOCKED: ENDROOT
DOCKED: BRANCH   2  12
DOCKED: ATOM     12  C   UNL     1     -48.601 -25.147  16.884 -0.21 +0.00    +0.038 C  
DOCKED: BRANCH  12  13
DOCKED: ATOM     13  C   UNL     1     -47.538 -25.110  17.980 -0.17 +0.00    +0.038 C  
DOCKED: BRANCH  13  14
DOCKED: ATOM     14  C   UNL     1     -48.089 -24.479  19.258 -0.10 +0.00    +0.251 C  
DOCKED: BRANCH  14  15
DOCKED: ATOM     15  N   UNL     1     -47.492 -23.167  19.474 -0.04 +0.00    +0.141 N  
DOCKED: ATOM     16  C   UNL     1     -47.248 -22.940  20.900 -0.01 +0.00    +0.285 C  
DOCKED: ATOM     17  C   UNL     1     -46.245 -23.037  18.719 -0.05 +0.00    +0.285 C  
DOCKED: ENDBRANCH  14  15
DOCKED: ENDBRANCH  13  14
DOCKED: ENDBRANCH  12  13
DOCKED: ENDBRANCH   2  12
DOCKED: BRANCH   2  18
DOCKED: ATOM     18  C   UNL     1     -49.435 -22.803  16.917 -0.08 +0.00    +0.006 A  
DOCKED: ATOM     19  C   UNL     1     -49.025 -21.470  16.911 -0.04 +0.00    +0.001 A  
DOCKED: ATOM     20  C   UNL     1     -49.738 -20.520  17.643 -0.01 +0.00    +0.029 A  
DOCKED: ATOM     21  C   UNL     1     -50.859 -20.902  18.378 -0.00 +0.00    +0.140 A  
DOCKED: ATOM     22  C   UNL     1     -51.268 -22.236  18.383 -0.03 +0.00    +0.029 A  
DOCKED: ATOM     23  F   UNL     1     -51.544 -19.989  19.079 +0.00 -0.00    -0.204 F  
DOCKED: ATOM     24  C   UNL     1     -50.556 -23.187  17.652 -0.07 +0.00    +0.001 A  
DOCKED: ENDBRANCH   2  18
DOCKED: TORSDOF 5
DOCKED: TER
DOCKED: ENDMDL
________________________________________________________________________________


    FINAL DOCKED STATE:
    ________________________


Run:   467 / 512
Time taken for this run:   0.002s

DOCKED: MODEL        467
DOCKED: USER    Run = 467
DOCKED: USER
DOCKED: USER    Estimated Free Energy of Binding    =  -3.82 kcal/mol  [=(1)+(2)+(3)-(4)]
DOCKED: USER
DOCKED: USER    (1) Final Intermolecular Energy     =  -5.31 kcal/mol
DOCKED: USER        vdW + Hbond + desolv Energy     =  -5.31 kcal/mol
DOCKED: USER        Electrostatic Energy            =  +0.00 kcal/mol
DOCKED: USER        Moving Ligand-Fixed Receptor    =  -5.31 kcal/mol
DOCKED: USER        Moving Ligand-Moving Receptor   =  +0.00 kcal/mol
DOCKED: USER    (2) Final Total Internal Energy     =  -1.36 kcal/mol
DOCKED: USER    (3) Torsional Free Energy           =  +1.49 kcal/mol
DOCKED: USER    (4) Unbound System's Energy         =  -1.36 kcal/mol
DOCKED: USER
DOCKED: USER
DOCKED: REMARK  5 active torsions:
DOCKED: REMARK  status: ('A' for Active; 'I' for Inactive)
DOCKED: REMARK    1  A    between atoms: C_2  and  C_19 
DOCKED: REMARK    2  A    between atoms: C_2  and  C_11 
DOCKED: REMARK    3  A    between atoms: C_19  and  C_20 
DOCKED: REMARK    4  A    between atoms: C_20  and  C_21 
DOCKED: REMARK    5  A    between atoms: C_21  and  N_22 
DOCKED: USER                              x       y       z     vdW  Elec       q    Type
DOCKED: USER                           _______ _______ _______ _____ _____    ______ ____
DOCKED: ROOT
DOCKED: ATOM      1  O   UNL     1     -41.384 -19.339   7.330 +0.01 -0.00    -0.346 OA 
DOCKED: ATOM      2  C   UNL     1     -42.708 -19.891   7.039 -0.12 +0.00    +0.130 C  
DOCKED: ATOM      3  C   UNL     1     -42.782 -21.120   7.898 -0.19 +0.00    +0.004 A  
DOCKED: ATOM      4  C   UNL     1     -41.648 -21.203   8.693 -0.10 +0.00    +0.006 A  
DOCKED: ATOM      5  C   UNL     1     -40.763 -20.047   8.429 -0.02 +0.00    +0.169 C  
DOCKED: ATOM      6  C   UNL     1     -43.780 -22.081   7.978 -0.27 -0.00    -0.001 A  
DOCKED: ATOM      7  C   UNL     1     -41.469 -22.246   9.586 -0.14 +0.00    +0.008 A  
DOCKED: ATOM      8  C   UNL     1     -43.612 -23.140   8.871 -0.28 +0.00    +0.010 A  
DOCKED: ATOM      9  C   UNL     1     -42.463 -23.222   9.672 -0.24 +0.00    +0.068 A  
DOCKED: ATOM     10  N   UNL     1     -42.186 -25.199  11.323 -2.09 -0.00    -0.191 NA 
DOCKED: ATOM     11  C   UNL     1     -42.310 -24.312  10.582 -0.24 +0.00    +0.101 C  
DOCKED: ENDROOT
DOCKED: BRANCH   2  12
DOCKED: ATOM     12  C   UNL     1     -43.757 -18.847   7.404 -0.15 +0.00    +0.038 C  
DOCKED: BRANCH  12  13
DOCKED: ATOM     13  C   UNL     1     -44.251 -19.032   8.837 -0.18 +0.00    +0.038 C  
DOCKED: BRANCH  13  14
DOCKED: ATOM     14  C   UNL     1     -44.214 -17.713   9.606 -0.06 +0.00    +0.251 C  
DOCKED: BRANCH  14  15
DOCKED: ATOM     15  N   UNL     1     -43.588 -17.903  10.909 -0.04 +0.00    +0.141 N  
DOCKED: ATOM     16  C   UNL     1     -43.848 -19.252  11.415 -0.08 +0.00    +0.285 C  
DOCKED: ATOM     17  C   UNL     1     -42.147 -17.661  10.829 -0.01 +0.00    +0.285 C  
DOCKED: ENDBRANCH  14  15
DOCKED: ENDBRANCH  13  14
DOCKED: ENDBRANCH  12  13
DOCKED: ENDBRANCH   2  12
DOCKED: BRANCH   2  18
DOCKED: ATOM     18  C   UNL     1     -42.741 -20.199   5.579 -0.16 +0.00    +0.006 A  
DOCKED: ATOM     19  C   UNL     1     -41.879 -21.160   5.050 -0.11 +0.00    +0.001 A  
DOCKED: ATOM     20  C   UNL     1     -41.911 -21.447   3.685 -0.14 +0.00    +0.029 A  
DOCKED: ATOM     21  C   UNL     1     -42.803 -20.774   2.851 -0.19 +0.00    +0.140 A  
DOCKED: ATOM     22  C   UNL     1     -43.664 -19.813   3.381 -0.23 +0.00    +0.029 A  
DOCKED: ATOM     23  F   UNL     1     -42.834 -21.051   1.541 -0.08 -0.00    -0.204 F  
DOCKED: ATOM     24  C   UNL     1     -43.633 -19.525   4.746 -0.19 +0.00    +0.001 A  
DOCKED: ENDBRANCH   2  18
DOCKED: TORSDOF 5
DOCKED: TER
DOCKED: ENDMDL
________________________________________________________________________________


    FINAL DOCKED STATE:
    ________________________


Run:   468 / 512
Time taken for this run:   0.002s

DOCKED: MODEL        468
DOCKED: USER    Run = 468
DOCKED: USER
DOCKED: USER    Estimated Free Energy of Binding    =  -5.68 kcal/mol  [=(1)+(2)+(3)-(4)]
DOCKED: USER
DOCKED: USER    (1) Final Intermolecular Energy     =  -7.17 kcal/mol
DOCKED: USER        vdW + Hbond + desolv Energy     =  -7.17 kcal/mol
DOCKED: USER        Electrostatic Energy            =  +0.00 kcal/mol
DOCKED: USER        Moving Ligand-Fixed Receptor    =  -7.17 kcal/mol
DOCKED: USER        Moving Ligand-Moving Receptor   =  +0.00 kcal/mol
DOCKED: USER    (2) Final Total Internal Energy     =  -1.60 kcal/mol
DOCKED: USER    (3) Torsional Free Energy           =  +1.49 kcal/mol
DOCKED: USER    (4) Unbound System's Energy         =  -1.60 kcal/mol
DOCKED: USER
DOCKED: USER
DOCKED: REMARK  5 active torsions:
DOCKED: REMARK  status: ('A' for Active; 'I' for Inactive)
DOCKED: REMARK    1  A    between atoms: C_2  and  C_19 
DOCKED: REMARK    2  A    between atoms: C_2  and  C_11 
DOCKED: REMARK    3  A    between atoms: C_19  and  C_20 
DOCKED: REMARK    4  A    between atoms: C_20  and  C_21 
DOCKED: REMARK    5  A    between atoms: C_21  and  N_22 
DOCKED: USER                              x       y       z     vdW  Elec       q    Type
DOCKED: USER                           _______ _______ _______ _____ _____    ______ ____
DOCKED: ROOT
DOCKED: ATOM      1  O   UNL     1     -48.046 -21.524  14.534 -0.06 -0.00    -0.346 OA 
DOCKED: ATOM      2  C   UNL     1     -47.838 -22.972  14.587 -0.23 +0.00    +0.130 C  
DOCKED: ATOM      3  C   UNL     1     -48.394 -23.463  13.282 -0.34 +0.00    +0.004 A  
DOCKED: ATOM      4  C   UNL     1     -48.784 -22.382  12.504 -0.33 +0.00    +0.006 A  
DOCKED: ATOM      5  C   UNL     1     -48.506 -21.119  13.223 -0.24 +0.00    +0.169 C  
DOCKED: ATOM      6  C   UNL     1     -48.533 -24.762  12.816 -0.36 -0.00    -0.001 A  
DOCKED: ATOM      7  C   UNL     1     -49.327 -22.561  11.243 -0.06 +0.00    +0.008 A  
DOCKED: ATOM      8  C   UNL     1     -49.083 -24.959  11.548 -0.47 +0.00    +0.010 A  
DOCKED: ATOM      9  C   UNL     1     -49.478 -23.863  10.765 -0.42 +0.00    +0.068 A  
DOCKED: ATOM     10  N   UNL     1     -50.490 -24.263   8.414 -2.91 -0.00    -0.191 NA 
DOCKED: ATOM     11  C   UNL     1     -50.036 -24.084   9.469 -0.44 +0.00    +0.101 C  
DOCKED: ENDROOT
DOCKED: BRANCH   2  12
DOCKED: ATOM     12  C   UNL     1     -46.345 -23.240  14.734 -0.20 +0.00    +0.038 C  
DOCKED: BRANCH  12  13
DOCKED: ATOM     13  C   UNL     1     -45.572 -21.951  15.006 -0.16 +0.00    +0.038 C  
DOCKED: BRANCH  13  14
DOCKED: ATOM     14  C   UNL     1     -45.445 -21.693  16.506 -0.07 +0.00    +0.251 C  
DOCKED: BRANCH  14  15
DOCKED: ATOM     15  N   UNL     1     -46.725 -21.266  17.058 -0.03 +0.00    +0.141 N  
DOCKED: ATOM     16  C   UNL     1     -46.812 -21.602  18.480 -0.01 +0.00    +0.285 C  
DOCKED: ATOM     17  C   UNL     1     -46.917 -19.828  16.864 -0.01 +0.00    +0.285 C  
DOCKED: ENDBRANCH  14  15
DOCKED: ENDBRANCH  13  14
DOCKED: ENDBRANCH  12  13
DOCKED: ENDBRANCH   2  12
DOCKED: BRANCH   2  18
DOCKED: ATOM     18  C   UNL     1     -48.596 -23.478  15.769 -0.17 +0.00    +0.006 A  
DOCKED: ATOM     19  C   UNL     1     -49.785 -22.859  16.152 -0.10 +0.00    +0.001 A  
DOCKED: ATOM     20  C   UNL     1     -50.492 -23.333  17.258 -0.08 +0.00    +0.029 A  
DOCKED: ATOM     21  C   UNL     1     -50.009 -24.425  17.978 -0.10 +0.00    +0.140 A  
DOCKED: ATOM     22  C   UNL     1     -48.820 -25.044  17.594 -0.17 +0.00    +0.029 A  
DOCKED: ATOM     23  F   UNL     1     -50.689 -24.881  19.038 -0.02 -0.00    -0.204 F  
DOCKED: ATOM     24  C   UNL     1     -48.112 -24.570  16.489 -0.19 +0.00    +0.001 A  
DOCKED: ENDBRANCH   2  18
DOCKED: TORSDOF 5
DOCKED: TER
DOCKED: ENDMDL
________________________________________________________________________________


    FINAL DOCKED STATE:
    ________________________


Run:   469 / 512
Time taken for this run:   0.002s

DOCKED: MODEL        469
DOCKED: USER    Run = 469
DOCKED: USER
DOCKED: USER    Estimated Free Energy of Binding    =  -3.88 kcal/mol  [=(1)+(2)+(3)-(4)]
DOCKED: USER
DOCKED: USER    (1) Final Intermolecular Energy     =  -5.37 kcal/mol
DOCKED: USER        vdW + Hbond + desolv Energy     =  -5.37 kcal/mol
DOCKED: USER        Electrostatic Energy            =  +0.00 kcal/mol
DOCKED: USER        Moving Ligand-Fixed Receptor    =  -5.37 kcal/mol
DOCKED: USER        Moving Ligand-Moving Receptor   =  +0.00 kcal/mol
DOCKED: USER    (2) Final Total Internal Energy     =  -1.56 kcal/mol
DOCKED: USER    (3) Torsional Free Energy           =  +1.49 kcal/mol
DOCKED: USER    (4) Unbound System's Energy         =  -1.56 kcal/mol
DOCKED: USER
DOCKED: USER
DOCKED: REMARK  5 active torsions:
DOCKED: REMARK  status: ('A' for Active; 'I' for Inactive)
DOCKED: REMARK    1  A    between atoms: C_2  and  C_19 
DOCKED: REMARK    2  A    between atoms: C_2  and  C_11 
DOCKED: REMARK    3  A    between atoms: C_19  and  C_20 
DOCKED: REMARK    4  A    between atoms: C_20  and  C_21 
DOCKED: REMARK    5  A    between atoms: C_21  and  N_22 
DOCKED: USER                              x       y       z     vdW  Elec       q    Type
DOCKED: USER                           _______ _______ _______ _____ _____    ______ ____
DOCKED: ROOT
DOCKED: ATOM      1  O   UNL     1     -39.680 -22.883   5.209 +0.00 -0.00    -0.346 OA 
DOCKED: ATOM      2  C   UNL     1     -40.525 -21.889   5.873 -0.07 +0.00    +0.130 C  
DOCKED: ATOM      3  C   UNL     1     -41.176 -22.657   6.987 -0.11 +0.00    +0.004 A  
DOCKED: ATOM      4  C   UNL     1     -40.664 -23.947   7.026 -0.11 +0.00    +0.006 A  
DOCKED: ATOM      5  C   UNL     1     -39.646 -24.115   5.965 -0.05 +0.00    +0.169 C  
DOCKED: ATOM      6  C   UNL     1     -42.135 -22.244   7.900 -0.18 -0.00    -0.001 A  
DOCKED: ATOM      7  C   UNL     1     -41.093 -24.864   7.970 -0.20 +0.00    +0.008 A  
DOCKED: ATOM      8  C   UNL     1     -42.581 -23.159   8.855 -0.29 +0.00    +0.010 A  
DOCKED: ATOM      9  C   UNL     1     -42.062 -24.462   8.890 -0.28 +0.00    +0.068 A  
DOCKED: ATOM     10  N   UNL     1     -42.909 -26.134  10.679 -2.58 -0.00    -0.191 NA 
DOCKED: ATOM     11  C   UNL     1     -42.530 -25.384   9.876 -0.43 +0.00    +0.101 C  
DOCKED: ENDROOT
DOCKED: BRANCH   2  12
DOCKED: ATOM     12  C   UNL     1     -39.637 -20.756   6.373 -0.02 +0.00    +0.038 C  
DOCKED: BRANCH  12  13
DOCKED: ATOM     13  C   UNL     1     -38.244 -20.823   5.748 -0.00 +0.00    +0.038 C  
DOCKED: BRANCH  13  14
DOCKED: ATOM     14  C   UNL     1     -38.092 -19.792   4.632 -0.00 +0.00    +0.251 C  
DOCKED: BRANCH  14  15
DOCKED: ATOM     15  N   UNL     1     -38.867 -20.191   3.463 -0.00 +0.00    +0.141 N  
DOCKED: ATOM     16  C   UNL     1     -38.937 -19.098   2.492 +0.00 +0.00    +0.285 C  
DOCKED: ATOM     17  C   UNL     1     -38.288 -21.384   2.844 +0.00 +0.00    +0.285 C  
DOCKED: ENDBRANCH  14  15
DOCKED: ENDBRANCH  13  14
DOCKED: ENDBRANCH  12  13
DOCKED: ENDBRANCH   2  12
DOCKED: BRANCH   2  18
DOCKED: ATOM     18  C   UNL     1     -41.502 -21.399   4.857 -0.12 +0.00    +0.006 A  
DOCKED: ATOM     19  C   UNL     1     -41.642 -22.072   3.643 -0.11 +0.00    +0.001 A  
DOCKED: ATOM     20  C   UNL     1     -42.556 -21.612   2.694 -0.13 +0.00    +0.029 A  
DOCKED: ATOM     21  C   UNL     1     -43.328 -20.482   2.959 -0.18 +0.00    +0.140 A  
DOCKED: ATOM     22  C   UNL     1     -43.187 -19.810   4.173 -0.21 +0.00    +0.029 A  
DOCKED: ATOM     23  F   UNL     1     -44.206 -20.042   2.048 -0.14 -0.00    -0.204 F  
DOCKED: ATOM     24  C   UNL     1     -42.273 -20.268   5.123 -0.15 +0.00    +0.001 A  
DOCKED: ENDBRANCH   2  18
DOCKED: TORSDOF 5
DOCKED: TER
DOCKED: ENDMDL
________________________________________________________________________________


    FINAL DOCKED STATE:
    ________________________


Run:   470 / 512
Time taken for this run:   0.002s

DOCKED: MODEL        470
DOCKED: USER    Run = 470
DOCKED: USER
DOCKED: USER    Estimated Free Energy of Binding    =  -4.57 kcal/mol  [=(1)+(2)+(3)-(4)]
DOCKED: USER
DOCKED: USER    (1) Final Intermolecular Energy     =  -6.06 kcal/mol
DOCKED: USER        vdW + Hbond + desolv Energy     =  -6.06 kcal/mol
DOCKED: USER        Electrostatic Energy            =  +0.00 kcal/mol
DOCKED: USER        Moving Ligand-Fixed Receptor    =  -6.06 kcal/mol
DOCKED: USER        Moving Ligand-Moving Receptor   =  +0.00 kcal/mol
DOCKED: USER    (2) Final Total Internal Energy     =  -1.07 kcal/mol
DOCKED: USER    (3) Torsional Free Energy           =  +1.49 kcal/mol
DOCKED: USER    (4) Unbound System's Energy         =  -1.07 kcal/mol
DOCKED: USER
DOCKED: USER
DOCKED: REMARK  5 active torsions:
DOCKED: REMARK  status: ('A' for Active; 'I' for Inactive)
DOCKED: REMARK    1  A    between atoms: C_2  and  C_19 
DOCKED: REMARK    2  A    between atoms: C_2  and  C_11 
DOCKED: REMARK    3  A    between atoms: C_19  and  C_20 
DOCKED: REMARK    4  A    between atoms: C_20  and  C_21 
DOCKED: REMARK    5  A    between atoms: C_21  and  N_22 
DOCKED: USER                              x       y       z     vdW  Elec       q    Type
DOCKED: USER                           _______ _______ _______ _____ _____    ______ ____
DOCKED: ROOT
DOCKED: ATOM      1  O   UNL     1     -46.419 -21.309  15.749 -0.04 -0.00    -0.346 OA 
DOCKED: ATOM      2  C   UNL     1     -46.992 -20.529  14.651 -0.13 +0.00    +0.130 C  
DOCKED: ATOM      3  C   UNL     1     -47.779 -21.538  13.865 -0.24 +0.00    +0.004 A  
DOCKED: ATOM      4  C   UNL     1     -47.750 -22.763  14.518 -0.25 +0.00    +0.006 A  
DOCKED: ATOM      5  C   UNL     1     -46.965 -22.648  15.767 -0.14 +0.00    +0.169 C  
DOCKED: ATOM      6  C   UNL     1     -48.474 -21.382  12.675 -0.20 -0.00    -0.001 A  
DOCKED: ATOM      7  C   UNL     1     -48.406 -23.868  14.004 -0.33 +0.00    +0.008 A  
DOCKED: ATOM      8  C   UNL     1     -49.137 -22.489  12.142 -0.34 +0.00    +0.010 A  
DOCKED: ATOM      9  C   UNL     1     -49.104 -23.725  12.804 -0.33 +0.00    +0.068 A  
DOCKED: ATOM     10  N   UNL     1     -50.351 -25.758  11.790 -2.40 -0.00    -0.191 NA 
DOCKED: ATOM     11  C   UNL     1     -49.791 -24.846  12.245 -0.36 +0.00    +0.101 C  
DOCKED: ENDROOT
DOCKED: BRANCH   2  12
DOCKED: ATOM     12  C   UNL     1     -47.864 -19.428  15.244 -0.07 +0.00    +0.038 C  
DOCKED: BRANCH  12  13
DOCKED: ATOM     13  C   UNL     1     -48.548 -18.611  14.150 -0.14 +0.00    +0.038 C  
DOCKED: BRANCH  13  14
DOCKED: ATOM     14  C   UNL     1     -50.053 -18.516  14.396 -0.10 +0.00    +0.251 C  
DOCKED: BRANCH  14  15
DOCKED: ATOM     15  N   UNL     1     -50.693 -19.798  14.123 -0.16 +0.00    +0.141 N  
DOCKED: ATOM     16  C   UNL     1     -50.712 -20.631  15.326 -0.03 +0.00    +0.285 C  
DOCKED: ATOM     17  C   UNL     1     -52.054 -19.598  13.622 -0.15 +0.00    +0.285 C  
DOCKED: ENDBRANCH  14  15
DOCKED: ENDBRANCH  13  14
DOCKED: ENDBRANCH  12  13
DOCKED: ENDBRANCH   2  12
DOCKED: BRANCH   2  18
DOCKED: ATOM     18  C   UNL     1     -45.850 -19.955  13.881 -0.12 +0.00    +0.006 A  
DOCKED: ATOM     19  C   UNL     1     -44.563 -19.986  14.417 -0.11 +0.00    +0.001 A  
DOCKED: ATOM     20  C   UNL     1     -43.496 -19.449  13.696 -0.09 +0.00    +0.029 A  
DOCKED: ATOM     21  C   UNL     1     -43.716 -18.883  12.441 -0.08 +0.00    +0.140 A  
DOCKED: ATOM     22  C   UNL     1     -45.003 -18.853  11.906 -0.13 +0.00    +0.029 A  
DOCKED: ATOM     23  F   UNL     1     -42.691 -18.369  11.749 -0.01 -0.00    -0.204 F  
DOCKED: ATOM     24  C   UNL     1     -46.072 -19.390  12.626 -0.12 +0.00    +0.001 A  
DOCKED: ENDBRANCH   2  18
DOCKED: TORSDOF 5
DOCKED: TER
DOCKED: ENDMDL
________________________________________________________________________________


    FINAL DOCKED STATE:
    ________________________


Run:   471 / 512
Time taken for this run:   0.002s

DOCKED: MODEL        471
DOCKED: USER    Run = 471
DOCKED: USER
DOCKED: USER    Estimated Free Energy of Binding    =  -4.48 kcal/mol  [=(1)+(2)+(3)-(4)]
DOCKED: USER
DOCKED: USER    (1) Final Intermolecular Energy     =  -5.97 kcal/mol
DOCKED: USER        vdW + Hbond + desolv Energy     =  -5.97 kcal/mol
DOCKED: USER        Electrostatic Energy            =  +0.00 kcal/mol
DOCKED: USER        Moving Ligand-Fixed Receptor    =  -5.97 kcal/mol
DOCKED: USER        Moving Ligand-Moving Receptor   =  +0.00 kcal/mol
DOCKED: USER    (2) Final Total Internal Energy     =  -1.00 kcal/mol
DOCKED: USER    (3) Torsional Free Energy           =  +1.49 kcal/mol
DOCKED: USER    (4) Unbound System's Energy         =  -1.00 kcal/mol
DOCKED: USER
DOCKED: USER
DOCKED: REMARK  5 active torsions:
DOCKED: REMARK  status: ('A' for Active; 'I' for Inactive)
DOCKED: REMARK    1  A    between atoms: C_2  and  C_19 
DOCKED: REMARK    2  A    between atoms: C_2  and  C_11 
DOCKED: REMARK    3  A    between atoms: C_19  and  C_20 
DOCKED: REMARK    4  A    between atoms: C_20  and  C_21 
DOCKED: REMARK    5  A    between atoms: C_21  and  N_22 
DOCKED: USER                              x       y       z     vdW  Elec       q    Type
DOCKED: USER                           _______ _______ _______ _____ _____    ______ ____
DOCKED: ROOT
DOCKED: ATOM      1  O   UNL     1     -47.400 -23.418  15.364 -0.09 -0.00    -0.346 OA 
DOCKED: ATOM      2  C   UNL     1     -48.817 -23.707  15.588 -0.17 +0.00    +0.130 C  
DOCKED: ATOM      3  C   UNL     1     -49.372 -23.873  14.203 -0.25 +0.00    +0.004 A  
DOCKED: ATOM      4  C   UNL     1     -48.343 -23.797  13.275 -0.36 +0.00    +0.006 A  
DOCKED: ATOM      5  C   UNL     1     -47.054 -23.590  13.970 -0.16 +0.00    +0.169 C  
DOCKED: ATOM      6  C   UNL     1     -50.682 -24.087  13.797 -0.25 -0.00    -0.001 A  
DOCKED: ATOM      7  C   UNL     1     -48.586 -23.925  11.918 -0.21 +0.00    +0.008 A  
DOCKED: ATOM      8  C   UNL     1     -50.943 -24.215  12.432 -0.33 +0.00    +0.010 A  
DOCKED: ATOM      9  C   UNL     1     -49.900 -24.135  11.497 -0.40 +0.00    +0.068 A  
DOCKED: ATOM     10  N   UNL     1     -50.419 -24.380   8.971 -2.21 -0.00    -0.191 NA 
DOCKED: ATOM     11  C   UNL     1     -50.186 -24.269  10.104 -0.47 +0.00    +0.101 C  
DOCKED: ENDROOT
DOCKED: BRANCH   2  12
DOCKED: ATOM     12  C   UNL     1     -48.925 -24.975  16.426 -0.26 +0.00    +0.038 C  
DOCKED: BRANCH  12  13
DOCKED: ATOM     13  C   UNL     1     -49.346 -24.660  17.860 -0.20 +0.00    +0.038 C  
DOCKED: BRANCH  13  14
DOCKED: ATOM     14  C   UNL     1     -48.828 -25.720  18.831 -0.07 +0.00    +0.251 C  
DOCKED: BRANCH  14  15
DOCKED: ATOM     15  N   UNL     1     -47.815 -25.150  19.710 -0.14 +0.00    +0.141 N  
DOCKED: ATOM     16  C   UNL     1     -46.650 -24.711  18.940 -0.12 +0.00    +0.285 C  
DOCKED: ATOM     17  C   UNL     1     -48.367 -24.032  20.477 -0.02 +0.00    +0.285 C  
DOCKED: ENDBRANCH  14  15
DOCKED: ENDBRANCH  13  14
DOCKED: ENDBRANCH  12  13
DOCKED: ENDBRANCH   2  12
DOCKED: BRANCH   2  18
DOCKED: ATOM     18  C   UNL     1     -49.393 -22.534  16.308 -0.08 +0.00    +0.006 A  
DOCKED: ATOM     19  C   UNL     1     -48.598 -21.795  17.183 -0.04 +0.00    +0.001 A  
DOCKED: ATOM     20  C   UNL     1     -49.138 -20.699  17.856 -0.01 +0.00    +0.029 A  
DOCKED: ATOM     21  C   UNL     1     -50.471 -20.343  17.654 -0.00 +0.00    +0.140 A  
DOCKED: ATOM     22  C   UNL     1     -51.266 -21.083  16.779 -0.03 +0.00    +0.029 A  
DOCKED: ATOM     23  F   UNL     1     -50.989 -19.290  18.299 +0.00 -0.00    -0.204 F  
DOCKED: ATOM     24  C   UNL     1     -50.726 -22.181  16.105 -0.07 +0.00    +0.001 A  
DOCKED: ENDBRANCH   2  18
DOCKED: TORSDOF 5
DOCKED: TER
DOCKED: ENDMDL
________________________________________________________________________________


    FINAL DOCKED STATE:
    ________________________


Run:   472 / 512
Time taken for this run:   0.002s

DOCKED: MODEL        472
DOCKED: USER    Run = 472
DOCKED: USER
DOCKED: USER    Estimated Free Energy of Binding    =  -3.54 kcal/mol  [=(1)+(2)+(3)-(4)]
DOCKED: USER
DOCKED: USER    (1) Final Intermolecular Energy     =  -5.04 kcal/mol
DOCKED: USER        vdW + Hbond + desolv Energy     =  -5.04 kcal/mol
DOCKED: USER        Electrostatic Energy            =  +0.00 kcal/mol
DOCKED: USER        Moving Ligand-Fixed Receptor    =  -5.04 kcal/mol
DOCKED: USER        Moving Ligand-Moving Receptor   =  +0.00 kcal/mol
DOCKED: USER    (2) Final Total Internal Energy     =  -1.49 kcal/mol
DOCKED: USER    (3) Torsional Free Energy           =  +1.49 kcal/mol
DOCKED: USER    (4) Unbound System's Energy         =  -1.49 kcal/mol
DOCKED: USER
DOCKED: USER
DOCKED: REMARK  5 active torsions:
DOCKED: REMARK  status: ('A' for Active; 'I' for Inactive)
DOCKED: REMARK    1  A    between atoms: C_2  and  C_19 
DOCKED: REMARK    2  A    between atoms: C_2  and  C_11 
DOCKED: REMARK    3  A    between atoms: C_19  and  C_20 
DOCKED: REMARK    4  A    between atoms: C_20  and  C_21 
DOCKED: REMARK    5  A    between atoms: C_21  and  N_22 
DOCKED: USER                              x       y       z     vdW  Elec       q    Type
DOCKED: USER                           _______ _______ _______ _____ _____    ______ ____
DOCKED: ROOT
DOCKED: ATOM      1  O   UNL     1     -41.839 -19.901   7.637 +0.01 -0.00    -0.346 OA 
DOCKED: ATOM      2  C   UNL     1     -41.561 -20.964   6.669 -0.09 +0.00    +0.130 C  
DOCKED: ATOM      3  C   UNL     1     -41.789 -22.227   7.447 -0.14 +0.00    +0.004 A  
DOCKED: ATOM      4  C   UNL     1     -42.263 -21.917   8.714 -0.19 +0.00    +0.006 A  
DOCKED: ATOM      5  C   UNL     1     -42.392 -20.449   8.856 -0.10 +0.00    +0.169 C  
DOCKED: ATOM      6  C   UNL     1     -41.603 -23.547   7.061 -0.15 -0.00    -0.001 A  
DOCKED: ATOM      7  C   UNL     1     -42.561 -22.907   9.635 -0.26 +0.00    +0.008 A  
DOCKED: ATOM      8  C   UNL     1     -41.895 -24.556   7.980 -0.26 +0.00    +0.010 A  
DOCKED: ATOM      9  C   UNL     1     -42.372 -24.238   9.260 -0.31 +0.00    +0.068 A  
DOCKED: ATOM     10  N   UNL     1     -42.910 -26.136  10.939 -2.67 -0.00    -0.191 NA 
DOCKED: ATOM     11  C   UNL     1     -42.668 -25.284  10.186 -0.36 +0.00    +0.101 C  
DOCKED: ENDROOT
DOCKED: BRANCH   2  12
DOCKED: ATOM     12  C   UNL     1     -42.519 -20.809   5.494 -0.10 +0.00    +0.038 C  
DOCKED: BRANCH  12  13
DOCKED: ATOM     13  C   UNL     1     -43.669 -19.863   5.834 -0.16 +0.00    +0.038 C  
DOCKED: BRANCH  13  14
DOCKED: ATOM     14  C   UNL     1     -43.416 -18.467   5.269 -0.13 +0.00    +0.251 C  
DOCKED: BRANCH  14  15
DOCKED: ATOM     15  N   UNL     1     -41.990 -18.259   5.048 -0.03 +0.00    +0.141 N  
DOCKED: ATOM     16  C   UNL     1     -41.724 -17.960   3.640 -0.02 +0.00    +0.285 C  
DOCKED: ATOM     17  C   UNL     1     -41.487 -17.180   5.900 -0.00 +0.00    +0.285 C  
DOCKED: ENDBRANCH  14  15
DOCKED: ENDBRANCH  13  14
DOCKED: ENDBRANCH  12  13
DOCKED: ENDBRANCH   2  12
DOCKED: BRANCH   2  18
DOCKED: ATOM     18  C   UNL     1     -40.143 -20.797   6.234 -0.03 +0.00    +0.006 A  
DOCKED: ATOM     19  C   UNL     1     -39.361 -19.782   6.783 -0.00 +0.00    +0.001 A  
DOCKED: ATOM     20  C   UNL     1     -38.035 -19.627   6.374 -0.00 +0.00    +0.029 A  
DOCKED: ATOM     21  C   UNL     1     -37.495 -20.487   5.419 -0.00 +0.00    +0.140 A  
DOCKED: ATOM     22  C   UNL     1     -38.279 -21.501   4.870 -0.00 +0.00    +0.029 A  
DOCKED: ATOM     23  F   UNL     1     -36.223 -20.339   5.028 +0.00 -0.00    -0.204 F  
DOCKED: ATOM     24  C   UNL     1     -39.605 -21.657   5.278 -0.03 +0.00    +0.001 A  
DOCKED: ENDBRANCH   2  18
DOCKED: TORSDOF 5
DOCKED: TER
DOCKED: ENDMDL
________________________________________________________________________________


    FINAL DOCKED STATE:
    ________________________


Run:   473 / 512
Time taken for this run:   0.002s

DOCKED: MODEL        473
DOCKED: USER    Run = 473
DOCKED: USER
DOCKED: USER    Estimated Free Energy of Binding    =  -4.02 kcal/mol  [=(1)+(2)+(3)-(4)]
DOCKED: USER
DOCKED: USER    (1) Final Intermolecular Energy     =  -5.51 kcal/mol
DOCKED: USER        vdW + Hbond + desolv Energy     =  -5.51 kcal/mol
DOCKED: USER        Electrostatic Energy            =  +0.00 kcal/mol
DOCKED: USER        Moving Ligand-Fixed Receptor    =  -5.51 kcal/mol
DOCKED: USER        Moving Ligand-Moving Receptor   =  +0.00 kcal/mol
DOCKED: USER    (2) Final Total Internal Energy     =  -1.22 kcal/mol
DOCKED: USER    (3) Torsional Free Energy           =  +1.49 kcal/mol
DOCKED: USER    (4) Unbound System's Energy         =  -1.22 kcal/mol
DOCKED: USER
DOCKED: USER
DOCKED: REMARK  5 active torsions:
DOCKED: REMARK  status: ('A' for Active; 'I' for Inactive)
DOCKED: REMARK    1  A    between atoms: C_2  and  C_19 
DOCKED: REMARK    2  A    between atoms: C_2  and  C_11 
DOCKED: REMARK    3  A    between atoms: C_19  and  C_20 
DOCKED: REMARK    4  A    between atoms: C_20  and  C_21 
DOCKED: REMARK    5  A    between atoms: C_21  and  N_22 
DOCKED: USER                              x       y       z     vdW  Elec       q    Type
DOCKED: USER                           _______ _______ _______ _____ _____    ______ ____
DOCKED: ROOT
DOCKED: ATOM      1  O   UNL     1     -40.221 -24.045   4.716 -0.01 -0.00    -0.346 OA 
DOCKED: ATOM      2  C   UNL     1     -40.417 -22.847   5.533 -0.09 +0.00    +0.130 C  
DOCKED: ATOM      3  C   UNL     1     -41.008 -23.374   6.808 -0.12 +0.00    +0.004 A  
DOCKED: ATOM      4  C   UNL     1     -41.045 -24.760   6.768 -0.16 +0.00    +0.006 A  
DOCKED: ATOM      5  C   UNL     1     -40.477 -25.241   5.489 -0.09 +0.00    +0.169 C  
DOCKED: ATOM      6  C   UNL     1     -41.467 -22.681   7.920 -0.13 -0.00    -0.001 A  
DOCKED: ATOM      7  C   UNL     1     -41.542 -25.499   7.829 -0.27 +0.00    +0.008 A  
DOCKED: ATOM      8  C   UNL     1     -41.975 -23.412   8.995 -0.24 +0.00    +0.010 A  
DOCKED: ATOM      9  C   UNL     1     -42.012 -24.813   8.950 -0.30 +0.00    +0.068 A  
DOCKED: ATOM     10  N   UNL     1     -42.956 -26.139  10.966 -2.63 -0.00    -0.191 NA 
DOCKED: ATOM     11  C   UNL     1     -42.533 -25.544  10.061 -0.41 +0.00    +0.101 C  
DOCKED: ENDROOT
DOCKED: BRANCH   2  12
DOCKED: ATOM     12  C   UNL     1     -39.064 -22.177   5.739 -0.02 +0.00    +0.038 C  
DOCKED: BRANCH  12  13
DOCKED: ATOM     13  C   UNL     1     -38.063 -23.131   6.388 -0.01 +0.00    +0.038 C  
DOCKED: BRANCH  13  14
DOCKED: ATOM     14  C   UNL     1     -37.595 -22.600   7.741 -0.00 +0.00    +0.251 C  
DOCKED: BRANCH  14  15
DOCKED: ATOM     15  N   UNL     1     -38.231 -21.320   8.031 -0.00 +0.00    +0.141 N  
DOCKED: ATOM     16  C   UNL     1     -38.594 -21.232   9.446 -0.00 +0.00    +0.285 C  
DOCKED: ATOM     17  C   UNL     1     -37.348 -20.212   7.664 +0.00 +0.00    +0.285 C  
DOCKED: ENDBRANCH  14  15
DOCKED: ENDBRANCH  13  14
DOCKED: ENDBRANCH  12  13
DOCKED: ENDBRANCH   2  12
DOCKED: BRANCH   2  18
DOCKED: ATOM     18  C   UNL     1     -41.350 -21.956   4.784 -0.12 +0.00    +0.006 A  
DOCKED: ATOM     19  C   UNL     1     -41.951 -20.876   5.429 -0.13 +0.00    +0.001 A  
DOCKED: ATOM     20  C   UNL     1     -42.824 -20.044   4.727 -0.18 +0.00    +0.029 A  
DOCKED: ATOM     21  C   UNL     1     -43.094 -20.291   3.382 -0.18 +0.00    +0.140 A  
DOCKED: ATOM     22  C   UNL     1     -42.492 -21.371   2.737 -0.18 +0.00    +0.029 A  
DOCKED: ATOM     23  F   UNL     1     -43.930 -19.491   2.708 -0.13 -0.00    -0.204 F  
DOCKED: ATOM     24  C   UNL     1     -41.619 -22.205   3.438 -0.09 +0.00    +0.001 A  
DOCKED: ENDBRANCH   2  18
DOCKED: TORSDOF 5
DOCKED: TER
DOCKED: ENDMDL
________________________________________________________________________________


    FINAL DOCKED STATE:
    ________________________


Run:   474 / 512
Time taken for this run:   0.002s

DOCKED: MODEL        474
DOCKED: USER    Run = 474
DOCKED: USER
DOCKED: USER    Estimated Free Energy of Binding    =  -4.74 kcal/mol  [=(1)+(2)+(3)-(4)]
DOCKED: USER
DOCKED: USER    (1) Final Intermolecular Energy     =  -6.23 kcal/mol
DOCKED: USER        vdW + Hbond + desolv Energy     =  -6.23 kcal/mol
DOCKED: USER        Electrostatic Energy            =  +0.00 kcal/mol
DOCKED: USER        Moving Ligand-Fixed Receptor    =  -6.23 kcal/mol
DOCKED: USER        Moving Ligand-Moving Receptor   =  +0.00 kcal/mol
DOCKED: USER    (2) Final Total Internal Energy     =  -1.27 kcal/mol
DOCKED: USER    (3) Torsional Free Energy           =  +1.49 kcal/mol
DOCKED: USER    (4) Unbound System's Energy         =  -1.27 kcal/mol
DOCKED: USER
DOCKED: USER
DOCKED: REMARK  5 active torsions:
DOCKED: REMARK  status: ('A' for Active; 'I' for Inactive)
DOCKED: REMARK    1  A    between atoms: C_2  and  C_19 
DOCKED: REMARK    2  A    between atoms: C_2  and  C_11 
DOCKED: REMARK    3  A    between atoms: C_19  and  C_20 
DOCKED: REMARK    4  A    between atoms: C_20  and  C_21 
DOCKED: REMARK    5  A    between atoms: C_21  and  N_22 
DOCKED: USER                              x       y       z     vdW  Elec       q    Type
DOCKED: USER                           _______ _______ _______ _____ _____    ______ ____
DOCKED: ROOT
DOCKED: ATOM      1  O   UNL     1     -49.107 -24.211  15.961 -0.08 -0.00    -0.346 OA 
DOCKED: ATOM      2  C   UNL     1     -48.760 -22.887  15.442 -0.13 +0.00    +0.130 C  
DOCKED: ATOM      3  C   UNL     1     -49.041 -22.993  13.971 -0.25 +0.00    +0.004 A  
DOCKED: ATOM      4  C   UNL     1     -49.602 -24.230  13.690 -0.28 +0.00    +0.006 A  
DOCKED: ATOM      5  C   UNL     1     -49.743 -25.013  14.938 -0.14 +0.00    +0.169 C  
DOCKED: ATOM      6  C   UNL     1     -48.826 -22.063  12.963 -0.32 -0.00    -0.001 A  
DOCKED: ATOM      7  C   UNL     1     -49.963 -24.582  12.401 -0.39 +0.00    +0.008 A  
DOCKED: ATOM      8  C   UNL     1     -49.181 -22.405  11.657 -0.20 +0.00    +0.010 A  
DOCKED: ATOM      9  C   UNL     1     -49.747 -23.658  11.378 -0.39 +0.00    +0.068 A  
DOCKED: ATOM     10  N   UNL     1     -50.398 -24.258   8.943 -2.29 -0.00    -0.191 NA 
DOCKED: ATOM     11  C   UNL     1     -50.106 -23.989  10.035 -0.48 +0.00    +0.101 C  
DOCKED: ENDROOT
DOCKED: BRANCH   2  12
DOCKED: ATOM     12  C   UNL     1     -49.634 -21.851  16.140 -0.07 +0.00    +0.038 C  
DOCKED: BRANCH  12  13
DOCKED: ATOM     13  C   UNL     1     -51.080 -21.922  15.652 -0.09 +0.00    +0.038 C  
DOCKED: BRANCH  13  14
DOCKED: ATOM     14  C   UNL     1     -51.634 -20.527  15.369 -0.04 +0.00    +0.251 C  
DOCKED: BRANCH  14  15
DOCKED: ATOM     15  N   UNL     1     -50.776 -19.823  14.424 -0.12 +0.00    +0.141 N  
DOCKED: ATOM     16  C   UNL     1     -51.573 -19.215  13.358 -0.14 +0.00    +0.285 C  
DOCKED: ATOM     17  C   UNL     1     -49.982 -18.801  15.110 -0.04 +0.00    +0.285 C  
DOCKED: ENDBRANCH  14  15
DOCKED: ENDBRANCH  13  14
DOCKED: ENDBRANCH  12  13
DOCKED: ENDBRANCH   2  12
DOCKED: BRANCH   2  18
DOCKED: ATOM     18  C   UNL     1     -47.316 -22.664  15.744 -0.16 +0.00    +0.006 A  
DOCKED: ATOM     19  C   UNL     1     -46.347 -22.998  14.799 -0.21 +0.00    +0.001 A  
DOCKED: ATOM     20  C   UNL     1     -44.997 -22.789  15.083 -0.15 +0.00    +0.029 A  
DOCKED: ATOM     21  C   UNL     1     -44.618 -22.248  16.310 -0.10 +0.00    +0.140 A  
DOCKED: ATOM     22  C   UNL     1     -45.588 -21.914  17.255 -0.07 +0.00    +0.029 A  
DOCKED: ATOM     23  F   UNL     1     -43.322 -22.046  16.582 -0.01 -0.00    -0.204 F  
DOCKED: ATOM     24  C   UNL     1     -46.938 -22.123  16.972 -0.09 +0.00    +0.001 A  
DOCKED: ENDBRANCH   2  18
DOCKED: TORSDOF 5
DOCKED: TER
DOCKED: ENDMDL
________________________________________________________________________________


    FINAL DOCKED STATE:
    ________________________


Run:   475 / 512
Time taken for this run:   0.002s

DOCKED: MODEL        475
DOCKED: USER    Run = 475
DOCKED: USER
DOCKED: USER    Estimated Free Energy of Binding    =  -5.10 kcal/mol  [=(1)+(2)+(3)-(4)]
DOCKED: USER
DOCKED: USER    (1) Final Intermolecular Energy     =  -6.59 kcal/mol
DOCKED: USER        vdW + Hbond + desolv Energy     =  -6.59 kcal/mol
DOCKED: USER        Electrostatic Energy            =  +0.00 kcal/mol
DOCKED: USER        Moving Ligand-Fixed Receptor    =  -6.59 kcal/mol
DOCKED: USER        Moving Ligand-Moving Receptor   =  +0.00 kcal/mol
DOCKED: USER    (2) Final Total Internal Energy     =  -1.24 kcal/mol
DOCKED: USER    (3) Torsional Free Energy           =  +1.49 kcal/mol
DOCKED: USER    (4) Unbound System's Energy         =  -1.24 kcal/mol
DOCKED: USER
DOCKED: USER
DOCKED: REMARK  5 active torsions:
DOCKED: REMARK  status: ('A' for Active; 'I' for Inactive)
DOCKED: REMARK    1  A    between atoms: C_2  and  C_19 
DOCKED: REMARK    2  A    between atoms: C_2  and  C_11 
DOCKED: REMARK    3  A    between atoms: C_19  and  C_20 
DOCKED: REMARK    4  A    between atoms: C_20  and  C_21 
DOCKED: REMARK    5  A    between atoms: C_21  and  N_22 
DOCKED: USER                              x       y       z     vdW  Elec       q    Type
DOCKED: USER                           _______ _______ _______ _____ _____    ______ ____
DOCKED: ROOT
DOCKED: ATOM      1  O   UNL     1     -49.460 -24.302  15.799 -0.09 -0.00    -0.346 OA 
DOCKED: ATOM      2  C   UNL     1     -48.942 -23.015  15.334 -0.13 +0.00    +0.130 C  
DOCKED: ATOM      3  C   UNL     1     -49.162 -23.055  13.849 -0.26 +0.00    +0.004 A  
DOCKED: ATOM      4  C   UNL     1     -49.845 -24.214  13.509 -0.29 +0.00    +0.006 A  
DOCKED: ATOM      5  C   UNL     1     -50.132 -25.003  14.727 -0.14 +0.00    +0.169 C  
DOCKED: ATOM      6  C   UNL     1     -48.796 -22.134  12.878 -0.33 -0.00    -0.001 A  
DOCKED: ATOM      7  C   UNL     1     -50.180 -24.494  12.195 -0.40 +0.00    +0.008 A  
DOCKED: ATOM      8  C   UNL     1     -49.123 -22.404  11.548 -0.12 +0.00    +0.010 A  
DOCKED: ATOM      9  C   UNL     1     -49.812 -23.577  11.209 -0.39 +0.00    +0.068 A  
DOCKED: ATOM     10  N   UNL     1     -50.408 -24.045   8.731 -2.54 -0.00    -0.191 NA 
DOCKED: ATOM     11  C   UNL     1     -50.140 -23.836   9.842 -0.45 +0.00    +0.101 C  
DOCKED: ENDROOT
DOCKED: BRANCH   2  12
DOCKED: ATOM     12  C   UNL     1     -49.727 -21.902  16.019 -0.08 +0.00    +0.038 C  
DOCKED: BRANCH  12  13
DOCKED: ATOM     13  C   UNL     1     -49.200 -20.524  15.624 -0.07 +0.00    +0.038 C  
DOCKED: BRANCH  13  14
DOCKED: ATOM     14  C   UNL     1     -50.346 -19.581  15.261 -0.05 +0.00    +0.251 C  
DOCKED: BRANCH  14  15
DOCKED: ATOM     15  N   UNL     1     -50.717 -19.750  13.861 -0.18 +0.00    +0.141 N  
DOCKED: ATOM     16  C   UNL     1     -51.925 -20.568  13.742 -0.13 +0.00    +0.285 C  
DOCKED: ATOM     17  C   UNL     1     -50.920 -18.449  13.221 -0.15 +0.00    +0.285 C  
DOCKED: ENDBRANCH  14  15
DOCKED: ENDBRANCH  13  14
DOCKED: ENDBRANCH  12  13
DOCKED: ENDBRANCH   2  12
DOCKED: BRANCH   2  18
DOCKED: ATOM     18  C   UNL     1     -47.499 -22.964  15.707 -0.18 +0.00    +0.006 A  
DOCKED: ATOM     19  C   UNL     1     -46.519 -23.069  14.720 -0.23 +0.00    +0.001 A  
DOCKED: ATOM     20  C   UNL     1     -45.170 -23.022  15.071 -0.09 +0.00    +0.029 A  
DOCKED: ATOM     21  C   UNL     1     -44.801 -22.871  16.407 -0.06 +0.00    +0.140 A  
DOCKED: ATOM     22  C   UNL     1     -45.781 -22.766  17.394 -0.10 +0.00    +0.029 A  
DOCKED: ATOM     23  F   UNL     1     -43.506 -22.824  16.743 -0.02 -0.00    -0.204 F  
DOCKED: ATOM     24  C   UNL     1     -47.132 -22.813  17.044 -0.11 +0.00    +0.001 A  
DOCKED: ENDBRANCH   2  18
DOCKED: TORSDOF 5
DOCKED: TER
DOCKED: ENDMDL
________________________________________________________________________________


    FINAL DOCKED STATE:
    ________________________


Run:   476 / 512
Time taken for this run:   0.002s

DOCKED: MODEL        476
DOCKED: USER    Run = 476
DOCKED: USER
DOCKED: USER    Estimated Free Energy of Binding    =  -4.67 kcal/mol  [=(1)+(2)+(3)-(4)]
DOCKED: USER
DOCKED: USER    (1) Final Intermolecular Energy     =  -6.16 kcal/mol
DOCKED: USER        vdW + Hbond + desolv Energy     =  -6.16 kcal/mol
DOCKED: USER        Electrostatic Energy            =  +0.00 kcal/mol
DOCKED: USER        Moving Ligand-Fixed Receptor    =  -6.16 kcal/mol
DOCKED: USER        Moving Ligand-Moving Receptor   =  +0.00 kcal/mol
DOCKED: USER    (2) Final Total Internal Energy     =  -1.38 kcal/mol
DOCKED: USER    (3) Torsional Free Energy           =  +1.49 kcal/mol
DOCKED: USER    (4) Unbound System's Energy         =  -1.38 kcal/mol
DOCKED: USER
DOCKED: USER
DOCKED: REMARK  5 active torsions:
DOCKED: REMARK  status: ('A' for Active; 'I' for Inactive)
DOCKED: REMARK    1  A    between atoms: C_2  and  C_19 
DOCKED: REMARK    2  A    between atoms: C_2  and  C_11 
DOCKED: REMARK    3  A    between atoms: C_19  and  C_20 
DOCKED: REMARK    4  A    between atoms: C_20  and  C_21 
DOCKED: REMARK    5  A    between atoms: C_21  and  N_22 
DOCKED: USER                              x       y       z     vdW  Elec       q    Type
DOCKED: USER                           _______ _______ _______ _____ _____    ______ ____
DOCKED: ROOT
DOCKED: ATOM      1  O   UNL     1     -47.954 -18.889  13.417 -0.08 -0.00    -0.346 OA 
DOCKED: ATOM      2  C   UNL     1     -49.289 -18.985  14.009 -0.16 +0.00    +0.130 C  
DOCKED: ATOM      3  C   UNL     1     -49.733 -20.379  13.669 -0.22 +0.00    +0.004 A  
DOCKED: ATOM      4  C   UNL     1     -48.701 -21.056  13.035 -0.25 +0.00    +0.006 A  
DOCKED: ATOM      5  C   UNL     1     -47.516 -20.177  12.925 -0.12 +0.00    +0.169 C  
DOCKED: ATOM      6  C   UNL     1     -50.950 -21.000  13.911 -0.21 -0.00    -0.001 A  
DOCKED: ATOM      7  C   UNL     1     -48.849 -22.369  12.620 -0.34 +0.00    +0.008 A  
DOCKED: ATOM      8  C   UNL     1     -51.116 -22.322  13.495 -0.22 +0.00    +0.010 A  
DOCKED: ATOM      9  C   UNL     1     -50.070 -23.003  12.853 -0.26 +0.00    +0.068 A  
DOCKED: ATOM     10  N   UNL     1     -50.410 -25.458  12.097 -2.56 -0.00    -0.191 NA 
DOCKED: ATOM     11  C   UNL     1     -50.258 -24.357  12.436 -0.36 +0.00    +0.101 C  
DOCKED: ENDROOT
DOCKED: BRANCH   2  12
DOCKED: ATOM     12  C   UNL     1     -49.169 -18.751  15.510 -0.05 +0.00    +0.038 C  
DOCKED: BRANCH  12  13
DOCKED: ATOM     13  C   UNL     1     -48.862 -20.049  16.254 -0.04 +0.00    +0.038 C  
DOCKED: BRANCH  13  14
DOCKED: ATOM     14  C   UNL     1     -47.370 -20.372  16.201 -0.03 +0.00    +0.251 C  
DOCKED: BRANCH  14  15
DOCKED: ATOM     15  N   UNL     1     -47.161 -21.726  15.703 -0.09 +0.00    +0.141 N  
DOCKED: ATOM     16  C   UNL     1     -45.748 -22.098  15.795 -0.10 +0.00    +0.285 C  
DOCKED: ATOM     17  C   UNL     1     -47.987 -22.681  16.444 -0.06 +0.00    +0.285 C  
DOCKED: ENDBRANCH  14  15
DOCKED: ENDBRANCH  13  14
DOCKED: ENDBRANCH  12  13
DOCKED: ENDBRANCH   2  12
DOCKED: BRANCH   2  18
DOCKED: ATOM     18  C   UNL     1     -50.129 -17.934  13.365 -0.20 +0.00    +0.006 A  
DOCKED: ATOM     19  C   UNL     1     -49.542 -16.997  12.515 -0.16 +0.00    +0.001 A  
DOCKED: ATOM     20  C   UNL     1     -50.329 -16.014  11.913 -0.15 +0.00    +0.029 A  
DOCKED: ATOM     21  C   UNL     1     -51.700 -15.969  12.162 -0.11 +0.00    +0.140 A  
DOCKED: ATOM     22  C   UNL     1     -52.286 -16.906  13.012 -0.17 +0.00    +0.029 A  
DOCKED: ATOM     23  F   UNL     1     -52.455 -15.026  11.583 -0.02 -0.00    -0.204 F  
DOCKED: ATOM     24  C   UNL     1     -51.500 -17.890  13.614 -0.21 +0.00    +0.001 A  
DOCKED: ENDBRANCH   2  18
DOCKED: TORSDOF 5
DOCKED: TER
DOCKED: ENDMDL
________________________________________________________________________________


    FINAL DOCKED STATE:
    ________________________


Run:   477 / 512
Time taken for this run:   0.002s

DOCKED: MODEL        477
DOCKED: USER    Run = 477
DOCKED: USER
DOCKED: USER    Estimated Free Energy of Binding    =  -3.82 kcal/mol  [=(1)+(2)+(3)-(4)]
DOCKED: USER
DOCKED: USER    (1) Final Intermolecular Energy     =  -5.31 kcal/mol
DOCKED: USER        vdW + Hbond + desolv Energy     =  -5.31 kcal/mol
DOCKED: USER        Electrostatic Energy            =  +0.00 kcal/mol
DOCKED: USER        Moving Ligand-Fixed Receptor    =  -5.31 kcal/mol
DOCKED: USER        Moving Ligand-Moving Receptor   =  +0.00 kcal/mol
DOCKED: USER    (2) Final Total Internal Energy     =  -1.25 kcal/mol
DOCKED: USER    (3) Torsional Free Energy           =  +1.49 kcal/mol
DOCKED: USER    (4) Unbound System's Energy         =  -1.25 kcal/mol
DOCKED: USER
DOCKED: USER
DOCKED: REMARK  5 active torsions:
DOCKED: REMARK  status: ('A' for Active; 'I' for Inactive)
DOCKED: REMARK    1  A    between atoms: C_2  and  C_19 
DOCKED: REMARK    2  A    between atoms: C_2  and  C_11 
DOCKED: REMARK    3  A    between atoms: C_19  and  C_20 
DOCKED: REMARK    4  A    between atoms: C_20  and  C_21 
DOCKED: REMARK    5  A    between atoms: C_21  and  N_22 
DOCKED: USER                              x       y       z     vdW  Elec       q    Type
DOCKED: USER                           _______ _______ _______ _____ _____    ______ ____
DOCKED: ROOT
DOCKED: ATOM      1  O   UNL     1     -47.380 -20.140  15.495 -0.01 -0.00    -0.346 OA 
DOCKED: ATOM      2  C   UNL     1     -48.675 -19.740  14.944 -0.08 +0.00    +0.130 C  
DOCKED: ATOM      3  C   UNL     1     -49.148 -20.963  14.212 -0.19 +0.00    +0.004 A  
DOCKED: ATOM      4  C   UNL     1     -48.255 -22.005  14.419 -0.20 +0.00    +0.006 A  
DOCKED: ATOM      5  C   UNL     1     -47.153 -21.555  15.299 -0.12 +0.00    +0.169 C  
DOCKED: ATOM      6  C   UNL     1     -50.283 -21.142  13.435 -0.22 -0.00    -0.001 A  
DOCKED: ATOM      7  C   UNL     1     -48.461 -23.253  13.856 -0.30 +0.00    +0.008 A  
DOCKED: ATOM      8  C   UNL     1     -50.503 -22.393  12.857 -0.24 +0.00    +0.010 A  
DOCKED: ATOM      9  C   UNL     1     -49.596 -23.443  13.067 -0.27 +0.00    +0.068 A  
DOCKED: ATOM     10  N   UNL     1     -50.037 -25.755  11.983 -2.55 -0.00    -0.191 NA 
DOCKED: ATOM     11  C   UNL     1     -49.839 -24.718  12.469 -0.34 +0.00    +0.101 C  
DOCKED: ENDROOT
DOCKED: BRANCH   2  12
DOCKED: ATOM     12  C   UNL     1     -49.591 -19.349  16.099 -0.04 +0.00    +0.038 C  
DOCKED: BRANCH  12  13
DOCKED: ATOM     13  C   UNL     1     -48.794 -18.790  17.276 -0.01 +0.00    +0.038 C  
DOCKED: BRANCH  13  14
DOCKED: ATOM     14  C   UNL     1     -48.640 -19.833  18.381 -0.00 +0.00    +0.251 C  
DOCKED: BRANCH  14  15
DOCKED: ATOM     15  N   UNL     1     -47.374 -19.649  19.079 -0.00 +0.00    +0.141 N  
DOCKED: ATOM     16  C   UNL     1     -47.434 -20.236  20.419 -0.00 +0.00    +0.285 C  
DOCKED: ATOM     17  C   UNL     1     -46.273 -20.238  18.315 -0.00 +0.00    +0.285 C  
DOCKED: ENDBRANCH  14  15
DOCKED: ENDBRANCH  13  14
DOCKED: ENDBRANCH  12  13
DOCKED: ENDBRANCH   2  12
DOCKED: BRANCH   2  18
DOCKED: ATOM     18  C   UNL     1     -48.425 -18.581  14.039 -0.13 +0.00    +0.006 A  
DOCKED: ATOM     19  C   UNL     1     -47.239 -18.510  13.309 -0.15 +0.00    +0.001 A  
DOCKED: ATOM     20  C   UNL     1     -47.006 -17.425  12.464 -0.10 +0.00    +0.029 A  
DOCKED: ATOM     21  C   UNL     1     -47.958 -16.413  12.348 -0.09 +0.00    +0.140 A  
DOCKED: ATOM     22  C   UNL     1     -49.144 -16.485  13.078 -0.12 +0.00    +0.029 A  
DOCKED: ATOM     23  F   UNL     1     -47.735 -15.373  11.535 -0.02 -0.00    -0.204 F  
DOCKED: ATOM     24  C   UNL     1     -49.378 -17.570  13.925 -0.13 +0.00    +0.001 A  
DOCKED: ENDBRANCH   2  18
DOCKED: TORSDOF 5
DOCKED: TER
DOCKED: ENDMDL
________________________________________________________________________________


    FINAL DOCKED STATE:
    ________________________


Run:   478 / 512
Time taken for this run:   0.002s

DOCKED: MODEL        478
DOCKED: USER    Run = 478
DOCKED: USER
DOCKED: USER    Estimated Free Energy of Binding    =  -5.05 kcal/mol  [=(1)+(2)+(3)-(4)]
DOCKED: USER
DOCKED: USER    (1) Final Intermolecular Energy     =  -6.54 kcal/mol
DOCKED: USER        vdW + Hbond + desolv Energy     =  -6.54 kcal/mol
DOCKED: USER        Electrostatic Energy            =  +0.00 kcal/mol
DOCKED: USER        Moving Ligand-Fixed Receptor    =  -6.54 kcal/mol
DOCKED: USER        Moving Ligand-Moving Receptor   =  +0.00 kcal/mol
DOCKED: USER    (2) Final Total Internal Energy     =  -1.00 kcal/mol
DOCKED: USER    (3) Torsional Free Energy           =  +1.49 kcal/mol
DOCKED: USER    (4) Unbound System's Energy         =  -1.00 kcal/mol
DOCKED: USER
DOCKED: USER
DOCKED: REMARK  5 active torsions:
DOCKED: REMARK  status: ('A' for Active; 'I' for Inactive)
DOCKED: REMARK    1  A    between atoms: C_2  and  C_19 
DOCKED: REMARK    2  A    between atoms: C_2  and  C_11 
DOCKED: REMARK    3  A    between atoms: C_19  and  C_20 
DOCKED: REMARK    4  A    between atoms: C_20  and  C_21 
DOCKED: REMARK    5  A    between atoms: C_21  and  N_22 
DOCKED: USER                              x       y       z     vdW  Elec       q    Type
DOCKED: USER                           _______ _______ _______ _____ _____    ______ ____
DOCKED: ROOT
DOCKED: ATOM      1  O   UNL     1     -51.706 -23.160  15.173 -0.00 -0.00    -0.346 OA 
DOCKED: ATOM      2  C   UNL     1     -50.476 -22.445  14.832 -0.11 +0.00    +0.130 C  
DOCKED: ATOM      3  C   UNL     1     -50.277 -22.747  13.375 -0.25 +0.00    +0.004 A  
DOCKED: ATOM      4  C   UNL     1     -51.355 -23.477  12.898 -0.28 +0.00    +0.006 A  
DOCKED: ATOM      5  C   UNL     1     -52.335 -23.696  13.986 -0.16 +0.00    +0.169 C  
DOCKED: ATOM      6  C   UNL     1     -49.230 -22.393  12.536 -0.35 -0.00    -0.001 A  
DOCKED: ATOM      7  C   UNL     1     -51.423 -23.881  11.575 -0.33 +0.00    +0.008 A  
DOCKED: ATOM      8  C   UNL     1     -49.282 -22.796  11.201 -0.28 +0.00    +0.010 A  
DOCKED: ATOM      9  C   UNL     1     -50.373 -23.536  10.723 -0.32 +0.00    +0.068 A  
DOCKED: ATOM     10  N   UNL     1     -50.441 -24.265   8.238 -2.99 -0.00    -0.191 NA 
DOCKED: ATOM     11  C   UNL     1     -50.410 -23.939   9.353 -0.26 +0.00    +0.101 C  
DOCKED: ENDROOT
DOCKED: BRANCH   2  12
DOCKED: ATOM     12  C   UNL     1     -50.688 -20.961  15.108 -0.11 +0.00    +0.038 C  
DOCKED: BRANCH  12  13
DOCKED: ATOM     13  C   UNL     1     -49.744 -20.099  14.272 -0.19 +0.00    +0.038 C  
DOCKED: BRANCH  13  14
DOCKED: ATOM     14  C   UNL     1     -49.036 -19.060  15.139 -0.04 +0.00    +0.251 C  
DOCKED: BRANCH  14  15
DOCKED: ATOM     15  N   UNL     1     -49.491 -19.158  16.521 -0.01 +0.00    +0.141 N  
DOCKED: ATOM     16  C   UNL     1     -48.435 -19.709  17.373 -0.00 +0.00    +0.285 C  
DOCKED: ATOM     17  C   UNL     1     -49.914 -17.849  17.020 -0.00 +0.00    +0.285 C  
DOCKED: ENDBRANCH  14  15
DOCKED: ENDBRANCH  13  14
DOCKED: ENDBRANCH  12  13
DOCKED: ENDBRANCH   2  12
DOCKED: BRANCH   2  18
DOCKED: ATOM     18  C   UNL     1     -49.393 -23.003  15.695 -0.12 +0.00    +0.006 A  
DOCKED: ATOM     19  C   UNL     1     -48.086 -22.536  15.562 -0.14 +0.00    +0.001 A  
DOCKED: ATOM     20  C   UNL     1     -47.075 -23.059  16.369 -0.14 +0.00    +0.029 A  
DOCKED: ATOM     21  C   UNL     1     -47.372 -24.047  17.307 -0.06 +0.00    +0.140 A  
DOCKED: ATOM     22  C   UNL     1     -48.680 -24.513  17.440 -0.20 +0.00    +0.029 A  
DOCKED: ATOM     23  F   UNL     1     -46.402 -24.547  18.083 -0.01 -0.00    -0.204 F  
DOCKED: ATOM     24  C   UNL     1     -49.692 -23.991  16.633 -0.17 +0.00    +0.001 A  
DOCKED: ENDBRANCH   2  18
DOCKED: TORSDOF 5
DOCKED: TER
DOCKED: ENDMDL
________________________________________________________________________________


    FINAL DOCKED STATE:
    ________________________


Run:   479 / 512
Time taken for this run:   0.002s

DOCKED: MODEL        479
DOCKED: USER    Run = 479
DOCKED: USER
DOCKED: USER    Estimated Free Energy of Binding    =  -4.66 kcal/mol  [=(1)+(2)+(3)-(4)]
DOCKED: USER
DOCKED: USER    (1) Final Intermolecular Energy     =  -6.15 kcal/mol
DOCKED: USER        vdW + Hbond + desolv Energy     =  -6.15 kcal/mol
DOCKED: USER        Electrostatic Energy            =  +0.00 kcal/mol
DOCKED: USER        Moving Ligand-Fixed Receptor    =  -6.15 kcal/mol
DOCKED: USER        Moving Ligand-Moving Receptor   =  +0.00 kcal/mol
DOCKED: USER    (2) Final Total Internal Energy     =  -1.36 kcal/mol
DOCKED: USER    (3) Torsional Free Energy           =  +1.49 kcal/mol
DOCKED: USER    (4) Unbound System's Energy         =  -1.36 kcal/mol
DOCKED: USER
DOCKED: USER
DOCKED: REMARK  5 active torsions:
DOCKED: REMARK  status: ('A' for Active; 'I' for Inactive)
DOCKED: REMARK    1  A    between atoms: C_2  and  C_19 
DOCKED: REMARK    2  A    between atoms: C_2  and  C_11 
DOCKED: REMARK    3  A    between atoms: C_19  and  C_20 
DOCKED: REMARK    4  A    between atoms: C_20  and  C_21 
DOCKED: REMARK    5  A    between atoms: C_21  and  N_22 
DOCKED: USER                              x       y       z     vdW  Elec       q    Type
DOCKED: USER                           _______ _______ _______ _____ _____    ______ ____
DOCKED: ROOT
DOCKED: ATOM      1  O   UNL     1     -48.112 -19.230  13.524 -0.09 -0.00    -0.346 OA 
DOCKED: ATOM      2  C   UNL     1     -49.427 -19.423  14.137 -0.16 +0.00    +0.130 C  
DOCKED: ATOM      3  C   UNL     1     -49.831 -20.800  13.695 -0.23 +0.00    +0.004 A  
DOCKED: ATOM      4  C   UNL     1     -48.792 -21.386  12.986 -0.28 +0.00    +0.006 A  
DOCKED: ATOM      5  C   UNL     1     -47.641 -20.457  12.920 -0.11 +0.00    +0.169 C  
DOCKED: ATOM      6  C   UNL     1     -51.018 -21.483  13.914 -0.20 -0.00    -0.001 A  
DOCKED: ATOM      7  C   UNL     1     -48.904 -22.665  12.469 -0.36 +0.00    +0.008 A  
DOCKED: ATOM      8  C   UNL     1     -51.148 -22.773  13.395 -0.23 +0.00    +0.010 A  
DOCKED: ATOM      9  C   UNL     1     -50.096 -23.361  12.677 -0.28 +0.00    +0.068 A  
DOCKED: ATOM     10  N   UNL     1     -50.369 -25.758  11.733 -2.37 -0.00    -0.191 NA 
DOCKED: ATOM     11  C   UNL     1     -50.247 -24.683  12.156 -0.39 +0.00    +0.101 C  
DOCKED: ENDROOT
DOCKED: BRANCH   2  12
DOCKED: ATOM     12  C   UNL     1     -49.277 -19.305  15.649 -0.06 +0.00    +0.038 C  
DOCKED: BRANCH  12  13
DOCKED: ATOM     13  C   UNL     1     -47.927 -19.842  16.119 -0.04 +0.00    +0.038 C  
DOCKED: BRANCH  13  14
DOCKED: ATOM     14  C   UNL     1     -48.036 -21.306  16.541 -0.03 +0.00    +0.251 C  
DOCKED: BRANCH  14  15
DOCKED: ATOM     15  N   UNL     1     -46.776 -22.000  16.297 -0.08 +0.00    +0.141 N  
DOCKED: ATOM     16  C   UNL     1     -46.964 -23.087  15.336 -0.13 +0.00    +0.285 C  
DOCKED: ATOM     17  C   UNL     1     -45.759 -21.065  15.814 -0.07 +0.00    +0.285 C  
DOCKED: ENDBRANCH  14  15
DOCKED: ENDBRANCH  13  14
DOCKED: ENDBRANCH  12  13
DOCKED: ENDBRANCH   2  12
DOCKED: BRANCH   2  18
DOCKED: ATOM     18  C   UNL     1     -50.319 -18.354  13.599 -0.21 +0.00    +0.006 A  
DOCKED: ATOM     19  C   UNL     1     -51.689 -18.397  13.854 -0.21 +0.00    +0.001 A  
DOCKED: ATOM     20  C   UNL     1     -52.523 -17.398  13.351 -0.18 +0.00    +0.029 A  
DOCKED: ATOM     21  C   UNL     1     -51.986 -16.358  12.594 -0.11 +0.00    +0.140 A  
DOCKED: ATOM     22  C   UNL     1     -50.615 -16.315  12.339 -0.15 +0.00    +0.029 A  
DOCKED: ATOM     23  F   UNL     1     -52.785 -15.398  12.112 -0.02 -0.00    -0.204 F  
DOCKED: ATOM     24  C   UNL     1     -49.780 -17.315  12.842 -0.18 +0.00    +0.001 A  
DOCKED: ENDBRANCH   2  18
DOCKED: TORSDOF 5
DOCKED: TER
DOCKED: ENDMDL
________________________________________________________________________________


    FINAL DOCKED STATE:
    ________________________


Run:   480 / 512
Time taken for this run:   0.002s

DOCKED: MODEL        480
DOCKED: USER    Run = 480
DOCKED: USER
DOCKED: USER    Estimated Free Energy of Binding    =  -4.18 kcal/mol  [=(1)+(2)+(3)-(4)]
DOCKED: USER
DOCKED: USER    (1) Final Intermolecular Energy     =  -5.67 kcal/mol
DOCKED: USER        vdW + Hbond + desolv Energy     =  -5.67 kcal/mol
DOCKED: USER        Electrostatic Energy            =  +0.00 kcal/mol
DOCKED: USER        Moving Ligand-Fixed Receptor    =  -5.67 kcal/mol
DOCKED: USER        Moving Ligand-Moving Receptor   =  +0.00 kcal/mol
DOCKED: USER    (2) Final Total Internal Energy     =  -0.98 kcal/mol
DOCKED: USER    (3) Torsional Free Energy           =  +1.49 kcal/mol
DOCKED: USER    (4) Unbound System's Energy         =  -0.98 kcal/mol
DOCKED: USER
DOCKED: USER
DOCKED: REMARK  5 active torsions:
DOCKED: REMARK  status: ('A' for Active; 'I' for Inactive)
DOCKED: REMARK    1  A    between atoms: C_2  and  C_19 
DOCKED: REMARK    2  A    between atoms: C_2  and  C_11 
DOCKED: REMARK    3  A    between atoms: C_19  and  C_20 
DOCKED: REMARK    4  A    between atoms: C_20  and  C_21 
DOCKED: REMARK    5  A    between atoms: C_21  and  N_22 
DOCKED: USER                              x       y       z     vdW  Elec       q    Type
DOCKED: USER                           _______ _______ _______ _____ _____    ______ ____
DOCKED: ROOT
DOCKED: ATOM      1  O   UNL     1     -50.132 -18.758  14.134 -0.07 -0.00    -0.346 OA 
DOCKED: ATOM      2  C   UNL     1     -48.749 -19.216  13.998 -0.15 +0.00    +0.130 C  
DOCKED: ATOM      3  C   UNL     1     -48.885 -20.655  13.591 -0.24 +0.00    +0.004 A  
DOCKED: ATOM      4  C   UNL     1     -50.225 -20.962  13.402 -0.22 +0.00    +0.006 A  
DOCKED: ATOM      5  C   UNL     1     -51.055 -19.764  13.655 -0.20 +0.00    +0.169 C  
DOCKED: ATOM      6  C   UNL     1     -47.900 -21.612  13.392 -0.24 -0.00    -0.001 A  
DOCKED: ATOM      7  C   UNL     1     -50.626 -22.229  13.015 -0.21 +0.00    +0.008 A  
DOCKED: ATOM      8  C   UNL     1     -48.289 -22.895  13.005 -0.31 +0.00    +0.010 A  
DOCKED: ATOM      9  C   UNL     1     -49.645 -23.202  12.817 -0.29 +0.00    +0.068 A  
DOCKED: ATOM     10  N   UNL     1     -50.332 -25.594  12.094 -2.55 -0.00    -0.191 NA 
DOCKED: ATOM     11  C   UNL     1     -50.024 -24.521  12.419 -0.38 +0.00    +0.101 C  
DOCKED: ENDROOT
DOCKED: BRANCH   2  12
DOCKED: ATOM     12  C   UNL     1     -48.059 -18.362  12.941 -0.08 +0.00    +0.038 C  
DOCKED: BRANCH  12  13
DOCKED: ATOM     13  C   UNL     1     -48.551 -16.917  12.985 -0.14 +0.00    +0.038 C  
DOCKED: BRANCH  13  14
DOCKED: ATOM     14  C   UNL     1     -48.410 -16.247  11.619 -0.08 +0.00    +0.251 C  
DOCKED: BRANCH  14  15
DOCKED: ATOM     15  N   UNL     1     -49.717 -15.846  11.113 -0.16 +0.00    +0.141 N  
DOCKED: ATOM     16  C   UNL     1     -50.183 -14.634  11.788 -0.06 +0.00    +0.285 C  
DOCKED: ATOM     17  C   UNL     1     -49.667 -15.634   9.665 -0.15 +0.00    +0.285 C  
DOCKED: ENDBRANCH  14  15
DOCKED: ENDBRANCH  13  14
DOCKED: ENDBRANCH  12  13
DOCKED: ENDBRANCH   2  12
DOCKED: BRANCH   2  18
DOCKED: ATOM     18  C   UNL     1     -48.101 -19.048  15.332 -0.05 +0.00    +0.006 A  
DOCKED: ATOM     19  C   UNL     1     -48.740 -18.314  16.330 -0.02 +0.00    +0.001 A  
DOCKED: ATOM     20  C   UNL     1     -48.132 -18.157  17.576 -0.00 +0.00    +0.029 A  
DOCKED: ATOM     21  C   UNL     1     -46.888 -18.736  17.824 -0.00 +0.00    +0.140 A  
DOCKED: ATOM     22  C   UNL     1     -46.250 -19.471  16.825 -0.02 +0.00    +0.029 A  
DOCKED: ATOM     23  F   UNL     1     -46.307 -18.587  19.021 -0.00 -0.00    -0.204 F  
DOCKED: ATOM     24  C   UNL     1     -46.856 -19.628  15.578 -0.06 +0.00    +0.001 A  
DOCKED: ENDBRANCH   2  18
DOCKED: TORSDOF 5
DOCKED: TER
DOCKED: ENDMDL
________________________________________________________________________________


    FINAL DOCKED STATE:
    ________________________


Run:   481 / 512
Time taken for this run:   0.002s

DOCKED: MODEL        481
DOCKED: USER    Run = 481
DOCKED: USER
DOCKED: USER    Estimated Free Energy of Binding    =  -4.25 kcal/mol  [=(1)+(2)+(3)-(4)]
DOCKED: USER
DOCKED: USER    (1) Final Intermolecular Energy     =  -5.75 kcal/mol
DOCKED: USER        vdW + Hbond + desolv Energy     =  -5.75 kcal/mol
DOCKED: USER        Electrostatic Energy            =  +0.00 kcal/mol
DOCKED: USER        Moving Ligand-Fixed Receptor    =  -5.75 kcal/mol
DOCKED: USER        Moving Ligand-Moving Receptor   =  +0.00 kcal/mol
DOCKED: USER    (2) Final Total Internal Energy     =  -1.05 kcal/mol
DOCKED: USER    (3) Torsional Free Energy           =  +1.49 kcal/mol
DOCKED: USER    (4) Unbound System's Energy         =  -1.05 kcal/mol
DOCKED: USER
DOCKED: USER
DOCKED: REMARK  5 active torsions:
DOCKED: REMARK  status: ('A' for Active; 'I' for Inactive)
DOCKED: REMARK    1  A    between atoms: C_2  and  C_19 
DOCKED: REMARK    2  A    between atoms: C_2  and  C_11 
DOCKED: REMARK    3  A    between atoms: C_19  and  C_20 
DOCKED: REMARK    4  A    between atoms: C_20  and  C_21 
DOCKED: REMARK    5  A    between atoms: C_21  and  N_22 
DOCKED: USER                              x       y       z     vdW  Elec       q    Type
DOCKED: USER                           _______ _______ _______ _____ _____    ______ ____
DOCKED: ROOT
DOCKED: ATOM      1  O   UNL     1     -47.223 -15.031   8.654 -0.11 -0.00    -0.346 OA 
DOCKED: ATOM      2  C   UNL     1     -45.882 -15.050   8.070 -0.21 +0.00    +0.130 C  
DOCKED: ATOM      3  C   UNL     1     -46.092 -14.546   6.671 -0.21 +0.00    +0.004 A  
DOCKED: ATOM      4  C   UNL     1     -47.416 -14.168   6.505 -0.05 +0.00    +0.006 A  
DOCKED: ATOM      5  C   UNL     1     -48.161 -14.379   7.767 -0.17 +0.00    +0.169 C  
DOCKED: ATOM      6  C   UNL     1     -45.181 -14.422   5.633 -0.23 -0.00    -0.001 A  
DOCKED: ATOM      7  C   UNL     1     -47.875 -13.660   5.302 +0.21 +0.00    +0.008 A  
DOCKED: ATOM      8  C   UNL     1     -45.629 -13.916   4.411 -0.30 +0.00    +0.010 A  
DOCKED: ATOM      9  C   UNL     1     -46.969 -13.536   4.247 -0.33 +0.00    +0.068 A  
DOCKED: ATOM     10  N   UNL     1     -47.767 -12.595   1.969 -2.49 -0.00    -0.191 NA 
DOCKED: ATOM     11  C   UNL     1     -47.409 -13.017   2.991 -0.31 +0.00    +0.101 C  
DOCKED: ENDROOT
DOCKED: BRANCH   2  12
DOCKED: ATOM     12  C   UNL     1     -44.981 -14.141   8.899 -0.15 +0.00    +0.038 C  
DOCKED: BRANCH  12  13
DOCKED: ATOM     13  C   UNL     1     -45.732 -13.551  10.091 -0.16 +0.00    +0.038 C  
DOCKED: BRANCH  13  14
DOCKED: ATOM     14  C   UNL     1     -44.983 -13.811  11.396 -0.09 +0.00    +0.251 C  
DOCKED: BRANCH  14  15
DOCKED: ATOM     15  N   UNL     1     -45.391 -12.853  12.416 -0.08 +0.00    +0.141 N  
DOCKED: ATOM     16  C   UNL     1     -44.252 -12.039  12.845 -0.06 +0.00    +0.285 C  
DOCKED: ATOM     17  C   UNL     1     -46.467 -11.996  11.916 -0.11 +0.00    +0.285 C  
DOCKED: ENDBRANCH  14  15
DOCKED: ENDBRANCH  13  14
DOCKED: ENDBRANCH  12  13
DOCKED: ENDBRANCH   2  12
DOCKED: BRANCH   2  18
DOCKED: ATOM     18  C   UNL     1     -45.407 -16.464   8.114 -0.15 +0.00    +0.006 A  
DOCKED: ATOM     19  C   UNL     1     -44.260 -16.791   8.836 -0.07 +0.00    +0.001 A  
DOCKED: ATOM     20  C   UNL     1     -43.817 -18.114   8.876 -0.08 +0.00    +0.029 A  
DOCKED: ATOM     21  C   UNL     1     -44.521 -19.106   8.195 -0.17 +0.00    +0.140 A  
DOCKED: ATOM     22  C   UNL     1     -45.668 -18.778   7.473 -0.13 +0.00    +0.029 A  
DOCKED: ATOM     23  F   UNL     1     -44.096 -20.376   8.235 -0.08 -0.00    -0.204 F  
DOCKED: ATOM     24  C   UNL     1     -46.112 -17.455   7.432 -0.23 +0.00    +0.001 A  
DOCKED: ENDBRANCH   2  18
DOCKED: TORSDOF 5
DOCKED: TER
DOCKED: ENDMDL
________________________________________________________________________________


    FINAL DOCKED STATE:
    ________________________


Run:   482 / 512
Time taken for this run:   0.002s

DOCKED: MODEL        482
DOCKED: USER    Run = 482
DOCKED: USER
DOCKED: USER    Estimated Free Energy of Binding    =  -3.74 kcal/mol  [=(1)+(2)+(3)-(4)]
DOCKED: USER
DOCKED: USER    (1) Final Intermolecular Energy     =  -5.23 kcal/mol
DOCKED: USER        vdW + Hbond + desolv Energy     =  -5.23 kcal/mol
DOCKED: USER        Electrostatic Energy            =  +0.00 kcal/mol
DOCKED: USER        Moving Ligand-Fixed Receptor    =  -5.23 kcal/mol
DOCKED: USER        Moving Ligand-Moving Receptor   =  +0.00 kcal/mol
DOCKED: USER    (2) Final Total Internal Energy     =  -1.48 kcal/mol
DOCKED: USER    (3) Torsional Free Energy           =  +1.49 kcal/mol
DOCKED: USER    (4) Unbound System's Energy         =  -1.48 kcal/mol
DOCKED: USER
DOCKED: USER
DOCKED: REMARK  5 active torsions:
DOCKED: REMARK  status: ('A' for Active; 'I' for Inactive)
DOCKED: REMARK    1  A    between atoms: C_2  and  C_19 
DOCKED: REMARK    2  A    between atoms: C_2  and  C_11 
DOCKED: REMARK    3  A    between atoms: C_19  and  C_20 
DOCKED: REMARK    4  A    between atoms: C_20  and  C_21 
DOCKED: REMARK    5  A    between atoms: C_21  and  N_22 
DOCKED: USER                              x       y       z     vdW  Elec       q    Type
DOCKED: USER                           _______ _______ _______ _____ _____    ______ ____
DOCKED: ROOT
DOCKED: ATOM      1  O   UNL     1     -48.034 -20.839  16.484 -0.00 -0.00    -0.346 OA 
DOCKED: ATOM      2  C   UNL     1     -47.956 -20.242  15.150 -0.08 +0.00    +0.130 C  
DOCKED: ATOM      3  C   UNL     1     -48.412 -21.342  14.236 -0.20 +0.00    +0.004 A  
DOCKED: ATOM      4  C   UNL     1     -48.820 -22.435  14.988 -0.15 +0.00    +0.006 A  
DOCKED: ATOM      5  C   UNL     1     -48.677 -22.134  16.430 -0.05 +0.00    +0.169 C  
DOCKED: ATOM      6  C   UNL     1     -48.472 -21.369  12.850 -0.27 -0.00    -0.001 A  
DOCKED: ATOM      7  C   UNL     1     -49.295 -23.587  14.385 -0.22 +0.00    +0.008 A  
DOCKED: ATOM      8  C   UNL     1     -48.944 -22.526  12.228 -0.34 +0.00    +0.010 A  
DOCKED: ATOM      9  C   UNL     1     -49.354 -23.629  12.992 -0.30 +0.00    +0.068 A  
DOCKED: ATOM     10  N   UNL     1     -50.231 -25.758  11.804 -2.42 -0.00    -0.191 NA 
DOCKED: ATOM     11  C   UNL     1     -49.837 -24.803  12.337 -0.34 +0.00    +0.101 C  
DOCKED: ENDROOT
DOCKED: BRANCH   2  12
DOCKED: ATOM     12  C   UNL     1     -48.870 -19.022  15.113 -0.08 +0.00    +0.038 C  
DOCKED: BRANCH  12  13
DOCKED: ATOM     13  C   UNL     1     -49.950 -19.103  16.190 -0.03 +0.00    +0.038 C  
DOCKED: BRANCH  13  14
DOCKED: ATOM     14  C   UNL     1     -51.339 -19.230  15.568 -0.03 +0.00    +0.251 C  
DOCKED: BRANCH  14  15
DOCKED: ATOM     15  N   UNL     1     -51.459 -20.494  14.849 -0.08 +0.00    +0.141 N  
DOCKED: ATOM     16  C   UNL     1     -52.139 -21.493  15.673 -0.02 +0.00    +0.285 C  
DOCKED: ATOM     17  C   UNL     1     -52.175 -20.303  13.587 -0.13 +0.00    +0.285 C  
DOCKED: ENDBRANCH  14  15
DOCKED: ENDBRANCH  13  14
DOCKED: ENDBRANCH  12  13
DOCKED: ENDBRANCH   2  12
DOCKED: BRANCH   2  18
DOCKED: ATOM     18  C   UNL     1     -46.532 -19.854  14.928 -0.10 +0.00    +0.006 A  
DOCKED: ATOM     19  C   UNL     1     -45.578 -20.115  15.910 -0.06 +0.00    +0.001 A  
DOCKED: ATOM     20  C   UNL     1     -44.247 -19.752  15.702 -0.04 +0.00    +0.029 A  
DOCKED: ATOM     21  C   UNL     1     -43.872 -19.129  14.512 -0.05 +0.00    +0.140 A  
DOCKED: ATOM     22  C   UNL     1     -44.827 -18.868  13.530 -0.10 +0.00    +0.029 A  
DOCKED: ATOM     23  F   UNL     1     -42.594 -18.782  14.311 -0.00 -0.00    -0.204 F  
DOCKED: ATOM     24  C   UNL     1     -46.159 -19.231  13.738 -0.14 +0.00    +0.001 A  
DOCKED: ENDBRANCH   2  18
DOCKED: TORSDOF 5
DOCKED: TER
DOCKED: ENDMDL
________________________________________________________________________________


    FINAL DOCKED STATE:
    ________________________


Run:   483 / 512
Time taken for this run:   0.002s

DOCKED: MODEL        483
DOCKED: USER    Run = 483
DOCKED: USER
DOCKED: USER    Estimated Free Energy of Binding    =  -5.87 kcal/mol  [=(1)+(2)+(3)-(4)]
DOCKED: USER
DOCKED: USER    (1) Final Intermolecular Energy     =  -7.37 kcal/mol
DOCKED: USER        vdW + Hbond + desolv Energy     =  -7.37 kcal/mol
DOCKED: USER        Electrostatic Energy            =  +0.00 kcal/mol
DOCKED: USER        Moving Ligand-Fixed Receptor    =  -7.37 kcal/mol
DOCKED: USER        Moving Ligand-Moving Receptor   =  +0.00 kcal/mol
DOCKED: USER    (2) Final Total Internal Energy     =  -1.33 kcal/mol
DOCKED: USER    (3) Torsional Free Energy           =  +1.49 kcal/mol
DOCKED: USER    (4) Unbound System's Energy         =  -1.33 kcal/mol
DOCKED: USER
DOCKED: USER
DOCKED: REMARK  5 active torsions:
DOCKED: REMARK  status: ('A' for Active; 'I' for Inactive)
DOCKED: REMARK    1  A    between atoms: C_2  and  C_19 
DOCKED: REMARK    2  A    between atoms: C_2  and  C_11 
DOCKED: REMARK    3  A    between atoms: C_19  and  C_20 
DOCKED: REMARK    4  A    between atoms: C_20  and  C_21 
DOCKED: REMARK    5  A    between atoms: C_21  and  N_22 
DOCKED: USER                              x       y       z     vdW  Elec       q    Type
DOCKED: USER                           _______ _______ _______ _____ _____    ______ ____
DOCKED: ROOT
DOCKED: ATOM      1  O   UNL     1     -48.008 -21.519  14.511 -0.06 -0.00    -0.346 OA 
DOCKED: ATOM      2  C   UNL     1     -47.837 -22.971  14.571 -0.23 +0.00    +0.130 C  
DOCKED: ATOM      3  C   UNL     1     -48.397 -23.454  13.265 -0.34 +0.00    +0.004 A  
DOCKED: ATOM      4  C   UNL     1     -48.756 -22.367  12.480 -0.33 +0.00    +0.006 A  
DOCKED: ATOM      5  C   UNL     1     -48.450 -21.108  13.196 -0.24 +0.00    +0.169 C  
DOCKED: ATOM      6  C   UNL     1     -48.566 -24.751  12.803 -0.35 -0.00    -0.001 A  
DOCKED: ATOM      7  C   UNL     1     -49.295 -22.537  11.217 -0.05 +0.00    +0.008 A  
DOCKED: ATOM      8  C   UNL     1     -49.113 -24.940  11.533 -0.47 +0.00    +0.010 A  
DOCKED: ATOM      9  C   UNL     1     -49.475 -23.838  10.744 -0.41 +0.00    +0.068 A  
DOCKED: ATOM     10  N   UNL     1     -50.484 -24.222   8.388 -2.95 -0.00    -0.191 NA 
DOCKED: ATOM     11  C   UNL     1     -50.032 -24.050   9.445 -0.42 +0.00    +0.101 C  
DOCKED: ENDROOT
DOCKED: BRANCH   2  12
DOCKED: ATOM     12  C   UNL     1     -46.352 -23.276  14.729 -0.19 +0.00    +0.038 C  
DOCKED: BRANCH  12  13
DOCKED: ATOM     13  C   UNL     1     -45.579 -22.047  15.205 -0.19 +0.00    +0.038 C  
DOCKED: BRANCH  13  14
DOCKED: ATOM     14  C   UNL     1     -45.715 -21.864  16.715 -0.06 +0.00    +0.251 C  
DOCKED: BRANCH  14  15
DOCKED: ATOM     15  N   UNL     1     -45.180 -23.025  17.417 -0.09 +0.00    +0.141 N  
DOCKED: ATOM     16  C   UNL     1     -43.753 -23.186  17.136 -0.06 +0.00    +0.285 C  
DOCKED: ATOM     17  C   UNL     1     -45.403 -22.904  18.859 -0.05 +0.00    +0.285 C  
DOCKED: ENDBRANCH  14  15
DOCKED: ENDBRANCH  13  14
DOCKED: ENDBRANCH  12  13
DOCKED: ENDBRANCH   2  12
DOCKED: BRANCH   2  18
DOCKED: ATOM     18  C   UNL     1     -48.613 -23.453  15.751 -0.17 +0.00    +0.006 A  
DOCKED: ATOM     19  C   UNL     1     -48.168 -24.560  16.473 -0.22 +0.00    +0.001 A  
DOCKED: ATOM     20  C   UNL     1     -48.895 -25.010  17.576 -0.18 +0.00    +0.029 A  
DOCKED: ATOM     21  C   UNL     1     -50.065 -24.353  17.954 -0.10 +0.00    +0.140 A  
DOCKED: ATOM     22  C   UNL     1     -50.510 -23.247  17.232 -0.08 +0.00    +0.029 A  
DOCKED: ATOM     23  F   UNL     1     -50.762 -24.785  19.014 -0.02 -0.00    -0.204 F  
DOCKED: ATOM     24  C   UNL     1     -49.783 -22.796  16.128 -0.09 +0.00    +0.001 A  
DOCKED: ENDBRANCH   2  18
DOCKED: TORSDOF 5
DOCKED: TER
DOCKED: ENDMDL
________________________________________________________________________________


    FINAL DOCKED STATE:
    ________________________


Run:   484 / 512
Time taken for this run:   0.002s

DOCKED: MODEL        484
DOCKED: USER    Run = 484
DOCKED: USER
DOCKED: USER    Estimated Free Energy of Binding    =  -5.44 kcal/mol  [=(1)+(2)+(3)-(4)]
DOCKED: USER
DOCKED: USER    (1) Final Intermolecular Energy     =  -6.94 kcal/mol
DOCKED: USER        vdW + Hbond + desolv Energy     =  -6.94 kcal/mol
DOCKED: USER        Electrostatic Energy            =  +0.00 kcal/mol
DOCKED: USER        Moving Ligand-Fixed Receptor    =  -6.94 kcal/mol
DOCKED: USER        Moving Ligand-Moving Receptor   =  +0.00 kcal/mol
DOCKED: USER    (2) Final Total Internal Energy     =  -1.07 kcal/mol
DOCKED: USER    (3) Torsional Free Energy           =  +1.49 kcal/mol
DOCKED: USER    (4) Unbound System's Energy         =  -1.07 kcal/mol
DOCKED: USER
DOCKED: USER
DOCKED: REMARK  5 active torsions:
DOCKED: REMARK  status: ('A' for Active; 'I' for Inactive)
DOCKED: REMARK    1  A    between atoms: C_2  and  C_19 
DOCKED: REMARK    2  A    between atoms: C_2  and  C_11 
DOCKED: REMARK    3  A    between atoms: C_19  and  C_20 
DOCKED: REMARK    4  A    between atoms: C_20  and  C_21 
DOCKED: REMARK    5  A    between atoms: C_21  and  N_22 
DOCKED: USER                              x       y       z     vdW  Elec       q    Type
DOCKED: USER                           _______ _______ _______ _____ _____    ______ ____
DOCKED: ROOT
DOCKED: ATOM      1  O   UNL     1     -51.706 -22.684  14.930 -0.00 -0.00    -0.346 OA 
DOCKED: ATOM      2  C   UNL     1     -50.321 -22.313  14.634 -0.12 +0.00    +0.130 C  
DOCKED: ATOM      3  C   UNL     1     -50.145 -22.702  13.195 -0.27 +0.00    +0.004 A  
DOCKED: ATOM      4  C   UNL     1     -51.353 -23.152  12.681 -0.28 +0.00    +0.006 A  
DOCKED: ATOM      5  C   UNL     1     -52.400 -23.082  13.724 -0.17 +0.00    +0.169 C  
DOCKED: ATOM      6  C   UNL     1     -49.009 -22.650  12.400 -0.36 -0.00    -0.001 A  
DOCKED: ATOM      7  C   UNL     1     -51.466 -23.567  11.365 -0.24 +0.00    +0.008 A  
DOCKED: ATOM      8  C   UNL     1     -49.106 -23.070  11.072 -0.11 +0.00    +0.010 A  
DOCKED: ATOM      9  C   UNL     1     -50.329 -23.525  10.558 -0.32 +0.00    +0.068 A  
DOCKED: ATOM     10  N   UNL     1     -50.476 -24.292   8.087 -3.03 -0.00    -0.191 NA 
DOCKED: ATOM     11  C   UNL     1     -50.410 -23.949   9.195 -0.27 +0.00    +0.101 C  
DOCKED: ENDROOT
DOCKED: BRANCH   2  12
DOCKED: ATOM     12  C   UNL     1     -50.162 -20.816  14.869 -0.13 +0.00    +0.038 C  
DOCKED: BRANCH  12  13
DOCKED: ATOM     13  C   UNL     1     -50.678 -20.008  13.679 -0.25 +0.00    +0.038 C  
DOCKED: BRANCH  13  14
DOCKED: ATOM     14  C   UNL     1     -49.876 -18.721  13.500 -0.16 +0.00    +0.251 C  
DOCKED: BRANCH  14  15
DOCKED: ATOM     15  N   UNL     1     -48.530 -18.883  14.038 -0.11 +0.00    +0.141 N  
DOCKED: ATOM     16  C   UNL     1     -47.782 -19.876  13.266 -0.15 +0.00    +0.285 C  
DOCKED: ATOM     17  C   UNL     1     -47.819 -17.603  14.043 -0.06 +0.00    +0.285 C  
DOCKED: ENDBRANCH  14  15
DOCKED: ENDBRANCH  13  14
DOCKED: ENDBRANCH  12  13
DOCKED: ENDBRANCH   2  12
DOCKED: BRANCH   2  18
DOCKED: ATOM     18  C   UNL     1     -49.452 -23.099  15.559 -0.13 +0.00    +0.006 A  
DOCKED: ATOM     19  C   UNL     1     -48.154 -22.668  15.828 -0.13 +0.00    +0.001 A  
DOCKED: ATOM     20  C   UNL     1     -47.342 -23.404  16.693 -0.13 +0.00    +0.029 A  
DOCKED: ATOM     21  C   UNL     1     -47.830 -24.566  17.287 -0.12 +0.00    +0.140 A  
DOCKED: ATOM     22  C   UNL     1     -49.129 -24.996  17.018 -0.14 +0.00    +0.029 A  
DOCKED: ATOM     23  F   UNL     1     -47.051 -25.271  18.118 -0.06 -0.00    -0.204 F  
DOCKED: ATOM     24  C   UNL     1     -49.941 -24.262  16.152 -0.19 +0.00    +0.001 A  
DOCKED: ENDBRANCH   2  18
DOCKED: TORSDOF 5
DOCKED: TER
DOCKED: ENDMDL
________________________________________________________________________________


    FINAL DOCKED STATE:
    ________________________


Run:   485 / 512
Time taken for this run:   0.002s

DOCKED: MODEL        485
DOCKED: USER    Run = 485
DOCKED: USER
DOCKED: USER    Estimated Free Energy of Binding    =  -5.52 kcal/mol  [=(1)+(2)+(3)-(4)]
DOCKED: USER
DOCKED: USER    (1) Final Intermolecular Energy     =  -7.01 kcal/mol
DOCKED: USER        vdW + Hbond + desolv Energy     =  -7.01 kcal/mol
DOCKED: USER        Electrostatic Energy            =  +0.00 kcal/mol
DOCKED: USER        Moving Ligand-Fixed Receptor    =  -7.01 kcal/mol
DOCKED: USER        Moving Ligand-Moving Receptor   =  +0.00 kcal/mol
DOCKED: USER    (2) Final Total Internal Energy     =  -1.10 kcal/mol
DOCKED: USER    (3) Torsional Free Energy           =  +1.49 kcal/mol
DOCKED: USER    (4) Unbound System's Energy         =  -1.10 kcal/mol
DOCKED: USER
DOCKED: USER
DOCKED: REMARK  5 active torsions:
DOCKED: REMARK  status: ('A' for Active; 'I' for Inactive)
DOCKED: REMARK    1  A    between atoms: C_2  and  C_19 
DOCKED: REMARK    2  A    between atoms: C_2  and  C_11 
DOCKED: REMARK    3  A    between atoms: C_19  and  C_20 
DOCKED: REMARK    4  A    between atoms: C_20  and  C_21 
DOCKED: REMARK    5  A    between atoms: C_21  and  N_22 
DOCKED: USER                              x       y       z     vdW  Elec       q    Type
DOCKED: USER                           _______ _______ _______ _____ _____    ______ ____
DOCKED: ROOT
DOCKED: ATOM      1  O   UNL     1     -51.739 -23.134  15.169 -0.00 -0.00    -0.346 OA 
DOCKED: ATOM      2  C   UNL     1     -50.517 -22.403  14.832 -0.11 +0.00    +0.130 C  
DOCKED: ATOM      3  C   UNL     1     -50.304 -22.709  13.377 -0.25 +0.00    +0.004 A  
DOCKED: ATOM      4  C   UNL     1     -51.369 -23.458  12.897 -0.28 +0.00    +0.006 A  
DOCKED: ATOM      5  C   UNL     1     -52.352 -23.685  13.980 -0.16 +0.00    +0.169 C  
DOCKED: ATOM      6  C   UNL     1     -49.257 -22.345  12.543 -0.34 -0.00    -0.001 A  
DOCKED: ATOM      7  C   UNL     1     -51.423 -23.870  11.577 -0.33 +0.00    +0.008 A  
DOCKED: ATOM      8  C   UNL     1     -49.295 -22.756  11.210 -0.27 +0.00    +0.010 A  
DOCKED: ATOM      9  C   UNL     1     -50.373 -23.515  10.729 -0.32 +0.00    +0.068 A  
DOCKED: ATOM     10  N   UNL     1     -50.414 -24.258   8.247 -2.99 -0.00    -0.191 NA 
DOCKED: ATOM     11  C   UNL     1     -50.395 -23.925   9.361 -0.26 +0.00    +0.101 C  
DOCKED: ENDROOT
DOCKED: BRANCH   2  12
DOCKED: ATOM     12  C   UNL     1     -50.752 -20.921  15.097 -0.11 +0.00    +0.038 C  
DOCKED: BRANCH  12  13
DOCKED: ATOM     13  C   UNL     1     -51.838 -20.357  14.183 -0.22 +0.00    +0.038 C  
DOCKED: BRANCH  13  14
DOCKED: ATOM     14  C   UNL     1     -51.267 -19.303  13.236 -0.13 +0.00    +0.251 C  
DOCKED: BRANCH  14  15
DOCKED: ATOM     15  N   UNL     1     -50.145 -18.613  13.862 -0.16 +0.00    +0.141 N  
DOCKED: ATOM     16  C   UNL     1     -48.873 -19.149  13.375 -0.12 +0.00    +0.285 C  
DOCKED: ATOM     17  C   UNL     1     -50.219 -17.173  13.609 -0.11 +0.00    +0.285 C  
DOCKED: ENDBRANCH  14  15
DOCKED: ENDBRANCH  13  14
DOCKED: ENDBRANCH  12  13
DOCKED: ENDBRANCH   2  12
DOCKED: BRANCH   2  18
DOCKED: ATOM     18  C   UNL     1     -49.432 -22.940  15.704 -0.12 +0.00    +0.006 A  
DOCKED: ATOM     19  C   UNL     1     -49.754 -23.693  16.833 -0.14 +0.00    +0.001 A  
DOCKED: ATOM     20  C   UNL     1     -48.739 -24.195  17.648 -0.17 +0.00    +0.029 A  
DOCKED: ATOM     21  C   UNL     1     -47.404 -23.944  17.333 -0.09 +0.00    +0.140 A  
DOCKED: ATOM     22  C   UNL     1     -47.082 -23.192  16.204 -0.14 +0.00    +0.029 A  
DOCKED: ATOM     23  F   UNL     1     -46.430 -24.428  18.115 -0.03 -0.00    -0.204 F  
DOCKED: ATOM     24  C   UNL     1     -48.097 -22.689  15.388 -0.16 +0.00    +0.001 A  
DOCKED: ENDBRANCH   2  18
DOCKED: TORSDOF 5
DOCKED: TER
DOCKED: ENDMDL
________________________________________________________________________________


    FINAL DOCKED STATE:
    ________________________


Run:   486 / 512
Time taken for this run:   0.002s

DOCKED: MODEL        486
DOCKED: USER    Run = 486
DOCKED: USER
DOCKED: USER    Estimated Free Energy of Binding    =  -3.68 kcal/mol  [=(1)+(2)+(3)-(4)]
DOCKED: USER
DOCKED: USER    (1) Final Intermolecular Energy     =  -5.17 kcal/mol
DOCKED: USER        vdW + Hbond + desolv Energy     =  -5.17 kcal/mol
DOCKED: USER        Electrostatic Energy            =  +0.00 kcal/mol
DOCKED: USER        Moving Ligand-Fixed Receptor    =  -5.17 kcal/mol
DOCKED: USER        Moving Ligand-Moving Receptor   =  +0.00 kcal/mol
DOCKED: USER    (2) Final Total Internal Energy     =  -1.38 kcal/mol
DOCKED: USER    (3) Torsional Free Energy           =  +1.49 kcal/mol
DOCKED: USER    (4) Unbound System's Energy         =  -1.38 kcal/mol
DOCKED: USER
DOCKED: USER
DOCKED: REMARK  5 active torsions:
DOCKED: REMARK  status: ('A' for Active; 'I' for Inactive)
DOCKED: REMARK    1  A    between atoms: C_2  and  C_19 
DOCKED: REMARK    2  A    between atoms: C_2  and  C_11 
DOCKED: REMARK    3  A    between atoms: C_19  and  C_20 
DOCKED: REMARK    4  A    between atoms: C_20  and  C_21 
DOCKED: REMARK    5  A    between atoms: C_21  and  N_22 
DOCKED: USER                              x       y       z     vdW  Elec       q    Type
DOCKED: USER                           _______ _______ _______ _____ _____    ______ ____
DOCKED: ROOT
DOCKED: ATOM      1  O   UNL     1     -47.041 -23.166  17.498 -0.05 -0.00    -0.346 OA 
DOCKED: ATOM      2  C   UNL     1     -46.810 -22.206  16.418 -0.10 +0.00    +0.130 C  
DOCKED: ATOM      3  C   UNL     1     -47.530 -22.805  15.244 -0.20 +0.00    +0.004 A  
DOCKED: ATOM      4  C   UNL     1     -48.206 -23.949  15.646 -0.22 +0.00    +0.006 A  
DOCKED: ATOM      5  C   UNL     1     -47.994 -24.176  17.093 -0.15 +0.00    +0.169 C  
DOCKED: ATOM      6  C   UNL     1     -47.592 -22.367  13.930 -0.24 -0.00    -0.001 A  
DOCKED: ATOM      7  C   UNL     1     -48.958 -24.692  14.752 -0.27 +0.00    +0.008 A  
DOCKED: ATOM      8  C   UNL     1     -48.343 -23.108  13.016 -0.33 +0.00    +0.010 A  
DOCKED: ATOM      9  C   UNL     1     -49.023 -24.264  13.426 -0.30 +0.00    +0.068 A  
DOCKED: ATOM     10  N   UNL     1     -50.412 -25.614  11.705 -2.25 -0.00    -0.191 NA 
DOCKED: ATOM     11  C   UNL     1     -49.788 -25.009  12.476 -0.19 +0.00    +0.101 C  
DOCKED: ENDROOT
DOCKED: BRANCH   2  12
DOCKED: ATOM     12  C   UNL     1     -47.381 -20.858  16.839 -0.04 +0.00    +0.038 C  
DOCKED: BRANCH  12  13
DOCKED: ATOM     13  C   UNL     1     -48.659 -20.529  16.070 -0.05 +0.00    +0.038 C  
DOCKED: BRANCH  13  14
DOCKED: ATOM     14  C   UNL     1     -49.895 -21.024  16.820 -0.01 +0.00    +0.251 C  
DOCKED: BRANCH  14  15
DOCKED: ATOM     15  N   UNL     1     -51.023 -21.156  15.906 -0.03 +0.00    +0.141 N  
DOCKED: ATOM     16  C   UNL     1     -50.643 -20.746  14.553 -0.08 +0.00    +0.285 C  
DOCKED: ATOM     17  C   UNL     1     -51.521 -22.533  15.898 -0.02 +0.00    +0.285 C  
DOCKED: ENDBRANCH  14  15
DOCKED: ENDBRANCH  13  14
DOCKED: ENDBRANCH  12  13
DOCKED: ENDBRANCH   2  12
DOCKED: BRANCH   2  18
DOCKED: ATOM     18  C   UNL     1     -45.334 -22.125  16.214 -0.13 +0.00    +0.006 A  
DOCKED: ATOM     19  C   UNL     1     -44.808 -21.255  15.260 -0.13 +0.00    +0.001 A  
DOCKED: ATOM     20  C   UNL     1     -43.428 -21.180  15.071 -0.10 +0.00    +0.029 A  
DOCKED: ATOM     21  C   UNL     1     -42.575 -21.975  15.835 -0.06 +0.00    +0.140 A  
DOCKED: ATOM     22  C   UNL     1     -43.101 -22.845  16.790 -0.10 +0.00    +0.029 A  
DOCKED: ATOM     23  F   UNL     1     -41.250 -21.902  15.655 +0.00 -0.00    -0.204 F  
DOCKED: ATOM     24  C   UNL     1     -44.482 -22.921  16.980 -0.10 +0.00    +0.001 A  
DOCKED: ENDBRANCH   2  18
DOCKED: TORSDOF 5
DOCKED: TER
DOCKED: ENDMDL
________________________________________________________________________________


    FINAL DOCKED STATE:
    ________________________


Run:   487 / 512
Time taken for this run:   0.002s

DOCKED: MODEL        487
DOCKED: USER    Run = 487
DOCKED: USER
DOCKED: USER    Estimated Free Energy of Binding    =  -3.94 kcal/mol  [=(1)+(2)+(3)-(4)]
DOCKED: USER
DOCKED: USER    (1) Final Intermolecular Energy     =  -5.43 kcal/mol
DOCKED: USER        vdW + Hbond + desolv Energy     =  -5.43 kcal/mol
DOCKED: USER        Electrostatic Energy            =  +0.00 kcal/mol
DOCKED: USER        Moving Ligand-Fixed Receptor    =  -5.43 kcal/mol
DOCKED: USER        Moving Ligand-Moving Receptor   =  +0.00 kcal/mol
DOCKED: USER    (2) Final Total Internal Energy     =  -1.26 kcal/mol
DOCKED: USER    (3) Torsional Free Energy           =  +1.49 kcal/mol
DOCKED: USER    (4) Unbound System's Energy         =  -1.26 kcal/mol
DOCKED: USER
DOCKED: USER
DOCKED: REMARK  5 active torsions:
DOCKED: REMARK  status: ('A' for Active; 'I' for Inactive)
DOCKED: REMARK    1  A    between atoms: C_2  and  C_19 
DOCKED: REMARK    2  A    between atoms: C_2  and  C_11 
DOCKED: REMARK    3  A    between atoms: C_19  and  C_20 
DOCKED: REMARK    4  A    between atoms: C_20  and  C_21 
DOCKED: REMARK    5  A    between atoms: C_21  and  N_22 
DOCKED: USER                              x       y       z     vdW  Elec       q    Type
DOCKED: USER                           _______ _______ _______ _____ _____    ______ ____
DOCKED: ROOT
DOCKED: ATOM      1  O   UNL     1     -42.414 -14.363   5.947 -0.02 -0.00    -0.346 OA 
DOCKED: ATOM      2  C   UNL     1     -41.879 -13.296   5.101 -0.06 +0.00    +0.130 C  
DOCKED: ATOM      3  C   UNL     1     -43.031 -12.932   4.210 -0.12 +0.00    +0.004 A  
DOCKED: ATOM      4  C   UNL     1     -44.158 -13.649   4.586 -0.19 +0.00    +0.006 A  
DOCKED: ATOM      5  C   UNL     1     -43.838 -14.515   5.743 -0.12 +0.00    +0.169 C  
DOCKED: ATOM      6  C   UNL     1     -43.081 -12.030   3.157 -0.14 -0.00    -0.001 A  
DOCKED: ATOM      7  C   UNL     1     -45.365 -13.494   3.926 -0.30 +0.00    +0.008 A  
DOCKED: ATOM      8  C   UNL     1     -44.290 -11.865   2.479 -0.27 +0.00    +0.010 A  
DOCKED: ATOM      9  C   UNL     1     -45.426 -12.593   2.862 -0.33 +0.00    +0.068 A  
DOCKED: ATOM     10  N   UNL     1     -47.655 -12.260   1.584 -2.55 -0.00    -0.191 NA 
DOCKED: ATOM     11  C   UNL     1     -46.655 -12.410   2.157 -0.43 +0.00    +0.101 C  
DOCKED: ENDROOT
DOCKED: BRANCH   2  12
DOCKED: ATOM     12  C   UNL     1     -41.435 -12.146   5.997 -0.11 +0.00    +0.038 C  
DOCKED: BRANCH  12  13
DOCKED: ATOM     13  C   UNL     1     -42.518 -11.074   6.104 -0.17 +0.00    +0.038 C  
DOCKED: BRANCH  13  14
DOCKED: ATOM     14  C   UNL     1     -42.052  -9.759   5.481 -0.10 +0.00    +0.251 C  
DOCKED: BRANCH  14  15
DOCKED: ATOM     15  N   UNL     1     -43.120  -9.171   4.681 -0.18 +0.00    +0.141 N  
DOCKED: ATOM     16  C   UNL     1     -44.103  -8.509   5.540 -0.23 +0.00    +0.285 C  
DOCKED: ATOM     17  C   UNL     1     -42.574  -8.221   3.710 -0.08 +0.00    +0.285 C  
DOCKED: ENDBRANCH  14  15
DOCKED: ENDBRANCH  13  14
DOCKED: ENDBRANCH  12  13
DOCKED: ENDBRANCH   2  12
DOCKED: BRANCH   2  18
DOCKED: ATOM     18  C   UNL     1     -40.724 -13.871   4.352 -0.01 +0.00    +0.006 A  
DOCKED: ATOM     19  C   UNL     1     -39.486 -13.231   4.381 -0.01 +0.00    +0.001 A  
DOCKED: ATOM     20  C   UNL     1     -38.406 -13.770   3.680 -0.00 +0.00    +0.029 A  
DOCKED: ATOM     21  C   UNL     1     -38.566 -14.947   2.951 -0.00 +0.00    +0.140 A  
DOCKED: ATOM     22  C   UNL     1     -39.804 -15.588   2.922 -0.00 +0.00    +0.029 A  
DOCKED: ATOM     23  F   UNL     1     -37.529 -15.465   2.280 +0.00 -0.00    -0.204 F  
DOCKED: ATOM     24  C   UNL     1     -40.885 -15.049   3.623 -0.01 +0.00    +0.001 A  
DOCKED: ENDBRANCH   2  18
DOCKED: TORSDOF 5
DOCKED: TER
DOCKED: ENDMDL
________________________________________________________________________________


    FINAL DOCKED STATE:
    ________________________


Run:   488 / 512
Time taken for this run:   0.002s

DOCKED: MODEL        488
DOCKED: USER    Run = 488
DOCKED: USER
DOCKED: USER    Estimated Free Energy of Binding    =  -3.35 kcal/mol  [=(1)+(2)+(3)-(4)]
DOCKED: USER
DOCKED: USER    (1) Final Intermolecular Energy     =  -4.85 kcal/mol
DOCKED: USER        vdW + Hbond + desolv Energy     =  -4.85 kcal/mol
DOCKED: USER        Electrostatic Energy            =  +0.00 kcal/mol
DOCKED: USER        Moving Ligand-Fixed Receptor    =  -4.85 kcal/mol
DOCKED: USER        Moving Ligand-Moving Receptor   =  +0.00 kcal/mol
DOCKED: USER    (2) Final Total Internal Energy     =  -1.39 kcal/mol
DOCKED: USER    (3) Torsional Free Energy           =  +1.49 kcal/mol
DOCKED: USER    (4) Unbound System's Energy         =  -1.39 kcal/mol
DOCKED: USER
DOCKED: USER
DOCKED: REMARK  5 active torsions:
DOCKED: REMARK  status: ('A' for Active; 'I' for Inactive)
DOCKED: REMARK    1  A    between atoms: C_2  and  C_19 
DOCKED: REMARK    2  A    between atoms: C_2  and  C_11 
DOCKED: REMARK    3  A    between atoms: C_19  and  C_20 
DOCKED: REMARK    4  A    between atoms: C_20  and  C_21 
DOCKED: REMARK    5  A    between atoms: C_21  and  N_22 
DOCKED: USER                              x       y       z     vdW  Elec       q    Type
DOCKED: USER                           _______ _______ _______ _____ _____    ______ ____
DOCKED: ROOT
DOCKED: ATOM      1  O   UNL     1     -46.763 -20.516  15.074 -0.04 -0.00    -0.346 OA 
DOCKED: ATOM      2  C   UNL     1     -46.390 -21.829  15.601 -0.14 +0.00    +0.130 C  
DOCKED: ATOM      3  C   UNL     1     -47.287 -22.781  14.863 -0.23 +0.00    +0.004 A  
DOCKED: ATOM      4  C   UNL     1     -48.028 -22.086  13.918 -0.25 +0.00    +0.006 A  
DOCKED: ATOM      5  C   UNL     1     -47.670 -20.650  13.955 -0.18 +0.00    +0.169 C  
DOCKED: ATOM      6  C   UNL     1     -47.426 -24.153  15.008 -0.13 -0.00    -0.001 A  
DOCKED: ATOM      7  C   UNL     1     -48.932 -22.733  13.094 -0.33 +0.00    +0.008 A  
DOCKED: ATOM      8  C   UNL     1     -48.338 -24.820  14.187 -0.27 +0.00    +0.010 A  
DOCKED: ATOM      9  C   UNL     1     -49.086 -24.113  13.234 -0.31 +0.00    +0.068 A  
DOCKED: ATOM     10  N   UNL     1     -50.765 -25.381  11.723 -2.06 -0.00    -0.191 NA 
DOCKED: ATOM     11  C   UNL     1     -50.013 -24.812  12.401 -0.33 +0.00    +0.101 C  
DOCKED: ENDROOT
DOCKED: BRANCH   2  12
DOCKED: ATOM     12  C   UNL     1     -44.912 -22.063  15.314 -0.18 +0.00    +0.038 C  
DOCKED: BRANCH  12  13
DOCKED: ATOM     13  C   UNL     1     -44.026 -21.350  16.335 -0.09 +0.00    +0.038 C  
DOCKED: BRANCH  13  14
DOCKED: ATOM     14  C   UNL     1     -43.554 -19.998  15.803 -0.03 +0.00    +0.251 C  
DOCKED: BRANCH  14  15
DOCKED: ATOM     15  N   UNL     1     -44.158 -18.914  16.569 -0.01 +0.00    +0.141 N  
DOCKED: ATOM     16  C   UNL     1     -43.132 -18.151  17.282 -0.00 +0.00    +0.285 C  
DOCKED: ATOM     17  C   UNL     1     -44.929 -18.031  15.692 -0.01 +0.00    +0.285 C  
DOCKED: ENDBRANCH  14  15
DOCKED: ENDBRANCH  13  14
DOCKED: ENDBRANCH  12  13
DOCKED: ENDBRANCH   2  12
DOCKED: BRANCH   2  18
DOCKED: ATOM     18  C   UNL     1     -46.655 -21.801  17.070 -0.07 +0.00    +0.006 A  
DOCKED: ATOM     19  C   UNL     1     -46.503 -22.962  17.827 -0.10 +0.00    +0.001 A  
DOCKED: ATOM     20  C   UNL     1     -46.752 -22.934  19.200 -0.06 +0.00    +0.029 A  
DOCKED: ATOM     21  C   UNL     1     -47.151 -21.747  19.813 -0.01 +0.00    +0.140 A  
DOCKED: ATOM     22  C   UNL     1     -47.302 -20.586  19.054 -0.01 +0.00    +0.029 A  
DOCKED: ATOM     23  F   UNL     1     -47.387 -21.720  21.131 +0.00 -0.00    -0.204 F  
DOCKED: ATOM     24  C   UNL     1     -47.054 -20.613  17.681 -0.02 +0.00    +0.001 A  
DOCKED: ENDBRANCH   2  18
DOCKED: TORSDOF 5
DOCKED: TER
DOCKED: ENDMDL
________________________________________________________________________________


    FINAL DOCKED STATE:
    ________________________


Run:   489 / 512
Time taken for this run:   0.002s

DOCKED: MODEL        489
DOCKED: USER    Run = 489
DOCKED: USER
DOCKED: USER    Estimated Free Energy of Binding    =  -3.97 kcal/mol  [=(1)+(2)+(3)-(4)]
DOCKED: USER
DOCKED: USER    (1) Final Intermolecular Energy     =  -5.46 kcal/mol
DOCKED: USER        vdW + Hbond + desolv Energy     =  -5.46 kcal/mol
DOCKED: USER        Electrostatic Energy            =  +0.00 kcal/mol
DOCKED: USER        Moving Ligand-Fixed Receptor    =  -5.46 kcal/mol
DOCKED: USER        Moving Ligand-Moving Receptor   =  +0.00 kcal/mol
DOCKED: USER    (2) Final Total Internal Energy     =  -1.14 kcal/mol
DOCKED: USER    (3) Torsional Free Energy           =  +1.49 kcal/mol
DOCKED: USER    (4) Unbound System's Energy         =  -1.14 kcal/mol
DOCKED: USER
DOCKED: USER
DOCKED: REMARK  5 active torsions:
DOCKED: REMARK  status: ('A' for Active; 'I' for Inactive)
DOCKED: REMARK    1  A    between atoms: C_2  and  C_19 
DOCKED: REMARK    2  A    between atoms: C_2  and  C_11 
DOCKED: REMARK    3  A    between atoms: C_19  and  C_20 
DOCKED: REMARK    4  A    between atoms: C_20  and  C_21 
DOCKED: REMARK    5  A    between atoms: C_21  and  N_22 
DOCKED: USER                              x       y       z     vdW  Elec       q    Type
DOCKED: USER                           _______ _______ _______ _____ _____    ______ ____
DOCKED: ROOT
DOCKED: ATOM      1  O   UNL     1     -51.575  -4.985  -4.348 -0.24 -0.00    -0.346 OA 
DOCKED: ATOM      2  C   UNL     1     -50.388  -5.362  -3.579 -0.22 +0.00    +0.130 C  
DOCKED: ATOM      3  C   UNL     1     -50.553  -6.839  -3.364 -0.28 +0.00    +0.004 A  
DOCKED: ATOM      4  C   UNL     1     -51.676  -7.287  -4.044 -0.22 +0.00    +0.006 A  
DOCKED: ATOM      5  C   UNL     1     -52.317  -6.159  -4.756 -0.05 +0.00    +0.169 C  
DOCKED: ATOM      6  C   UNL     1     -49.765  -7.717  -2.635 -0.31 -0.00    -0.001 A  
DOCKED: ATOM      7  C   UNL     1     -52.052  -8.619  -4.016 -0.23 +0.00    +0.008 A  
DOCKED: ATOM      8  C   UNL     1     -50.132  -9.063  -2.593 -0.32 +0.00    +0.010 A  
DOCKED: ATOM      9  C   UNL     1     -51.270  -9.512  -3.280 -0.25 +0.00    +0.068 A  
DOCKED: ATOM     10  N   UNL     1     -51.921 -12.017  -3.186 -1.29 -0.00    -0.191 NA 
DOCKED: ATOM     11  C   UNL     1     -51.629 -10.893  -3.228 -0.31 +0.00    +0.101 C  
DOCKED: ENDROOT
DOCKED: BRANCH   2  12
DOCKED: ATOM     12  C   UNL     1     -49.152  -5.015  -4.400 -0.29 +0.00    +0.038 C  
DOCKED: BRANCH  12  13
DOCKED: ATOM     13  C   UNL     1     -47.869  -5.390  -3.660 -0.36 +0.00    +0.038 C  
DOCKED: BRANCH  13  14
DOCKED: ATOM     14  C   UNL     1     -46.727  -4.444  -4.026 -0.18 +0.00    +0.251 C  
DOCKED: BRANCH  14  15
DOCKED: ATOM     15  N   UNL     1     -46.886  -3.168  -3.340 -0.16 +0.00    +0.141 N  
DOCKED: ATOM     16  C   UNL     1     -45.755  -2.920  -2.443 -0.07 +0.00    +0.285 C  
DOCKED: ATOM     17  C   UNL     1     -47.016  -2.075  -4.305 -0.06 +0.00    +0.285 C  
DOCKED: ENDBRANCH  14  15
DOCKED: ENDBRANCH  13  14
DOCKED: ENDBRANCH  12  13
DOCKED: ENDBRANCH   2  12
DOCKED: BRANCH   2  18
DOCKED: ATOM     18  C   UNL     1     -50.427  -4.581  -2.308 -0.14 +0.00    +0.006 A  
DOCKED: ATOM     19  C   UNL     1     -49.847  -3.315  -2.250 -0.10 +0.00    +0.001 A  
DOCKED: ATOM     20  C   UNL     1     -49.883  -2.586  -1.061 -0.06 +0.00    +0.029 A  
DOCKED: ATOM     21  C   UNL     1     -50.499  -3.124   0.068 -0.06 +0.00    +0.140 A  
DOCKED: ATOM     22  C   UNL     1     -51.079  -4.391   0.010 -0.16 +0.00    +0.029 A  
DOCKED: ATOM     23  F   UNL     1     -50.535  -2.424   1.210 +0.00 -0.00    -0.204 F  
DOCKED: ATOM     24  C   UNL     1     -51.043  -5.121  -1.179 -0.12 +0.00    +0.001 A  
DOCKED: ENDBRANCH   2  18
DOCKED: TORSDOF 5
DOCKED: TER
DOCKED: ENDMDL
________________________________________________________________________________


    FINAL DOCKED STATE:
    ________________________


Run:   490 / 512
Time taken for this run:   0.002s

DOCKED: MODEL        490
DOCKED: USER    Run = 490
DOCKED: USER
DOCKED: USER    Estimated Free Energy of Binding    =  -5.43 kcal/mol  [=(1)+(2)+(3)-(4)]
DOCKED: USER
DOCKED: USER    (1) Final Intermolecular Energy     =  -6.92 kcal/mol
DOCKED: USER        vdW + Hbond + desolv Energy     =  -6.92 kcal/mol
DOCKED: USER        Electrostatic Energy            =  +0.00 kcal/mol
DOCKED: USER        Moving Ligand-Fixed Receptor    =  -6.92 kcal/mol
DOCKED: USER        Moving Ligand-Moving Receptor   =  +0.00 kcal/mol
DOCKED: USER    (2) Final Total Internal Energy     =  -1.12 kcal/mol
DOCKED: USER    (3) Torsional Free Energy           =  +1.49 kcal/mol
DOCKED: USER    (4) Unbound System's Energy         =  -1.12 kcal/mol
DOCKED: USER
DOCKED: USER
DOCKED: REMARK  5 active torsions:
DOCKED: REMARK  status: ('A' for Active; 'I' for Inactive)
DOCKED: REMARK    1  A    between atoms: C_2  and  C_19 
DOCKED: REMARK    2  A    between atoms: C_2  and  C_11 
DOCKED: REMARK    3  A    between atoms: C_19  and  C_20 
DOCKED: REMARK    4  A    between atoms: C_20  and  C_21 
DOCKED: REMARK    5  A    between atoms: C_21  and  N_22 
DOCKED: USER                              x       y       z     vdW  Elec       q    Type
DOCKED: USER                           _______ _______ _______ _____ _____    ______ ____
DOCKED: ROOT
DOCKED: ATOM      1  O   UNL     1     -50.009 -24.274  15.477 -0.10 -0.00    -0.346 OA 
DOCKED: ATOM      2  C   UNL     1     -49.431 -23.012  15.013 -0.13 +0.00    +0.130 C  
DOCKED: ATOM      3  C   UNL     1     -49.530 -23.100  13.517 -0.27 +0.00    +0.004 A  
DOCKED: ATOM      4  C   UNL     1     -50.205 -24.259  13.161 -0.31 +0.00    +0.006 A  
DOCKED: ATOM      5  C   UNL     1     -50.606 -25.001  14.378 -0.09 +0.00    +0.169 C  
DOCKED: ATOM      6  C   UNL     1     -49.068 -22.219  12.550 -0.34 -0.00    -0.001 A  
DOCKED: ATOM      7  C   UNL     1     -50.438 -24.578  11.835 -0.42 +0.00    +0.008 A  
DOCKED: ATOM      8  C   UNL     1     -49.292 -22.529  11.207 -0.04 +0.00    +0.010 A  
DOCKED: ATOM      9  C   UNL     1     -49.974 -23.703  10.852 -0.40 +0.00    +0.068 A  
DOCKED: ATOM     10  N   UNL     1     -50.377 -24.245   8.351 -2.90 -0.00    -0.191 NA 
DOCKED: ATOM     11  C   UNL     1     -50.195 -24.002   9.472 -0.37 +0.00    +0.101 C  
DOCKED: ENDROOT
DOCKED: BRANCH   2  12
DOCKED: ATOM     12  C   UNL     1     -50.246 -21.864  15.595 -0.09 +0.00    +0.038 C  
DOCKED: BRANCH  12  13
DOCKED: ATOM     13  C   UNL     1     -49.525 -20.528  15.429 -0.08 +0.00    +0.038 C  
DOCKED: BRANCH  13  14
DOCKED: ATOM     14  C   UNL     1     -50.504 -19.418  15.051 -0.06 +0.00    +0.251 C  
DOCKED: BRANCH  14  15
DOCKED: ATOM     15  N   UNL     1     -50.625 -19.320  13.601 -0.21 +0.00    +0.141 N  
DOCKED: ATOM     16  C   UNL     1     -51.989 -18.947  13.221 -0.13 +0.00    +0.285 C  
DOCKED: ATOM     17  C   UNL     1     -49.667 -18.351  13.068 -0.10 +0.00    +0.285 C  
DOCKED: ENDBRANCH  14  15
DOCKED: ENDBRANCH  13  14
DOCKED: ENDBRANCH  12  13
DOCKED: ENDBRANCH   2  12
DOCKED: BRANCH   2  18
DOCKED: ATOM     18  C   UNL     1     -48.021 -22.973  15.501 -0.17 +0.00    +0.006 A  
DOCKED: ATOM     19  C   UNL     1     -47.749 -23.148  16.858 -0.13 +0.00    +0.001 A  
DOCKED: ATOM     20  C   UNL     1     -46.430 -23.110  17.313 -0.11 +0.00    +0.029 A  
DOCKED: ATOM     21  C   UNL     1     -45.387 -22.900  16.412 -0.04 +0.00    +0.140 A  
DOCKED: ATOM     22  C   UNL     1     -45.660 -22.726  15.056 -0.17 +0.00    +0.029 A  
DOCKED: ATOM     23  F   UNL     1     -44.121 -22.866  16.849 -0.02 -0.00    -0.204 F  
DOCKED: ATOM     24  C   UNL     1     -46.979 -22.762  14.599 -0.24 +0.00    +0.001 A  
DOCKED: ENDBRANCH   2  18
DOCKED: TORSDOF 5
DOCKED: TER
DOCKED: ENDMDL
________________________________________________________________________________


    FINAL DOCKED STATE:
    ________________________


Run:   491 / 512
Time taken for this run:   0.002s

DOCKED: MODEL        491
DOCKED: USER    Run = 491
DOCKED: USER
DOCKED: USER    Estimated Free Energy of Binding    =  -3.72 kcal/mol  [=(1)+(2)+(3)-(4)]
DOCKED: USER
DOCKED: USER    (1) Final Intermolecular Energy     =  -5.21 kcal/mol
DOCKED: USER        vdW + Hbond + desolv Energy     =  -5.21 kcal/mol
DOCKED: USER        Electrostatic Energy            =  +0.00 kcal/mol
DOCKED: USER        Moving Ligand-Fixed Receptor    =  -5.21 kcal/mol
DOCKED: USER        Moving Ligand-Moving Receptor   =  +0.00 kcal/mol
DOCKED: USER    (2) Final Total Internal Energy     =  -1.35 kcal/mol
DOCKED: USER    (3) Torsional Free Energy           =  +1.49 kcal/mol
DOCKED: USER    (4) Unbound System's Energy         =  -1.35 kcal/mol
DOCKED: USER
DOCKED: USER
DOCKED: REMARK  5 active torsions:
DOCKED: REMARK  status: ('A' for Active; 'I' for Inactive)
DOCKED: REMARK    1  A    between atoms: C_2  and  C_19 
DOCKED: REMARK    2  A    between atoms: C_2  and  C_11 
DOCKED: REMARK    3  A    between atoms: C_19  and  C_20 
DOCKED: REMARK    4  A    between atoms: C_20  and  C_21 
DOCKED: REMARK    5  A    between atoms: C_21  and  N_22 
DOCKED: USER                              x       y       z     vdW  Elec       q    Type
DOCKED: USER                           _______ _______ _______ _____ _____    ______ ____
DOCKED: ROOT
DOCKED: ATOM      1  O   UNL     1     -39.100 -21.859   6.743 +0.01 -0.00    -0.346 OA 
DOCKED: ATOM      2  C   UNL     1     -40.452 -21.304   6.823 -0.04 +0.00    +0.130 C  
DOCKED: ATOM      3  C   UNL     1     -41.184 -22.269   7.711 -0.10 +0.00    +0.004 A  
DOCKED: ATOM      4  C   UNL     1     -40.301 -23.228   8.186 -0.07 +0.00    +0.006 A  
DOCKED: ATOM      5  C   UNL     1     -38.942 -22.963   7.664 -0.02 +0.00    +0.169 C  
DOCKED: ATOM      6  C   UNL     1     -42.522 -22.289   8.078 -0.23 -0.00    -0.001 A  
DOCKED: ATOM      7  C   UNL     1     -40.722 -24.237   9.035 -0.16 +0.00    +0.008 A  
DOCKED: ATOM      8  C   UNL     1     -42.963 -23.302   8.930 -0.32 +0.00    +0.010 A  
DOCKED: ATOM      9  C   UNL     1     -42.067 -24.271   9.407 -0.28 +0.00    +0.068 A  
DOCKED: ATOM     10  N   UNL     1     -42.917 -26.136  10.992 -2.68 -0.00    -0.191 NA 
DOCKED: ATOM     11  C   UNL     1     -42.536 -25.300  10.280 -0.39 +0.00    +0.101 C  
DOCKED: ENDROOT
DOCKED: BRANCH   2  12
DOCKED: ATOM     12  C   UNL     1     -40.364 -19.903   7.415 -0.02 +0.00    +0.038 C  
DOCKED: BRANCH  12  13
DOCKED: ATOM     13  C   UNL     1     -40.161 -19.948   8.928 -0.02 +0.00    +0.038 C  
DOCKED: BRANCH  13  14
DOCKED: ATOM     14  C   UNL     1     -38.762 -19.470   9.309 -0.00 +0.00    +0.251 C  
DOCKED: BRANCH  14  15
DOCKED: ATOM     15  N   UNL     1     -37.985 -20.571   9.867 -0.00 +0.00    +0.141 N  
DOCKED: ATOM     16  C   UNL     1     -36.775 -20.069  10.521 +0.00 +0.00    +0.285 C  
DOCKED: ATOM     17  C   UNL     1     -38.790 -21.342  10.815 -0.00 +0.00    +0.285 C  
DOCKED: ENDBRANCH  14  15
DOCKED: ENDBRANCH  13  14
DOCKED: ENDBRANCH  12  13
DOCKED: ENDBRANCH   2  12
DOCKED: BRANCH   2  18
DOCKED: ATOM     18  C   UNL     1     -40.993 -21.269   5.433 -0.09 +0.00    +0.006 A  
DOCKED: ATOM     19  C   UNL     1     -40.487 -22.137   4.466 -0.09 +0.00    +0.001 A  
DOCKED: ATOM     20  C   UNL     1     -40.993 -22.103   3.166 -0.12 +0.00    +0.029 A  
DOCKED: ATOM     21  C   UNL     1     -42.003 -21.202   2.835 -0.15 +0.00    +0.140 A  
DOCKED: ATOM     22  C   UNL     1     -42.509 -20.333   3.802 -0.19 +0.00    +0.029 A  
DOCKED: ATOM     23  F   UNL     1     -42.490 -21.170   1.587 -0.07 -0.00    -0.204 F  
DOCKED: ATOM     24  C   UNL     1     -42.003 -20.367   5.103 -0.13 +0.00    +0.001 A  
DOCKED: ENDBRANCH   2  18
DOCKED: TORSDOF 5
DOCKED: TER
DOCKED: ENDMDL
________________________________________________________________________________


    FINAL DOCKED STATE:
    ________________________


Run:   492 / 512
Time taken for this run:   0.002s

DOCKED: MODEL        492
DOCKED: USER    Run = 492
DOCKED: USER
DOCKED: USER    Estimated Free Energy of Binding    =  -3.85 kcal/mol  [=(1)+(2)+(3)-(4)]
DOCKED: USER
DOCKED: USER    (1) Final Intermolecular Energy     =  -5.34 kcal/mol
DOCKED: USER        vdW + Hbond + desolv Energy     =  -5.34 kcal/mol
DOCKED: USER        Electrostatic Energy            =  +0.00 kcal/mol
DOCKED: USER        Moving Ligand-Fixed Receptor    =  -5.34 kcal/mol
DOCKED: USER        Moving Ligand-Moving Receptor   =  +0.00 kcal/mol
DOCKED: USER    (2) Final Total Internal Energy     =  -1.18 kcal/mol
DOCKED: USER    (3) Torsional Free Energy           =  +1.49 kcal/mol
DOCKED: USER    (4) Unbound System's Energy         =  -1.18 kcal/mol
DOCKED: USER
DOCKED: USER
DOCKED: REMARK  5 active torsions:
DOCKED: REMARK  status: ('A' for Active; 'I' for Inactive)
DOCKED: REMARK    1  A    between atoms: C_2  and  C_19 
DOCKED: REMARK    2  A    between atoms: C_2  and  C_11 
DOCKED: REMARK    3  A    between atoms: C_19  and  C_20 
DOCKED: REMARK    4  A    between atoms: C_20  and  C_21 
DOCKED: REMARK    5  A    between atoms: C_21  and  N_22 
DOCKED: USER                              x       y       z     vdW  Elec       q    Type
DOCKED: USER                           _______ _______ _______ _____ _____    ______ ____
DOCKED: ROOT
DOCKED: ATOM      1  O   UNL     1     -42.849 -20.192   7.051 -0.01 -0.00    -0.346 OA 
DOCKED: ATOM      2  C   UNL     1     -41.457 -20.579   7.286 -0.06 +0.00    +0.130 C  
DOCKED: ATOM      3  C   UNL     1     -41.564 -21.813   8.134 -0.11 +0.00    +0.004 A  
DOCKED: ATOM      4  C   UNL     1     -42.899 -22.165   8.279 -0.27 +0.00    +0.006 A  
DOCKED: ATOM      5  C   UNL     1     -43.754 -21.211   7.538 -0.20 +0.00    +0.169 C  
DOCKED: ATOM      6  C   UNL     1     -40.561 -22.570   8.720 -0.07 -0.00    -0.001 A  
DOCKED: ATOM      7  C   UNL     1     -43.275 -23.276   9.014 -0.33 +0.00    +0.008 A  
DOCKED: ATOM      8  C   UNL     1     -40.924 -23.691   9.468 -0.16 +0.00    +0.010 A  
DOCKED: ATOM      9  C   UNL     1     -42.274 -24.042   9.614 -0.29 +0.00    +0.068 A  
DOCKED: ATOM     10  N   UNL     1     -42.914 -26.132  11.005 -2.68 -0.00    -0.191 NA 
DOCKED: ATOM     11  C   UNL     1     -42.627 -25.194  10.382 -0.30 +0.00    +0.101 C  
DOCKED: ENDROOT
DOCKED: BRANCH   2  12
DOCKED: ATOM     12  C   UNL     1     -40.795 -20.840   5.938 -0.07 +0.00    +0.038 C  
DOCKED: BRANCH  12  13
DOCKED: ATOM     13  C   UNL     1     -41.276 -19.850   4.879 -0.07 +0.00    +0.038 C  
DOCKED: BRANCH  13  14
DOCKED: ATOM     14  C   UNL     1     -42.209 -20.526   3.877 -0.15 +0.00    +0.251 C  
DOCKED: BRANCH  14  15
DOCKED: ATOM     15  N   UNL     1     -42.923 -19.525   3.094 -0.18 +0.00    +0.141 N  
DOCKED: ATOM     16  C   UNL     1     -43.988 -20.149   2.306 -0.17 +0.00    +0.285 C  
DOCKED: ATOM     17  C   UNL     1     -43.478 -18.488   3.965 -0.17 +0.00    +0.285 C  
DOCKED: ENDBRANCH  14  15
DOCKED: ENDBRANCH  13  14
DOCKED: ENDBRANCH  12  13
DOCKED: ENDBRANCH   2  12
DOCKED: BRANCH   2  18
DOCKED: ATOM     18  C   UNL     1     -40.802 -19.441   7.995 -0.02 +0.00    +0.006 A  
DOCKED: ATOM     19  C   UNL     1     -39.656 -18.853   7.460 -0.00 +0.00    +0.001 A  
DOCKED: ATOM     20  C   UNL     1     -39.045 -17.789   8.125 +0.00 +0.00    +0.029 A  
DOCKED: ATOM     21  C   UNL     1     -39.580 -17.315   9.321 -0.00 +0.00    +0.140 A  
DOCKED: ATOM     22  C   UNL     1     -40.726 -17.903   9.855 -0.01 +0.00    +0.029 A  
DOCKED: ATOM     23  F   UNL     1     -38.994 -16.292   9.958 +0.00 -0.00    -0.204 F  
DOCKED: ATOM     24  C   UNL     1     -41.338 -18.967   9.192 -0.03 +0.00    +0.001 A  
DOCKED: ENDBRANCH   2  18
DOCKED: TORSDOF 5
DOCKED: TER
DOCKED: ENDMDL
________________________________________________________________________________


    FINAL DOCKED STATE:
    ________________________


Run:   493 / 512
Time taken for this run:   0.002s

DOCKED: MODEL        493
DOCKED: USER    Run = 493
DOCKED: USER
DOCKED: USER    Estimated Free Energy of Binding    =  -5.82 kcal/mol  [=(1)+(2)+(3)-(4)]
DOCKED: USER
DOCKED: USER    (1) Final Intermolecular Energy     =  -7.31 kcal/mol
DOCKED: USER        vdW + Hbond + desolv Energy     =  -7.31 kcal/mol
DOCKED: USER        Electrostatic Energy            =  +0.00 kcal/mol
DOCKED: USER        Moving Ligand-Fixed Receptor    =  -7.31 kcal/mol
DOCKED: USER        Moving Ligand-Moving Receptor   =  +0.00 kcal/mol
DOCKED: USER    (2) Final Total Internal Energy     =  -1.10 kcal/mol
DOCKED: USER    (3) Torsional Free Energy           =  +1.49 kcal/mol
DOCKED: USER    (4) Unbound System's Energy         =  -1.10 kcal/mol
DOCKED: USER
DOCKED: USER
DOCKED: REMARK  5 active torsions:
DOCKED: REMARK  status: ('A' for Active; 'I' for Inactive)
DOCKED: REMARK    1  A    between atoms: C_2  and  C_19 
DOCKED: REMARK    2  A    between atoms: C_2  and  C_11 
DOCKED: REMARK    3  A    between atoms: C_19  and  C_20 
DOCKED: REMARK    4  A    between atoms: C_20  and  C_21 
DOCKED: REMARK    5  A    between atoms: C_21  and  N_22 
DOCKED: USER                              x       y       z     vdW  Elec       q    Type
DOCKED: USER                           _______ _______ _______ _____ _____    ______ ____
DOCKED: ROOT
DOCKED: ATOM      1  O   UNL     1     -48.173 -21.444  14.583 -0.05 -0.00    -0.346 OA 
DOCKED: ATOM      2  C   UNL     1     -47.845 -22.870  14.604 -0.22 +0.00    +0.130 C  
DOCKED: ATOM      3  C   UNL     1     -48.382 -23.382  13.299 -0.34 +0.00    +0.004 A  
DOCKED: ATOM      4  C   UNL     1     -48.874 -22.323  12.549 -0.34 +0.00    +0.006 A  
DOCKED: ATOM      5  C   UNL     1     -48.688 -21.054  13.288 -0.23 +0.00    +0.169 C  
DOCKED: ATOM      6  C   UNL     1     -48.421 -24.679  12.809 -0.41 -0.00    -0.001 A  
DOCKED: ATOM      7  C   UNL     1     -49.423 -22.523  11.294 +0.03 +0.00    +0.008 A  
DOCKED: ATOM      8  C   UNL     1     -48.975 -24.898  11.547 -0.45 +0.00    +0.010 A  
DOCKED: ATOM      9  C   UNL     1     -49.473 -23.824  10.793 -0.41 +0.00    +0.068 A  
DOCKED: ATOM     10  N   UNL     1     -50.491 -24.264   8.451 -2.86 -0.00    -0.191 NA 
DOCKED: ATOM     11  C   UNL     1     -50.035 -24.067   9.502 -0.45 +0.00    +0.101 C  
DOCKED: ENDROOT
DOCKED: BRANCH   2  12
DOCKED: ATOM     12  C   UNL     1     -46.332 -23.016  14.722 -0.22 +0.00    +0.038 C  
DOCKED: BRANCH  12  13
DOCKED: ATOM     13  C   UNL     1     -45.668 -21.681  15.053 -0.17 +0.00    +0.038 C  
DOCKED: BRANCH  13  14
DOCKED: ATOM     14  C   UNL     1     -44.196 -21.873  15.410 -0.10 +0.00    +0.251 C  
DOCKED: BRANCH  14  15
DOCKED: ATOM     15  N   UNL     1     -43.939 -23.262  15.771 -0.13 +0.00    +0.141 N  
DOCKED: ATOM     16  C   UNL     1     -42.734 -23.755  15.102 -0.13 +0.00    +0.285 C  
DOCKED: ATOM     17  C   UNL     1     -43.805 -23.401  17.222 -0.04 +0.00    +0.285 C  
DOCKED: ENDBRANCH  14  15
DOCKED: ENDBRANCH  13  14
DOCKED: ENDBRANCH  12  13
DOCKED: ENDBRANCH   2  12
DOCKED: BRANCH   2  18
DOCKED: ATOM     18  C   UNL     1     -48.536 -23.459  15.788 -0.17 +0.00    +0.006 A  
DOCKED: ATOM     19  C   UNL     1     -48.024 -24.605  16.395 -0.14 +0.00    +0.001 A  
DOCKED: ATOM     20  C   UNL     1     -48.672 -25.155  17.502 -0.14 +0.00    +0.029 A  
DOCKED: ATOM     21  C   UNL     1     -49.829 -24.558  18.001 -0.11 +0.00    +0.140 A  
DOCKED: ATOM     22  C   UNL     1     -50.340 -23.412  17.393 -0.09 +0.00    +0.029 A  
DOCKED: ATOM     23  F   UNL     1     -50.449 -25.085  19.064 -0.03 -0.00    -0.204 F  
DOCKED: ATOM     24  C   UNL     1     -49.693 -22.861  16.286 -0.09 +0.00    +0.001 A  
DOCKED: ENDBRANCH   2  18
DOCKED: TORSDOF 5
DOCKED: TER
DOCKED: ENDMDL
________________________________________________________________________________


    FINAL DOCKED STATE:
    ________________________


Run:   494 / 512
Time taken for this run:   0.002s

DOCKED: MODEL        494
DOCKED: USER    Run = 494
DOCKED: USER
DOCKED: USER    Estimated Free Energy of Binding    =  -3.77 kcal/mol  [=(1)+(2)+(3)-(4)]
DOCKED: USER
DOCKED: USER    (1) Final Intermolecular Energy     =  -5.26 kcal/mol
DOCKED: USER        vdW + Hbond + desolv Energy     =  -5.26 kcal/mol
DOCKED: USER        Electrostatic Energy            =  +0.00 kcal/mol
DOCKED: USER        Moving Ligand-Fixed Receptor    =  -5.26 kcal/mol
DOCKED: USER        Moving Ligand-Moving Receptor   =  +0.00 kcal/mol
DOCKED: USER    (2) Final Total Internal Energy     =  -1.03 kcal/mol
DOCKED: USER    (3) Torsional Free Energy           =  +1.49 kcal/mol
DOCKED: USER    (4) Unbound System's Energy         =  -1.03 kcal/mol
DOCKED: USER
DOCKED: USER
DOCKED: REMARK  5 active torsions:
DOCKED: REMARK  status: ('A' for Active; 'I' for Inactive)
DOCKED: REMARK    1  A    between atoms: C_2  and  C_19 
DOCKED: REMARK    2  A    between atoms: C_2  and  C_11 
DOCKED: REMARK    3  A    between atoms: C_19  and  C_20 
DOCKED: REMARK    4  A    between atoms: C_20  and  C_21 
DOCKED: REMARK    5  A    between atoms: C_21  and  N_22 
DOCKED: USER                              x       y       z     vdW  Elec       q    Type
DOCKED: USER                           _______ _______ _______ _____ _____    ______ ____
DOCKED: ROOT
DOCKED: ATOM      1  O   UNL     1     -44.519 -16.500   6.217 -0.03 -0.00    -0.346 OA 
DOCKED: ATOM      2  C   UNL     1     -43.577 -16.339   5.108 -0.10 +0.00    +0.130 C  
DOCKED: ATOM      3  C   UNL     1     -44.269 -15.377   4.186 -0.18 +0.00    +0.004 A  
DOCKED: ATOM      4  C   UNL     1     -45.451 -14.941   4.768 -0.26 +0.00    +0.006 A  
DOCKED: ATOM      5  C   UNL     1     -45.615 -15.563   6.100 -0.22 +0.00    +0.169 C  
DOCKED: ATOM      6  C   UNL     1     -43.878 -14.917   2.937 -0.16 -0.00    -0.001 A  
DOCKED: ATOM      7  C   UNL     1     -46.280 -14.038   4.124 -0.17 +0.00    +0.008 A  
DOCKED: ATOM      8  C   UNL     1     -44.706 -14.010   2.273 -0.19 +0.00    +0.010 A  
DOCKED: ATOM      9  C   UNL     1     -45.900 -13.572   2.865 +0.06 +0.00    +0.068 A  
DOCKED: ATOM     10  N   UNL     1     -47.411 -11.883   1.608 -2.32 -0.00    -0.191 NA 
DOCKED: ATOM     11  C   UNL     1     -46.734 -12.641   2.171 -0.38 +0.00    +0.101 C  
DOCKED: ENDROOT
DOCKED: BRANCH   2  12
DOCKED: ATOM     12  C   UNL     1     -42.267 -15.792   5.662 -0.04 +0.00    +0.038 C  
DOCKED: BRANCH  12  13
DOCKED: ATOM     13  C   UNL     1     -41.367 -15.266   4.546 -0.02 +0.00    +0.038 C  
DOCKED: BRANCH  13  14
DOCKED: ATOM     14  C   UNL     1     -40.882 -13.850   4.853 -0.01 +0.00    +0.251 C  
DOCKED: BRANCH  14  15
DOCKED: ATOM     15  N   UNL     1     -41.821 -12.866   4.328 -0.03 +0.00    +0.141 N  
DOCKED: ATOM     16  C   UNL     1     -41.565 -11.547   4.909 -0.04 +0.00    +0.285 C  
DOCKED: ATOM     17  C   UNL     1     -41.738 -12.803   2.868 +0.00 +0.00    +0.285 C  
DOCKED: ENDBRANCH  14  15
DOCKED: ENDBRANCH  13  14
DOCKED: ENDBRANCH  12  13
DOCKED: ENDBRANCH   2  12
DOCKED: BRANCH   2  18
DOCKED: ATOM     18  C   UNL     1     -43.383 -17.689   4.502 -0.15 +0.00    +0.006 A  
DOCKED: ATOM     19  C   UNL     1     -44.012 -18.009   3.299 -0.20 +0.00    +0.001 A  
DOCKED: ATOM     20  C   UNL     1     -43.830 -19.272   2.734 -0.27 +0.00    +0.029 A  
DOCKED: ATOM     21  C   UNL     1     -43.020 -20.211   3.370 -0.20 +0.00    +0.140 A  
DOCKED: ATOM     22  C   UNL     1     -42.391 -19.890   4.573 -0.15 +0.00    +0.029 A  
DOCKED: ATOM     23  F   UNL     1     -42.844 -21.422   2.826 -0.11 -0.00    -0.204 F  
DOCKED: ATOM     24  C   UNL     1     -42.573 -18.627   5.140 -0.10 +0.00    +0.001 A  
DOCKED: ENDBRANCH   2  18
DOCKED: TORSDOF 5
DOCKED: TER
DOCKED: ENDMDL
________________________________________________________________________________


    FINAL DOCKED STATE:
    ________________________


Run:   495 / 512
Time taken for this run:   0.002s

DOCKED: MODEL        495
DOCKED: USER    Run = 495
DOCKED: USER
DOCKED: USER    Estimated Free Energy of Binding    =  -5.62 kcal/mol  [=(1)+(2)+(3)-(4)]
DOCKED: USER
DOCKED: USER    (1) Final Intermolecular Energy     =  -7.11 kcal/mol
DOCKED: USER        vdW + Hbond + desolv Energy     =  -7.11 kcal/mol
DOCKED: USER        Electrostatic Energy            =  +0.00 kcal/mol
DOCKED: USER        Moving Ligand-Fixed Receptor    =  -7.11 kcal/mol
DOCKED: USER        Moving Ligand-Moving Receptor   =  +0.00 kcal/mol
DOCKED: USER    (2) Final Total Internal Energy     =  -1.24 kcal/mol
DOCKED: USER    (3) Torsional Free Energy           =  +1.49 kcal/mol
DOCKED: USER    (4) Unbound System's Energy         =  -1.24 kcal/mol
DOCKED: USER
DOCKED: USER
DOCKED: REMARK  5 active torsions:
DOCKED: REMARK  status: ('A' for Active; 'I' for Inactive)
DOCKED: REMARK    1  A    between atoms: C_2  and  C_19 
DOCKED: REMARK    2  A    between atoms: C_2  and  C_11 
DOCKED: REMARK    3  A    between atoms: C_19  and  C_20 
DOCKED: REMARK    4  A    between atoms: C_20  and  C_21 
DOCKED: REMARK    5  A    between atoms: C_21  and  N_22 
DOCKED: USER                              x       y       z     vdW  Elec       q    Type
DOCKED: USER                           _______ _______ _______ _____ _____    ______ ____
DOCKED: ROOT
DOCKED: ATOM      1  O   UNL     1     -48.268 -21.472  14.668 -0.05 -0.00    -0.346 OA 
DOCKED: ATOM      2  C   UNL     1     -48.420 -22.922  14.795 -0.19 +0.00    +0.130 C  
DOCKED: ATOM      3  C   UNL     1     -48.889 -23.354  13.435 -0.32 +0.00    +0.004 A  
DOCKED: ATOM      4  C   UNL     1     -48.897 -22.265  12.576 -0.34 +0.00    +0.006 A  
DOCKED: ATOM      5  C   UNL     1     -48.430 -21.057  13.292 -0.24 +0.00    +0.169 C  
DOCKED: ATOM      6  C   UNL     1     -49.267 -24.613  12.992 -0.29 -0.00    -0.001 A  
DOCKED: ATOM      7  C   UNL     1     -49.285 -22.393  11.253 +0.04 +0.00    +0.008 A  
DOCKED: ATOM      8  C   UNL     1     -49.665 -24.758  11.662 -0.49 +0.00    +0.010 A  
DOCKED: ATOM      9  C   UNL     1     -49.673 -23.654  10.797 -0.42 +0.00    +0.068 A  
DOCKED: ATOM     10  N   UNL     1     -50.412 -23.959   8.333 -3.14 -0.00    -0.191 NA 
DOCKED: ATOM     11  C   UNL     1     -50.081 -23.822   9.438 -0.42 +0.00    +0.101 C  
DOCKED: ENDROOT
DOCKED: BRANCH   2  12
DOCKED: ATOM     12  C   UNL     1     -47.070 -23.518  15.174 -0.23 +0.00    +0.038 C  
DOCKED: BRANCH  12  13
DOCKED: ATOM     13  C   UNL     1     -46.135 -22.456  15.750 -0.19 +0.00    +0.038 C  
DOCKED: BRANCH  13  14
DOCKED: ATOM     14  C   UNL     1     -46.542 -22.080  17.174 -0.05 +0.00    +0.251 C  
DOCKED: BRANCH  14  15
DOCKED: ATOM     15  N   UNL     1     -45.570 -22.594  18.132 -0.06 +0.00    +0.141 N  
DOCKED: ATOM     16  C   UNL     1     -46.160 -23.660  18.943 -0.07 +0.00    +0.285 C  
DOCKED: ATOM     17  C   UNL     1     -44.375 -23.082  17.442 -0.06 +0.00    +0.285 C  
DOCKED: ENDBRANCH  14  15
DOCKED: ENDBRANCH  13  14
DOCKED: ENDBRANCH  12  13
DOCKED: ENDBRANCH   2  12
DOCKED: BRANCH   2  18
DOCKED: ATOM     18  C   UNL     1     -49.434 -23.162  15.863 -0.12 +0.00    +0.006 A  
DOCKED: ATOM     19  C   UNL     1     -50.592 -22.387  15.912 -0.08 +0.00    +0.001 A  
DOCKED: ATOM     20  C   UNL     1     -51.539 -22.612  16.912 -0.05 +0.00    +0.029 A  
DOCKED: ATOM     21  C   UNL     1     -51.327 -23.612  17.860 -0.05 +0.00    +0.140 A  
DOCKED: ATOM     22  C   UNL     1     -50.169 -24.388  17.810 -0.14 +0.00    +0.029 A  
DOCKED: ATOM     23  F   UNL     1     -52.237 -23.830  18.818 +0.01 -0.00    -0.204 F  
DOCKED: ATOM     24  C   UNL     1     -49.221 -24.162  16.811 -0.19 +0.00    +0.001 A  
DOCKED: ENDBRANCH   2  18
DOCKED: TORSDOF 5
DOCKED: TER
DOCKED: ENDMDL
________________________________________________________________________________


    FINAL DOCKED STATE:
    ________________________


Run:   496 / 512
Time taken for this run:   0.002s

DOCKED: MODEL        496
DOCKED: USER    Run = 496
DOCKED: USER
DOCKED: USER    Estimated Free Energy of Binding    =  -4.67 kcal/mol  [=(1)+(2)+(3)-(4)]
DOCKED: USER
DOCKED: USER    (1) Final Intermolecular Energy     =  -6.16 kcal/mol
DOCKED: USER        vdW + Hbond + desolv Energy     =  -6.16 kcal/mol
DOCKED: USER        Electrostatic Energy            =  +0.00 kcal/mol
DOCKED: USER        Moving Ligand-Fixed Receptor    =  -6.16 kcal/mol
DOCKED: USER        Moving Ligand-Moving Receptor   =  +0.00 kcal/mol
DOCKED: USER    (2) Final Total Internal Energy     =  -1.46 kcal/mol
DOCKED: USER    (3) Torsional Free Energy           =  +1.49 kcal/mol
DOCKED: USER    (4) Unbound System's Energy         =  -1.46 kcal/mol
DOCKED: USER
DOCKED: USER
DOCKED: REMARK  5 active torsions:
DOCKED: REMARK  status: ('A' for Active; 'I' for Inactive)
DOCKED: REMARK    1  A    between atoms: C_2  and  C_19 
DOCKED: REMARK    2  A    between atoms: C_2  and  C_11 
DOCKED: REMARK    3  A    between atoms: C_19  and  C_20 
DOCKED: REMARK    4  A    between atoms: C_20  and  C_21 
DOCKED: REMARK    5  A    between atoms: C_21  and  N_22 
DOCKED: USER                              x       y       z     vdW  Elec       q    Type
DOCKED: USER                           _______ _______ _______ _____ _____    ______ ____
DOCKED: ROOT
DOCKED: ATOM      1  O   UNL     1     -51.701 -24.017  15.287 -0.06 -0.00    -0.346 OA 
DOCKED: ATOM      2  C   UNL     1     -50.729 -22.967  14.979 -0.11 +0.00    +0.130 C  
DOCKED: ATOM      3  C   UNL     1     -50.495 -23.115  13.503 -0.24 +0.00    +0.004 A  
DOCKED: ATOM      4  C   UNL     1     -51.341 -24.089  12.992 -0.27 +0.00    +0.006 A  
DOCKED: ATOM      5  C   UNL     1     -52.189 -24.637  14.074 +0.00 +0.00    +0.169 C  
DOCKED: ATOM      6  C   UNL     1     -49.613 -22.434  12.677 -0.32 -0.00    -0.001 A  
DOCKED: ATOM      7  C   UNL     1     -51.331 -24.418  11.647 -0.37 +0.00    +0.008 A  
DOCKED: ATOM      8  C   UNL     1     -49.588 -22.757  11.320 -0.22 +0.00    +0.010 A  
DOCKED: ATOM      9  C   UNL     1     -50.444 -23.744  10.807 -0.35 +0.00    +0.068 A  
DOCKED: ATOM     10  N   UNL     1     -50.376 -24.316   8.281 -2.85 -0.00    -0.191 NA 
DOCKED: ATOM     11  C   UNL     1     -50.406 -24.060   9.414 -0.27 +0.00    +0.101 C  
DOCKED: ENDROOT
DOCKED: BRANCH   2  12
DOCKED: ATOM     12  C   UNL     1     -51.338 -21.620  15.351 -0.11 +0.00    +0.038 C  
DOCKED: BRANCH  12  13
DOCKED: ATOM     13  C   UNL     1     -51.483 -21.474  16.865 -0.05 +0.00    +0.038 C  
DOCKED: BRANCH  13  14
DOCKED: ATOM     14  C   UNL     1     -52.837 -21.997  17.340 -0.01 +0.00    +0.251 C  
DOCKED: BRANCH  14  15
DOCKED: ATOM     15  N   UNL     1     -52.671 -22.827  18.528 -0.02 +0.00    +0.141 N  
DOCKED: ATOM     16  C   UNL     1     -52.684 -24.246  18.172 -0.03 +0.00    +0.285 C  
DOCKED: ATOM     17  C   UNL     1     -51.428 -22.490  19.223 -0.00 +0.00    +0.285 C  
DOCKED: ENDBRANCH  14  15
DOCKED: ENDBRANCH  13  14
DOCKED: ENDBRANCH  12  13
DOCKED: ENDBRANCH   2  12
DOCKED: BRANCH   2  18
DOCKED: ATOM     18  C   UNL     1     -49.510 -23.249  15.792 -0.13 +0.00    +0.006 A  
DOCKED: ATOM     19  C   UNL     1     -49.541 -24.237  16.775 -0.19 +0.00    +0.001 A  
DOCKED: ATOM     20  C   UNL     1     -48.401 -24.500  17.535 -0.21 +0.00    +0.029 A  
DOCKED: ATOM     21  C   UNL     1     -47.231 -23.775  17.310 -0.07 +0.00    +0.140 A  
DOCKED: ATOM     22  C   UNL     1     -47.200 -22.787  16.326 -0.13 +0.00    +0.029 A  
DOCKED: ATOM     23  F   UNL     1     -46.136 -24.029  18.038 -0.03 -0.00    -0.204 F  
DOCKED: ATOM     24  C   UNL     1     -48.341 -22.523  15.566 -0.14 +0.00    +0.001 A  
DOCKED: ENDBRANCH   2  18
DOCKED: TORSDOF 5
DOCKED: TER
DOCKED: ENDMDL
________________________________________________________________________________


    FINAL DOCKED STATE:
    ________________________


Run:   497 / 512
Time taken for this run:   0.002s

DOCKED: MODEL        497
DOCKED: USER    Run = 497
DOCKED: USER
DOCKED: USER    Estimated Free Energy of Binding    =  -4.59 kcal/mol  [=(1)+(2)+(3)-(4)]
DOCKED: USER
DOCKED: USER    (1) Final Intermolecular Energy     =  -6.08 kcal/mol
DOCKED: USER        vdW + Hbond + desolv Energy     =  -6.08 kcal/mol
DOCKED: USER        Electrostatic Energy            =  +0.00 kcal/mol
DOCKED: USER        Moving Ligand-Fixed Receptor    =  -6.08 kcal/mol
DOCKED: USER        Moving Ligand-Moving Receptor   =  +0.00 kcal/mol
DOCKED: USER    (2) Final Total Internal Energy     =  -1.51 kcal/mol
DOCKED: USER    (3) Torsional Free Energy           =  +1.49 kcal/mol
DOCKED: USER    (4) Unbound System's Energy         =  -1.51 kcal/mol
DOCKED: USER
DOCKED: USER
DOCKED: REMARK  5 active torsions:
DOCKED: REMARK  status: ('A' for Active; 'I' for Inactive)
DOCKED: REMARK    1  A    between atoms: C_2  and  C_19 
DOCKED: REMARK    2  A    between atoms: C_2  and  C_11 
DOCKED: REMARK    3  A    between atoms: C_19  and  C_20 
DOCKED: REMARK    4  A    between atoms: C_20  and  C_21 
DOCKED: REMARK    5  A    between atoms: C_21  and  N_22 
DOCKED: USER                              x       y       z     vdW  Elec       q    Type
DOCKED: USER                           _______ _______ _______ _____ _____    ______ ____
DOCKED: ROOT
DOCKED: ATOM      1  O   UNL     1     -46.787 -15.241   8.072 -0.11 -0.00    -0.346 OA 
DOCKED: ATOM      2  C   UNL     1     -45.443 -15.146   7.501 -0.19 +0.00    +0.130 C  
DOCKED: ATOM      3  C   UNL     1     -45.669 -14.535   6.148 -0.23 +0.00    +0.004 A  
DOCKED: ATOM      4  C   UNL     1     -47.009 -14.206   6.003 -0.12 +0.00    +0.006 A  
DOCKED: ATOM      5  C   UNL     1     -47.750 -14.560   7.234 -0.10 +0.00    +0.169 C  
DOCKED: ATOM      6  C   UNL     1     -44.759 -14.279   5.133 -0.22 -0.00    -0.001 A  
DOCKED: ATOM      7  C   UNL     1     -47.485 -13.618   4.843 -0.20 +0.00    +0.008 A  
DOCKED: ATOM      8  C   UNL     1     -45.224 -13.691   3.955 -0.28 +0.00    +0.010 A  
DOCKED: ATOM      9  C   UNL     1     -46.581 -13.362   3.812 -0.34 +0.00    +0.068 A  
DOCKED: ATOM     10  N   UNL     1     -47.410 -12.266   1.615 -2.52 -0.00    -0.191 NA 
DOCKED: ATOM     11  C   UNL     1     -47.038 -12.758   2.600 -0.34 +0.00    +0.101 C  
DOCKED: ENDROOT
DOCKED: BRANCH   2  12
DOCKED: ATOM     12  C   UNL     1     -44.592 -14.271   8.413 -0.13 +0.00    +0.038 C  
DOCKED: BRANCH  12  13
DOCKED: ATOM     13  C   UNL     1     -45.277 -14.035   9.757 -0.17 +0.00    +0.038 C  
DOCKED: BRANCH  13  14
DOCKED: ATOM     14  C   UNL     1     -44.722 -14.971  10.829 -0.07 +0.00    +0.251 C  
DOCKED: BRANCH  14  15
DOCKED: ATOM     15  N   UNL     1     -45.777 -15.835  11.344 -0.05 +0.00    +0.141 N  
DOCKED: ATOM     16  C   UNL     1     -47.095 -15.313  10.981 -0.07 +0.00    +0.285 C  
DOCKED: ATOM     17  C   UNL     1     -45.617 -17.201  10.842 -0.06 +0.00    +0.285 C  
DOCKED: ENDBRANCH  14  15
DOCKED: ENDBRANCH  13  14
DOCKED: ENDBRANCH  12  13
DOCKED: ENDBRANCH   2  12
DOCKED: BRANCH   2  18
DOCKED: ATOM     18  C   UNL     1     -44.901 -16.535   7.428 -0.14 +0.00    +0.006 A  
DOCKED: ATOM     19  C   UNL     1     -45.768 -17.625   7.496 -0.22 +0.00    +0.001 A  
DOCKED: ATOM     20  C   UNL     1     -45.260 -18.923   7.428 -0.19 +0.00    +0.029 A  
DOCKED: ATOM     21  C   UNL     1     -43.888 -19.129   7.291 -0.14 +0.00    +0.140 A  
DOCKED: ATOM     22  C   UNL     1     -43.022 -18.038   7.223 -0.06 +0.00    +0.029 A  
DOCKED: ATOM     23  F   UNL     1     -43.401 -20.375   7.224 -0.07 -0.00    -0.204 F  
DOCKED: ATOM     24  C   UNL     1     -43.529 -16.739   7.292 -0.06 +0.00    +0.001 A  
DOCKED: ENDBRANCH   2  18
DOCKED: TORSDOF 5
DOCKED: TER
DOCKED: ENDMDL
________________________________________________________________________________


    FINAL DOCKED STATE:
    ________________________


Run:   498 / 512
Time taken for this run:   0.002s

DOCKED: MODEL        498
DOCKED: USER    Run = 498
DOCKED: USER
DOCKED: USER    Estimated Free Energy of Binding    =  -4.55 kcal/mol  [=(1)+(2)+(3)-(4)]
DOCKED: USER
DOCKED: USER    (1) Final Intermolecular Energy     =  -6.05 kcal/mol
DOCKED: USER        vdW + Hbond + desolv Energy     =  -6.05 kcal/mol
DOCKED: USER        Electrostatic Energy            =  +0.00 kcal/mol
DOCKED: USER        Moving Ligand-Fixed Receptor    =  -6.05 kcal/mol
DOCKED: USER        Moving Ligand-Moving Receptor   =  +0.00 kcal/mol
DOCKED: USER    (2) Final Total Internal Energy     =  -0.91 kcal/mol
DOCKED: USER    (3) Torsional Free Energy           =  +1.49 kcal/mol
DOCKED: USER    (4) Unbound System's Energy         =  -0.91 kcal/mol
DOCKED: USER
DOCKED: USER
DOCKED: REMARK  5 active torsions:
DOCKED: REMARK  status: ('A' for Active; 'I' for Inactive)
DOCKED: REMARK    1  A    between atoms: C_2  and  C_19 
DOCKED: REMARK    2  A    between atoms: C_2  and  C_11 
DOCKED: REMARK    3  A    between atoms: C_19  and  C_20 
DOCKED: REMARK    4  A    between atoms: C_20  and  C_21 
DOCKED: REMARK    5  A    between atoms: C_21  and  N_22 
DOCKED: USER                              x       y       z     vdW  Elec       q    Type
DOCKED: USER                           _______ _______ _______ _____ _____    ______ ____
DOCKED: ROOT
DOCKED: ATOM      1  O   UNL     1     -45.499 -21.463  15.330 -0.08 -0.00    -0.346 OA 
DOCKED: ATOM      2  C   UNL     1     -46.421 -20.556  14.646 -0.13 +0.00    +0.130 C  
DOCKED: ATOM      3  C   UNL     1     -47.405 -21.476  13.982 -0.22 +0.00    +0.004 A  
DOCKED: ATOM      4  C   UNL     1     -47.135 -22.788  14.344 -0.25 +0.00    +0.006 A  
DOCKED: ATOM      5  C   UNL     1     -45.980 -22.826  15.269 -0.16 +0.00    +0.169 C  
DOCKED: ATOM      6  C   UNL     1     -48.460 -21.175  13.134 -0.28 -0.00    -0.001 A  
DOCKED: ATOM      7  C   UNL     1     -47.903 -23.838  13.872 -0.34 +0.00    +0.008 A  
DOCKED: ATOM      8  C   UNL     1     -49.242 -22.223  12.645 -0.32 +0.00    +0.010 A  
DOCKED: ATOM      9  C   UNL     1     -48.964 -23.548  13.013 -0.31 +0.00    +0.068 A  
DOCKED: ATOM     10  N   UNL     1     -50.437 -25.471  12.093 -2.54 -0.00    -0.191 NA 
DOCKED: ATOM     11  C   UNL     1     -49.776 -24.609  12.505 -0.37 +0.00    +0.101 C  
DOCKED: ENDROOT
DOCKED: BRANCH   2  12
DOCKED: ATOM     12  C   UNL     1     -47.067 -19.649  15.687 -0.06 +0.00    +0.038 C  
DOCKED: BRANCH  12  13
DOCKED: ATOM     13  C   UNL     1     -47.576 -18.353  15.058 -0.06 +0.00    +0.038 C  
DOCKED: BRANCH  13  14
DOCKED: ATOM     14  C   UNL     1     -48.980 -18.535  14.486 -0.08 +0.00    +0.251 C  
DOCKED: BRANCH  14  15
DOCKED: ATOM     15  N   UNL     1     -49.620 -17.240  14.291 -0.06 +0.00    +0.141 N  
DOCKED: ATOM     16  C   UNL     1     -48.677 -16.153  14.557 -0.02 +0.00    +0.285 C  
DOCKED: ATOM     17  C   UNL     1     -50.154 -17.127  12.933 -0.13 +0.00    +0.285 C  
DOCKED: ENDBRANCH  14  15
DOCKED: ENDBRANCH  13  14
DOCKED: ENDBRANCH  12  13
DOCKED: ENDBRANCH   2  12
DOCKED: BRANCH   2  18
DOCKED: ATOM     18  C   UNL     1     -45.613 -19.767  13.670 -0.13 +0.00    +0.006 A  
DOCKED: ATOM     19  C   UNL     1     -44.282 -19.464  13.952 -0.10 +0.00    +0.001 A  
DOCKED: ATOM     20  C   UNL     1     -43.528 -18.725  13.040 -0.07 +0.00    +0.029 A  
DOCKED: ATOM     21  C   UNL     1     -44.105 -18.291  11.847 -0.08 +0.00    +0.140 A  
DOCKED: ATOM     22  C   UNL     1     -45.437 -18.595  11.566 -0.14 +0.00    +0.029 A  
DOCKED: ATOM     23  F   UNL     1     -43.381 -17.584  10.971 -0.00 -0.00    -0.204 F  
DOCKED: ATOM     24  C   UNL     1     -46.193 -19.333  12.479 -0.12 +0.00    +0.001 A  
DOCKED: ENDBRANCH   2  18
DOCKED: TORSDOF 5
DOCKED: TER
DOCKED: ENDMDL
________________________________________________________________________________


    FINAL DOCKED STATE:
    ________________________


Run:   499 / 512
Time taken for this run:   0.002s

DOCKED: MODEL        499
DOCKED: USER    Run = 499
DOCKED: USER
DOCKED: USER    Estimated Free Energy of Binding    =  -4.27 kcal/mol  [=(1)+(2)+(3)-(4)]
DOCKED: USER
DOCKED: USER    (1) Final Intermolecular Energy     =  -5.76 kcal/mol
DOCKED: USER        vdW + Hbond + desolv Energy     =  -5.76 kcal/mol
DOCKED: USER        Electrostatic Energy            =  +0.00 kcal/mol
DOCKED: USER        Moving Ligand-Fixed Receptor    =  -5.76 kcal/mol
DOCKED: USER        Moving Ligand-Moving Receptor   =  +0.00 kcal/mol
DOCKED: USER    (2) Final Total Internal Energy     =  -1.42 kcal/mol
DOCKED: USER    (3) Torsional Free Energy           =  +1.49 kcal/mol
DOCKED: USER    (4) Unbound System's Energy         =  -1.42 kcal/mol
DOCKED: USER
DOCKED: USER
DOCKED: REMARK  5 active torsions:
DOCKED: REMARK  status: ('A' for Active; 'I' for Inactive)
DOCKED: REMARK    1  A    between atoms: C_2  and  C_19 
DOCKED: REMARK    2  A    between atoms: C_2  and  C_11 
DOCKED: REMARK    3  A    between atoms: C_19  and  C_20 
DOCKED: REMARK    4  A    between atoms: C_20  and  C_21 
DOCKED: REMARK    5  A    between atoms: C_21  and  N_22 
DOCKED: USER                              x       y       z     vdW  Elec       q    Type
DOCKED: USER                           _______ _______ _______ _____ _____    ______ ____
DOCKED: ROOT
DOCKED: ATOM      1  O   UNL     1     -46.300 -20.378  14.919 -0.05 -0.00    -0.346 OA 
DOCKED: ATOM      2  C   UNL     1     -47.570 -19.826  14.447 -0.13 +0.00    +0.130 C  
DOCKED: ATOM      3  C   UNL     1     -48.278 -21.009  13.854 -0.23 +0.00    +0.004 A  
DOCKED: ATOM      4  C   UNL     1     -47.529 -22.157  14.067 -0.24 +0.00    +0.006 A  
DOCKED: ATOM      5  C   UNL     1     -46.297 -21.821  14.816 -0.14 +0.00    +0.169 C  
DOCKED: ATOM      6  C   UNL     1     -49.494 -21.067  13.189 -0.26 -0.00    -0.001 A  
DOCKED: ATOM      7  C   UNL     1     -47.963 -23.394  13.623 -0.32 +0.00    +0.008 A  
DOCKED: ATOM      8  C   UNL     1     -49.944 -22.306  12.731 -0.27 +0.00    +0.010 A  
DOCKED: ATOM      9  C   UNL     1     -49.182 -23.464  12.947 -0.31 +0.00    +0.068 A  
DOCKED: ATOM     10  N   UNL     1     -50.048 -25.750  12.088 -2.61 -0.00    -0.191 NA 
DOCKED: ATOM     11  C   UNL     1     -49.659 -24.725  12.473 -0.33 +0.00    +0.101 C  
DOCKED: ENDROOT
DOCKED: BRANCH   2  12
DOCKED: ATOM     12  C   UNL     1     -48.309 -19.227  15.638 -0.05 +0.00    +0.038 C  
DOCKED: BRANCH  12  13
DOCKED: ATOM     13  C   UNL     1     -48.421 -20.230  16.785 -0.03 +0.00    +0.038 C  
DOCKED: BRANCH  13  14
DOCKED: ATOM     14  C   UNL     1     -49.844 -20.275  17.338 -0.00 +0.00    +0.251 C  
DOCKED: BRANCH  14  15
DOCKED: ATOM     15  N   UNL     1     -50.356 -21.640  17.310 -0.02 +0.00    +0.141 N  
DOCKED: ATOM     16  C   UNL     1     -51.107 -21.885  16.078 -0.01 +0.00    +0.285 C  
DOCKED: ATOM     17  C   UNL     1     -49.261 -22.604  17.437 -0.02 +0.00    +0.285 C  
DOCKED: ENDBRANCH  14  15
DOCKED: ENDBRANCH  13  14
DOCKED: ENDBRANCH  12  13
DOCKED: ENDBRANCH   2  12
DOCKED: BRANCH   2  18
DOCKED: ATOM     18  C   UNL     1     -47.241 -18.778  13.436 -0.15 +0.00    +0.006 A  
DOCKED: ATOM     19  C   UNL     1     -48.059 -17.657  13.303 -0.13 +0.00    +0.001 A  
DOCKED: ATOM     20  C   UNL     1     -47.750 -16.679  12.357 -0.11 +0.00    +0.029 A  
DOCKED: ATOM     21  C   UNL     1     -46.625 -16.823  11.547 -0.06 +0.00    +0.140 A  
DOCKED: ATOM     22  C   UNL     1     -45.807 -17.944  11.680 -0.12 +0.00    +0.029 A  
DOCKED: ATOM     23  F   UNL     1     -46.328 -15.882  10.640 -0.02 -0.00    -0.204 F  
DOCKED: ATOM     24  C   UNL     1     -46.115 -18.924  12.626 -0.16 +0.00    +0.001 A  
DOCKED: ENDBRANCH   2  18
DOCKED: TORSDOF 5
DOCKED: TER
DOCKED: ENDMDL
________________________________________________________________________________


    FINAL DOCKED STATE:
    ________________________


Run:   500 / 512
Time taken for this run:   0.002s

DOCKED: MODEL        500
DOCKED: USER    Run = 500
DOCKED: USER
DOCKED: USER    Estimated Free Energy of Binding    =  -5.16 kcal/mol  [=(1)+(2)+(3)-(4)]
DOCKED: USER
DOCKED: USER    (1) Final Intermolecular Energy     =  -6.65 kcal/mol
DOCKED: USER        vdW + Hbond + desolv Energy     =  -6.65 kcal/mol
DOCKED: USER        Electrostatic Energy            =  +0.00 kcal/mol
DOCKED: USER        Moving Ligand-Fixed Receptor    =  -6.65 kcal/mol
DOCKED: USER        Moving Ligand-Moving Receptor   =  +0.00 kcal/mol
DOCKED: USER    (2) Final Total Internal Energy     =  -0.98 kcal/mol
DOCKED: USER    (3) Torsional Free Energy           =  +1.49 kcal/mol
DOCKED: USER    (4) Unbound System's Energy         =  -0.98 kcal/mol
DOCKED: USER
DOCKED: USER
DOCKED: REMARK  5 active torsions:
DOCKED: REMARK  status: ('A' for Active; 'I' for Inactive)
DOCKED: REMARK    1  A    between atoms: C_2  and  C_19 
DOCKED: REMARK    2  A    between atoms: C_2  and  C_11 
DOCKED: REMARK    3  A    between atoms: C_19  and  C_20 
DOCKED: REMARK    4  A    between atoms: C_20  and  C_21 
DOCKED: REMARK    5  A    between atoms: C_21  and  N_22 
DOCKED: USER                              x       y       z     vdW  Elec       q    Type
DOCKED: USER                           _______ _______ _______ _____ _____    ______ ____
DOCKED: ROOT
DOCKED: ATOM      1  O   UNL     1     -43.417 -15.532   6.306 -0.01 -0.00    -0.346 OA 
DOCKED: ATOM      2  C   UNL     1     -44.807 -15.610   6.756 -0.16 +0.00    +0.130 C  
DOCKED: ATOM      3  C   UNL     1     -45.565 -14.833   5.719 -0.27 +0.00    +0.004 A  
DOCKED: ATOM      4  C   UNL     1     -44.701 -14.440   4.706 -0.22 +0.00    +0.006 A  
DOCKED: ATOM      5  C   UNL     1     -43.335 -14.933   4.992 -0.08 +0.00    +0.169 C  
DOCKED: ATOM      6  C   UNL     1     -46.913 -14.510   5.670 -0.22 -0.00    -0.001 A  
DOCKED: ATOM      7  C   UNL     1     -45.151 -13.712   3.618 -0.28 +0.00    +0.008 A  
DOCKED: ATOM      8  C   UNL     1     -47.381 -13.772   4.581 -0.37 +0.00    +0.010 A  
DOCKED: ATOM      9  C   UNL     1     -46.504 -13.376   3.560 -0.28 +0.00    +0.068 A  
DOCKED: ATOM     10  N   UNL     1     -47.406 -12.011   1.551 -2.43 -0.00    -0.191 NA 
DOCKED: ATOM     11  C   UNL     1     -47.002 -12.622   2.453 -0.39 +0.00    +0.101 C  
DOCKED: ENDROOT
DOCKED: BRANCH   2  12
DOCKED: ATOM     12  C   UNL     1     -45.214 -17.077   6.814 -0.20 +0.00    +0.038 C  
DOCKED: BRANCH  12  13
DOCKED: ATOM     13  C   UNL     1     -44.518 -17.804   7.963 -0.14 +0.00    +0.038 C  
DOCKED: BRANCH  13  14
DOCKED: ATOM     14  C   UNL     1     -44.721 -19.314   7.862 -0.20 +0.00    +0.251 C  
DOCKED: BRANCH  14  15
DOCKED: ATOM     15  N   UNL     1     -44.221 -19.975   9.062 -0.18 +0.00    +0.141 N  
DOCKED: ATOM     16  C   UNL     1     -43.692 -21.301   8.738 -0.19 +0.00    +0.285 C  
DOCKED: ATOM     17  C   UNL     1     -43.191 -19.161   9.708 -0.07 +0.00    +0.285 C  
DOCKED: ENDBRANCH  14  15
DOCKED: ENDBRANCH  13  14
DOCKED: ENDBRANCH  12  13
DOCKED: ENDBRANCH   2  12
DOCKED: BRANCH   2  18
DOCKED: ATOM     18  C   UNL     1     -44.863 -14.982   8.109 -0.17 +0.00    +0.006 A  
DOCKED: ATOM     19  C   UNL     1     -43.682 -14.689   8.790 -0.13 +0.00    +0.001 A  
DOCKED: ATOM     20  C   UNL     1     -43.736 -14.102  10.055 -0.10 +0.00    +0.029 A  
DOCKED: ATOM     21  C   UNL     1     -44.969 -13.809  10.636 -0.11 +0.00    +0.140 A  
DOCKED: ATOM     22  C   UNL     1     -46.150 -14.102   9.954 -0.19 +0.00    +0.029 A  
DOCKED: ATOM     23  F   UNL     1     -45.021 -13.244  11.849 -0.04 -0.00    -0.204 F  
DOCKED: ATOM     24  C   UNL     1     -46.097 -14.690   8.689 -0.22 +0.00    +0.001 A  
DOCKED: ENDBRANCH   2  18
DOCKED: TORSDOF 5
DOCKED: TER
DOCKED: ENDMDL
________________________________________________________________________________


    FINAL DOCKED STATE:
    ________________________


Run:   501 / 512
Time taken for this run:   0.002s

DOCKED: MODEL        501
DOCKED: USER    Run = 501
DOCKED: USER
DOCKED: USER    Estimated Free Energy of Binding    =  -5.54 kcal/mol  [=(1)+(2)+(3)-(4)]
DOCKED: USER
DOCKED: USER    (1) Final Intermolecular Energy     =  -7.03 kcal/mol
DOCKED: USER        vdW + Hbond + desolv Energy     =  -7.03 kcal/mol
DOCKED: USER        Electrostatic Energy            =  +0.00 kcal/mol
DOCKED: USER        Moving Ligand-Fixed Receptor    =  -7.03 kcal/mol
DOCKED: USER        Moving Ligand-Moving Receptor   =  +0.00 kcal/mol
DOCKED: USER    (2) Final Total Internal Energy     =  -1.55 kcal/mol
DOCKED: USER    (3) Torsional Free Energy           =  +1.49 kcal/mol
DOCKED: USER    (4) Unbound System's Energy         =  -1.55 kcal/mol
DOCKED: USER
DOCKED: USER
DOCKED: REMARK  5 active torsions:
DOCKED: REMARK  status: ('A' for Active; 'I' for Inactive)
DOCKED: REMARK    1  A    between atoms: C_2  and  C_19 
DOCKED: REMARK    2  A    between atoms: C_2  and  C_11 
DOCKED: REMARK    3  A    between atoms: C_19  and  C_20 
DOCKED: REMARK    4  A    between atoms: C_20  and  C_21 
DOCKED: REMARK    5  A    between atoms: C_21  and  N_22 
DOCKED: USER                              x       y       z     vdW  Elec       q    Type
DOCKED: USER                           _______ _______ _______ _____ _____    ______ ____
DOCKED: ROOT
DOCKED: ATOM      1  O   UNL     1     -48.319 -23.267  14.766 -0.07 -0.00    -0.346 OA 
DOCKED: ATOM      2  C   UNL     1     -49.717 -23.697  14.814 -0.17 +0.00    +0.130 C  
DOCKED: ATOM      3  C   UNL     1     -50.097 -23.845  13.369 -0.28 +0.00    +0.004 A  
DOCKED: ATOM      4  C   UNL     1     -48.985 -23.627  12.568 -0.39 +0.00    +0.006 A  
DOCKED: ATOM      5  C   UNL     1     -47.806 -23.337  13.415 -0.25 +0.00    +0.169 C  
DOCKED: ATOM      6  C   UNL     1     -51.327 -24.159  12.808 -0.29 -0.00    -0.001 A  
DOCKED: ATOM      7  C   UNL     1     -49.062 -23.710  11.189 -0.28 +0.00    +0.008 A  
DOCKED: ATOM      8  C   UNL     1     -51.422 -24.242  11.418 -0.33 +0.00    +0.010 A  
DOCKED: ATOM      9  C   UNL     1     -50.295 -24.020  10.613 -0.41 +0.00    +0.068 A  
DOCKED: ATOM     10  N   UNL     1     -50.506 -24.187   8.036 -3.11 -0.00    -0.191 NA 
DOCKED: ATOM     11  C   UNL     1     -50.411 -24.111   9.192 -0.27 +0.00    +0.101 C  
DOCKED: ENDROOT
DOCKED: BRANCH   2  12
DOCKED: ATOM     12  C   UNL     1     -49.792 -25.009  15.585 -0.28 +0.00    +0.038 C  
DOCKED: BRANCH  12  13
DOCKED: ATOM     13  C   UNL     1     -48.451 -25.353  16.231 -0.23 +0.00    +0.038 C  
DOCKED: BRANCH  13  14
DOCKED: ATOM     14  C   UNL     1     -48.452 -25.001  17.717 -0.17 +0.00    +0.251 C  
DOCKED: BRANCH  14  15
DOCKED: ATOM     15  N   UNL     1     -48.418 -23.554  17.896 -0.08 +0.00    +0.141 N  
DOCKED: ATOM     16  C   UNL     1     -48.697 -23.200  19.289 -0.02 +0.00    +0.285 C  
DOCKED: ATOM     17  C   UNL     1     -47.120 -23.015  17.486 -0.06 +0.00    +0.285 C  
DOCKED: ENDBRANCH  14  15
DOCKED: ENDBRANCH  13  14
DOCKED: ENDBRANCH  12  13
DOCKED: ENDBRANCH   2  12
DOCKED: BRANCH   2  18
DOCKED: ATOM     18  C   UNL     1     -50.481 -22.619  15.509 -0.10 +0.00    +0.006 A  
DOCKED: ATOM     19  C   UNL     1     -49.895 -21.371  15.713 -0.07 +0.00    +0.001 A  
DOCKED: ATOM     20  C   UNL     1     -50.611 -20.365  16.363 -0.03 +0.00    +0.029 A  
DOCKED: ATOM     21  C   UNL     1     -51.910 -20.608  16.807 -0.01 +0.00    +0.140 A  
DOCKED: ATOM     22  C   UNL     1     -52.495 -21.857  16.601 -0.05 +0.00    +0.029 A  
DOCKED: ATOM     23  F   UNL     1     -52.597 -19.641  17.429 +0.01 -0.00    -0.204 F  
DOCKED: ATOM     24  C   UNL     1     -51.780 -22.864  15.952 -0.09 +0.00    +0.001 A  
DOCKED: ENDBRANCH   2  18
DOCKED: TORSDOF 5
DOCKED: TER
DOCKED: ENDMDL
________________________________________________________________________________


    FINAL DOCKED STATE:
    ________________________


Run:   502 / 512
Time taken for this run:   0.002s

DOCKED: MODEL        502
DOCKED: USER    Run = 502
DOCKED: USER
DOCKED: USER    Estimated Free Energy of Binding    =  -3.92 kcal/mol  [=(1)+(2)+(3)-(4)]
DOCKED: USER
DOCKED: USER    (1) Final Intermolecular Energy     =  -5.41 kcal/mol
DOCKED: USER        vdW + Hbond + desolv Energy     =  -5.41 kcal/mol
DOCKED: USER        Electrostatic Energy            =  +0.00 kcal/mol
DOCKED: USER        Moving Ligand-Fixed Receptor    =  -5.41 kcal/mol
DOCKED: USER        Moving Ligand-Moving Receptor   =  +0.00 kcal/mol
DOCKED: USER    (2) Final Total Internal Energy     =  -1.23 kcal/mol
DOCKED: USER    (3) Torsional Free Energy           =  +1.49 kcal/mol
DOCKED: USER    (4) Unbound System's Energy         =  -1.23 kcal/mol
DOCKED: USER
DOCKED: USER
DOCKED: REMARK  5 active torsions:
DOCKED: REMARK  status: ('A' for Active; 'I' for Inactive)
DOCKED: REMARK    1  A    between atoms: C_2  and  C_19 
DOCKED: REMARK    2  A    between atoms: C_2  and  C_11 
DOCKED: REMARK    3  A    between atoms: C_19  and  C_20 
DOCKED: REMARK    4  A    between atoms: C_20  and  C_21 
DOCKED: REMARK    5  A    between atoms: C_21  and  N_22 
DOCKED: USER                              x       y       z     vdW  Elec       q    Type
DOCKED: USER                           _______ _______ _______ _____ _____    ______ ____
DOCKED: ROOT
DOCKED: ATOM      1  O   UNL     1     -50.296 -22.027  16.174 +0.00 -0.00    -0.346 OA 
DOCKED: ATOM      2  C   UNL     1     -48.889 -22.265  15.850 -0.08 +0.00    +0.130 C  
DOCKED: ATOM      3  C   UNL     1     -48.929 -22.805  14.450 -0.20 +0.00    +0.004 A  
DOCKED: ATOM      4  C   UNL     1     -50.232 -22.774  13.974 -0.20 +0.00    +0.006 A  
DOCKED: ATOM      5  C   UNL     1     -51.130 -22.208  15.006 -0.08 +0.00    +0.169 C  
DOCKED: ATOM      6  C   UNL     1     -47.893 -23.275  13.656 -0.32 -0.00    -0.001 A  
DOCKED: ATOM      7  C   UNL     1     -50.545 -23.213  12.699 -0.30 +0.00    +0.008 A  
DOCKED: ATOM      8  C   UNL     1     -48.193 -23.725  12.369 -0.13 +0.00    +0.010 A  
DOCKED: ATOM      9  C   UNL     1     -49.512 -23.693  11.893 -0.37 +0.00    +0.068 A  
DOCKED: ATOM     10  N   UNL     1     -50.034 -24.531   9.497 -1.78 -0.00    -0.191 NA 
DOCKED: ATOM     11  C   UNL     1     -49.800 -24.156  10.572 -0.52 +0.00    +0.101 C  
DOCKED: ENDROOT
DOCKED: BRANCH   2  12
DOCKED: ATOM     12  C   UNL     1     -48.139 -20.943  15.955 -0.07 +0.00    +0.038 C  
DOCKED: BRANCH  12  13
DOCKED: ATOM     13  C   UNL     1     -48.676 -19.917  14.959 -0.10 +0.00    +0.038 C  
DOCKED: BRANCH  13  14
DOCKED: ATOM     14  C   UNL     1     -47.742 -18.713  14.853 -0.05 +0.00    +0.251 C  
DOCKED: BRANCH  14  15
DOCKED: ATOM     15  N   UNL     1     -46.735 -18.941  13.822 -0.10 +0.00    +0.141 N  
DOCKED: ATOM     16  C   UNL     1     -45.479 -19.395  14.420 -0.07 +0.00    +0.285 C  
DOCKED: ATOM     17  C   UNL     1     -47.213 -19.918  12.842 -0.06 +0.00    +0.285 C  
DOCKED: ENDBRANCH  14  15
DOCKED: ENDBRANCH  13  14
DOCKED: ENDBRANCH  12  13
DOCKED: ENDBRANCH   2  12
DOCKED: BRANCH   2  18
DOCKED: ATOM     18  C   UNL     1     -48.375 -23.256  16.840 -0.13 +0.00    +0.006 A  
DOCKED: ATOM     19  C   UNL     1     -49.078 -24.437  17.074 -0.20 +0.00    +0.001 A  
DOCKED: ATOM     20  C   UNL     1     -48.597 -25.362  18.001 -0.16 +0.00    +0.029 A  
DOCKED: ATOM     21  C   UNL     1     -47.413 -25.107  18.691 -0.18 +0.00    +0.140 A  
DOCKED: ATOM     22  C   UNL     1     -46.709 -23.925  18.457 -0.14 +0.00    +0.029 A  
DOCKED: ATOM     23  F   UNL     1     -46.950 -25.996  19.579 -0.07 -0.00    -0.204 F  
DOCKED: ATOM     24  C   UNL     1     -47.191 -22.999  17.530 -0.11 +0.00    +0.001 A  
DOCKED: ENDBRANCH   2  18
DOCKED: TORSDOF 5
DOCKED: TER
DOCKED: ENDMDL
________________________________________________________________________________


    FINAL DOCKED STATE:
    ________________________


Run:   503 / 512
Time taken for this run:   0.002s

DOCKED: MODEL        503
DOCKED: USER    Run = 503
DOCKED: USER
DOCKED: USER    Estimated Free Energy of Binding    =  -4.24 kcal/mol  [=(1)+(2)+(3)-(4)]
DOCKED: USER
DOCKED: USER    (1) Final Intermolecular Energy     =  -5.73 kcal/mol
DOCKED: USER        vdW + Hbond + desolv Energy     =  -5.73 kcal/mol
DOCKED: USER        Electrostatic Energy            =  +0.00 kcal/mol
DOCKED: USER        Moving Ligand-Fixed Receptor    =  -5.73 kcal/mol
DOCKED: USER        Moving Ligand-Moving Receptor   =  +0.00 kcal/mol
DOCKED: USER    (2) Final Total Internal Energy     =  -1.15 kcal/mol
DOCKED: USER    (3) Torsional Free Energy           =  +1.49 kcal/mol
DOCKED: USER    (4) Unbound System's Energy         =  -1.15 kcal/mol
DOCKED: USER
DOCKED: USER
DOCKED: REMARK  5 active torsions:
DOCKED: REMARK  status: ('A' for Active; 'I' for Inactive)
DOCKED: REMARK    1  A    between atoms: C_2  and  C_19 
DOCKED: REMARK    2  A    between atoms: C_2  and  C_11 
DOCKED: REMARK    3  A    between atoms: C_19  and  C_20 
DOCKED: REMARK    4  A    between atoms: C_20  and  C_21 
DOCKED: REMARK    5  A    between atoms: C_21  and  N_22 
DOCKED: USER                              x       y       z     vdW  Elec       q    Type
DOCKED: USER                           _______ _______ _______ _____ _____    ______ ____
DOCKED: ROOT
DOCKED: ATOM      1  O   UNL     1     -45.748 -21.110  15.344 -0.06 -0.00    -0.346 OA 
DOCKED: ATOM      2  C   UNL     1     -46.749 -20.337  14.608 -0.13 +0.00    +0.130 C  
DOCKED: ATOM      3  C   UNL     1     -47.591 -21.384  13.939 -0.22 +0.00    +0.004 A  
DOCKED: ATOM      4  C   UNL     1     -47.178 -22.645  14.345 -0.24 +0.00    +0.006 A  
DOCKED: ATOM      5  C   UNL     1     -46.059 -22.522  15.305 -0.17 +0.00    +0.169 C  
DOCKED: ATOM      6  C   UNL     1     -48.647 -21.233  13.052 -0.28 -0.00    -0.001 A  
DOCKED: ATOM      7  C   UNL     1     -47.797 -23.792  13.877 -0.34 +0.00    +0.008 A  
DOCKED: ATOM      8  C   UNL     1     -49.279 -22.379  12.568 -0.34 +0.00    +0.010 A  
DOCKED: ATOM      9  C   UNL     1     -48.856 -23.652  12.979 -0.32 +0.00    +0.068 A  
DOCKED: ATOM     10  N   UNL     1     -50.055 -25.760  12.065 -2.60 -0.00    -0.191 NA 
DOCKED: ATOM     11  C   UNL     1     -49.517 -24.815  12.475 -0.28 +0.00    +0.101 C  
DOCKED: ENDROOT
DOCKED: BRANCH   2  12
DOCKED: ATOM     12  C   UNL     1     -47.534 -19.492  15.605 -0.06 +0.00    +0.038 C  
DOCKED: BRANCH  12  13
DOCKED: ATOM     13  C   UNL     1     -47.619 -20.174  16.968 -0.03 +0.00    +0.038 C  
DOCKED: BRANCH  13  14
DOCKED: ATOM     14  C   UNL     1     -47.281 -19.198  18.093 -0.00 +0.00    +0.251 C  
DOCKED: BRANCH  14  15
DOCKED: ATOM     15  N   UNL     1     -46.338 -19.804  19.025 -0.00 +0.00    +0.141 N  
DOCKED: ATOM     16  C   UNL     1     -46.973 -20.039  20.323 +0.00 +0.00    +0.285 C  
DOCKED: ATOM     17  C   UNL     1     -45.812 -21.058  18.483 -0.01 +0.00    +0.285 C  
DOCKED: ENDBRANCH  14  15
DOCKED: ENDBRANCH  13  14
DOCKED: ENDBRANCH  12  13
DOCKED: ENDBRANCH   2  12
DOCKED: BRANCH   2  18
DOCKED: ATOM     18  C   UNL     1     -46.010 -19.478  13.638 -0.15 +0.00    +0.006 A  
DOCKED: ATOM     19  C   UNL     1     -44.661 -19.719  13.380 -0.08 +0.00    +0.001 A  
DOCKED: ATOM     20  C   UNL     1     -43.971 -18.914  12.473 -0.10 +0.00    +0.029 A  
DOCKED: ATOM     21  C   UNL     1     -44.630 -17.871  11.824 -0.07 +0.00    +0.140 A  
DOCKED: ATOM     22  C   UNL     1     -45.980 -17.631  12.082 -0.11 +0.00    +0.029 A  
DOCKED: ATOM     23  F   UNL     1     -43.968 -17.100  10.952 -0.00 -0.00    -0.204 F  
DOCKED: ATOM     24  C   UNL     1     -46.671 -18.435  12.990 -0.14 +0.00    +0.001 A  
DOCKED: ENDBRANCH   2  18
DOCKED: TORSDOF 5
DOCKED: TER
DOCKED: ENDMDL
________________________________________________________________________________


    FINAL DOCKED STATE:
    ________________________


Run:   504 / 512
Time taken for this run:   0.002s

DOCKED: MODEL        504
DOCKED: USER    Run = 504
DOCKED: USER
DOCKED: USER    Estimated Free Energy of Binding    =  -4.90 kcal/mol  [=(1)+(2)+(3)-(4)]
DOCKED: USER
DOCKED: USER    (1) Final Intermolecular Energy     =  -6.39 kcal/mol
DOCKED: USER        vdW + Hbond + desolv Energy     =  -6.39 kcal/mol
DOCKED: USER        Electrostatic Energy            =  +0.00 kcal/mol
DOCKED: USER        Moving Ligand-Fixed Receptor    =  -6.39 kcal/mol
DOCKED: USER        Moving Ligand-Moving Receptor   =  +0.00 kcal/mol
DOCKED: USER    (2) Final Total Internal Energy     =  -1.42 kcal/mol
DOCKED: USER    (3) Torsional Free Energy           =  +1.49 kcal/mol
DOCKED: USER    (4) Unbound System's Energy         =  -1.42 kcal/mol
DOCKED: USER
DOCKED: USER
DOCKED: REMARK  5 active torsions:
DOCKED: REMARK  status: ('A' for Active; 'I' for Inactive)
DOCKED: REMARK    1  A    between atoms: C_2  and  C_19 
DOCKED: REMARK    2  A    between atoms: C_2  and  C_11 
DOCKED: REMARK    3  A    between atoms: C_19  and  C_20 
DOCKED: REMARK    4  A    between atoms: C_20  and  C_21 
DOCKED: REMARK    5  A    between atoms: C_21  and  N_22 
DOCKED: USER                              x       y       z     vdW  Elec       q    Type
DOCKED: USER                           _______ _______ _______ _____ _____    ______ ____
DOCKED: ROOT
DOCKED: ATOM      1  O   UNL     1     -48.051 -24.068  15.561 -0.09 -0.00    -0.346 OA 
DOCKED: ATOM      2  C   UNL     1     -48.087 -22.709  15.019 -0.17 +0.00    +0.130 C  
DOCKED: ATOM      3  C   UNL     1     -48.574 -22.895  13.612 -0.30 +0.00    +0.004 A  
DOCKED: ATOM      4  C   UNL     1     -48.895 -24.229  13.401 -0.36 +0.00    +0.006 A  
DOCKED: ATOM      5  C   UNL     1     -48.658 -25.004  14.640 -0.15 +0.00    +0.169 C  
DOCKED: ATOM      6  C   UNL     1     -48.732 -21.958  12.601 -0.30 -0.00    -0.001 A  
DOCKED: ATOM      7  C   UNL     1     -49.378 -24.670  12.181 -0.44 +0.00    +0.008 A  
DOCKED: ATOM      8  C   UNL     1     -49.214 -22.388  11.364 -0.02 +0.00    +0.010 A  
DOCKED: ATOM      9  C   UNL     1     -49.535 -23.738  11.155 -0.40 +0.00    +0.068 A  
DOCKED: ATOM     10  N   UNL     1     -50.431 -24.502   8.848 -2.29 -0.00    -0.191 NA 
DOCKED: ATOM     11  C   UNL     1     -50.029 -24.159   9.882 -0.51 +0.00    +0.101 C  
DOCKED: ENDROOT
DOCKED: BRANCH   2  12
DOCKED: ATOM     12  C   UNL     1     -49.036 -21.875  15.871 -0.09 +0.00    +0.038 C  
DOCKED: BRANCH  12  13
DOCKED: ATOM     13  C   UNL     1     -50.466 -22.405  15.792 -0.10 +0.00    +0.038 C  
DOCKED: BRANCH  13  14
DOCKED: ATOM     14  C   UNL     1     -51.361 -21.458  14.995 -0.05 +0.00    +0.251 C  
DOCKED: BRANCH  14  15
DOCKED: ATOM     15  N   UNL     1     -52.520 -22.173  14.474 -0.11 +0.00    +0.141 N  
DOCKED: ATOM     16  C   UNL     1     -53.001 -21.546  13.241 -0.10 +0.00    +0.285 C  
DOCKED: ATOM     17  C   UNL     1     -52.192 -23.579  14.234 -0.08 +0.00    +0.285 C  
DOCKED: ENDBRANCH  14  15
DOCKED: ENDBRANCH  13  14
DOCKED: ENDBRANCH  12  13
DOCKED: ENDBRANCH   2  12
DOCKED: BRANCH   2  18
DOCKED: ATOM     18  C   UNL     1     -46.694 -22.176  15.087 -0.20 +0.00    +0.006 A  
DOCKED: ATOM     19  C   UNL     1     -46.478 -20.801  15.168 -0.12 +0.00    +0.001 A  
DOCKED: ATOM     20  C   UNL     1     -45.175 -20.304  15.230 -0.09 +0.00    +0.029 A  
DOCKED: ATOM     21  C   UNL     1     -44.092 -21.182  15.212 -0.09 +0.00    +0.140 A  
DOCKED: ATOM     22  C   UNL     1     -44.310 -22.557  15.131 -0.17 +0.00    +0.029 A  
DOCKED: ATOM     23  F   UNL     1     -42.842 -20.705  15.274 -0.01 -0.00    -0.204 F  
DOCKED: ATOM     24  C   UNL     1     -45.612 -23.055  15.068 -0.13 +0.00    +0.001 A  
DOCKED: ENDBRANCH   2  18
DOCKED: TORSDOF 5
DOCKED: TER
DOCKED: ENDMDL
________________________________________________________________________________


    FINAL DOCKED STATE:
    ________________________


Run:   505 / 512
Time taken for this run:   0.002s

DOCKED: MODEL        505
DOCKED: USER    Run = 505
DOCKED: USER
DOCKED: USER    Estimated Free Energy of Binding    =  -5.43 kcal/mol  [=(1)+(2)+(3)-(4)]
DOCKED: USER
DOCKED: USER    (1) Final Intermolecular Energy     =  -6.92 kcal/mol
DOCKED: USER        vdW + Hbond + desolv Energy     =  -6.92 kcal/mol
DOCKED: USER        Electrostatic Energy            =  +0.00 kcal/mol
DOCKED: USER        Moving Ligand-Fixed Receptor    =  -6.92 kcal/mol
DOCKED: USER        Moving Ligand-Moving Receptor   =  +0.00 kcal/mol
DOCKED: USER    (2) Final Total Internal Energy     =  -1.19 kcal/mol
DOCKED: USER    (3) Torsional Free Energy           =  +1.49 kcal/mol
DOCKED: USER    (4) Unbound System's Energy         =  -1.19 kcal/mol
DOCKED: USER
DOCKED: USER
DOCKED: REMARK  5 active torsions:
DOCKED: REMARK  status: ('A' for Active; 'I' for Inactive)
DOCKED: REMARK    1  A    between atoms: C_2  and  C_19 
DOCKED: REMARK    2  A    between atoms: C_2  and  C_11 
DOCKED: REMARK    3  A    between atoms: C_19  and  C_20 
DOCKED: REMARK    4  A    between atoms: C_20  and  C_21 
DOCKED: REMARK    5  A    between atoms: C_21  and  N_22 
DOCKED: USER                              x       y       z     vdW  Elec       q    Type
DOCKED: USER                           _______ _______ _______ _____ _____    ______ ____
DOCKED: ROOT
DOCKED: ATOM      1  O   UNL     1     -48.622 -21.487  14.999 -0.03 -0.00    -0.346 OA 
DOCKED: ATOM      2  C   UNL     1     -48.081 -22.846  14.947 -0.19 +0.00    +0.130 C  
DOCKED: ATOM      3  C   UNL     1     -48.519 -23.356  13.605 -0.33 +0.00    +0.004 A  
DOCKED: ATOM      4  C   UNL     1     -49.157 -22.342  12.905 -0.33 +0.00    +0.006 A  
DOCKED: ATOM      5  C   UNL     1     -49.175 -21.105  13.718 -0.20 +0.00    +0.169 C  
DOCKED: ATOM      6  C   UNL     1     -48.355 -24.614  13.043 -0.41 -0.00    -0.001 A  
DOCKED: ATOM      7  C   UNL     1     -49.655 -22.548  11.630 -0.08 +0.00    +0.008 A  
DOCKED: ATOM      8  C   UNL     1     -48.855 -24.839  11.759 -0.44 +0.00    +0.010 A  
DOCKED: ATOM      9  C   UNL     1     -49.501 -23.811  11.056 -0.41 +0.00    +0.068 A  
DOCKED: ATOM     10  N   UNL     1     -50.413 -24.262   8.674 -2.61 -0.00    -0.191 NA 
DOCKED: ATOM     11  C   UNL     1     -50.005 -24.060   9.743 -0.48 +0.00    +0.101 C  
DOCKED: ENDROOT
DOCKED: BRANCH   2  12
DOCKED: ATOM     12  C   UNL     1     -46.566 -22.768  15.088 -0.25 +0.00    +0.038 C  
DOCKED: BRANCH  12  13
DOCKED: ATOM     13  C   UNL     1     -46.035 -21.406  14.646 -0.12 +0.00    +0.038 C  
DOCKED: BRANCH  13  14
DOCKED: ATOM     14  C   UNL     1     -45.161 -20.779  15.730 -0.06 +0.00    +0.251 C  
DOCKED: BRANCH  14  15
DOCKED: ATOM     15  N   UNL     1     -45.888 -19.718  16.417 -0.02 +0.00    +0.141 N  
DOCKED: ATOM     16  C   UNL     1     -45.726 -19.836  17.867 -0.00 +0.00    +0.285 C  
DOCKED: ATOM     17  C   UNL     1     -45.435 -18.403  15.961 -0.01 +0.00    +0.285 C  
DOCKED: ENDBRANCH  14  15
DOCKED: ENDBRANCH  13  14
DOCKED: ENDBRANCH  12  13
DOCKED: ENDBRANCH   2  12
DOCKED: BRANCH   2  18
DOCKED: ATOM     18  C   UNL     1     -48.689 -23.601  16.082 -0.17 +0.00    +0.006 A  
DOCKED: ATOM     19  C   UNL     1     -50.076 -23.696  16.192 -0.14 +0.00    +0.001 A  
DOCKED: ATOM     20  C   UNL     1     -50.643 -24.402  17.254 -0.14 +0.00    +0.029 A  
DOCKED: ATOM     21  C   UNL     1     -49.823 -25.011  18.204 -0.06 +0.00    +0.140 A  
DOCKED: ATOM     22  C   UNL     1     -48.436 -24.915  18.093 -0.22 +0.00    +0.029 A  
DOCKED: ATOM     23  F   UNL     1     -50.368 -25.690  19.222 -0.04 -0.00    -0.204 F  
DOCKED: ATOM     24  C   UNL     1     -47.868 -24.209  17.031 -0.18 +0.00    +0.001 A  
DOCKED: ENDBRANCH   2  18
DOCKED: TORSDOF 5
DOCKED: TER
DOCKED: ENDMDL
________________________________________________________________________________


    FINAL DOCKED STATE:
    ________________________


Run:   506 / 512
Time taken for this run:   0.002s

DOCKED: MODEL        506
DOCKED: USER    Run = 506
DOCKED: USER
DOCKED: USER    Estimated Free Energy of Binding    =  -3.49 kcal/mol  [=(1)+(2)+(3)-(4)]
DOCKED: USER
DOCKED: USER    (1) Final Intermolecular Energy     =  -4.98 kcal/mol
DOCKED: USER        vdW + Hbond + desolv Energy     =  -4.98 kcal/mol
DOCKED: USER        Electrostatic Energy            =  +0.00 kcal/mol
DOCKED: USER        Moving Ligand-Fixed Receptor    =  -4.98 kcal/mol
DOCKED: USER        Moving Ligand-Moving Receptor   =  +0.00 kcal/mol
DOCKED: USER    (2) Final Total Internal Energy     =  -1.29 kcal/mol
DOCKED: USER    (3) Torsional Free Energy           =  +1.49 kcal/mol
DOCKED: USER    (4) Unbound System's Energy         =  -1.29 kcal/mol
DOCKED: USER
DOCKED: USER
DOCKED: REMARK  5 active torsions:
DOCKED: REMARK  status: ('A' for Active; 'I' for Inactive)
DOCKED: REMARK    1  A    between atoms: C_2  and  C_19 
DOCKED: REMARK    2  A    between atoms: C_2  and  C_11 
DOCKED: REMARK    3  A    between atoms: C_19  and  C_20 
DOCKED: REMARK    4  A    between atoms: C_20  and  C_21 
DOCKED: REMARK    5  A    between atoms: C_21  and  N_22 
DOCKED: USER                              x       y       z     vdW  Elec       q    Type
DOCKED: USER                           _______ _______ _______ _____ _____    ______ ____
DOCKED: ROOT
DOCKED: ATOM      1  O   UNL     1     -46.933 -23.472  14.371 -0.16 -0.00    -0.346 OA 
DOCKED: ATOM      2  C   UNL     1     -47.974 -22.551  14.831 -0.19 +0.00    +0.130 C  
DOCKED: ATOM      3  C   UNL     1     -49.181 -22.944  14.030 -0.23 +0.00    +0.004 A  
DOCKED: ATOM      4  C   UNL     1     -48.888 -24.063  13.262 -0.37 +0.00    +0.006 A  
DOCKED: ATOM      5  C   UNL     1     -47.492 -24.488  13.507 -0.28 +0.00    +0.169 C  
DOCKED: ATOM      6  C   UNL     1     -50.442 -22.366  13.993 -0.19 -0.00    -0.001 A  
DOCKED: ATOM      7  C   UNL     1     -49.837 -24.636  12.433 -0.39 +0.00    +0.008 A  
DOCKED: ATOM      8  C   UNL     1     -51.408 -22.930  13.159 -0.25 +0.00    +0.010 A  
DOCKED: ATOM      9  C   UNL     1     -51.107 -24.059  12.383 -0.28 +0.00    +0.068 A  
DOCKED: ATOM     10  N   UNL     1     -52.925 -25.084  10.847 -0.94 -0.00    -0.191 NA 
DOCKED: ATOM     11  C   UNL     1     -52.110 -24.624  11.536 -0.29 +0.00    +0.101 C  
DOCKED: ENDROOT
DOCKED: BRANCH   2  12
DOCKED: ATOM     12  C   UNL     1     -48.165 -22.748  16.330 -0.13 +0.00    +0.038 C  
DOCKED: BRANCH  12  13
DOCKED: ATOM     13  C   UNL     1     -48.022 -24.217  16.721 -0.21 +0.00    +0.038 C  
DOCKED: BRANCH  13  14
DOCKED: ATOM     14  C   UNL     1     -49.267 -25.013  16.334 -0.10 +0.00    +0.251 C  
DOCKED: BRANCH  14  15
DOCKED: ATOM     15  N   UNL     1     -50.462 -24.382  16.881 -0.12 +0.00    +0.141 N  
DOCKED: ATOM     16  C   UNL     1     -51.654 -24.813  16.149 -0.08 +0.00    +0.285 C  
DOCKED: ATOM     17  C   UNL     1     -50.602 -24.691  18.305 -0.07 +0.00    +0.285 C  
DOCKED: ENDBRANCH  14  15
DOCKED: ENDBRANCH  13  14
DOCKED: ENDBRANCH  12  13
DOCKED: ENDBRANCH   2  12
DOCKED: BRANCH   2  18
DOCKED: ATOM     18  C   UNL     1     -47.499 -21.169  14.526 -0.18 +0.00    +0.006 A  
DOCKED: ATOM     19  C   UNL     1     -47.466 -20.719  13.206 -0.16 +0.00    +0.001 A  
DOCKED: ATOM     20  C   UNL     1     -47.021 -19.427  12.923 -0.16 +0.00    +0.029 A  
DOCKED: ATOM     21  C   UNL     1     -46.612 -18.588  13.957 -0.09 +0.00    +0.140 A  
DOCKED: ATOM     22  C   UNL     1     -46.645 -19.038  15.277 -0.05 +0.00    +0.029 A  
DOCKED: ATOM     23  F   UNL     1     -46.187 -17.347  13.685 -0.01 -0.00    -0.204 F  
DOCKED: ATOM     24  C   UNL     1     -47.089 -20.331  15.562 -0.08 +0.00    +0.001 A  
DOCKED: ENDBRANCH   2  18
DOCKED: TORSDOF 5
DOCKED: TER
DOCKED: ENDMDL
________________________________________________________________________________


    FINAL DOCKED STATE:
    ________________________


Run:   507 / 512
Time taken for this run:   0.002s

DOCKED: MODEL        507
DOCKED: USER    Run = 507
DOCKED: USER
DOCKED: USER    Estimated Free Energy of Binding    =  -3.95 kcal/mol  [=(1)+(2)+(3)-(4)]
DOCKED: USER
DOCKED: USER    (1) Final Intermolecular Energy     =  -5.44 kcal/mol
DOCKED: USER        vdW + Hbond + desolv Energy     =  -5.44 kcal/mol
DOCKED: USER        Electrostatic Energy            =  +0.00 kcal/mol
DOCKED: USER        Moving Ligand-Fixed Receptor    =  -5.44 kcal/mol
DOCKED: USER        Moving Ligand-Moving Receptor   =  +0.00 kcal/mol
DOCKED: USER    (2) Final Total Internal Energy     =  -1.07 kcal/mol
DOCKED: USER    (3) Torsional Free Energy           =  +1.49 kcal/mol
DOCKED: USER    (4) Unbound System's Energy         =  -1.07 kcal/mol
DOCKED: USER
DOCKED: USER
DOCKED: REMARK  5 active torsions:
DOCKED: REMARK  status: ('A' for Active; 'I' for Inactive)
DOCKED: REMARK    1  A    between atoms: C_2  and  C_19 
DOCKED: REMARK    2  A    between atoms: C_2  and  C_11 
DOCKED: REMARK    3  A    between atoms: C_19  and  C_20 
DOCKED: REMARK    4  A    between atoms: C_20  and  C_21 
DOCKED: REMARK    5  A    between atoms: C_21  and  N_22 
DOCKED: USER                              x       y       z     vdW  Elec       q    Type
DOCKED: USER                           _______ _______ _______ _____ _____    ______ ____
DOCKED: ROOT
DOCKED: ATOM      1  O   UNL     1     -38.938 -21.654   7.165 +0.00 -0.00    -0.346 OA 
DOCKED: ATOM      2  C   UNL     1     -40.339 -21.287   6.954 -0.04 +0.00    +0.130 C  
DOCKED: ATOM      3  C   UNL     1     -41.100 -22.285   7.779 -0.10 +0.00    +0.004 A  
DOCKED: ATOM      4  C   UNL     1     -40.211 -23.081   8.486 -0.07 +0.00    +0.006 A  
DOCKED: ATOM      5  C   UNL     1     -38.821 -22.664   8.193 -0.02 +0.00    +0.169 C  
DOCKED: ATOM      6  C   UNL     1     -42.470 -22.465   7.902 -0.22 -0.00    -0.001 A  
DOCKED: ATOM      7  C   UNL     1     -40.656 -24.082   9.332 -0.15 +0.00    +0.008 A  
DOCKED: ATOM      8  C   UNL     1     -42.935 -23.473   8.748 -0.33 +0.00    +0.010 A  
DOCKED: ATOM      9  C   UNL     1     -42.032 -24.278   9.459 -0.28 +0.00    +0.068 A  
DOCKED: ATOM     10  N   UNL     1     -42.928 -26.137  11.025 -2.66 -0.00    -0.191 NA 
DOCKED: ATOM     11  C   UNL     1     -42.526 -25.304  10.322 -0.37 +0.00    +0.101 C  
DOCKED: ENDROOT
DOCKED: BRANCH   2  12
DOCKED: ATOM     12  C   UNL     1     -40.538 -19.852   7.426 -0.02 +0.00    +0.038 C  
DOCKED: BRANCH  12  13
DOCKED: ATOM     13  C   UNL     1     -41.849 -19.695   8.195 -0.06 +0.00    +0.038 C  
DOCKED: BRANCH  13  14
DOCKED: ATOM     14  C   UNL     1     -42.750 -18.651   7.538 -0.04 +0.00    +0.251 C  
DOCKED: BRANCH  14  15
DOCKED: ATOM     15  N   UNL     1     -43.783 -19.302   6.741 -0.17 +0.00    +0.141 N  
DOCKED: ATOM     16  C   UNL     1     -44.793 -19.913   7.605 -0.21 +0.00    +0.285 C  
DOCKED: ATOM     17  C   UNL     1     -44.409 -18.344   5.827 -0.11 +0.00    +0.285 C  
DOCKED: ENDBRANCH  14  15
DOCKED: ENDBRANCH  13  14
DOCKED: ENDBRANCH  12  13
DOCKED: ENDBRANCH   2  12
DOCKED: BRANCH   2  18
DOCKED: ATOM     18  C   UNL     1     -40.608 -21.415   5.492 -0.07 +0.00    +0.006 A  
DOCKED: ATOM     19  C   UNL     1     -41.304 -20.410   4.821 -0.09 +0.00    +0.001 A  
DOCKED: ATOM     20  C   UNL     1     -41.555 -20.531   3.454 -0.12 +0.00    +0.029 A  
DOCKED: ATOM     21  C   UNL     1     -41.110 -21.656   2.760 -0.11 +0.00    +0.140 A  
DOCKED: ATOM     22  C   UNL     1     -40.414 -22.660   3.432 -0.10 +0.00    +0.029 A  
DOCKED: ATOM     23  F   UNL     1     -41.350 -21.771   1.447 -0.03 -0.00    -0.204 F  
DOCKED: ATOM     24  C   UNL     1     -40.163 -22.540   4.799 -0.08 +0.00    +0.001 A  
DOCKED: ENDBRANCH   2  18
DOCKED: TORSDOF 5
DOCKED: TER
DOCKED: ENDMDL
________________________________________________________________________________


    FINAL DOCKED STATE:
    ________________________


Run:   508 / 512
Time taken for this run:   0.002s

DOCKED: MODEL        508
DOCKED: USER    Run = 508
DOCKED: USER
DOCKED: USER    Estimated Free Energy of Binding    =  -4.98 kcal/mol  [=(1)+(2)+(3)-(4)]
DOCKED: USER
DOCKED: USER    (1) Final Intermolecular Energy     =  -6.47 kcal/mol
DOCKED: USER        vdW + Hbond + desolv Energy     =  -6.47 kcal/mol
DOCKED: USER        Electrostatic Energy            =  +0.00 kcal/mol
DOCKED: USER        Moving Ligand-Fixed Receptor    =  -6.47 kcal/mol
DOCKED: USER        Moving Ligand-Moving Receptor   =  +0.00 kcal/mol
DOCKED: USER    (2) Final Total Internal Energy     =  -1.32 kcal/mol
DOCKED: USER    (3) Torsional Free Energy           =  +1.49 kcal/mol
DOCKED: USER    (4) Unbound System's Energy         =  -1.32 kcal/mol
DOCKED: USER
DOCKED: USER
DOCKED: REMARK  5 active torsions:
DOCKED: REMARK  status: ('A' for Active; 'I' for Inactive)
DOCKED: REMARK    1  A    between atoms: C_2  and  C_19 
DOCKED: REMARK    2  A    between atoms: C_2  and  C_11 
DOCKED: REMARK    3  A    between atoms: C_19  and  C_20 
DOCKED: REMARK    4  A    between atoms: C_20  and  C_21 
DOCKED: REMARK    5  A    between atoms: C_21  and  N_22 
DOCKED: USER                              x       y       z     vdW  Elec       q    Type
DOCKED: USER                           _______ _______ _______ _____ _____    ______ ____
DOCKED: ROOT
DOCKED: ATOM      1  O   UNL     1     -46.745 -15.217   7.780 -0.12 -0.00    -0.346 OA 
DOCKED: ATOM      2  C   UNL     1     -45.434 -15.260   7.131 -0.20 +0.00    +0.130 C  
DOCKED: ATOM      3  C   UNL     1     -45.670 -14.608   5.800 -0.27 +0.00    +0.004 A  
DOCKED: ATOM      4  C   UNL     1     -46.972 -14.134   5.736 -0.17 +0.00    +0.006 A  
DOCKED: ATOM      5  C   UNL     1     -47.675 -14.424   7.006 -0.01 +0.00    +0.169 C  
DOCKED: ATOM      6  C   UNL     1     -44.798 -14.437   4.734 -0.23 -0.00    -0.001 A  
DOCKED: ATOM      7  C   UNL     1     -47.448 -13.482   4.611 -0.33 +0.00    +0.008 A  
DOCKED: ATOM      8  C   UNL     1     -45.263 -13.785   3.591 -0.27 +0.00    +0.010 A  
DOCKED: ATOM      9  C   UNL     1     -46.582 -13.309   3.531 -0.29 +0.00    +0.068 A  
DOCKED: ATOM     10  N   UNL     1     -47.412 -12.099   1.396 -2.51 -0.00    -0.191 NA 
DOCKED: ATOM     11  C   UNL     1     -47.040 -12.642   2.353 -0.37 +0.00    +0.101 C  
DOCKED: ENDROOT
DOCKED: BRANCH   2  12
DOCKED: ATOM     12  C   UNL     1     -44.441 -14.495   7.999 -0.17 +0.00    +0.038 C  
DOCKED: BRANCH  12  13
DOCKED: ATOM     13  C   UNL     1     -45.050 -14.129   9.351 -0.17 +0.00    +0.038 C  
DOCKED: BRANCH  13  14
DOCKED: ATOM     14  C   UNL     1     -44.819 -15.237  10.376 -0.07 +0.00    +0.251 C  
DOCKED: BRANCH  14  15
DOCKED: ATOM     15  N   UNL     1     -45.842 -15.189  11.414 -0.05 +0.00    +0.141 N  
DOCKED: ATOM     16  C   UNL     1     -46.873 -14.205  11.078 -0.08 +0.00    +0.285 C  
DOCKED: ATOM     17  C   UNL     1     -46.445 -16.510  11.605 -0.06 +0.00    +0.285 C  
DOCKED: ENDBRANCH  14  15
DOCKED: ENDBRANCH  13  14
DOCKED: ENDBRANCH  12  13
DOCKED: ENDBRANCH   2  12
DOCKED: BRANCH   2  18
DOCKED: ATOM     18  C   UNL     1     -45.051 -16.698   7.015 -0.16 +0.00    +0.006 A  
DOCKED: ATOM     19  C   UNL     1     -45.777 -17.669   7.703 -0.21 +0.00    +0.001 A  
DOCKED: ATOM     20  C   UNL     1     -45.418 -19.013   7.594 -0.23 +0.00    +0.029 A  
DOCKED: ATOM     21  C   UNL     1     -44.336 -19.384   6.797 -0.17 +0.00    +0.140 A  
DOCKED: ATOM     22  C   UNL     1     -43.611 -18.411   6.109 -0.14 +0.00    +0.029 A  
DOCKED: ATOM     23  F   UNL     1     -43.993 -20.674   6.691 -0.07 -0.00    -0.204 F  
DOCKED: ATOM     24  C   UNL     1     -43.969 -17.066   6.218 -0.12 +0.00    +0.001 A  
DOCKED: ENDBRANCH   2  18
DOCKED: TORSDOF 5
DOCKED: TER
DOCKED: ENDMDL
________________________________________________________________________________


    FINAL DOCKED STATE:
    ________________________


Run:   509 / 512
Time taken for this run:   0.002s

DOCKED: MODEL        509
DOCKED: USER    Run = 509
DOCKED: USER
DOCKED: USER    Estimated Free Energy of Binding    =  -4.10 kcal/mol  [=(1)+(2)+(3)-(4)]
DOCKED: USER
DOCKED: USER    (1) Final Intermolecular Energy     =  -5.59 kcal/mol
DOCKED: USER        vdW + Hbond + desolv Energy     =  -5.59 kcal/mol
DOCKED: USER        Electrostatic Energy            =  +0.00 kcal/mol
DOCKED: USER        Moving Ligand-Fixed Receptor    =  -5.59 kcal/mol
DOCKED: USER        Moving Ligand-Moving Receptor   =  +0.00 kcal/mol
DOCKED: USER    (2) Final Total Internal Energy     =  -1.24 kcal/mol
DOCKED: USER    (3) Torsional Free Energy           =  +1.49 kcal/mol
DOCKED: USER    (4) Unbound System's Energy         =  -1.24 kcal/mol
DOCKED: USER
DOCKED: USER
DOCKED: REMARK  5 active torsions:
DOCKED: REMARK  status: ('A' for Active; 'I' for Inactive)
DOCKED: REMARK    1  A    between atoms: C_2  and  C_19 
DOCKED: REMARK    2  A    between atoms: C_2  and  C_11 
DOCKED: REMARK    3  A    between atoms: C_19  and  C_20 
DOCKED: REMARK    4  A    between atoms: C_20  and  C_21 
DOCKED: REMARK    5  A    between atoms: C_21  and  N_22 
DOCKED: USER                              x       y       z     vdW  Elec       q    Type
DOCKED: USER                           _______ _______ _______ _____ _____    ______ ____
DOCKED: ROOT
DOCKED: ATOM      1  O   UNL     1     -46.000 -20.514  14.762 -0.06 -0.00    -0.346 OA 
DOCKED: ATOM      2  C   UNL     1     -47.203 -19.863  14.242 -0.14 +0.00    +0.130 C  
DOCKED: ATOM      3  C   UNL     1     -48.017 -20.998  13.690 -0.24 +0.00    +0.004 A  
DOCKED: ATOM      4  C   UNL     1     -47.387 -22.202  13.969 -0.22 +0.00    +0.006 A  
DOCKED: ATOM      5  C   UNL     1     -46.138 -21.953  14.724 -0.12 +0.00    +0.169 C  
DOCKED: ATOM      6  C   UNL     1     -49.223 -20.967  13.007 -0.22 -0.00    -0.001 A  
DOCKED: ATOM      7  C   UNL     1     -47.935 -23.411  13.574 -0.32 +0.00    +0.008 A  
DOCKED: ATOM      8  C   UNL     1     -49.786 -22.177  12.597 -0.25 +0.00    +0.010 A  
DOCKED: ATOM      9  C   UNL     1     -49.145 -23.393  12.880 -0.31 +0.00    +0.068 A  
DOCKED: ATOM     10  N   UNL     1     -50.220 -25.621  12.109 -2.54 -0.00    -0.191 NA 
DOCKED: ATOM     11  C   UNL     1     -49.738 -24.621  12.454 -0.38 +0.00    +0.101 C  
DOCKED: ENDROOT
DOCKED: BRANCH   2  12
DOCKED: ATOM     12  C   UNL     1     -47.896 -19.140  15.391 -0.06 +0.00    +0.038 C  
DOCKED: BRANCH  12  13
DOCKED: ATOM     13  C   UNL     1     -46.900 -18.335  16.223 -0.02 +0.00    +0.038 C  
DOCKED: BRANCH  13  14
DOCKED: ATOM     14  C   UNL     1     -47.266 -16.852  16.234 -0.00 +0.00    +0.251 C  
DOCKED: BRANCH  14  15
DOCKED: ATOM     15  N   UNL     1     -46.066 -16.033  16.104 -0.00 +0.00    +0.141 N  
DOCKED: ATOM     16  C   UNL     1     -46.057 -15.332  14.818 -0.00 +0.00    +0.285 C  
DOCKED: ATOM     17  C   UNL     1     -45.975 -15.073  17.205 +0.00 +0.00    +0.285 C  
DOCKED: ENDBRANCH  14  15
DOCKED: ENDBRANCH  13  14
DOCKED: ENDBRANCH  12  13
DOCKED: ENDBRANCH   2  12
DOCKED: BRANCH   2  18
DOCKED: ATOM     18  C   UNL     1     -46.759 -18.901  13.191 -0.16 +0.00    +0.006 A  
DOCKED: ATOM     19  C   UNL     1     -45.553 -19.108  12.522 -0.14 +0.00    +0.001 A  
DOCKED: ATOM     20  C   UNL     1     -45.139 -18.208  11.539 -0.13 +0.00    +0.029 A  
DOCKED: ATOM     21  C   UNL     1     -45.930 -17.104  11.227 -0.07 +0.00    +0.140 A  
DOCKED: ATOM     22  C   UNL     1     -47.136 -16.897  11.896 -0.06 +0.00    +0.029 A  
DOCKED: ATOM     23  F   UNL     1     -45.533 -16.241  10.283 -0.01 -0.00    -0.204 F  
DOCKED: ATOM     24  C   UNL     1     -47.551 -17.797  12.880 -0.12 +0.00    +0.001 A  
DOCKED: ENDBRANCH   2  18
DOCKED: TORSDOF 5
DOCKED: TER
DOCKED: ENDMDL
________________________________________________________________________________


    FINAL DOCKED STATE:
    ________________________


Run:   510 / 512
Time taken for this run:   0.002s

DOCKED: MODEL        510
DOCKED: USER    Run = 510
DOCKED: USER
DOCKED: USER    Estimated Free Energy of Binding    =  -4.53 kcal/mol  [=(1)+(2)+(3)-(4)]
DOCKED: USER
DOCKED: USER    (1) Final Intermolecular Energy     =  -6.02 kcal/mol
DOCKED: USER        vdW + Hbond + desolv Energy     =  -6.02 kcal/mol
DOCKED: USER        Electrostatic Energy            =  +0.00 kcal/mol
DOCKED: USER        Moving Ligand-Fixed Receptor    =  -6.02 kcal/mol
DOCKED: USER        Moving Ligand-Moving Receptor   =  +0.00 kcal/mol
DOCKED: USER    (2) Final Total Internal Energy     =  -1.32 kcal/mol
DOCKED: USER    (3) Torsional Free Energy           =  +1.49 kcal/mol
DOCKED: USER    (4) Unbound System's Energy         =  -1.32 kcal/mol
DOCKED: USER
DOCKED: USER
DOCKED: REMARK  5 active torsions:
DOCKED: REMARK  status: ('A' for Active; 'I' for Inactive)
DOCKED: REMARK    1  A    between atoms: C_2  and  C_19 
DOCKED: REMARK    2  A    between atoms: C_2  and  C_11 
DOCKED: REMARK    3  A    between atoms: C_19  and  C_20 
DOCKED: REMARK    4  A    between atoms: C_20  and  C_21 
DOCKED: REMARK    5  A    between atoms: C_21  and  N_22 
DOCKED: USER                              x       y       z     vdW  Elec       q    Type
DOCKED: USER                           _______ _______ _______ _____ _____    ______ ____
DOCKED: ROOT
DOCKED: ATOM      1  O   UNL     1     -45.971 -20.936  15.441 -0.05 -0.00    -0.346 OA 
DOCKED: ATOM      2  C   UNL     1     -46.821 -20.211  14.496 -0.13 +0.00    +0.130 C  
DOCKED: ATOM      3  C   UNL     1     -47.620 -21.292  13.828 -0.22 +0.00    +0.004 A  
DOCKED: ATOM      4  C   UNL     1     -47.334 -22.516  14.416 -0.24 +0.00    +0.006 A  
DOCKED: ATOM      5  C   UNL     1     -46.350 -22.331  15.506 -0.15 +0.00    +0.169 C  
DOCKED: ATOM      6  C   UNL     1     -48.536 -21.198  12.790 -0.23 -0.00    -0.001 A  
DOCKED: ATOM      7  C   UNL     1     -47.945 -23.682  13.988 -0.33 +0.00    +0.008 A  
DOCKED: ATOM      8  C   UNL     1     -49.158 -22.366  12.344 -0.33 +0.00    +0.010 A  
DOCKED: ATOM      9  C   UNL     1     -48.864 -23.601  12.941 -0.32 +0.00    +0.068 A  
DOCKED: ATOM     10  N   UNL     1     -50.040 -25.748  12.092 -2.61 -0.00    -0.191 NA 
DOCKED: ATOM     11  C   UNL     1     -49.512 -24.785  12.472 -0.30 +0.00    +0.101 C  
DOCKED: ENDROOT
DOCKED: BRANCH   2  12
DOCKED: ATOM     12  C   UNL     1     -47.686 -19.231  15.279 -0.07 +0.00    +0.038 C  
DOCKED: BRANCH  12  13
DOCKED: ATOM     13  C   UNL     1     -48.897 -19.927  15.897 -0.05 +0.00    +0.038 C  
DOCKED: BRANCH  13  14
DOCKED: ATOM     14  C   UNL     1     -50.106 -18.995  15.937 -0.02 +0.00    +0.251 C  
DOCKED: BRANCH  14  15
DOCKED: ATOM     15  N   UNL     1     -51.136 -19.460  15.015 -0.07 +0.00    +0.141 N  
DOCKED: ATOM     16  C   UNL     1     -50.836 -19.032  13.648 -0.16 +0.00    +0.285 C  
DOCKED: ATOM     17  C   UNL     1     -51.262 -20.917  15.075 -0.04 +0.00    +0.285 C  
DOCKED: ENDBRANCH  14  15
DOCKED: ENDBRANCH  13  14
DOCKED: ENDBRANCH  12  13
DOCKED: ENDBRANCH   2  12
DOCKED: BRANCH   2  18
DOCKED: ATOM     18  C   UNL     1     -45.912 -19.493  13.554 -0.14 +0.00    +0.006 A  
DOCKED: ATOM     19  C   UNL     1     -46.443 -18.633  12.594 -0.14 +0.00    +0.001 A  
DOCKED: ATOM     20  C   UNL     1     -45.592 -17.963  11.714 -0.12 +0.00    +0.029 A  
DOCKED: ATOM     21  C   UNL     1     -44.213 -18.153  11.796 -0.07 +0.00    +0.140 A  
DOCKED: ATOM     22  C   UNL     1     -43.684 -19.014  12.757 -0.09 +0.00    +0.029 A  
DOCKED: ATOM     23  F   UNL     1     -43.397 -17.509  10.952 -0.00 -0.00    -0.204 F  
DOCKED: ATOM     24  C   UNL     1     -44.534 -19.685  13.637 -0.11 +0.00    +0.001 A  
DOCKED: ENDBRANCH   2  18
DOCKED: TORSDOF 5
DOCKED: TER
DOCKED: ENDMDL
________________________________________________________________________________


    FINAL DOCKED STATE:
    ________________________


Run:   511 / 512
Time taken for this run:   0.002s

DOCKED: MODEL        511
DOCKED: USER    Run = 511
DOCKED: USER
DOCKED: USER    Estimated Free Energy of Binding    =  -4.10 kcal/mol  [=(1)+(2)+(3)-(4)]
DOCKED: USER
DOCKED: USER    (1) Final Intermolecular Energy     =  -5.59 kcal/mol
DOCKED: USER        vdW + Hbond + desolv Energy     =  -5.59 kcal/mol
DOCKED: USER        Electrostatic Energy            =  +0.00 kcal/mol
DOCKED: USER        Moving Ligand-Fixed Receptor    =  -5.59 kcal/mol
DOCKED: USER        Moving Ligand-Moving Receptor   =  +0.00 kcal/mol
DOCKED: USER    (2) Final Total Internal Energy     =  -0.98 kcal/mol
DOCKED: USER    (3) Torsional Free Energy           =  +1.49 kcal/mol
DOCKED: USER    (4) Unbound System's Energy         =  -0.98 kcal/mol
DOCKED: USER
DOCKED: USER
DOCKED: REMARK  5 active torsions:
DOCKED: REMARK  status: ('A' for Active; 'I' for Inactive)
DOCKED: REMARK    1  A    between atoms: C_2  and  C_19 
DOCKED: REMARK    2  A    between atoms: C_2  and  C_11 
DOCKED: REMARK    3  A    between atoms: C_19  and  C_20 
DOCKED: REMARK    4  A    between atoms: C_20  and  C_21 
DOCKED: REMARK    5  A    between atoms: C_21  and  N_22 
DOCKED: USER                              x       y       z     vdW  Elec       q    Type
DOCKED: USER                           _______ _______ _______ _____ _____    ______ ____
DOCKED: ROOT
DOCKED: ATOM      1  O   UNL     1     -49.249 -19.909  16.049 -0.00 -0.00    -0.346 OA 
DOCKED: ATOM      2  C   UNL     1     -48.730 -19.618  14.712 -0.10 +0.00    +0.130 C  
DOCKED: ATOM      3  C   UNL     1     -48.947 -20.897  13.956 -0.22 +0.00    +0.004 A  
DOCKED: ATOM      4  C   UNL     1     -49.630 -21.803  14.756 -0.13 +0.00    +0.006 A  
DOCKED: ATOM      5  C   UNL     1     -49.920 -21.191  16.072 -0.04 +0.00    +0.169 C  
DOCKED: ATOM      6  C   UNL     1     -48.579 -21.229  12.660 -0.17 -0.00    -0.001 A  
DOCKED: ATOM      7  C   UNL     1     -49.963 -23.064  14.294 -0.18 +0.00    +0.008 A  
DOCKED: ATOM      8  C   UNL     1     -48.904 -22.499  12.181 -0.33 +0.00    +0.010 A  
DOCKED: ATOM      9  C   UNL     1     -49.593 -23.412  12.994 -0.28 +0.00    +0.068 A  
DOCKED: ATOM     10  N   UNL     1     -50.186 -25.759  12.071 -2.58 -0.00    -0.191 NA 
DOCKED: ATOM     11  C   UNL     1     -49.920 -24.707  12.485 -0.34 +0.00    +0.101 C  
DOCKED: ENDROOT
DOCKED: BRANCH   2  12
DOCKED: ATOM     12  C   UNL     1     -49.515 -18.447  14.134 -0.16 +0.00    +0.038 C  
DOCKED: BRANCH  12  13
DOCKED: ATOM     13  C   UNL     1     -50.910 -18.879  13.685 -0.24 +0.00    +0.038 C  
DOCKED: BRANCH  13  14
DOCKED: ATOM     14  C   UNL     1     -51.931 -17.767  13.920 -0.13 +0.00    +0.251 C  
DOCKED: BRANCH  14  15
DOCKED: ATOM     15  N   UNL     1     -52.002 -16.889  12.759 -0.15 +0.00    +0.141 N  
DOCKED: ATOM     16  C   UNL     1     -53.385 -16.487  12.499 -0.10 +0.00    +0.285 C  
DOCKED: ATOM     17  C   UNL     1     -51.158 -15.708  12.953 -0.07 +0.00    +0.285 C  
DOCKED: ENDBRANCH  14  15
DOCKED: ENDBRANCH  13  14
DOCKED: ENDBRANCH  12  13
DOCKED: ENDBRANCH   2  12
DOCKED: BRANCH   2  18
DOCKED: ATOM     18  C   UNL     1     -47.287 -19.274  14.870 -0.08 +0.00    +0.006 A  
DOCKED: ATOM     19  C   UNL     1     -46.718 -19.222  16.142 -0.03 +0.00    +0.001 A  
DOCKED: ATOM     20  C   UNL     1     -45.368 -18.899  16.288 -0.02 +0.00    +0.029 A  
DOCKED: ATOM     21  C   UNL     1     -44.590 -18.629  15.163 -0.02 +0.00    +0.140 A  
DOCKED: ATOM     22  C   UNL     1     -45.159 -18.682  13.891 -0.08 +0.00    +0.029 A  
DOCKED: ATOM     23  F   UNL     1     -43.294 -18.322  15.304 -0.00 -0.00    -0.204 F  
DOCKED: ATOM     24  C   UNL     1     -46.509 -19.004  13.744 -0.14 +0.00    +0.001 A  
DOCKED: ENDBRANCH   2  18
DOCKED: TORSDOF 5
DOCKED: TER
DOCKED: ENDMDL
________________________________________________________________________________


    FINAL DOCKED STATE:
    ________________________


Run:   512 / 512
Time taken for this run:   0.002s

DOCKED: MODEL        512
DOCKED: USER    Run = 512
DOCKED: USER
DOCKED: USER    Estimated Free Energy of Binding    =  -4.63 kcal/mol  [=(1)+(2)+(3)-(4)]
DOCKED: USER
DOCKED: USER    (1) Final Intermolecular Energy     =  -6.12 kcal/mol
DOCKED: USER        vdW + Hbond + desolv Energy     =  -6.12 kcal/mol
DOCKED: USER        Electrostatic Energy            =  +0.00 kcal/mol
DOCKED: USER        Moving Ligand-Fixed Receptor    =  -6.12 kcal/mol
DOCKED: USER        Moving Ligand-Moving Receptor   =  +0.00 kcal/mol
DOCKED: USER    (2) Final Total Internal Energy     =  -1.56 kcal/mol
DOCKED: USER    (3) Torsional Free Energy           =  +1.49 kcal/mol
DOCKED: USER    (4) Unbound System's Energy         =  -1.56 kcal/mol
DOCKED: USER
DOCKED: USER
DOCKED: REMARK  5 active torsions:
DOCKED: REMARK  status: ('A' for Active; 'I' for Inactive)
DOCKED: REMARK    1  A    between atoms: C_2  and  C_19 
DOCKED: REMARK    2  A    between atoms: C_2  and  C_11 
DOCKED: REMARK    3  A    between atoms: C_19  and  C_20 
DOCKED: REMARK    4  A    between atoms: C_20  and  C_21 
DOCKED: REMARK    5  A    between atoms: C_21  and  N_22 
DOCKED: USER                              x       y       z     vdW  Elec       q    Type
DOCKED: USER                           _______ _______ _______ _____ _____    ______ ____
DOCKED: ROOT
DOCKED: ATOM      1  O   UNL     1     -45.645 -15.298   7.205 -0.09 -0.00    -0.346 OA 
DOCKED: ATOM      2  C   UNL     1     -44.440 -15.208   6.380 -0.15 +0.00    +0.130 C  
DOCKED: ATOM      3  C   UNL     1     -44.907 -14.513   5.134 -0.23 +0.00    +0.004 A  
DOCKED: ATOM      4  C   UNL     1     -46.236 -14.139   5.279 -0.29 +0.00    +0.006 A  
DOCKED: ATOM      5  C   UNL     1     -46.729 -14.543   6.615 -0.24 +0.00    +0.169 C  
DOCKED: ATOM      6  C   UNL     1     -44.210 -14.224   3.971 -0.19 -0.00    -0.001 A  
DOCKED: ATOM      7  C   UNL     1     -46.911 -13.471   4.271 -0.38 +0.00    +0.008 A  
DOCKED: ATOM      8  C   UNL     1     -44.878 -13.555   2.943 -0.25 +0.00    +0.010 A  
DOCKED: ATOM      9  C   UNL     1     -46.221 -13.180   3.093 -0.27 +0.00    +0.068 A  
DOCKED: ATOM     10  N   UNL     1     -47.430 -11.936   1.169 -2.52 -0.00    -0.191 NA 
DOCKED: ATOM     11  C   UNL     1     -46.888 -12.494   2.032 -0.31 +0.00    +0.101 C  
DOCKED: ENDROOT
DOCKED: BRANCH   2  12
DOCKED: ATOM     12  C   UNL     1     -43.389 -14.412   7.145 -0.15 +0.00    +0.038 C  
DOCKED: BRANCH  12  13
DOCKED: ATOM     13  C   UNL     1     -43.754 -14.285   8.623 -0.13 +0.00    +0.038 C  
DOCKED: BRANCH  13  14
DOCKED: ATOM     14  C   UNL     1     -43.197 -15.457   9.429 -0.05 +0.00    +0.251 C  
DOCKED: BRANCH  14  15
DOCKED: ATOM     15  N   UNL     1     -44.113 -16.590   9.377 -0.04 +0.00    +0.141 N  
DOCKED: ATOM     16  C   UNL     1     -43.405 -17.839   9.661 -0.03 +0.00    +0.285 C  
DOCKED: ATOM     17  C   UNL     1     -45.216 -16.405  10.321 -0.05 +0.00    +0.285 C  
DOCKED: ENDBRANCH  14  15
DOCKED: ENDBRANCH  13  14
DOCKED: ENDBRANCH  12  13
DOCKED: ENDBRANCH   2  12
DOCKED: BRANCH   2  18
DOCKED: ATOM     18  C   UNL     1     -43.978 -16.605   6.127 -0.11 +0.00    +0.006 A  
DOCKED: ATOM     19  C   UNL     1     -44.775 -17.682   6.513 -0.18 +0.00    +0.001 A  
DOCKED: ATOM     20  C   UNL     1     -44.342 -18.988   6.277 -0.15 +0.00    +0.029 A  
DOCKED: ATOM     21  C   UNL     1     -43.115 -19.214   5.655 -0.14 +0.00    +0.140 A  
DOCKED: ATOM     22  C   UNL     1     -42.319 -18.135   5.269 -0.05 +0.00    +0.029 A  
DOCKED: ATOM     23  F   UNL     1     -42.700 -20.467   5.427 -0.07 -0.00    -0.204 F  
DOCKED: ATOM     24  C   UNL     1     -42.751 -16.829   5.505 -0.05 +0.00    +0.001 A  
DOCKED: ENDBRANCH   2  18
DOCKED: TORSDOF 5
DOCKED: TER
DOCKED: ENDMDL
________________________________________________________________________________


    CLUSTERING HISTOGRAM
    ____________________


________________________________________________________________________________
     |           |     |           |     |
Clus | Lowest    | Run | Mean      | Num | Histogram
-ter | Binding   |     | Binding   | in  |
Rank | Energy    |     | Energy    | Clus|    5    10   15   20   25   30   35
_____|___________|_____|___________|_____|____:____|____:____|____:____|____:___
   1 |     -6.45 |  65 |     -5.35 |  17 |#################
   2 |     -6.45 | 145 |     -5.06 |  15 |###############
   3 |     -6.02 | 428 |     -5.32 |  53 |#####################################################
   4 |     -5.64 | 302 |     -5.05 |  16 |################
   5 |     -5.61 | 437 |     -5.00 |  31 |###############################
   6 |     -5.43 | 490 |     -4.78 |  20 |####################
   7 |     -5.16 | 500 |     -4.33 |  23 |#######################
   8 |     -5.00 |  24 |     -5.00 |   1 |#
   9 |     -4.98 | 508 |     -4.48 |  24 |########################
  10 |     -4.89 | 356 |     -4.51 |   4 |####
  11 |     -4.78 | 383 |     -4.23 |  55 |#######################################################
  12 |     -4.71 |  53 |     -4.27 |  44 |############################################
  13 |     -4.71 | 318 |     -4.15 |   4 |####
  14 |     -4.52 |  74 |     -3.89 |   5 |#####
  15 |     -4.47 | 423 |     -4.02 |  11 |###########
  16 |     -4.42 | 111 |     -4.02 |  15 |###############
  17 |     -4.41 | 417 |     -4.21 |   8 |########
  18 |     -4.34 | 244 |     -4.34 |   1 |#
  19 |     -4.26 | 127 |     -4.09 |  13 |#############
  20 |     -4.25 | 432 |     -4.00 |  12 |############
  21 |     -4.24 | 387 |     -3.99 |  21 |#####################
  22 |     -4.17 | 458 |     -3.93 |   3 |###
  23 |     -4.15 | 285 |     -3.97 |   9 |#########
  24 |     -4.12 | 248 |     -3.94 |  11 |###########
  25 |     -4.10 | 134 |     -4.10 |   1 |#
  26 |     -4.05 | 140 |     -3.75 |   9 |#########
  27 |     -4.05 |  42 |     -3.83 |   8 |########
  28 |     -4.03 | 276 |     -3.93 |   5 |#####
  29 |     -4.02 |  36 |     -3.64 |  15 |###############
  30 |     -4.01 | 241 |     -4.01 |   1 |#
  31 |     -4.00 | 224 |     -3.78 |   5 |#####
  32 |     -4.00 | 253 |     -3.80 |   2 |##
  33 |     -3.98 | 380 |     -3.80 |  11 |###########
  34 |     -3.97 | 489 |     -3.97 |   1 |#
  35 |     -3.96 | 347 |     -3.96 |   1 |#
  36 |     -3.95 | 109 |     -3.71 |   5 |#####
  37 |     -3.94 | 290 |     -3.93 |   2 |##
  38 |     -3.93 | 346 |     -3.68 |   5 |#####
  39 |     -3.91 | 459 |     -3.73 |   2 |##
  40 |     -3.81 | 393 |     -3.81 |   1 |#
  41 |     -3.80 |  41 |     -3.80 |   1 |#
  42 |     -3.79 | 130 |     -3.79 |   1 |#
  43 |     -3.77 |  33 |     -3.58 |   2 |##
  44 |     -3.75 | 357 |     -3.55 |   3 |###
  45 |     -3.75 | 232 |     -3.68 |   2 |##
  46 |     -3.74 | 457 |     -3.60 |   2 |##
  47 |     -3.61 | 150 |     -3.61 |   1 |#
  48 |     -3.57 | 148 |     -3.57 |   1 |#
  49 |     -3.57 |  22 |     -3.57 |   1 |#
  50 |     -3.53 | 438 |     -3.53 |   1 |#
  51 |     -3.52 |  11 |     -3.52 |   1 |#
  52 |     -3.50 | 202 |     -3.39 |   2 |##
  53 |     -3.22 |  46 |     -3.22 |   1 |#
  54 |     -2.98 | 201 |     -2.98 |   1 |#
  55 |     -2.84 | 180 |     -2.84 |   1 |#
  56 |     -2.77 |  58 |     -2.77 |   1 |#
_____|___________|_____|___________|_____|______________________________________


    RMSD TABLE
    __________


_______________________________________________________________________
     |      |      |           |         |                 |
Rank | Sub- | Run  | Binding   | Cluster | Reference       | Grep
     | Rank |      | Energy    | RMSD    | RMSD            | Pattern
_____|______|______|___________|_________|_________________|___________
   1      1     65       -6.45      0.00     55.07           RANKING
   1      2    325       -6.35      0.72     55.18           RANKING
   1      3    207       -6.28      0.85     55.27           RANKING
   1      4    360       -6.11      1.02     54.76           RANKING
   1      5     29       -5.93      1.74     54.48           RANKING
   1      6     47       -5.92      1.16     54.80           RANKING
   1      7     82       -5.63      1.82     53.68           RANKING
   1      8     66       -5.62      1.95     53.46           RANKING
   1      9    291       -5.47      1.14     54.96           RANKING
   1     10    113       -5.43      1.93     54.72           RANKING
   1     11    282       -5.10      1.56     54.15           RANKING
   1     12    218       -4.74      1.75     54.48           RANKING
   1     13    376       -4.60      2.00     54.22           RANKING
   1     14    431       -4.59      1.67     53.80           RANKING
   1     15     78       -4.35      1.52     54.32           RANKING
   1     16    112       -4.27      1.90     55.39           RANKING
   1     17    352       -4.09      1.85     54.05           RANKING
   2      1    145       -6.45      0.00     53.63           RANKING
   2      2    342       -6.37      0.32     53.54           RANKING
   2      3      3       -5.57      1.07     53.89           RANKING
   2      4    419       -5.56      1.15     53.12           RANKING
   2      5    464       -5.42      1.00     53.13           RANKING
   2      6    427       -5.27      1.27     54.03           RANKING
   2      7    358       -5.20      1.14     53.12           RANKING
   2      8    322       -5.06      1.08     53.78           RANKING
   2      9    338       -5.05      1.17     53.15           RANKING
   2     10    152       -5.04      1.28     53.10           RANKING
   2     11    123       -4.57      1.73     53.98           RANKING
   2     12    452       -4.46      1.68     53.31           RANKING
   2     13    200       -4.44      1.55     53.69           RANKING
   2     14    382       -3.89      1.59     53.10           RANKING
   2     15    506       -3.49      1.94     54.06           RANKING
   3      1    428       -6.02      0.00     53.65           RANKING
   3      2    389       -5.98      0.93     53.99           RANKING
   3      3     71       -5.98      0.92     54.09           RANKING
   3      4    197       -5.96      0.91     54.13           RANKING
   3      5    178       -5.90      0.54     53.77           RANKING
   3      6    483       -5.87      1.01     53.96           RANKING
   3      7    175       -5.85      1.09     53.98           RANKING
   3      8    493       -5.82      0.71     53.70           RANKING
   3      9     81       -5.80      1.22     53.65           RANKING
   3     10    240       -5.79      1.18     54.10           RANKING
   3     11    298       -5.77      1.22     53.85           RANKING
   3     12    185       -5.72      0.68     53.84           RANKING
   3     13    179       -5.72      1.24     53.97           RANKING
   3     14    444       -5.72      1.23     53.98           RANKING
   3     15    468       -5.68      1.23     54.03           RANKING
   3     16     21       -5.66      1.29     54.05           RANKING
   3     17    453       -5.65      0.98     53.49           RANKING
   3     18    136       -5.64      0.80     54.27           RANKING
   3     19    495       -5.62      1.44     54.42           RANKING
   3     20     93       -5.60      1.41     54.25           RANKING
   3     21    449       -5.59      1.33     53.84           RANKING
   3     22     23       -5.59      1.42     54.38           RANKING
   3     23     99       -5.57      1.25     53.88           RANKING
   3     24     28       -5.56      1.65     54.69           RANKING
   3     25    162       -5.52      1.27     53.91           RANKING
   3     26    287       -5.49      1.30     54.13           RANKING
   3     27    420       -5.45      1.27     53.68           RANKING
   3     28    149       -5.43      1.00     53.27           RANKING
   3     29    505       -5.43      1.29     53.95           RANKING
   3     30    267       -5.42      0.63     53.67           RANKING
   3     31     39       -5.40      1.39     53.70           RANKING
   3     32     32       -5.37      1.06     53.95           RANKING
   3     33    169       -5.34      1.66     53.81           RANKING
   3     34    259       -5.33      1.59     54.65           RANKING
   3     35    296       -5.28      0.79     53.74           RANKING
   3     36    186       -5.28      0.89     53.68           RANKING
   3     37    392       -5.27      0.92     53.82           RANKING
   3     38     61       -5.22      1.60     53.77           RANKING
   3     39    430       -5.09      1.93     54.43           RANKING
   3     40    165       -5.07      1.08     54.10           RANKING
   3     41    271       -4.96      1.62     54.21           RANKING
   3     42    413       -4.95      1.97     54.15           RANKING
   3     43    212       -4.80      1.48     53.92           RANKING
   3     44     97       -4.72      1.43     54.47           RANKING
   3     45    418       -4.71      1.20     53.44           RANKING
   3     46    410       -4.64      1.19     53.54           RANKING
   3     47    190       -4.56      1.85     54.02           RANKING
   3     48    117       -4.52      1.95     53.53           RANKING
   3     49    183       -4.52      1.25     53.80           RANKING
   3     50    415       -4.12      1.79     54.65           RANKING
   3     51     12       -4.10      1.49     54.56           RANKING
   3     52     76       -4.06      1.96     54.36           RANKING
   3     53     48       -4.01      1.68     53.02           RANKING
   4      1    302       -5.64      0.00     55.36           RANKING
   4      2    309       -5.59      0.61     55.48           RANKING
   4      3    501       -5.54      0.57     55.27           RANKING
   4      4    365       -5.49      1.18     54.60           RANKING
   4      5    446       -5.49      0.74     55.34           RANKING
   4      6    435       -5.45      0.89     54.94           RANKING
   4      7    401       -5.38      0.76     55.07           RANKING
   4      8    139       -5.23      0.90     54.79           RANKING
   4      9    286       -5.13      1.11     54.57           RANKING
   4     10    319       -5.06      1.14     54.98           RANKING
   4     11    203       -4.92      1.46     54.77           RANKING
   4     12    299       -4.87      1.24     54.98           RANKING
   4     13    144       -4.63      1.02     55.11           RANKING
   4     14    471       -4.48      1.33     55.00           RANKING
   4     15    466       -4.00      1.66     54.93           RANKING
   4     16    398       -3.94      1.79     54.70           RANKING
   5      1    437       -5.61      0.00     54.99           RANKING
   5      2    177       -5.57      1.41     55.22           RANKING
   5      3    278       -5.55      0.99     54.94           RANKING
   5      4    230       -5.55      1.22     54.78           RANKING
   5      5    485       -5.52      1.17     54.72           RANKING
   5      6    484       -5.44      0.97     54.51           RANKING
   5      7    119       -5.44      1.29     54.83           RANKING
   5      8    441       -5.42      0.81     54.90           RANKING
   5      9    273       -5.41      1.10     54.53           RANKING
   5     10    339       -5.36      1.41     54.26           RANKING
   5     11    105       -5.33      1.34     55.78           RANKING
   5     12    237       -5.31      1.69     54.76           RANKING
   5     13     67       -5.14      0.72     55.16           RANKING
   5     14    359       -5.10      1.28     54.72           RANKING
   5     15    386       -5.09      1.71     55.60           RANKING
   5     16    272       -5.05      1.49     55.46           RANKING
   5     17    478       -5.05      1.58     54.69           RANKING
   5     18    217       -5.01      1.36     54.65           RANKING
   5     19     59       -4.95      1.60     54.97           RANKING
   5     20     34       -4.84      1.98     53.41           RANKING
   5     21    161       -4.81      1.34     55.02           RANKING
   5     22    100       -4.80      1.77     55.24           RANKING
   5     23    300       -4.72      1.66     54.29           RANKING
   5     24    416       -4.71      1.50     54.88           RANKING
   5     25    181       -4.57      1.50     54.50           RANKING
   5     26    172       -4.56      1.45     54.39           RANKING
   5     27    189       -4.53      1.49     55.63           RANKING
   5     28     88       -4.43      1.86     54.80           RANKING
   5     29    436       -4.28      1.97     54.93           RANKING
   5     30    440       -4.04      1.87     54.80           RANKING
   5     31    502       -3.92      1.67     53.96           RANKING
   6      1    490       -5.43      0.00     53.97           RANKING
   6      2    194       -5.31      0.79     53.78           RANKING
   6      3     73       -5.19      0.70     53.75           RANKING
   6      4    153       -5.17      1.02     53.63           RANKING
   6      5    353       -5.16      1.97     53.39           RANKING
   6      6    475       -5.10      0.67     53.81           RANKING
   6      7     16       -4.93      1.45     53.28           RANKING
   6      8    504       -4.90      1.71     53.51           RANKING
   6      9    317       -4.90      1.19     54.29           RANKING
   6     10    321       -4.86      1.49     53.50           RANKING
   6     11    252       -4.79      1.92     53.48           RANKING
   6     12     84       -4.75      1.41     53.63           RANKING
   6     13    474       -4.74      0.89     53.77           RANKING
   6     14    313       -4.66      1.54     53.81           RANKING
   6     15    402       -4.65      1.32     53.98           RANKING
   6     16    316       -4.59      1.61     53.41           RANKING
   6     17     85       -4.40      1.88     53.91           RANKING
   6     18     20       -4.35      1.94     53.67           RANKING
   6     19     56       -4.08      1.43     53.73           RANKING
   6     20    465       -3.73      1.88     53.26           RANKING
   7      1    500       -5.16      0.00     46.28           RANKING
   7      2    221       -4.99      0.94     46.16           RANKING
   7      3    345       -4.96      0.71     46.37           RANKING
   7      4    122       -4.89      1.29     46.46           RANKING
   7      5    426       -4.85      0.94     46.72           RANKING
   7      6     79       -4.76      0.81     46.19           RANKING
   7      7    424       -4.74      0.68     46.08           RANKING
   7      8    340       -4.73      0.71     46.16           RANKING
   7      9     87       -4.52      1.64     45.55           RANKING
   7     10      7       -4.40      1.08     45.57           RANKING
   7     11    226       -4.39      1.31     46.33           RANKING
   7     12    213       -4.34      1.89     45.34           RANKING
   7     13    229       -4.20      1.05     45.76           RANKING
   7     14    348       -4.15      1.34     45.85           RANKING
   7     15    142       -4.14      1.84     46.98           RANKING
   7     16    250       -3.98      1.71     46.69           RANKING
   7     17    405       -3.91      1.72     46.67           RANKING
   7     18    323       -3.87      1.67     46.87           RANKING
   7     19    155       -3.78      1.66     46.72           RANKING
   7     20     17       -3.78      1.62     46.76           RANKING
   7     21    439       -3.76      1.62     46.72           RANKING
   7     22    443       -3.71      1.69     46.65           RANKING
   7     23    101       -3.56      1.86     46.65           RANKING
   8      1     24       -5.00      0.00     54.34           RANKING
   9      1    508       -4.98      0.00     46.92           RANKING
   9      2    108       -4.87      1.77     46.07           RANKING
   9      3    362       -4.83      0.55     47.10           RANKING
   9      4     31       -4.83      1.60     46.16           RANKING
   9      5    512       -4.63      1.36     45.87           RANKING
   9      6    355       -4.61      0.90     46.57           RANKING
   9      7    403       -4.61      0.69     46.79           RANKING
   9      8    497       -4.59      0.65     46.86           RANKING
   9      9    120       -4.59      0.81     46.46           RANKING
   9     10     45       -4.58      1.25     46.04           RANKING
   9     11     63       -4.53      1.20     46.93           RANKING
   9     12    349       -4.52      1.37     45.93           RANKING
   9     13    433       -4.43      1.80     45.26           RANKING
   9     14    102       -4.38      0.82     47.18           RANKING
   9     15    209       -4.37      0.96     46.79           RANKING
   9     16    151       -4.37      1.86     46.59           RANKING
   9     17    256       -4.33      1.54     45.91           RANKING
   9     18    124       -4.31      1.35     46.07           RANKING
   9     19    371       -4.26      1.34     45.77           RANKING
   9     20    481       -4.25      1.51     47.15           RANKING
   9     21    341       -4.20      1.58     45.49           RANKING
   9     22    114       -4.20      0.99     46.58           RANKING
   9     23    463       -4.18      1.59     45.59           RANKING
   9     24      9       -4.09      1.43     45.84           RANKING
  10      1    356       -4.89      0.00     55.59           RANKING
  10      2    131       -4.85      0.75     55.29           RANKING
  10      3    496       -4.67      0.79     55.68           RANKING
  10      4    275       -3.64      1.57     55.14           RANKING
  11      1    383       -4.78      0.00     51.93           RANKING
  11      2    258       -4.74      0.71     51.63           RANKING
  11      3    143       -4.65      0.76     51.99           RANKING
  11      4    170       -4.61      1.06     51.74           RANKING
  11      5     27       -4.61      0.89     51.66           RANKING
  11      6    470       -4.57      0.84     52.02           RANKING
  11      7    498       -4.55      1.06     51.42           RANKING
  11      8    510       -4.53      0.56     51.90           RANKING
  11      9    132       -4.44      1.60     51.94           RANKING
  11     10    329       -4.42      1.13     51.94           RANKING
  11     11    335       -4.42      1.55     52.01           RANKING
  11     12    188       -4.39      1.77     52.06           RANKING
  11     13    277       -4.38      0.97     51.79           RANKING
  11     14    236       -4.37      1.04     52.02           RANKING
  11     15    163       -4.36      1.04     52.14           RANKING
  11     16    205       -4.35      1.01     52.11           RANKING
  11     17    249       -4.33      1.13     52.02           RANKING
  11     18      8       -4.32      0.84     52.18           RANKING
  11     19     75       -4.32      1.63     51.15           RANKING
  11     20    304       -4.32      1.87     52.32           RANKING
  11     21    361       -4.31      1.57     52.17           RANKING
  11     22    305       -4.31      1.72     52.12           RANKING
  11     23    235       -4.30      1.50     51.84           RANKING
  11     24     37       -4.28      1.80     52.35           RANKING
  11     25    233       -4.28      1.32     51.94           RANKING
  11     26    411       -4.27      1.99     51.01           RANKING
  11     27    499       -4.27      1.67     52.51           RANKING
  11     28      6       -4.26      1.80     51.55           RANKING
  11     29    141       -4.25      1.78     52.17           RANKING
  11     30      2       -4.24      1.77     51.98           RANKING
  11     31     54       -4.22      1.83     51.97           RANKING
  11     32    168       -4.19      1.82     52.44           RANKING
  11     33    293       -4.19      1.90     51.91           RANKING
  11     34    279       -4.18      1.72     51.97           RANKING
  11     35    166       -4.17      1.95     51.90           RANKING
  11     36    363       -4.15      1.43     51.93           RANKING
  11     37     51       -4.14      1.32     52.51           RANKING
  11     38     68       -4.14      0.92     52.41           RANKING
  11     39      5       -4.14      1.03     52.14           RANKING
  11     40    121       -4.14      1.34     52.09           RANKING
  11     41    192       -4.11      1.95     52.33           RANKING
  11     42    374       -4.11      1.01     52.56           RANKING
  11     43    412       -4.06      1.66     52.00           RANKING
  11     44     26       -4.02      1.79     52.16           RANKING
  11     45    227       -3.99      1.50     52.29           RANKING
  11     46    283       -3.98      1.25     52.43           RANKING
  11     47    406       -3.98      2.00     51.66           RANKING
  11     48    311       -3.97      1.90     52.88           RANKING
  11     49    370       -3.93      1.94     52.09           RANKING
  11     50    461       -3.88      1.86     52.43           RANKING
  11     51    182       -3.84      1.63     52.60           RANKING
  11     52     62       -3.83      1.81     51.86           RANKING
  11     53    269       -3.82      1.80     52.71           RANKING
  11     54    482       -3.74      1.61     52.81           RANKING
  11     55    223       -3.27      1.75     52.37           RANKING
  12      1     53       -4.71      0.00     53.76           RANKING
  12      2    476       -4.67      0.78     53.42           RANKING
  12      3    479       -4.66      0.59     53.60           RANKING
  12      4    214       -4.62      0.80     53.43           RANKING
  12      5     96       -4.60      0.61     53.48           RANKING
  12      6    337       -4.56      1.15     53.73           RANKING
  12      7    238       -4.50      0.93     53.68           RANKING
  12      8    116       -4.49      0.86     53.55           RANKING
  12      9     69       -4.49      1.04     53.38           RANKING
  12     10    133       -4.48      1.16     53.83           RANKING
  12     11    324       -4.48      1.30     53.30           RANKING
  12     12    208       -4.45      1.76     53.81           RANKING
  12     13     77       -4.45      0.71     53.55           RANKING
  12     14     44       -4.45      0.87     53.63           RANKING
  12     15    307       -4.43      1.93     52.94           RANKING
  12     16     40       -4.40      1.83     53.03           RANKING
  12     17      1       -4.40      1.83     53.85           RANKING
  12     18    281       -4.40      1.93     53.85           RANKING
  12     19    395       -4.38      1.64     54.35           RANKING
  12     20     70       -4.35      1.78     53.12           RANKING
  12     21    263       -4.35      1.95     53.62           RANKING
  12     22     89       -4.34      1.63     53.16           RANKING
  12     23    303       -4.33      1.62     53.32           RANKING
  12     24     72       -4.31      1.07     53.64           RANKING
  12     25    367       -4.31      1.62     53.42           RANKING
  12     26    314       -4.28      1.76     53.11           RANKING
  12     27    106       -4.26      1.89     52.81           RANKING
  12     28    198       -4.25      1.38     53.49           RANKING
  12     29    308       -4.24      1.75     53.41           RANKING
  12     30    138       -4.20      0.94     53.24           RANKING
  12     31    447       -4.19      1.82     54.38           RANKING
  12     32    254       -4.13      0.90     53.42           RANKING
  12     33    154       -4.09      1.95     53.47           RANKING
  12     34    176       -4.05      1.35     53.39           RANKING
  12     35    445       -4.05      1.92     53.75           RANKING
  12     36    450       -3.97      1.61     53.19           RANKING
  12     37    294       -3.93      1.03     53.74           RANKING
  12     38    187       -3.93      1.83     53.36           RANKING
  12     39    434       -3.86      1.86     53.84           RANKING
  12     40    135       -3.85      1.96     53.87           RANKING
  12     41    164       -3.82      1.65     53.29           RANKING
  12     42    414       -3.79      1.28     53.80           RANKING
  12     43    225       -3.79      1.58     53.17           RANKING
  12     44    310       -3.72      1.37     53.38           RANKING
  13      1    318       -4.71      0.00     45.02           RANKING
  13      2    228       -4.45      1.50     44.95           RANKING
  13      3     98       -4.03      0.90     45.11           RANKING
  13      4    381       -3.39      1.78     43.47           RANKING
  14      1     74       -4.52      0.00     52.87           RANKING
  14      2    118       -3.84      1.88     52.53           RANKING
  14      3    328       -3.80      1.97     52.67           RANKING
  14      4    486       -3.68      2.00     52.95           RANKING
  14      5    354       -3.58      1.77     51.91           RANKING
  15      1    423       -4.47      0.00     44.84           RANKING
  15      2    174       -4.37      1.02     44.54           RANKING
  15      3    137       -4.26      1.23     44.41           RANKING
  15      4    421       -4.13      1.72     45.03           RANKING
  15      5     10       -4.09      1.42     44.71           RANKING
  15      6    284       -4.08      1.07     44.44           RANKING
  15      7      4       -4.01      1.34     44.30           RANKING
  15      8    494       -3.77      1.60     44.88           RANKING
  15      9    195       -3.76      1.27     44.21           RANKING
  15     10    408       -3.68      1.81     44.74           RANKING
  15     11    379       -3.56      1.42     44.06           RANKING
  16      1    111       -4.42      0.00     46.46           RANKING
  16      2    330       -4.37      0.69     46.52           RANKING
  16      3    390       -4.26      1.19     46.28           RANKING
  16      4     50       -4.13      0.87     46.14           RANKING
  16      5    288       -4.13      1.89     45.87           RANKING
  16      6    399       -4.12      1.63     46.33           RANKING
  16      7    222       -4.02      1.74     45.73           RANKING
  16      8    507       -3.95      1.46     45.72           RANKING
  16      9    216       -3.94      1.39     46.37           RANKING
  16     10    388       -3.94      1.34     46.36           RANKING
  16     11     13       -3.92      1.55     46.69           RANKING
  16     12    332       -3.90      1.62     46.51           RANKING
  16     13    467       -3.82      1.37     46.38           RANKING
  16     14    159       -3.79      1.75     46.58           RANKING
  16     15     43       -3.65      1.55     46.67           RANKING
  17      1    417       -4.41      0.00     52.89           RANKING
  17      2     55       -4.41      1.20     53.52           RANKING
  17      3    394       -4.38      1.32     53.67           RANKING
  17      4    301       -4.23      1.55     52.49           RANKING
  17      5    297       -4.11      1.03     53.66           RANKING
  17      6     86       -4.10      1.39     53.76           RANKING
  17      7    167       -4.03      1.83     52.14           RANKING
  17      8    110       -4.02      1.34     52.43           RANKING
  18      1    244       -4.34      0.00     44.64           RANKING
  19      1    127       -4.26      0.00     51.01           RANKING
  19      2    306       -4.24      1.23     51.61           RANKING
  19      3    503       -4.24      1.22     51.59           RANKING
  19      4    274       -4.23      0.92     51.01           RANKING
  19      5    146       -4.23      0.59     51.02           RANKING
  19      6    460       -4.22      0.77     51.00           RANKING
  19      7     52       -4.13      0.75     51.13           RANKING
  19      8    509       -4.10      1.50     51.31           RANKING
  19      9     57       -4.07      1.00     51.36           RANKING
  19     10    451       -4.06      1.04     51.33           RANKING
  19     11    327       -3.96      1.08     51.25           RANKING
  19     12    125       -3.73      1.80     52.12           RANKING
  19     13    115       -3.73      1.93     52.46           RANKING
  20      1    432       -4.25      0.00     53.69           RANKING
  20      2    480       -4.18      1.44     52.71           RANKING
  20      3    511       -4.10      1.91     52.85           RANKING
  20      4    184       -4.08      1.28     52.66           RANKING
  20      5    315       -4.04      1.28     53.20           RANKING
  20      6    295       -4.01      0.97     53.45           RANKING
  20      7    366       -3.95      1.53     55.06           RANKING
  20      8    242       -3.95      0.95     53.28           RANKING
  20      9     92       -3.93      1.54     52.83           RANKING
  20     10    334       -3.89      1.43     52.79           RANKING
  20     11    385       -3.88      1.41     52.82           RANKING
  20     12    368       -3.73      1.65     53.50           RANKING
  21      1    387       -4.24      0.00     45.71           RANKING
  21      2    404       -4.23      0.68     45.66           RANKING
  21      3    320       -4.19      1.08     45.68           RANKING
  21      4    260       -4.16      0.59     45.69           RANKING
  21      5    312       -4.16      1.23     45.72           RANKING
  21      6    247       -4.15      0.73     45.65           RANKING
  21      7    400       -4.11      1.33     45.61           RANKING
  21      8    336       -4.11      1.03     45.60           RANKING
  21      9    384       -4.11      1.45     45.47           RANKING
  21     10    473       -4.02      1.46     45.57           RANKING
  21     11    191       -3.99      1.28     45.69           RANKING
  21     12    103       -3.97      1.63     45.52           RANKING
  21     13     19       -3.93      1.64     45.32           RANKING
  21     14    396       -3.93      1.88     45.57           RANKING
  21     15    372       -3.93      1.71     45.56           RANKING
  21     16    231       -3.92      1.10     45.54           RANKING
  21     17    469       -3.88      1.85     45.29           RANKING
  21     18    326       -3.82      1.65     45.11           RANKING
  21     19    261       -3.77      1.57     45.57           RANKING
  21     20    280       -3.71      1.75     45.66           RANKING
  21     21    369       -3.55      1.85     45.19           RANKING
  22      1    458       -4.17      0.00     43.76           RANKING
  22      2    215       -3.81      1.53     43.38           RANKING
  22      3     64       -3.81      1.36     44.37           RANKING
  23      1    285       -4.15      0.00     52.62           RANKING
  23      2    262       -4.12      1.22     52.31           RANKING
  23      3    333       -4.09      1.01     53.11           RANKING
  23      4    373       -4.06      1.17     53.31           RANKING
  23      5    196       -4.05      1.14     53.23           RANKING
  23      6    206       -4.03      1.33     52.21           RANKING
  23      7     49       -3.96      1.32     52.88           RANKING
  23      8    477       -3.82      1.21     52.84           RANKING
  23      9     35       -3.47      1.59     53.33           RANKING
  24      1    248       -4.12      0.00     52.46           RANKING
  24      2    351       -4.11      0.98     52.29           RANKING
  24      3    448       -4.07      1.08     52.30           RANKING
  24      4    429       -4.06      1.25     52.44           RANKING
  24      5    289       -4.04      1.32     52.28           RANKING
  24      6    220       -3.98      0.94     52.06           RANKING
  24      7    425       -3.95      1.75     52.24           RANKING
  24      8    364       -3.78      1.81     52.40           RANKING
  24      9    407       -3.77      1.47     52.16           RANKING
  24     10    456       -3.76      1.44     52.45           RANKING
  24     11     25       -3.72      1.62     52.47           RANKING
  25      1    134       -4.10      0.00     46.71           RANKING
  26      1    140       -4.05      0.00     52.09           RANKING
  26      2    251       -3.93      1.46     51.85           RANKING
  26      3    455       -3.88      1.27     51.70           RANKING
  26      4    462       -3.83      1.92     52.05           RANKING
  26      5     14       -3.70      1.94     52.25           RANKING
  26      6    239       -3.69      1.68     51.96           RANKING
  26      7    199       -3.68      1.87     51.89           RANKING
  26      8     15       -3.59      1.60     52.38           RANKING
  26      9    488       -3.35      1.96     52.53           RANKING
  27      1     42       -4.05      0.00     52.37           RANKING
  27      2    246       -3.97      1.74     52.66           RANKING
  27      3    378       -3.96      1.85     52.36           RANKING
  27      4    409       -3.90      1.51     52.38           RANKING
  27      5    422       -3.89      1.90     53.60           RANKING
  27      6     95       -3.82      1.75     52.95           RANKING
  27      7    442       -3.74      1.49     52.73           RANKING
  27      8     91       -3.29      1.45     52.31           RANKING
  28      1    276       -4.03      0.00     51.92           RANKING
  28      2    173       -4.03      0.85     51.49           RANKING
  28      3    331       -3.97      0.80     51.93           RANKING
  28      4    257       -3.85      1.08     52.00           RANKING
  28      5    126       -3.78      1.63     52.89           RANKING
  29      1     36       -4.02      0.00     41.93           RANKING
  29      2    204       -4.01      0.61     42.01           RANKING
  29      3    487       -3.94      1.68     42.65           RANKING
  29      4    266       -3.88      1.04     42.28           RANKING
  29      5    344       -3.81      1.12     41.93           RANKING
  29      6    270       -3.77      1.44     42.48           RANKING
  29      7     38       -3.72      0.93     42.11           RANKING
  29      8    391       -3.67      1.73     41.81           RANKING
  29      9    210       -3.59      1.37     42.13           RANKING
  29     10    377       -3.57      1.86     42.02           RANKING
  29     11    158       -3.52      1.43     41.42           RANKING
  29     12    375       -3.43      1.80     41.70           RANKING
  29     13     94       -3.42      1.57     41.24           RANKING
  29     14    157       -3.25      1.65     41.11           RANKING
  29     15    292       -3.04      1.89     42.07           RANKING
  30      1    241       -4.01      0.00     54.58           RANKING
  31      1    224       -4.00      0.00     45.70           RANKING
  31      2    492       -3.85      0.86     45.37           RANKING
  31      3    454       -3.80      1.20     45.60           RANKING
  31      4    243       -3.67      1.52     45.62           RANKING
  31      5    234       -3.57      1.33     45.07           RANKING
  32      1    253       -4.00      0.00     52.12           RANKING
  32      2     80       -3.61      1.36     52.68           RANKING
  33      1    380       -3.98      0.00     45.58           RANKING
  33      2    211       -3.95      1.87     45.49           RANKING
  33      3    128       -3.94      1.72     45.24           RANKING
  33      4    160       -3.93      1.95     45.34           RANKING
  33      5    156       -3.90      1.89     45.29           RANKING
  33      6    255       -3.88      1.68     45.66           RANKING
  33      7     30       -3.86      1.42     45.07           RANKING
  33      8    397       -3.76      1.78     45.03           RANKING
  33      9    491       -3.72      1.23     45.25           RANKING
  33     10    219       -3.64      1.71     45.75           RANKING
  33     11    193       -3.30      1.98     45.45           RANKING
  34      1    489       -3.97      0.00     48.17           RANKING
  35      1    347       -3.96      0.00     45.48           RANKING
  36      1    109       -3.95      0.00     45.19           RANKING
  36      2     60       -3.87      2.00     45.50           RANKING
  36      3     83       -3.66      1.41     44.90           RANKING
  36      4    472       -3.54      1.64     45.08           RANKING
  36      5    245       -3.51      1.55     44.75           RANKING
  37      1    290       -3.94      0.00     43.89           RANKING
  37      2    264       -3.93      1.20     43.05           RANKING
  38      1    346       -3.93      0.00     42.40           RANKING
  38      2    171       -3.76      1.61     42.11           RANKING
  38      3    265       -3.76      1.99     43.02           RANKING
  38      4     90       -3.55      1.84     42.71           RANKING
  38      5    107       -3.43      1.98     42.06           RANKING
  39      1    459       -3.91      0.00     46.83           RANKING
  39      2    147       -3.55      1.16     47.16           RANKING
  40      1    393       -3.81      0.00     42.97           RANKING
  41      1     41       -3.80      0.00     54.55           RANKING
  42      1    130       -3.79      0.00     45.60           RANKING
  43      1     33       -3.77      0.00     41.89           RANKING
  43      2    104       -3.38      1.85     41.04           RANKING
  44      1    357       -3.75      0.00     42.66           RANKING
  44      2    350       -3.56      0.89     42.54           RANKING
  44      3    268       -3.35      1.78     42.47           RANKING
  45      1    232       -3.75      0.00     46.44           RANKING
  45      2     18       -3.61      0.60     46.35           RANKING
  46      1    457       -3.74      0.00     53.00           RANKING
  46      2    129       -3.46      1.74     52.54           RANKING
  47      1    150       -3.61      0.00     46.17           RANKING
  48      1    148       -3.57      0.00     52.55           RANKING
  49      1     22       -3.57      0.00     45.89           RANKING
  50      1    438       -3.53      0.00     42.50           RANKING
  51      1     11       -3.52      0.00     52.90           RANKING
  52      1    202       -3.50      0.00     43.93           RANKING
  52      2    343       -3.28      0.94     43.77           RANKING
  53      1     46       -3.22      0.00     40.92           RANKING
  54      1    201       -2.98      0.00     45.39           RANKING
  55      1    180       -2.84      0.00     43.01           RANKING
  56      1     58       -2.77      0.00     47.35           RANKING

Run time 0.973 sec
Idle time 0.593 sec
