AutoDock-GPU version: pre-gridboxing-2025-09-02-2-g7a158b4220ccb7fae2f1ef28c415f546fce74080-dirty

**********************************************************
**    AutoDock-GPU AUTODOCKTOOLS-COMPATIBLE DLG FILE    **
**********************************************************


    DOCKING PARAMETERS
    ________________________


Ligand file:                               /home/taka/development/ultidock-gmx/docking/LIGANDS_DIR/escitalopram-e.pdbqt
Grid fld file:                             5i6x-edited.maps.fld

Random seed:                               1757959491, 58895
Number of runs:                            512
Number of energy evaluations:              139774
Number of generations:                     42000
Size of population:                        150
Rate of crossover:                         80.000000%
Tournament selection probability limit:    60.000000%
Rate of mutation:                          2.000000%
Maximal allowed delta movement:            +/- 6.000000A
Maximal allowed delta angle:               +/- 90.000000

Rate of local search:                      50.000000%
Maximal number of local search iterations: 300
Rho lower bound:                           0.010000
Spread of local search delta movement:     2.000000A
Spread of local search delta angle:        74.999999
Limit of consecutive successes/failures:   4

Handle symmetry during clustering:         YES
RMSD tolerance:                            2.000000A

Program call in command line was:          /home/taka/development/ultidock-gmx/docking/AUTODOCK_GPU_DIR/bin/autodock_gpu_cuda_64wi --lfile /home/taka/development/ultidock-gmx/docking/LIGANDS_DIR/escitalopram-e.pdbqt --ffile 5i6x-edited.maps.fld --nrun 512 --nev 5000000 --gbest 5 --xmloutput 1 --resnam /home/taka/development/ultidock-gmx/docking/DOCKING_DIR/S3__escitalopram-e_99f66ae6 --devnum 1 --lsrat 50.0 --lsmet sw --initswgens 200 --stopstd 0.02 


    GRID PARAMETERS
    ________________________


Receptor name:                             /home/taka/development/ultidock-gmx/docking/MACRO_MOL_DIR/5i6x-edited
Number of grid points (x, y, z):           97, 97, 97
Grid center (x, y, z):                     -28.285000, -8.884000, 4.970000A
Grid size (x, y, z):                       36.000000, 36.000000, 36.000000A
Grid spacing:                              0.375000A


    LIGAND PARAMETERS
    ________________________


Ligand name:                               /home/taka/development/ultidock-gmx/docking/LIGANDS_DIR/escitalopram-e
Number of atoms:                           24
Number of rotatable bonds:                 5
Number of atom types:                      6


    DUMMY DATA (only for ADT-compatibility)
    ________________________


DPF> outlev 1
DPF> ga_run 512
DPF> fld 5i6x-edited.maps.fld
DPF> move /home/taka/development/ultidock-gmx/docking/LIGANDS_DIR/escitalopram-e.pdbqt


    COUNTER STATES
    ________________________


Number of energy evaluations performed:    152797
Number of generations used:                8


    INPUT LIGAND PDBQT FILE:
    ________________________


INPUT-LIGAND-PDBQT: REMARK  5 active torsions:
INPUT-LIGAND-PDBQT: REMARK  status: ('A' for Active; 'I' for Inactive)
INPUT-LIGAND-PDBQT: REMARK    1  A    between atoms: C_2  and  C_19 
INPUT-LIGAND-PDBQT: REMARK    2  A    between atoms: C_2  and  C_11 
INPUT-LIGAND-PDBQT: REMARK    3  A    between atoms: C_19  and  C_20 
INPUT-LIGAND-PDBQT: REMARK    4  A    between atoms: C_20  and  C_21 
INPUT-LIGAND-PDBQT: REMARK    5  A    between atoms: C_21  and  N_22 
INPUT-LIGAND-PDBQT: ROOT
INPUT-LIGAND-PDBQT: ATOM      1  O   UNL     1      -0.114  -0.606   1.632  0.00  0.00    -0.346 OA
INPUT-LIGAND-PDBQT: ATOM      2  C   UNL     1      -0.069  -0.235   0.217  0.00  0.00     0.130 C 
INPUT-LIGAND-PDBQT: ATOM      3  C   UNL     1       1.387  -0.336  -0.135  0.00  0.00     0.004 A 
INPUT-LIGAND-PDBQT: ATOM      4  C   UNL     1       2.097  -0.828   0.951  0.00  0.00     0.006 A 
INPUT-LIGAND-PDBQT: ATOM      5  C   UNL     1       1.173  -1.095   2.076  0.00  0.00     0.169 C 
INPUT-LIGAND-PDBQT: ATOM      6  C   UNL     1       2.030  -0.028  -1.325  0.00  0.00    -0.001 A 
INPUT-LIGAND-PDBQT: ATOM      7  C   UNL     1       3.466  -1.024   0.888  0.00  0.00     0.008 A 
INPUT-LIGAND-PDBQT: ATOM      8  C   UNL     1       3.411  -0.216  -1.403  0.00  0.00     0.010 A 
INPUT-LIGAND-PDBQT: ATOM      9  C   UNL     1       4.125  -0.712  -0.302  0.00  0.00     0.068 A 
INPUT-LIGAND-PDBQT: ATOM     10  N   UNL     1       6.687  -1.054  -0.482  0.00  0.00    -0.191 NA
INPUT-LIGAND-PDBQT: ATOM     11  C   UNL     1       5.538  -0.900  -0.401  0.00  0.00     0.101 C 
INPUT-LIGAND-PDBQT: ENDROOT
INPUT-LIGAND-PDBQT: BRANCH   2  12
INPUT-LIGAND-PDBQT: ATOM     12  C   UNL     1      -0.938  -1.212  -0.566  0.00  0.00     0.038 C 
INPUT-LIGAND-PDBQT: BRANCH  12  13
INPUT-LIGAND-PDBQT: ATOM     13  C   UNL     1      -2.364  -1.250  -0.020  0.00  0.00     0.038 C 
INPUT-LIGAND-PDBQT: BRANCH  13  14
INPUT-LIGAND-PDBQT: ATOM     14  C   UNL     1      -3.238  -2.204  -0.832  0.00  0.00     0.251 C 
INPUT-LIGAND-PDBQT: BRANCH  14  15
INPUT-LIGAND-PDBQT: ATOM     15  N   UNL     1      -4.589  -2.244  -0.285  0.00  0.00     0.141 N 
INPUT-LIGAND-PDBQT: ATOM     16  C   UNL     1      -5.439  -3.137  -1.074  0.00  0.00     0.285 C 
INPUT-LIGAND-PDBQT: ATOM     17  C   UNL     1      -4.566  -2.671   1.115  0.00  0.00     0.285 C 
INPUT-LIGAND-PDBQT: ENDBRANCH  14  15
INPUT-LIGAND-PDBQT: ENDBRANCH  13  14
INPUT-LIGAND-PDBQT: ENDBRANCH  12  13
INPUT-LIGAND-PDBQT: ENDBRANCH   2  12
INPUT-LIGAND-PDBQT: BRANCH   2  18
INPUT-LIGAND-PDBQT: ATOM     18  C   UNL     1      -0.597   1.157   0.114  0.00  0.00     0.006 A 
INPUT-LIGAND-PDBQT: ATOM     19  C   UNL     1      -1.137   1.610  -1.089  0.00  0.00     0.001 A 
INPUT-LIGAND-PDBQT: ATOM     20  C   UNL     1      -1.630   2.912  -1.184  0.00  0.00     0.029 A 
INPUT-LIGAND-PDBQT: ATOM     21  C   UNL     1      -1.583   3.758  -0.077  0.00  0.00     0.140 A 
INPUT-LIGAND-PDBQT: ATOM     22  C   UNL     1      -1.043   3.304   1.126  0.00  0.00     0.029 A 
INPUT-LIGAND-PDBQT: ATOM     23  F   UNL     1      -2.058   5.007  -0.168  0.00  0.00    -0.204 F 
INPUT-LIGAND-PDBQT: ATOM     24  C   UNL     1      -0.549   2.002   1.222  0.00  0.00     0.001 A 
INPUT-LIGAND-PDBQT: ENDBRANCH   2  18
INPUT-LIGAND-PDBQT: TORSDOF 5


    FINAL DOCKED STATE:
    ________________________


Run:   1 / 512
Time taken for this run:   0.002s

DOCKED: MODEL        1
DOCKED: USER    Run = 1
DOCKED: USER
DOCKED: USER    Estimated Free Energy of Binding    =  -3.94 kcal/mol  [=(1)+(2)+(3)-(4)]
DOCKED: USER
DOCKED: USER    (1) Final Intermolecular Energy     =  -5.43 kcal/mol
DOCKED: USER        vdW + Hbond + desolv Energy     =  -5.43 kcal/mol
DOCKED: USER        Electrostatic Energy            =  +0.00 kcal/mol
DOCKED: USER        Moving Ligand-Fixed Receptor    =  -5.43 kcal/mol
DOCKED: USER        Moving Ligand-Moving Receptor   =  +0.00 kcal/mol
DOCKED: USER    (2) Final Total Internal Energy     =  -1.12 kcal/mol
DOCKED: USER    (3) Torsional Free Energy           =  +1.49 kcal/mol
DOCKED: USER    (4) Unbound System's Energy         =  -1.12 kcal/mol
DOCKED: USER
DOCKED: USER
DOCKED: REMARK  5 active torsions:
DOCKED: REMARK  status: ('A' for Active; 'I' for Inactive)
DOCKED: REMARK    1  A    between atoms: C_2  and  C_19 
DOCKED: REMARK    2  A    between atoms: C_2  and  C_11 
DOCKED: REMARK    3  A    between atoms: C_19  and  C_20 
DOCKED: REMARK    4  A    between atoms: C_20  and  C_21 
DOCKED: REMARK    5  A    between atoms: C_21  and  N_22 
DOCKED: USER                              x       y       z     vdW  Elec       q    Type
DOCKED: USER                           _______ _______ _______ _____ _____    ______ ____
DOCKED: ROOT
DOCKED: ATOM      1  O   UNL     1     -38.685 -21.379   8.418 -0.07 -0.00    -0.346 OA 
DOCKED: ATOM      2  C   UNL     1     -39.920 -20.638   8.159 -0.11 +0.00    +0.130 C  
DOCKED: ATOM      3  C   UNL     1     -40.814 -21.648   7.500 -0.20 +0.00    +0.004 A  
DOCKED: ATOM      4  C   UNL     1     -40.187 -22.886   7.484 -0.23 +0.00    +0.006 A  
DOCKED: ATOM      5  C   UNL     1     -38.861 -22.786   8.133 -0.12 +0.00    +0.169 C  
DOCKED: ATOM      6  C   UNL     1     -42.084 -21.486   6.967 -0.24 -0.00    -0.001 A  
DOCKED: ATOM      7  C   UNL     1     -40.803 -23.998   6.935 -0.34 +0.00    +0.008 A  
DOCKED: ATOM      8  C   UNL     1     -42.717 -22.597   6.406 -0.27 +0.00    +0.010 A  
DOCKED: ATOM      9  C   UNL     1     -42.079 -23.847   6.391 -0.29 +0.00    +0.068 A  
DOCKED: ATOM     10  N   UNL     1     -43.283 -25.889   5.346 -2.56 -0.00    -0.191 NA 
DOCKED: ATOM     11  C   UNL     1     -42.743 -24.973   5.814 -0.36 +0.00    +0.101 C  
DOCKED: ENDROOT
DOCKED: BRANCH   2  12
DOCKED: ATOM     12  C   UNL     1     -40.470 -20.136   9.489 -0.04 +0.00    +0.038 C  
DOCKED: BRANCH  12  13
DOCKED: ATOM     13  C   UNL     1     -39.812 -20.850  10.668 -0.03 +0.00    +0.038 C  
DOCKED: BRANCH  13  14
DOCKED: ATOM     14  C   UNL     1     -38.838 -19.926  11.396 -0.00 +0.00    +0.251 C  
DOCKED: BRANCH  14  15
DOCKED: ATOM     15  N   UNL     1     -38.418 -20.524  12.658 -0.00 +0.00    +0.141 N  
DOCKED: ATOM     16  C   UNL     1     -39.373 -21.547  13.087 -0.00 +0.00    +0.285 C  
DOCKED: ATOM     17  C   UNL     1     -37.078 -21.099  12.535 -0.00 +0.00    +0.285 C  
DOCKED: ENDBRANCH  14  15
DOCKED: ENDBRANCH  13  14
DOCKED: ENDBRANCH  12  13
DOCKED: ENDBRANCH   2  12
DOCKED: BRANCH   2  18
DOCKED: ATOM     18  C   UNL     1     -39.565 -19.501   7.260 -0.13 +0.00    +0.006 A  
DOCKED: ATOM     19  C   UNL     1     -39.090 -19.752   5.973 -0.15 +0.00    +0.001 A  
DOCKED: ATOM     20  C   UNL     1     -38.758 -18.688   5.134 -0.13 +0.00    +0.029 A  
DOCKED: ATOM     21  C   UNL     1     -38.903 -17.375   5.581 -0.06 +0.00    +0.140 A  
DOCKED: ATOM     22  C   UNL     1     -39.379 -17.125   6.868 -0.04 +0.00    +0.029 A  
DOCKED: ATOM     23  F   UNL     1     -38.586 -16.354   4.774 -0.01 -0.00    -0.204 F  
DOCKED: ATOM     24  C   UNL     1     -39.710 -18.189   7.709 -0.06 +0.00    +0.001 A  
DOCKED: ENDBRANCH   2  18
DOCKED: TORSDOF 5
DOCKED: TER
DOCKED: ENDMDL
________________________________________________________________________________


    FINAL DOCKED STATE:
    ________________________


Run:   2 / 512
Time taken for this run:   0.002s

DOCKED: MODEL        2
DOCKED: USER    Run = 2
DOCKED: USER
DOCKED: USER    Estimated Free Energy of Binding    =  -4.08 kcal/mol  [=(1)+(2)+(3)-(4)]
DOCKED: USER
DOCKED: USER    (1) Final Intermolecular Energy     =  -5.57 kcal/mol
DOCKED: USER        vdW + Hbond + desolv Energy     =  -5.57 kcal/mol
DOCKED: USER        Electrostatic Energy            =  +0.00 kcal/mol
DOCKED: USER        Moving Ligand-Fixed Receptor    =  -5.57 kcal/mol
DOCKED: USER        Moving Ligand-Moving Receptor   =  +0.00 kcal/mol
DOCKED: USER    (2) Final Total Internal Energy     =  -1.22 kcal/mol
DOCKED: USER    (3) Torsional Free Energy           =  +1.49 kcal/mol
DOCKED: USER    (4) Unbound System's Energy         =  -1.22 kcal/mol
DOCKED: USER
DOCKED: USER
DOCKED: REMARK  5 active torsions:
DOCKED: REMARK  status: ('A' for Active; 'I' for Inactive)
DOCKED: REMARK    1  A    between atoms: C_2  and  C_19 
DOCKED: REMARK    2  A    between atoms: C_2  and  C_11 
DOCKED: REMARK    3  A    between atoms: C_19  and  C_20 
DOCKED: REMARK    4  A    between atoms: C_20  and  C_21 
DOCKED: REMARK    5  A    between atoms: C_21  and  N_22 
DOCKED: USER                              x       y       z     vdW  Elec       q    Type
DOCKED: USER                           _______ _______ _______ _____ _____    ______ ____
DOCKED: ROOT
DOCKED: ATOM      1  O   UNL     1     -40.863 -19.474   7.341 -0.05 -0.00    -0.346 OA 
DOCKED: ATOM      2  C   UNL     1     -39.884 -20.466   7.787 -0.13 +0.00    +0.130 C  
DOCKED: ATOM      3  C   UNL     1     -40.474 -21.775   7.348 -0.22 +0.00    +0.004 A  
DOCKED: ATOM      4  C   UNL     1     -41.631 -21.545   6.618 -0.27 +0.00    +0.006 A  
DOCKED: ATOM      5  C   UNL     1     -41.878 -20.089   6.514 -0.16 +0.00    +0.169 C  
DOCKED: ATOM      6  C   UNL     1     -40.016 -23.066   7.567 -0.24 -0.00    -0.001 A  
DOCKED: ATOM      7  C   UNL     1     -42.370 -22.589   6.089 -0.31 +0.00    +0.008 A  
DOCKED: ATOM      8  C   UNL     1     -40.752 -24.131   7.044 -0.34 +0.00    +0.010 A  
DOCKED: ATOM      9  C   UNL     1     -41.923 -23.893   6.308 -0.30 +0.00    +0.068 A  
DOCKED: ATOM     10  N   UNL     1     -43.263 -25.891   5.346 -2.55 -0.00    -0.191 NA 
DOCKED: ATOM     11  C   UNL     1     -42.662 -24.995   5.778 -0.37 +0.00    +0.101 C  
DOCKED: ENDROOT
DOCKED: BRANCH   2  12
DOCKED: ATOM     12  C   UNL     1     -38.549 -20.163   7.118 -0.14 +0.00    +0.038 C  
DOCKED: BRANCH  12  13
DOCKED: ATOM     13  C   UNL     1     -37.377 -20.462   8.051 -0.10 +0.00    +0.038 C  
DOCKED: BRANCH  13  14
DOCKED: ATOM     14  C   UNL     1     -36.984 -21.937   7.983 -0.06 +0.00    +0.251 C  
DOCKED: BRANCH  14  15
DOCKED: ATOM     15  N   UNL     1     -36.740 -22.458   9.323 -0.09 +0.00    +0.141 N  
DOCKED: ATOM     16  C   UNL     1     -35.870 -23.634   9.268 -0.09 +0.00    +0.285 C  
DOCKED: ATOM     17  C   UNL     1     -36.147 -21.428  10.177 -0.02 +0.00    +0.285 C  
DOCKED: ENDBRANCH  14  15
DOCKED: ENDBRANCH  13  14
DOCKED: ENDBRANCH  12  13
DOCKED: ENDBRANCH   2  12
DOCKED: BRANCH   2  18
DOCKED: ATOM     18  C   UNL     1     -39.783 -20.343   9.271 -0.05 +0.00    +0.006 A  
DOCKED: ATOM     19  C   UNL     1     -39.833 -21.484  10.070 -0.05 +0.00    +0.001 A  
DOCKED: ATOM     20  C   UNL     1     -39.738 -21.367  11.457 -0.02 +0.00    +0.029 A  
DOCKED: ATOM     21  C   UNL     1     -39.593 -20.110  12.043 -0.00 +0.00    +0.140 A  
DOCKED: ATOM     22  C   UNL     1     -39.543 -18.969  11.243 -0.00 +0.00    +0.029 A  
DOCKED: ATOM     23  F   UNL     1     -39.501 -19.998  13.374 +0.00 -0.00    -0.204 F  
DOCKED: ATOM     24  C   UNL     1     -39.638 -19.085   9.855 -0.02 +0.00    +0.001 A  
DOCKED: ENDBRANCH   2  18
DOCKED: TORSDOF 5
DOCKED: TER
DOCKED: ENDMDL
________________________________________________________________________________


    FINAL DOCKED STATE:
    ________________________


Run:   3 / 512
Time taken for this run:   0.002s

DOCKED: MODEL        3
DOCKED: USER    Run = 3
DOCKED: USER
DOCKED: USER    Estimated Free Energy of Binding    =  -4.70 kcal/mol  [=(1)+(2)+(3)-(4)]
DOCKED: USER
DOCKED: USER    (1) Final Intermolecular Energy     =  -6.19 kcal/mol
DOCKED: USER        vdW + Hbond + desolv Energy     =  -6.19 kcal/mol
DOCKED: USER        Electrostatic Energy            =  +0.00 kcal/mol
DOCKED: USER        Moving Ligand-Fixed Receptor    =  -6.19 kcal/mol
DOCKED: USER        Moving Ligand-Moving Receptor   =  +0.00 kcal/mol
DOCKED: USER    (2) Final Total Internal Energy     =  -1.30 kcal/mol
DOCKED: USER    (3) Torsional Free Energy           =  +1.49 kcal/mol
DOCKED: USER    (4) Unbound System's Energy         =  -1.30 kcal/mol
DOCKED: USER
DOCKED: USER
DOCKED: REMARK  5 active torsions:
DOCKED: REMARK  status: ('A' for Active; 'I' for Inactive)
DOCKED: REMARK    1  A    between atoms: C_2  and  C_19 
DOCKED: REMARK    2  A    between atoms: C_2  and  C_11 
DOCKED: REMARK    3  A    between atoms: C_19  and  C_20 
DOCKED: REMARK    4  A    between atoms: C_20  and  C_21 
DOCKED: REMARK    5  A    between atoms: C_21  and  N_22 
DOCKED: USER                              x       y       z     vdW  Elec       q    Type
DOCKED: USER                           _______ _______ _______ _____ _____    ______ ____
DOCKED: ROOT
DOCKED: ATOM      1  O   UNL     1     -42.155 -21.793   8.390 -0.01 -0.00    -0.346 OA 
DOCKED: ATOM      2  C   UNL     1     -41.174 -22.871   8.264 -0.15 +0.00    +0.130 C  
DOCKED: ATOM      3  C   UNL     1     -41.498 -23.500   6.940 -0.30 +0.00    +0.004 A  
DOCKED: ATOM      4  C   UNL     1     -42.504 -22.778   6.314 -0.30 +0.00    +0.006 A  
DOCKED: ATOM      5  C   UNL     1     -42.900 -21.630   7.160 -0.18 +0.00    +0.169 C  
DOCKED: ATOM      6  C   UNL     1     -40.941 -24.616   6.333 -0.39 -0.00    -0.001 A  
DOCKED: ATOM      7  C   UNL     1     -42.987 -23.145   5.069 -0.13 +0.00    +0.008 A  
DOCKED: ATOM      8  C   UNL     1     -41.420 -25.002   5.080 -0.29 +0.00    +0.010 A  
DOCKED: ATOM      9  C   UNL     1     -42.438 -24.269   4.451 -0.42 +0.00    +0.068 A  
DOCKED: ATOM     10  N   UNL     1     -43.301 -25.009   2.123 -2.21 -0.00    -0.191 NA 
DOCKED: ATOM     11  C   UNL     1     -42.914 -24.677   3.168 -0.51 +0.00    +0.101 C  
DOCKED: ENDROOT
DOCKED: BRANCH   2  12
DOCKED: ATOM     12  C   UNL     1     -39.778 -22.260   8.304 -0.20 +0.00    +0.038 C  
DOCKED: BRANCH  12  13
DOCKED: ATOM     13  C   UNL     1     -39.826 -20.748   8.098 -0.13 +0.00    +0.038 C  
DOCKED: BRANCH  13  14
DOCKED: ATOM     14  C   UNL     1     -38.980 -20.023   9.143 -0.03 +0.00    +0.251 C  
DOCKED: BRANCH  14  15
DOCKED: ATOM     15  N   UNL     1     -39.701 -19.937  10.408 -0.01 +0.00    +0.141 N  
DOCKED: ATOM     16  C   UNL     1     -41.135 -19.758  10.173 -0.00 +0.00    +0.285 C  
DOCKED: ATOM     17  C   UNL     1     -39.465 -21.132  11.219 -0.01 +0.00    +0.285 C  
DOCKED: ENDBRANCH  14  15
DOCKED: ENDBRANCH  13  14
DOCKED: ENDBRANCH  12  13
DOCKED: ENDBRANCH   2  12
DOCKED: BRANCH   2  18
DOCKED: ATOM     18  C   UNL     1     -41.390 -23.796   9.416 -0.16 +0.00    +0.006 A  
DOCKED: ATOM     19  C   UNL     1     -40.300 -24.261  10.150 -0.12 +0.00    +0.001 A  
DOCKED: ATOM     20  C   UNL     1     -40.504 -25.125  11.226 -0.19 +0.00    +0.029 A  
DOCKED: ATOM     21  C   UNL     1     -41.797 -25.522  11.567 -0.12 +0.00    +0.140 A  
DOCKED: ATOM     22  C   UNL     1     -42.886 -25.056  10.832 -0.13 +0.00    +0.029 A  
DOCKED: ATOM     23  F   UNL     1     -41.992 -26.350  12.601 -0.05 -0.00    -0.204 F  
DOCKED: ATOM     24  C   UNL     1     -42.683 -24.192   9.755 -0.15 +0.00    +0.001 A  
DOCKED: ENDBRANCH   2  18
DOCKED: TORSDOF 5
DOCKED: TER
DOCKED: ENDMDL
________________________________________________________________________________


    FINAL DOCKED STATE:
    ________________________


Run:   4 / 512
Time taken for this run:   0.002s

DOCKED: MODEL        4
DOCKED: USER    Run = 4
DOCKED: USER
DOCKED: USER    Estimated Free Energy of Binding    =  -4.11 kcal/mol  [=(1)+(2)+(3)-(4)]
DOCKED: USER
DOCKED: USER    (1) Final Intermolecular Energy     =  -5.60 kcal/mol
DOCKED: USER        vdW + Hbond + desolv Energy     =  -5.60 kcal/mol
DOCKED: USER        Electrostatic Energy            =  +0.00 kcal/mol
DOCKED: USER        Moving Ligand-Fixed Receptor    =  -5.60 kcal/mol
DOCKED: USER        Moving Ligand-Moving Receptor   =  +0.00 kcal/mol
DOCKED: USER    (2) Final Total Internal Energy     =  -1.47 kcal/mol
DOCKED: USER    (3) Torsional Free Energy           =  +1.49 kcal/mol
DOCKED: USER    (4) Unbound System's Energy         =  -1.47 kcal/mol
DOCKED: USER
DOCKED: USER
DOCKED: REMARK  5 active torsions:
DOCKED: REMARK  status: ('A' for Active; 'I' for Inactive)
DOCKED: REMARK    1  A    between atoms: C_2  and  C_19 
DOCKED: REMARK    2  A    between atoms: C_2  and  C_11 
DOCKED: REMARK    3  A    between atoms: C_19  and  C_20 
DOCKED: REMARK    4  A    between atoms: C_20  and  C_21 
DOCKED: REMARK    5  A    between atoms: C_21  and  N_22 
DOCKED: USER                              x       y       z     vdW  Elec       q    Type
DOCKED: USER                           _______ _______ _______ _____ _____    ______ ____
DOCKED: ROOT
DOCKED: ATOM      1  O   UNL     1     -40.444 -20.095   8.218 -0.02 -0.00    -0.346 OA 
DOCKED: ATOM      2  C   UNL     1     -41.856 -19.882   7.896 -0.11 +0.00    +0.130 C  
DOCKED: ATOM      3  C   UNL     1     -42.283 -21.182   7.279 -0.20 +0.00    +0.004 A  
DOCKED: ATOM      4  C   UNL     1     -41.240 -22.095   7.344 -0.22 +0.00    +0.006 A  
DOCKED: ATOM      5  C   UNL     1     -40.072 -21.477   8.009 -0.14 +0.00    +0.169 C  
DOCKED: ATOM      6  C   UNL     1     -43.502 -21.533   6.716 -0.21 -0.00    -0.001 A  
DOCKED: ATOM      7  C   UNL     1     -41.376 -23.381   6.847 -0.31 +0.00    +0.008 A  
DOCKED: ATOM      8  C   UNL     1     -43.653 -22.824   6.207 -0.23 +0.00    +0.010 A  
DOCKED: ATOM      9  C   UNL     1     -42.595 -23.743   6.273 -0.27 +0.00    +0.068 A  
DOCKED: ATOM     10  N   UNL     1     -42.910 -26.133   5.324 -2.61 -0.00    -0.191 NA 
DOCKED: ATOM     11  C   UNL     1     -42.768 -25.061   5.749 -0.34 +0.00    +0.101 C  
DOCKED: ENDROOT
DOCKED: BRANCH   2  12
DOCKED: ATOM     12  C   UNL     1     -42.603 -19.563   9.185 -0.04 +0.00    +0.038 C  
DOCKED: BRANCH  12  13
DOCKED: ATOM     13  C   UNL     1     -41.677 -19.638  10.398 -0.01 +0.00    +0.038 C  
DOCKED: BRANCH  13  14
DOCKED: ATOM     14  C   UNL     1     -41.358 -18.243  10.932 +0.00 +0.00    +0.251 C  
DOCKED: BRANCH  14  15
DOCKED: ATOM     15  N   UNL     1     -39.947 -17.934  10.732 -0.00 +0.00    +0.141 N  
DOCKED: ATOM     16  C   UNL     1     -39.139 -19.153  10.787 -0.00 +0.00    +0.285 C  
DOCKED: ATOM     17  C   UNL     1     -39.745 -17.249   9.454 -0.00 +0.00    +0.285 C  
DOCKED: ENDBRANCH  14  15
DOCKED: ENDBRANCH  13  14
DOCKED: ENDBRANCH  12  13
DOCKED: ENDBRANCH   2  12
DOCKED: BRANCH   2  18
DOCKED: ATOM     18  C   UNL     1     -41.918 -18.737   6.941 -0.16 +0.00    +0.006 A  
DOCKED: ATOM     19  C   UNL     1     -43.148 -18.172   6.609 -0.20 +0.00    +0.001 A  
DOCKED: ATOM     20  C   UNL     1     -43.205 -17.102   5.715 -0.15 +0.00    +0.029 A  
DOCKED: ATOM     21  C   UNL     1     -42.031 -16.598   5.156 -0.12 +0.00    +0.140 A  
DOCKED: ATOM     22  C   UNL     1     -40.801 -17.163   5.489 -0.10 +0.00    +0.029 A  
DOCKED: ATOM     23  F   UNL     1     -42.086 -15.570   4.300 -0.03 -0.00    -0.204 F  
DOCKED: ATOM     24  C   UNL     1     -40.743 -18.235   6.382 -0.13 +0.00    +0.001 A  
DOCKED: ENDBRANCH   2  18
DOCKED: TORSDOF 5
DOCKED: TER
DOCKED: ENDMDL
________________________________________________________________________________


    FINAL DOCKED STATE:
    ________________________


Run:   5 / 512
Time taken for this run:   0.002s

DOCKED: MODEL        5
DOCKED: USER    Run = 5
DOCKED: USER
DOCKED: USER    Estimated Free Energy of Binding    =  -4.08 kcal/mol  [=(1)+(2)+(3)-(4)]
DOCKED: USER
DOCKED: USER    (1) Final Intermolecular Energy     =  -5.57 kcal/mol
DOCKED: USER        vdW + Hbond + desolv Energy     =  -5.57 kcal/mol
DOCKED: USER        Electrostatic Energy            =  +0.00 kcal/mol
DOCKED: USER        Moving Ligand-Fixed Receptor    =  -5.57 kcal/mol
DOCKED: USER        Moving Ligand-Moving Receptor   =  +0.00 kcal/mol
DOCKED: USER    (2) Final Total Internal Energy     =  -1.53 kcal/mol
DOCKED: USER    (3) Torsional Free Energy           =  +1.49 kcal/mol
DOCKED: USER    (4) Unbound System's Energy         =  -1.53 kcal/mol
DOCKED: USER
DOCKED: USER
DOCKED: REMARK  5 active torsions:
DOCKED: REMARK  status: ('A' for Active; 'I' for Inactive)
DOCKED: REMARK    1  A    between atoms: C_2  and  C_19 
DOCKED: REMARK    2  A    between atoms: C_2  and  C_11 
DOCKED: REMARK    3  A    between atoms: C_19  and  C_20 
DOCKED: REMARK    4  A    between atoms: C_20  and  C_21 
DOCKED: REMARK    5  A    between atoms: C_21  and  N_22 
DOCKED: USER                              x       y       z     vdW  Elec       q    Type
DOCKED: USER                           _______ _______ _______ _____ _____    ______ ____
DOCKED: ROOT
DOCKED: ATOM      1  O   UNL     1     -39.175 -21.184   8.849 -0.04 -0.00    -0.346 OA 
DOCKED: ATOM      2  C   UNL     1     -39.877 -20.509   7.757 -0.13 +0.00    +0.130 C  
DOCKED: ATOM      3  C   UNL     1     -40.617 -21.617   7.066 -0.23 +0.00    +0.004 A  
DOCKED: ATOM      4  C   UNL     1     -40.443 -22.803   7.766 -0.23 +0.00    +0.006 A  
DOCKED: ATOM      5  C   UNL     1     -39.599 -22.563   8.958 -0.13 +0.00    +0.169 C  
DOCKED: ATOM      6  C   UNL     1     -41.391 -21.577   5.916 -0.16 -0.00    -0.001 A  
DOCKED: ATOM      7  C   UNL     1     -41.030 -23.983   7.342 -0.32 +0.00    +0.008 A  
DOCKED: ATOM      8  C   UNL     1     -41.986 -22.760   5.473 -0.33 +0.00    +0.010 A  
DOCKED: ATOM      9  C   UNL     1     -41.806 -23.956   6.183 -0.32 +0.00    +0.068 A  
DOCKED: ATOM     10  N   UNL     1     -42.929 -26.133   5.337 -2.61 -0.00    -0.191 NA 
DOCKED: ATOM     11  C   UNL     1     -42.425 -25.157   5.716 -0.31 +0.00    +0.101 C  
DOCKED: ENDROOT
DOCKED: BRANCH   2  12
DOCKED: ATOM     12  C   UNL     1     -40.805 -19.459   8.356 -0.07 +0.00    +0.038 C  
DOCKED: BRANCH  12  13
DOCKED: ATOM     13  C   UNL     1     -40.873 -19.578   9.877 -0.02 +0.00    +0.038 C  
DOCKED: BRANCH  13  14
DOCKED: ATOM     14  C   UNL     1     -40.026 -18.502  10.552 -0.00 +0.00    +0.251 C  
DOCKED: BRANCH  14  15
DOCKED: ATOM     15  N   UNL     1     -38.661 -18.535  10.039 -0.01 +0.00    +0.141 N  
DOCKED: ATOM     16  C   UNL     1     -38.299 -17.244   9.450 -0.00 +0.00    +0.285 C  
DOCKED: ATOM     17  C   UNL     1     -37.719 -18.890  11.101 -0.00 +0.00    +0.285 C  
DOCKED: ENDBRANCH  14  15
DOCKED: ENDBRANCH  13  14
DOCKED: ENDBRANCH  12  13
DOCKED: ENDBRANCH   2  12
DOCKED: BRANCH   2  18
DOCKED: ATOM     18  C   UNL     1     -38.836 -19.878   6.893 -0.14 +0.00    +0.006 A  
DOCKED: ATOM     19  C   UNL     1     -37.501 -20.262   7.018 -0.08 +0.00    +0.001 A  
DOCKED: ATOM     20  C   UNL     1     -36.529 -19.671   6.210 -0.10 +0.00    +0.029 A  
DOCKED: ATOM     21  C   UNL     1     -36.892 -18.698   5.280 -0.07 +0.00    +0.140 A  
DOCKED: ATOM     22  C   UNL     1     -38.227 -18.315   5.155 -0.11 +0.00    +0.029 A  
DOCKED: ATOM     23  F   UNL     1     -35.959 -18.133   4.503 -0.00 -0.00    -0.204 F  
DOCKED: ATOM     24  C   UNL     1     -39.201 -18.906   5.963 -0.15 +0.00    +0.001 A  
DOCKED: ENDBRANCH   2  18
DOCKED: TORSDOF 5
DOCKED: TER
DOCKED: ENDMDL
________________________________________________________________________________


    FINAL DOCKED STATE:
    ________________________


Run:   6 / 512
Time taken for this run:   0.002s

DOCKED: MODEL        6
DOCKED: USER    Run = 6
DOCKED: USER
DOCKED: USER    Estimated Free Energy of Binding    =  -4.15 kcal/mol  [=(1)+(2)+(3)-(4)]
DOCKED: USER
DOCKED: USER    (1) Final Intermolecular Energy     =  -5.64 kcal/mol
DOCKED: USER        vdW + Hbond + desolv Energy     =  -5.64 kcal/mol
DOCKED: USER        Electrostatic Energy            =  +0.00 kcal/mol
DOCKED: USER        Moving Ligand-Fixed Receptor    =  -5.64 kcal/mol
DOCKED: USER        Moving Ligand-Moving Receptor   =  +0.00 kcal/mol
DOCKED: USER    (2) Final Total Internal Energy     =  -1.47 kcal/mol
DOCKED: USER    (3) Torsional Free Energy           =  +1.49 kcal/mol
DOCKED: USER    (4) Unbound System's Energy         =  -1.47 kcal/mol
DOCKED: USER
DOCKED: USER
DOCKED: REMARK  5 active torsions:
DOCKED: REMARK  status: ('A' for Active; 'I' for Inactive)
DOCKED: REMARK    1  A    between atoms: C_2  and  C_19 
DOCKED: REMARK    2  A    between atoms: C_2  and  C_11 
DOCKED: REMARK    3  A    between atoms: C_19  and  C_20 
DOCKED: REMARK    4  A    between atoms: C_20  and  C_21 
DOCKED: REMARK    5  A    between atoms: C_21  and  N_22 
DOCKED: USER                              x       y       z     vdW  Elec       q    Type
DOCKED: USER                           _______ _______ _______ _____ _____    ______ ____
DOCKED: ROOT
DOCKED: ATOM      1  O   UNL     1     -33.032 -21.175   0.005 +0.01 -0.00    -0.346 OA 
DOCKED: ATOM      2  C   UNL     1     -34.478 -20.961   0.081 -0.08 +0.00    +0.130 C  
DOCKED: ATOM      3  C   UNL     1     -34.973 -22.129   0.885 -0.15 +0.00    +0.004 A  
DOCKED: ATOM      4  C   UNL     1     -33.894 -22.884   1.324 -0.10 +0.00    +0.006 A  
DOCKED: ATOM      5  C   UNL     1     -32.630 -22.271   0.859 -0.02 +0.00    +0.169 C  
DOCKED: ATOM      6  C   UNL     1     -36.272 -22.488   1.211 -0.27 -0.00    -0.001 A  
DOCKED: ATOM      7  C   UNL     1     -34.076 -24.019   2.095 -0.16 +0.00    +0.008 A  
DOCKED: ATOM      8  C   UNL     1     -36.472 -23.632   1.985 -0.29 +0.00    +0.010 A  
DOCKED: ATOM      9  C   UNL     1     -35.379 -24.394   2.425 -0.30 +0.00    +0.068 A  
DOCKED: ATOM     10  N   UNL     1     -35.785 -26.510   3.864 -2.56 -0.00    -0.191 NA 
DOCKED: ATOM     11  C   UNL     1     -35.603 -25.561   3.218 -0.37 +0.00    +0.101 C  
DOCKED: ENDROOT
DOCKED: BRANCH   2  12
DOCKED: ATOM     12  C   UNL     1     -34.732 -19.622   0.762 -0.05 +0.00    +0.038 C  
DOCKED: BRANCH  12  13
DOCKED: ATOM     13  C   UNL     1     -33.942 -19.500   2.064 -0.03 +0.00    +0.038 C  
DOCKED: BRANCH  13  14
DOCKED: ATOM     14  C   UNL     1     -34.878 -19.413   3.268 -0.03 +0.00    +0.251 C  
DOCKED: BRANCH  14  15
DOCKED: ATOM     15  N   UNL     1     -34.363 -20.219   4.369 -0.04 +0.00    +0.141 N  
DOCKED: ATOM     16  C   UNL     1     -35.249 -21.352   4.637 -0.04 +0.00    +0.285 C  
DOCKED: ATOM     17  C   UNL     1     -33.009 -20.691   4.074 -0.01 +0.00    +0.285 C  
DOCKED: ENDBRANCH  14  15
DOCKED: ENDBRANCH  13  14
DOCKED: ENDBRANCH  12  13
DOCKED: ENDBRANCH   2  12
DOCKED: BRANCH   2  18
DOCKED: ATOM     18  C   UNL     1     -34.993 -20.959  -1.320 -0.14 +0.00    +0.006 A  
DOCKED: ATOM     19  C   UNL     1     -36.031 -20.100  -1.679 -0.19 +0.00    +0.001 A  
DOCKED: ATOM     20  C   UNL     1     -36.512 -20.099  -2.989 -0.21 +0.00    +0.029 A  
DOCKED: ATOM     21  C   UNL     1     -35.955 -20.957  -3.937 -0.20 +0.00    +0.140 A  
DOCKED: ATOM     22  C   UNL     1     -34.917 -21.816  -3.576 -0.17 +0.00    +0.029 A  
DOCKED: ATOM     23  F   UNL     1     -36.415 -20.955  -5.194 -0.11 -0.00    -0.204 F  
DOCKED: ATOM     24  C   UNL     1     -34.435 -21.818  -2.266 -0.13 +0.00    +0.001 A  
DOCKED: ENDBRANCH   2  18
DOCKED: TORSDOF 5
DOCKED: TER
DOCKED: ENDMDL
________________________________________________________________________________


    FINAL DOCKED STATE:
    ________________________


Run:   7 / 512
Time taken for this run:   0.002s

DOCKED: MODEL        7
DOCKED: USER    Run = 7
DOCKED: USER
DOCKED: USER    Estimated Free Energy of Binding    =  -3.84 kcal/mol  [=(1)+(2)+(3)-(4)]
DOCKED: USER
DOCKED: USER    (1) Final Intermolecular Energy     =  -5.34 kcal/mol
DOCKED: USER        vdW + Hbond + desolv Energy     =  -5.34 kcal/mol
DOCKED: USER        Electrostatic Energy            =  +0.00 kcal/mol
DOCKED: USER        Moving Ligand-Fixed Receptor    =  -5.34 kcal/mol
DOCKED: USER        Moving Ligand-Moving Receptor   =  +0.00 kcal/mol
DOCKED: USER    (2) Final Total Internal Energy     =  -1.39 kcal/mol
DOCKED: USER    (3) Torsional Free Energy           =  +1.49 kcal/mol
DOCKED: USER    (4) Unbound System's Energy         =  -1.39 kcal/mol
DOCKED: USER
DOCKED: USER
DOCKED: REMARK  5 active torsions:
DOCKED: REMARK  status: ('A' for Active; 'I' for Inactive)
DOCKED: REMARK    1  A    between atoms: C_2  and  C_19 
DOCKED: REMARK    2  A    between atoms: C_2  and  C_11 
DOCKED: REMARK    3  A    between atoms: C_19  and  C_20 
DOCKED: REMARK    4  A    between atoms: C_20  and  C_21 
DOCKED: REMARK    5  A    between atoms: C_21  and  N_22 
DOCKED: USER                              x       y       z     vdW  Elec       q    Type
DOCKED: USER                           _______ _______ _______ _____ _____    ______ ____
DOCKED: ROOT
DOCKED: ATOM      1  O   UNL     1     -39.432 -20.181   7.531 -0.06 -0.00    -0.346 OA 
DOCKED: ATOM      2  C   UNL     1     -38.999 -21.346   8.304 -0.13 +0.00    +0.130 C  
DOCKED: ATOM      3  C   UNL     1     -39.874 -22.457   7.799 -0.20 +0.00    +0.004 A  
DOCKED: ATOM      4  C   UNL     1     -40.659 -21.995   6.753 -0.23 +0.00    +0.006 A  
DOCKED: ATOM      5  C   UNL     1     -40.356 -20.571   6.488 -0.19 +0.00    +0.169 C  
DOCKED: ATOM      6  C   UNL     1     -39.958 -23.775   8.225 -0.24 -0.00    -0.001 A  
DOCKED: ATOM      7  C   UNL     1     -41.555 -22.827   6.103 -0.34 +0.00    +0.008 A  
DOCKED: ATOM      8  C   UNL     1     -40.859 -24.625   7.582 -0.34 +0.00    +0.010 A  
DOCKED: ATOM      9  C   UNL     1     -41.653 -24.153   6.526 -0.31 +0.00    +0.068 A  
DOCKED: ATOM     10  N   UNL     1     -43.312 -25.759   5.350 -2.55 -0.00    -0.191 NA 
DOCKED: ATOM     11  C   UNL     1     -42.569 -25.038   5.878 -0.31 +0.00    +0.101 C  
DOCKED: ENDROOT
DOCKED: BRANCH   2  12
DOCKED: ATOM     12  C   UNL     1     -37.519 -21.584   8.030 -0.12 +0.00    +0.038 C  
DOCKED: BRANCH  12  13
DOCKED: ATOM     13  C   UNL     1     -36.940 -20.502   7.120 -0.10 +0.00    +0.038 C  
DOCKED: BRANCH  13  14
DOCKED: ATOM     14  C   UNL     1     -36.749 -19.190   7.878 -0.03 +0.00    +0.251 C  
DOCKED: BRANCH  14  15
DOCKED: ATOM     15  N   UNL     1     -37.500 -18.118   7.235 -0.03 +0.00    +0.141 N  
DOCKED: ATOM     16  C   UNL     1     -37.521 -16.924   8.080 -0.00 +0.00    +0.285 C  
DOCKED: ATOM     17  C   UNL     1     -36.927 -17.803   5.925 -0.02 +0.00    +0.285 C  
DOCKED: ENDBRANCH  14  15
DOCKED: ENDBRANCH  13  14
DOCKED: ENDBRANCH  12  13
DOCKED: ENDBRANCH   2  12
DOCKED: BRANCH   2  18
DOCKED: ATOM     18  C   UNL     1     -39.236 -21.027   9.743 -0.05 +0.00    +0.006 A  
DOCKED: ATOM     19  C   UNL     1     -40.191 -20.075  10.097 -0.02 +0.00    +0.001 A  
DOCKED: ATOM     20  C   UNL     1     -40.411 -19.778  11.443 -0.00 +0.00    +0.029 A  
DOCKED: ATOM     21  C   UNL     1     -39.677 -20.432  12.431 -0.00 +0.00    +0.140 A  
DOCKED: ATOM     22  C   UNL     1     -38.722 -21.385  12.075 -0.01 +0.00    +0.029 A  
DOCKED: ATOM     23  F   UNL     1     -39.890 -20.148  13.722 +0.00 -0.00    -0.204 F  
DOCKED: ATOM     24  C   UNL     1     -38.501 -21.682  10.729 -0.05 +0.00    +0.001 A  
DOCKED: ENDBRANCH   2  18
DOCKED: TORSDOF 5
DOCKED: TER
DOCKED: ENDMDL
________________________________________________________________________________


    FINAL DOCKED STATE:
    ________________________


Run:   8 / 512
Time taken for this run:   0.002s

DOCKED: MODEL        8
DOCKED: USER    Run = 8
DOCKED: USER
DOCKED: USER    Estimated Free Energy of Binding    =  -3.93 kcal/mol  [=(1)+(2)+(3)-(4)]
DOCKED: USER
DOCKED: USER    (1) Final Intermolecular Energy     =  -5.42 kcal/mol
DOCKED: USER        vdW + Hbond + desolv Energy     =  -5.42 kcal/mol
DOCKED: USER        Electrostatic Energy            =  +0.00 kcal/mol
DOCKED: USER        Moving Ligand-Fixed Receptor    =  -5.42 kcal/mol
DOCKED: USER        Moving Ligand-Moving Receptor   =  +0.00 kcal/mol
DOCKED: USER    (2) Final Total Internal Energy     =  -1.21 kcal/mol
DOCKED: USER    (3) Torsional Free Energy           =  +1.49 kcal/mol
DOCKED: USER    (4) Unbound System's Energy         =  -1.21 kcal/mol
DOCKED: USER
DOCKED: USER
DOCKED: REMARK  5 active torsions:
DOCKED: REMARK  status: ('A' for Active; 'I' for Inactive)
DOCKED: REMARK    1  A    between atoms: C_2  and  C_19 
DOCKED: REMARK    2  A    between atoms: C_2  and  C_11 
DOCKED: REMARK    3  A    between atoms: C_19  and  C_20 
DOCKED: REMARK    4  A    between atoms: C_20  and  C_21 
DOCKED: REMARK    5  A    between atoms: C_21  and  N_22 
DOCKED: USER                              x       y       z     vdW  Elec       q    Type
DOCKED: USER                           _______ _______ _______ _____ _____    ______ ____
DOCKED: ROOT
DOCKED: ATOM      1  O   UNL     1     -35.259 -13.778  -0.954 -0.04 -0.00    -0.346 OA 
DOCKED: ATOM      2  C   UNL     1     -34.717 -13.060  -2.108 -0.06 +0.00    +0.130 C  
DOCKED: ATOM      3  C   UNL     1     -35.903 -12.881  -3.010 -0.12 +0.00    +0.004 A  
DOCKED: ATOM      4  C   UNL     1     -37.045 -13.355  -2.380 -0.20 +0.00    +0.006 A  
DOCKED: ATOM      5  C   UNL     1     -36.701 -13.861  -1.032 -0.06 +0.00    +0.169 C  
DOCKED: ATOM      6  C   UNL     1     -35.968 -12.331  -4.282 -0.16 -0.00    -0.001 A  
DOCKED: ATOM      7  C   UNL     1     -38.283 -13.301  -2.996 -0.33 +0.00    +0.008 A  
DOCKED: ATOM      8  C   UNL     1     -37.209 -12.274  -4.919 -0.28 +0.00    +0.010 A  
DOCKED: ATOM      9  C   UNL     1     -38.361 -12.756  -4.279 -0.35 +0.00    +0.068 A  
DOCKED: ATOM     10  N   UNL     1     -40.649 -12.630  -5.487 -2.58 -0.00    -0.191 NA 
DOCKED: ATOM     11  C   UNL     1     -39.623 -12.687  -4.946 -0.35 +0.00    +0.101 C  
DOCKED: ENDROOT
DOCKED: BRANCH   2  12
DOCKED: ATOM     12  C   UNL     1     -34.134 -11.738  -1.623 -0.08 +0.00    +0.038 C  
DOCKED: BRANCH  12  13
DOCKED: ATOM     13  C   UNL     1     -35.227 -10.802  -1.110 -0.19 +0.00    +0.038 C  
DOCKED: BRANCH  13  14
DOCKED: ATOM     14  C   UNL     1     -35.100  -9.414  -1.735 -0.09 +0.00    +0.251 C  
DOCKED: BRANCH  14  15
DOCKED: ATOM     15  N   UNL     1     -36.169  -8.544  -1.259 -0.17 +0.00    +0.141 N  
DOCKED: ATOM     16  C   UNL     1     -36.307  -7.374  -2.127 -0.10 +0.00    +0.285 C  
DOCKED: ATOM     17  C   UNL     1     -37.435  -9.275  -1.187 -0.22 +0.00    +0.285 C  
DOCKED: ENDBRANCH  14  15
DOCKED: ENDBRANCH  13  14
DOCKED: ENDBRANCH  12  13
DOCKED: ENDBRANCH   2  12
DOCKED: BRANCH   2  18
DOCKED: ATOM     18  C   UNL     1     -33.659 -13.928  -2.703 -0.02 +0.00    +0.006 A  
DOCKED: ATOM     19  C   UNL     1     -32.344 -13.471  -2.780 -0.01 +0.00    +0.001 A  
DOCKED: ATOM     20  C   UNL     1     -31.356 -14.284  -3.338 -0.00 +0.00    +0.029 A  
DOCKED: ATOM     21  C   UNL     1     -31.684 -15.551  -3.817 -0.00 +0.00    +0.140 A  
DOCKED: ATOM     22  C   UNL     1     -32.999 -16.008  -3.739 -0.00 +0.00    +0.029 A  
DOCKED: ATOM     23  F   UNL     1     -30.735 -16.332  -4.350 +0.00 -0.00    -0.204 F  
DOCKED: ATOM     24  C   UNL     1     -33.989 -15.196  -3.182 -0.01 +0.00    +0.001 A  
DOCKED: ENDBRANCH   2  18
DOCKED: TORSDOF 5
DOCKED: TER
DOCKED: ENDMDL
________________________________________________________________________________


    FINAL DOCKED STATE:
    ________________________


Run:   9 / 512
Time taken for this run:   0.002s

DOCKED: MODEL        9
DOCKED: USER    Run = 9
DOCKED: USER
DOCKED: USER    Estimated Free Energy of Binding    =  -5.69 kcal/mol  [=(1)+(2)+(3)-(4)]
DOCKED: USER
DOCKED: USER    (1) Final Intermolecular Energy     =  -7.19 kcal/mol
DOCKED: USER        vdW + Hbond + desolv Energy     =  -7.19 kcal/mol
DOCKED: USER        Electrostatic Energy            =  +0.00 kcal/mol
DOCKED: USER        Moving Ligand-Fixed Receptor    =  -7.19 kcal/mol
DOCKED: USER        Moving Ligand-Moving Receptor   =  +0.00 kcal/mol
DOCKED: USER    (2) Final Total Internal Energy     =  -1.18 kcal/mol
DOCKED: USER    (3) Torsional Free Energy           =  +1.49 kcal/mol
DOCKED: USER    (4) Unbound System's Energy         =  -1.18 kcal/mol
DOCKED: USER
DOCKED: USER
DOCKED: REMARK  5 active torsions:
DOCKED: REMARK  status: ('A' for Active; 'I' for Inactive)
DOCKED: REMARK    1  A    between atoms: C_2  and  C_19 
DOCKED: REMARK    2  A    between atoms: C_2  and  C_11 
DOCKED: REMARK    3  A    between atoms: C_19  and  C_20 
DOCKED: REMARK    4  A    between atoms: C_20  and  C_21 
DOCKED: REMARK    5  A    between atoms: C_21  and  N_22 
DOCKED: USER                              x       y       z     vdW  Elec       q    Type
DOCKED: USER                           _______ _______ _______ _____ _____    ______ ____
DOCKED: ROOT
DOCKED: ATOM      1  O   UNL     1     -41.418 -23.442   8.042 -0.05 -0.00    -0.346 OA 
DOCKED: ATOM      2  C   UNL     1     -42.763 -24.019   8.047 -0.16 +0.00    +0.130 C  
DOCKED: ATOM      3  C   UNL     1     -43.089 -24.183   6.590 -0.28 +0.00    +0.004 A  
DOCKED: ATOM      4  C   UNL     1     -41.987 -23.834   5.823 -0.38 +0.00    +0.006 A  
DOCKED: ATOM      5  C   UNL     1     -40.867 -23.434   6.704 -0.25 +0.00    +0.169 C  
DOCKED: ATOM      6  C   UNL     1     -44.263 -24.617   5.993 -0.29 -0.00    -0.001 A  
DOCKED: ATOM      7  C   UNL     1     -42.021 -23.902   4.441 -0.31 +0.00    +0.008 A  
DOCKED: ATOM      8  C   UNL     1     -44.315 -24.687   4.600 -0.33 +0.00    +0.010 A  
DOCKED: ATOM      9  C   UNL     1     -43.199 -24.332   3.828 -0.40 +0.00    +0.068 A  
DOCKED: ATOM     10  N   UNL     1     -43.326 -24.477   1.244 -3.11 -0.00    -0.191 NA 
DOCKED: ATOM     11  C   UNL     1     -43.269 -24.411   2.403 -0.28 +0.00    +0.101 C  
DOCKED: ENDROOT
DOCKED: BRANCH   2  12
DOCKED: ATOM     12  C   UNL     1     -42.716 -25.345   8.797 -0.28 +0.00    +0.038 C  
DOCKED: BRANCH  12  13
DOCKED: ATOM     13  C   UNL     1     -41.357 -25.562   9.461 -0.27 +0.00    +0.038 C  
DOCKED: BRANCH  13  14
DOCKED: ATOM     14  C   UNL     1     -41.393 -25.153  10.932 -0.16 +0.00    +0.251 C  
DOCKED: BRANCH  14  15
DOCKED: ATOM     15  N   UNL     1     -40.110 -24.590  11.334 -0.14 +0.00    +0.141 N  
DOCKED: ATOM     16  C   UNL     1     -39.788 -23.411  10.527 -0.07 +0.00    +0.285 C  
DOCKED: ATOM     17  C   UNL     1     -40.121 -24.243  12.756 -0.06 +0.00    +0.285 C  
DOCKED: ENDBRANCH  14  15
DOCKED: ENDBRANCH  13  14
DOCKED: ENDBRANCH  12  13
DOCKED: ENDBRANCH   2  12
DOCKED: BRANCH   2  18
DOCKED: ATOM     18  C   UNL     1     -43.655 -23.042   8.736 -0.10 +0.00    +0.006 A  
DOCKED: ATOM     19  C   UNL     1     -44.779 -22.541   8.080 -0.13 +0.00    +0.001 A  
DOCKED: ATOM     20  C   UNL     1     -45.612 -21.627   8.726 -0.08 +0.00    +0.029 A  
DOCKED: ATOM     21  C   UNL     1     -45.321 -21.215  10.026 -0.01 +0.00    +0.140 A  
DOCKED: ATOM     22  C   UNL     1     -44.196 -21.716  10.681 -0.02 +0.00    +0.029 A  
DOCKED: ATOM     23  F   UNL     1     -46.122 -20.339  10.646 +0.01 -0.00    -0.204 F  
DOCKED: ATOM     24  C   UNL     1     -43.362 -22.631  10.036 -0.05 +0.00    +0.001 A  
DOCKED: ENDBRANCH   2  18
DOCKED: TORSDOF 5
DOCKED: TER
DOCKED: ENDMDL
________________________________________________________________________________


    FINAL DOCKED STATE:
    ________________________


Run:   10 / 512
Time taken for this run:   0.002s

DOCKED: MODEL        10
DOCKED: USER    Run = 10
DOCKED: USER
DOCKED: USER    Estimated Free Energy of Binding    =  -3.31 kcal/mol  [=(1)+(2)+(3)-(4)]
DOCKED: USER
DOCKED: USER    (1) Final Intermolecular Energy     =  -4.80 kcal/mol
DOCKED: USER        vdW + Hbond + desolv Energy     =  -4.80 kcal/mol
DOCKED: USER        Electrostatic Energy            =  +0.00 kcal/mol
DOCKED: USER        Moving Ligand-Fixed Receptor    =  -4.80 kcal/mol
DOCKED: USER        Moving Ligand-Moving Receptor   =  +0.00 kcal/mol
DOCKED: USER    (2) Final Total Internal Energy     =  -1.49 kcal/mol
DOCKED: USER    (3) Torsional Free Energy           =  +1.49 kcal/mol
DOCKED: USER    (4) Unbound System's Energy         =  -1.49 kcal/mol
DOCKED: USER
DOCKED: USER
DOCKED: REMARK  5 active torsions:
DOCKED: REMARK  status: ('A' for Active; 'I' for Inactive)
DOCKED: REMARK    1  A    between atoms: C_2  and  C_19 
DOCKED: REMARK    2  A    between atoms: C_2  and  C_11 
DOCKED: REMARK    3  A    between atoms: C_19  and  C_20 
DOCKED: REMARK    4  A    between atoms: C_20  and  C_21 
DOCKED: REMARK    5  A    between atoms: C_21  and  N_22 
DOCKED: USER                              x       y       z     vdW  Elec       q    Type
DOCKED: USER                           _______ _______ _______ _____ _____    ______ ____
DOCKED: ROOT
DOCKED: ATOM      1  O   UNL     1     -39.270 -17.114  -0.218 -0.07 -0.00    -0.346 OA 
DOCKED: ATOM      2  C   UNL     1     -38.893 -15.790   0.279 -0.24 +0.00    +0.130 C  
DOCKED: ATOM      3  C   UNL     1     -40.027 -15.411   1.188 -0.30 +0.00    +0.004 A  
DOCKED: ATOM      4  C   UNL     1     -40.918 -16.470   1.289 -0.25 +0.00    +0.006 A  
DOCKED: ATOM      5  C   UNL     1     -40.437 -17.611   0.477 -0.15 +0.00    +0.169 C  
DOCKED: ATOM      6  C   UNL     1     -40.246 -14.229   1.879 -0.26 -0.00    -0.001 A  
DOCKED: ATOM      7  C   UNL     1     -42.054 -16.383   2.075 -0.27 +0.00    +0.008 A  
DOCKED: ATOM      8  C   UNL     1     -41.389 -14.124   2.672 -0.27 +0.00    +0.010 A  
DOCKED: ATOM      9  C   UNL     1     -42.288 -15.196   2.770 -0.23 +0.00    +0.068 A  
DOCKED: ATOM     10  N   UNL     1     -44.399 -14.970   4.256 -0.09 -0.00    -0.191 NA 
DOCKED: ATOM     11  C   UNL     1     -43.452 -15.071   3.589 -0.22 +0.00    +0.101 C  
DOCKED: ENDROOT
DOCKED: BRANCH   2  12
DOCKED: ATOM     12  C   UNL     1     -37.561 -15.909   1.010 -0.15 +0.00    +0.038 C  
DOCKED: BRANCH  12  13
DOCKED: ATOM     13  C   UNL     1     -36.952 -17.299   0.834 -0.09 +0.00    +0.038 C  
DOCKED: BRANCH  13  14
DOCKED: ATOM     14  C   UNL     1     -36.146 -17.385  -0.461 -0.04 +0.00    +0.251 C  
DOCKED: BRANCH  14  15
DOCKED: ATOM     15  N   UNL     1     -36.907 -18.093  -1.485 -0.15 +0.00    +0.141 N  
DOCKED: ATOM     16  C   UNL     1     -36.588 -17.573  -2.816 -0.13 +0.00    +0.285 C  
DOCKED: ATOM     17  C   UNL     1     -36.639 -19.531  -1.425 -0.14 +0.00    +0.285 C  
DOCKED: ENDBRANCH  14  15
DOCKED: ENDBRANCH  13  14
DOCKED: ENDBRANCH  12  13
DOCKED: ENDBRANCH   2  12
DOCKED: BRANCH   2  18
DOCKED: ATOM     18  C   UNL     1     -38.777 -14.895  -0.910 -0.28 +0.00    +0.006 A  
DOCKED: ATOM     19  C   UNL     1     -39.921 -14.508  -1.605 -0.28 +0.00    +0.001 A  
DOCKED: ATOM     20  C   UNL     1     -39.811 -13.672  -2.717 -0.39 +0.00    +0.029 A  
DOCKED: ATOM     21  C   UNL     1     -38.557 -13.223  -3.130 -0.28 +0.00    +0.140 A  
DOCKED: ATOM     22  C   UNL     1     -37.413 -13.610  -2.433 -0.21 +0.00    +0.029 A  
DOCKED: ATOM     23  F   UNL     1     -38.452 -12.418  -4.196 -0.11 -0.00    -0.204 F  
DOCKED: ATOM     24  C   UNL     1     -37.522 -14.447  -1.322 -0.18 +0.00    +0.001 A  
DOCKED: ENDBRANCH   2  18
DOCKED: TORSDOF 5
DOCKED: TER
DOCKED: ENDMDL
________________________________________________________________________________


    FINAL DOCKED STATE:
    ________________________


Run:   11 / 512
Time taken for this run:   0.002s

DOCKED: MODEL        11
DOCKED: USER    Run = 11
DOCKED: USER
DOCKED: USER    Estimated Free Energy of Binding    =  -4.33 kcal/mol  [=(1)+(2)+(3)-(4)]
DOCKED: USER
DOCKED: USER    (1) Final Intermolecular Energy     =  -5.82 kcal/mol
DOCKED: USER        vdW + Hbond + desolv Energy     =  -5.82 kcal/mol
DOCKED: USER        Electrostatic Energy            =  +0.00 kcal/mol
DOCKED: USER        Moving Ligand-Fixed Receptor    =  -5.82 kcal/mol
DOCKED: USER        Moving Ligand-Moving Receptor   =  +0.00 kcal/mol
DOCKED: USER    (2) Final Total Internal Energy     =  -1.39 kcal/mol
DOCKED: USER    (3) Torsional Free Energy           =  +1.49 kcal/mol
DOCKED: USER    (4) Unbound System's Energy         =  -1.39 kcal/mol
DOCKED: USER
DOCKED: USER
DOCKED: REMARK  5 active torsions:
DOCKED: REMARK  status: ('A' for Active; 'I' for Inactive)
DOCKED: REMARK    1  A    between atoms: C_2  and  C_19 
DOCKED: REMARK    2  A    between atoms: C_2  and  C_11 
DOCKED: REMARK    3  A    between atoms: C_19  and  C_20 
DOCKED: REMARK    4  A    between atoms: C_20  and  C_21 
DOCKED: REMARK    5  A    between atoms: C_21  and  N_22 
DOCKED: USER                              x       y       z     vdW  Elec       q    Type
DOCKED: USER                           _______ _______ _______ _____ _____    ______ ____
DOCKED: ROOT
DOCKED: ATOM      1  O   UNL     1     -38.775 -21.577   8.647 -0.06 -0.00    -0.346 OA 
DOCKED: ATOM      2  C   UNL     1     -39.618 -20.776   7.758 -0.14 +0.00    +0.130 C  
DOCKED: ATOM      3  C   UNL     1     -40.505 -21.790   7.095 -0.22 +0.00    +0.004 A  
DOCKED: ATOM      4  C   UNL     1     -40.267 -23.045   7.638 -0.25 +0.00    +0.006 A  
DOCKED: ATOM      5  C   UNL     1     -39.231 -22.949   8.690 -0.16 +0.00    +0.169 C  
DOCKED: ATOM      6  C   UNL     1     -41.456 -21.614   6.100 -0.27 -0.00    -0.001 A  
DOCKED: ATOM      7  C   UNL     1     -40.963 -24.161   7.205 -0.34 +0.00    +0.008 A  
DOCKED: ATOM      8  C   UNL     1     -42.162 -22.731   5.649 -0.33 +0.00    +0.010 A  
DOCKED: ATOM      9  C   UNL     1     -41.917 -23.998   6.200 -0.31 +0.00    +0.068 A  
DOCKED: ATOM     10  N   UNL     1     -43.249 -26.049   5.344 -2.55 -0.00    -0.191 NA 
DOCKED: ATOM     11  C   UNL     1     -42.651 -25.129   5.728 -0.32 +0.00    +0.101 C  
DOCKED: ENDROOT
DOCKED: BRANCH   2  12
DOCKED: ATOM     12  C   UNL     1     -40.393 -19.772   8.602 -0.07 +0.00    +0.038 C  
DOCKED: BRANCH  12  13
DOCKED: ATOM     13  C   UNL     1     -40.483 -20.221  10.059 -0.03 +0.00    +0.038 C  
DOCKED: BRANCH  13  14
DOCKED: ATOM     14  C   UNL     1     -41.906 -20.645  10.416 -0.01 +0.00    +0.251 C  
DOCKED: BRANCH  14  15
DOCKED: ATOM     15  N   UNL     1     -42.736 -20.695   9.219 -0.03 +0.00    +0.141 N  
DOCKED: ATOM     16  C   UNL     1     -43.323 -22.025   9.052 -0.02 +0.00    +0.285 C  
DOCKED: ATOM     17  C   UNL     1     -43.789 -19.680   9.279 -0.01 +0.00    +0.285 C  
DOCKED: ENDBRANCH  14  15
DOCKED: ENDBRANCH  13  14
DOCKED: ENDBRANCH  12  13
DOCKED: ENDBRANCH   2  12
DOCKED: BRANCH   2  18
DOCKED: ATOM     18  C   UNL     1     -38.708 -20.085   6.798 -0.14 +0.00    +0.006 A  
DOCKED: ATOM     19  C   UNL     1     -37.326 -20.201   6.943 -0.09 +0.00    +0.001 A  
DOCKED: ATOM     20  C   UNL     1     -36.476 -19.553   6.045 -0.10 +0.00    +0.029 A  
DOCKED: ATOM     21  C   UNL     1     -37.008 -18.793   5.005 -0.08 +0.00    +0.140 A  
DOCKED: ATOM     22  C   UNL     1     -38.391 -18.678   4.861 -0.14 +0.00    +0.029 A  
DOCKED: ATOM     23  F   UNL     1     -36.192 -18.173   4.143 -0.00 -0.00    -0.204 F  
DOCKED: ATOM     24  C   UNL     1     -39.242 -19.324   5.759 -0.15 +0.00    +0.001 A  
DOCKED: ENDBRANCH   2  18
DOCKED: TORSDOF 5
DOCKED: TER
DOCKED: ENDMDL
________________________________________________________________________________


    FINAL DOCKED STATE:
    ________________________


Run:   12 / 512
Time taken for this run:   0.002s

DOCKED: MODEL        12
DOCKED: USER    Run = 12
DOCKED: USER
DOCKED: USER    Estimated Free Energy of Binding    =  -5.49 kcal/mol  [=(1)+(2)+(3)-(4)]
DOCKED: USER
DOCKED: USER    (1) Final Intermolecular Energy     =  -6.98 kcal/mol
DOCKED: USER        vdW + Hbond + desolv Energy     =  -6.98 kcal/mol
DOCKED: USER        Electrostatic Energy            =  +0.00 kcal/mol
DOCKED: USER        Moving Ligand-Fixed Receptor    =  -6.98 kcal/mol
DOCKED: USER        Moving Ligand-Moving Receptor   =  +0.00 kcal/mol
DOCKED: USER    (2) Final Total Internal Energy     =  -1.51 kcal/mol
DOCKED: USER    (3) Torsional Free Energy           =  +1.49 kcal/mol
DOCKED: USER    (4) Unbound System's Energy         =  -1.51 kcal/mol
DOCKED: USER
DOCKED: USER
DOCKED: REMARK  5 active torsions:
DOCKED: REMARK  status: ('A' for Active; 'I' for Inactive)
DOCKED: REMARK    1  A    between atoms: C_2  and  C_19 
DOCKED: REMARK    2  A    between atoms: C_2  and  C_11 
DOCKED: REMARK    3  A    between atoms: C_19  and  C_20 
DOCKED: REMARK    4  A    between atoms: C_20  and  C_21 
DOCKED: REMARK    5  A    between atoms: C_21  and  N_22 
DOCKED: USER                              x       y       z     vdW  Elec       q    Type
DOCKED: USER                           _______ _______ _______ _____ _____    ______ ____
DOCKED: ROOT
DOCKED: ATOM      1  O   UNL     1     -41.105 -21.760   7.836 -0.05 -0.00    -0.346 OA 
DOCKED: ATOM      2  C   UNL     1     -40.909 -23.208   7.909 -0.21 +0.00    +0.130 C  
DOCKED: ATOM      3  C   UNL     1     -41.413 -23.707   6.586 -0.34 +0.00    +0.004 A  
DOCKED: ATOM      4  C   UNL     1     -41.763 -22.630   5.784 -0.34 +0.00    +0.006 A  
DOCKED: ATOM      5  C   UNL     1     -41.507 -21.363   6.504 -0.23 +0.00    +0.169 C  
DOCKED: ATOM      6  C   UNL     1     -41.541 -25.009   6.125 -0.40 -0.00    -0.001 A  
DOCKED: ATOM      7  C   UNL     1     -42.254 -22.816   4.503 +0.12 +0.00    +0.008 A  
DOCKED: ATOM      8  C   UNL     1     -42.039 -25.213   4.837 -0.48 +0.00    +0.010 A  
DOCKED: ATOM      9  C   UNL     1     -42.393 -24.121   4.030 -0.41 +0.00    +0.068 A  
DOCKED: ATOM     10  N   UNL     1     -43.309 -24.535   1.642 -2.97 -0.00    -0.191 NA 
DOCKED: ATOM     11  C   UNL     1     -42.899 -24.349   2.713 -0.43 +0.00    +0.101 C  
DOCKED: ENDROOT
DOCKED: BRANCH   2  12
DOCKED: ATOM     12  C   UNL     1     -39.425 -23.484   8.121 -0.25 +0.00    +0.038 C  
DOCKED: BRANCH  12  13
DOCKED: ATOM     13  C   UNL     1     -38.709 -22.265   8.698 -0.18 +0.00    +0.038 C  
DOCKED: BRANCH  13  14
DOCKED: ATOM     14  C   UNL     1     -39.117 -22.025  10.151 -0.05 +0.00    +0.251 C  
DOCKED: BRANCH  14  15
DOCKED: ATOM     15  N   UNL     1     -39.880 -20.788  10.265 -0.02 +0.00    +0.141 N  
DOCKED: ATOM     16  C   UNL     1     -40.679 -20.786  11.492 -0.00 +0.00    +0.285 C  
DOCKED: ATOM     17  C   UNL     1     -38.989 -19.627  10.238 -0.01 +0.00    +0.285 C  
DOCKED: ENDBRANCH  14  15
DOCKED: ENDBRANCH  13  14
DOCKED: ENDBRANCH  12  13
DOCKED: ENDBRANCH   2  12
DOCKED: BRANCH   2  18
DOCKED: ATOM     18  C   UNL     1     -41.718 -23.700   9.063 -0.15 +0.00    +0.006 A  
DOCKED: ATOM     19  C   UNL     1     -41.420 -24.930   9.649 -0.25 +0.00    +0.001 A  
DOCKED: ATOM     20  C   UNL     1     -42.178 -25.388  10.727 -0.09 +0.00    +0.029 A  
DOCKED: ATOM     21  C   UNL     1     -43.231 -24.618  11.218 -0.09 +0.00    +0.140 A  
DOCKED: ATOM     22  C   UNL     1     -43.528 -23.388  10.631 -0.06 +0.00    +0.029 A  
DOCKED: ATOM     23  F   UNL     1     -43.957 -25.058  12.254 -0.01 -0.00    -0.204 F  
DOCKED: ATOM     24  C   UNL     1     -42.771 -22.928   9.552 -0.08 +0.00    +0.001 A  
DOCKED: ENDBRANCH   2  18
DOCKED: TORSDOF 5
DOCKED: TER
DOCKED: ENDMDL
________________________________________________________________________________


    FINAL DOCKED STATE:
    ________________________


Run:   13 / 512
Time taken for this run:   0.002s

DOCKED: MODEL        13
DOCKED: USER    Run = 13
DOCKED: USER
DOCKED: USER    Estimated Free Energy of Binding    =  -4.76 kcal/mol  [=(1)+(2)+(3)-(4)]
DOCKED: USER
DOCKED: USER    (1) Final Intermolecular Energy     =  -6.26 kcal/mol
DOCKED: USER        vdW + Hbond + desolv Energy     =  -6.26 kcal/mol
DOCKED: USER        Electrostatic Energy            =  +0.00 kcal/mol
DOCKED: USER        Moving Ligand-Fixed Receptor    =  -6.26 kcal/mol
DOCKED: USER        Moving Ligand-Moving Receptor   =  +0.00 kcal/mol
DOCKED: USER    (2) Final Total Internal Energy     =  -1.19 kcal/mol
DOCKED: USER    (3) Torsional Free Energy           =  +1.49 kcal/mol
DOCKED: USER    (4) Unbound System's Energy         =  -1.19 kcal/mol
DOCKED: USER
DOCKED: USER
DOCKED: REMARK  5 active torsions:
DOCKED: REMARK  status: ('A' for Active; 'I' for Inactive)
DOCKED: REMARK    1  A    between atoms: C_2  and  C_19 
DOCKED: REMARK    2  A    between atoms: C_2  and  C_11 
DOCKED: REMARK    3  A    between atoms: C_19  and  C_20 
DOCKED: REMARK    4  A    between atoms: C_20  and  C_21 
DOCKED: REMARK    5  A    between atoms: C_21  and  N_22 
DOCKED: USER                              x       y       z     vdW  Elec       q    Type
DOCKED: USER                           _______ _______ _______ _____ _____    ______ ____
DOCKED: ROOT
DOCKED: ATOM      1  O   UNL     1     -42.593 -24.366   8.740 -0.06 -0.00    -0.346 OA 
DOCKED: ATOM      2  C   UNL     1     -42.094 -23.100   8.201 -0.13 +0.00    +0.130 C  
DOCKED: ATOM      3  C   UNL     1     -42.256 -23.253   6.716 -0.28 +0.00    +0.004 A  
DOCKED: ATOM      4  C   UNL     1     -42.893 -24.453   6.437 -0.30 +0.00    +0.006 A  
DOCKED: ATOM      5  C   UNL     1     -43.205 -25.162   7.698 -0.14 +0.00    +0.169 C  
DOCKED: ATOM      6  C   UNL     1     -41.879 -22.393   5.695 -0.32 -0.00    -0.001 A  
DOCKED: ATOM      7  C   UNL     1     -43.171 -24.836   5.136 -0.42 +0.00    +0.008 A  
DOCKED: ATOM      8  C   UNL     1     -42.149 -22.766   4.377 +0.17 +0.00    +0.010 A  
DOCKED: ATOM      9  C   UNL     1     -42.792 -23.981   4.099 -0.40 +0.00    +0.068 A  
DOCKED: ATOM     10  N   UNL     1     -43.282 -24.642   1.642 -2.90 -0.00    -0.191 NA 
DOCKED: ATOM     11  C   UNL     1     -43.061 -24.346   2.744 -0.38 +0.00    +0.101 C  
DOCKED: ENDROOT
DOCKED: BRANCH   2  12
DOCKED: ATOM     12  C   UNL     1     -42.934 -21.966   8.776 -0.09 +0.00    +0.038 C  
DOCKED: BRANCH  12  13
DOCKED: ATOM     13  C   UNL     1     -43.154 -22.142  10.278 -0.04 +0.00    +0.038 C  
DOCKED: BRANCH  13  14
DOCKED: ATOM     14  C   UNL     1     -44.374 -23.018  10.555 -0.02 +0.00    +0.251 C  
DOCKED: BRANCH  14  15
DOCKED: ATOM     15  N   UNL     1     -44.308 -23.567  11.904 -0.03 +0.00    +0.141 N  
DOCKED: ATOM     16  C   UNL     1     -44.868 -24.918  11.940 -0.05 +0.00    +0.285 C  
DOCKED: ATOM     17  C   UNL     1     -42.928 -23.576  12.390 -0.02 +0.00    +0.285 C  
DOCKED: ENDBRANCH  14  15
DOCKED: ENDBRANCH  13  14
DOCKED: ENDBRANCH  12  13
DOCKED: ENDBRANCH   2  12
DOCKED: BRANCH   2  18
DOCKED: ATOM     18  C   UNL     1     -40.667 -22.980   8.621 -0.17 +0.00    +0.006 A  
DOCKED: ATOM     19  C   UNL     1     -40.225 -23.620   9.778 -0.15 +0.00    +0.001 A  
DOCKED: ATOM     20  C   UNL     1     -38.891 -23.506  10.170 -0.07 +0.00    +0.029 A  
DOCKED: ATOM     21  C   UNL     1     -38.001 -22.754   9.405 -0.11 +0.00    +0.140 A  
DOCKED: ATOM     22  C   UNL     1     -38.443 -22.115   8.247 -0.13 +0.00    +0.029 A  
DOCKED: ATOM     23  F   UNL     1     -36.719 -22.647   9.780 -0.02 -0.00    -0.204 F  
DOCKED: ATOM     24  C   UNL     1     -39.778 -22.227   7.854 -0.19 +0.00    +0.001 A  
DOCKED: ENDBRANCH   2  18
DOCKED: TORSDOF 5
DOCKED: TER
DOCKED: ENDMDL
________________________________________________________________________________


    FINAL DOCKED STATE:
    ________________________


Run:   14 / 512
Time taken for this run:   0.002s

DOCKED: MODEL        14
DOCKED: USER    Run = 14
DOCKED: USER
DOCKED: USER    Estimated Free Energy of Binding    =  -3.32 kcal/mol  [=(1)+(2)+(3)-(4)]
DOCKED: USER
DOCKED: USER    (1) Final Intermolecular Energy     =  -4.81 kcal/mol
DOCKED: USER        vdW + Hbond + desolv Energy     =  -4.81 kcal/mol
DOCKED: USER        Electrostatic Energy            =  +0.00 kcal/mol
DOCKED: USER        Moving Ligand-Fixed Receptor    =  -4.81 kcal/mol
DOCKED: USER        Moving Ligand-Moving Receptor   =  +0.00 kcal/mol
DOCKED: USER    (2) Final Total Internal Energy     =  -1.47 kcal/mol
DOCKED: USER    (3) Torsional Free Energy           =  +1.49 kcal/mol
DOCKED: USER    (4) Unbound System's Energy         =  -1.47 kcal/mol
DOCKED: USER
DOCKED: USER
DOCKED: REMARK  5 active torsions:
DOCKED: REMARK  status: ('A' for Active; 'I' for Inactive)
DOCKED: REMARK    1  A    between atoms: C_2  and  C_19 
DOCKED: REMARK    2  A    between atoms: C_2  and  C_11 
DOCKED: REMARK    3  A    between atoms: C_19  and  C_20 
DOCKED: REMARK    4  A    between atoms: C_20  and  C_21 
DOCKED: REMARK    5  A    between atoms: C_21  and  N_22 
DOCKED: USER                              x       y       z     vdW  Elec       q    Type
DOCKED: USER                           _______ _______ _______ _____ _____    ______ ____
DOCKED: ROOT
DOCKED: ATOM      1  O   UNL     1     -34.311 -12.008  -1.837 -0.01 -0.00    -0.346 OA 
DOCKED: ATOM      2  C   UNL     1     -34.230 -11.559  -3.228 -0.06 +0.00    +0.130 C  
DOCKED: ATOM      3  C   UNL     1     -35.605 -11.822  -3.770 -0.15 +0.00    +0.004 A  
DOCKED: ATOM      4  C   UNL     1     -36.430 -12.277  -2.751 -0.20 +0.00    +0.006 A  
DOCKED: ATOM      5  C   UNL     1     -35.674 -12.334  -1.480 -0.14 +0.00    +0.169 C  
DOCKED: ATOM      6  C   UNL     1     -36.090 -11.661  -5.060 -0.19 -0.00    -0.001 A  
DOCKED: ATOM      7  C   UNL     1     -37.759 -12.589  -2.985 -0.30 +0.00    +0.008 A  
DOCKED: ATOM      8  C   UNL     1     -37.426 -11.975  -5.313 -0.28 +0.00    +0.010 A  
DOCKED: ATOM      9  C   UNL     1     -38.256 -12.436  -4.280 -0.35 +0.00    +0.068 A  
DOCKED: ATOM     10  N   UNL     1     -40.734 -13.006  -4.782 -2.51 -0.00    -0.191 NA 
DOCKED: ATOM     11  C   UNL     1     -39.622 -12.751  -4.557 -0.40 +0.00    +0.101 C  
DOCKED: ENDROOT
DOCKED: BRANCH   2  12
DOCKED: ATOM     12  C   UNL     1     -33.861 -10.080  -3.237 -0.10 +0.00    +0.038 C  
DOCKED: BRANCH  12  13
DOCKED: ATOM     13  C   UNL     1     -33.219  -9.658  -1.917 -0.05 +0.00    +0.038 C  
DOCKED: BRANCH  13  14
DOCKED: ATOM     14  C   UNL     1     -31.794 -10.196  -1.802 -0.00 +0.00    +0.251 C  
DOCKED: BRANCH  14  15
DOCKED: ATOM     15  N   UNL     1     -31.679 -11.085  -0.653 -0.01 +0.00    +0.141 N  
DOCKED: ATOM     16  C   UNL     1     -30.283 -11.468  -0.434 -0.00 +0.00    +0.285 C  
DOCKED: ATOM     17  C   UNL     1     -32.225 -10.450   0.548 -0.02 +0.00    +0.285 C  
DOCKED: ENDBRANCH  14  15
DOCKED: ENDBRANCH  13  14
DOCKED: ENDBRANCH  12  13
DOCKED: ENDBRANCH   2  12
DOCKED: BRANCH   2  18
DOCKED: ATOM     18  C   UNL     1     -33.176 -12.381  -3.891 -0.02 +0.00    +0.006 A  
DOCKED: ATOM     19  C   UNL     1     -32.603 -11.947  -5.086 -0.03 +0.00    +0.001 A  
DOCKED: ATOM     20  C   UNL     1     -31.618 -12.717  -5.705 -0.01 +0.00    +0.029 A  
DOCKED: ATOM     21  C   UNL     1     -31.207 -13.919  -5.129 +0.00 +0.00    +0.140 A  
DOCKED: ATOM     22  C   UNL     1     -31.780 -14.352  -3.934 -0.00 +0.00    +0.029 A  
DOCKED: ATOM     23  F   UNL     1     -30.260 -14.656  -5.723 +0.00 -0.00    -0.204 F  
DOCKED: ATOM     24  C   UNL     1     -32.766 -13.583  -3.314 -0.01 +0.00    +0.001 A  
DOCKED: ENDBRANCH   2  18
DOCKED: TORSDOF 5
DOCKED: TER
DOCKED: ENDMDL
________________________________________________________________________________


    FINAL DOCKED STATE:
    ________________________


Run:   15 / 512
Time taken for this run:   0.002s

DOCKED: MODEL        15
DOCKED: USER    Run = 15
DOCKED: USER
DOCKED: USER    Estimated Free Energy of Binding    =  -5.46 kcal/mol  [=(1)+(2)+(3)-(4)]
DOCKED: USER
DOCKED: USER    (1) Final Intermolecular Energy     =  -6.95 kcal/mol
DOCKED: USER        vdW + Hbond + desolv Energy     =  -6.95 kcal/mol
DOCKED: USER        Electrostatic Energy            =  +0.00 kcal/mol
DOCKED: USER        Moving Ligand-Fixed Receptor    =  -6.95 kcal/mol
DOCKED: USER        Moving Ligand-Moving Receptor   =  +0.00 kcal/mol
DOCKED: USER    (2) Final Total Internal Energy     =  -1.05 kcal/mol
DOCKED: USER    (3) Torsional Free Energy           =  +1.49 kcal/mol
DOCKED: USER    (4) Unbound System's Energy         =  -1.05 kcal/mol
DOCKED: USER
DOCKED: USER
DOCKED: REMARK  5 active torsions:
DOCKED: REMARK  status: ('A' for Active; 'I' for Inactive)
DOCKED: REMARK    1  A    between atoms: C_2  and  C_19 
DOCKED: REMARK    2  A    between atoms: C_2  and  C_11 
DOCKED: REMARK    3  A    between atoms: C_19  and  C_20 
DOCKED: REMARK    4  A    between atoms: C_20  and  C_21 
DOCKED: REMARK    5  A    between atoms: C_21  and  N_22 
DOCKED: USER                              x       y       z     vdW  Elec       q    Type
DOCKED: USER                           _______ _______ _______ _____ _____    ______ ____
DOCKED: ROOT
DOCKED: ATOM      1  O   UNL     1     -41.363 -21.885   8.010 -0.04 -0.00    -0.346 OA 
DOCKED: ATOM      2  C   UNL     1     -40.738 -23.208   7.961 -0.22 +0.00    +0.130 C  
DOCKED: ATOM      3  C   UNL     1     -41.240 -23.795   6.674 -0.34 +0.00    +0.004 A  
DOCKED: ATOM      4  C   UNL     1     -41.995 -22.851   5.992 -0.34 +0.00    +0.006 A  
DOCKED: ATOM      5  C   UNL     1     -42.034 -21.588   6.763 -0.22 +0.00    +0.169 C  
DOCKED: ATOM      6  C   UNL     1     -41.035 -25.060   6.143 -0.43 -0.00    -0.001 A  
DOCKED: ATOM      7  C   UNL     1     -42.571 -23.137   4.767 -0.23 +0.00    +0.008 A  
DOCKED: ATOM      8  C   UNL     1     -41.613 -25.366   4.910 -0.37 +0.00    +0.010 A  
DOCKED: ATOM      9  C   UNL     1     -42.377 -24.409   4.225 -0.43 +0.00    +0.068 A  
DOCKED: ATOM     10  N   UNL     1     -43.432 -25.007   1.935 -2.41 -0.00    -0.191 NA 
DOCKED: ATOM     11  C   UNL     1     -42.959 -24.739   2.963 -0.46 +0.00    +0.101 C  
DOCKED: ENDROOT
DOCKED: BRANCH   2  12
DOCKED: ATOM     12  C   UNL     1     -39.225 -23.028   7.982 -0.22 +0.00    +0.038 C  
DOCKED: BRANCH  12  13
DOCKED: ATOM     13  C   UNL     1     -38.833 -21.680   8.582 -0.15 +0.00    +0.038 C  
DOCKED: BRANCH  13  14
DOCKED: ATOM     14  C   UNL     1     -37.819 -20.958   7.696 -0.05 +0.00    +0.251 C  
DOCKED: BRANCH  14  15
DOCKED: ATOM     15  N   UNL     1     -36.973 -20.085   8.501 -0.04 +0.00    +0.141 N  
DOCKED: ATOM     16  C   UNL     1     -37.741 -19.483   9.591 -0.01 +0.00    +0.285 C  
DOCKED: ATOM     17  C   UNL     1     -35.828 -20.825   9.034 -0.03 +0.00    +0.285 C  
DOCKED: ENDBRANCH  14  15
DOCKED: ENDBRANCH  13  14
DOCKED: ENDBRANCH  12  13
DOCKED: ENDBRANCH   2  12
DOCKED: BRANCH   2  18
DOCKED: ATOM     18  C   UNL     1     -41.208 -23.956   9.164 -0.18 +0.00    +0.006 A  
DOCKED: ATOM     19  C   UNL     1     -42.551 -24.313   9.282 -0.18 +0.00    +0.001 A  
DOCKED: ATOM     20  C   UNL     1     -42.989 -25.013  10.407 -0.15 +0.00    +0.029 A  
DOCKED: ATOM     21  C   UNL     1     -42.084 -25.355  11.411 -0.12 +0.00    +0.140 A  
DOCKED: ATOM     22  C   UNL     1     -40.741 -24.998  11.293 -0.21 +0.00    +0.029 A  
DOCKED: ATOM     23  F   UNL     1     -42.505 -26.028  12.490 -0.04 -0.00    -0.204 F  
DOCKED: ATOM     24  C   UNL     1     -40.302 -24.297  10.168 -0.11 +0.00    +0.001 A  
DOCKED: ENDBRANCH   2  18
DOCKED: TORSDOF 5
DOCKED: TER
DOCKED: ENDMDL
________________________________________________________________________________


    FINAL DOCKED STATE:
    ________________________


Run:   16 / 512
Time taken for this run:   0.002s

DOCKED: MODEL        16
DOCKED: USER    Run = 16
DOCKED: USER
DOCKED: USER    Estimated Free Energy of Binding    =  -3.70 kcal/mol  [=(1)+(2)+(3)-(4)]
DOCKED: USER
DOCKED: USER    (1) Final Intermolecular Energy     =  -5.19 kcal/mol
DOCKED: USER        vdW + Hbond + desolv Energy     =  -5.19 kcal/mol
DOCKED: USER        Electrostatic Energy            =  +0.00 kcal/mol
DOCKED: USER        Moving Ligand-Fixed Receptor    =  -5.19 kcal/mol
DOCKED: USER        Moving Ligand-Moving Receptor   =  +0.00 kcal/mol
DOCKED: USER    (2) Final Total Internal Energy     =  -1.41 kcal/mol
DOCKED: USER    (3) Torsional Free Energy           =  +1.49 kcal/mol
DOCKED: USER    (4) Unbound System's Energy         =  -1.41 kcal/mol
DOCKED: USER
DOCKED: USER
DOCKED: REMARK  5 active torsions:
DOCKED: REMARK  status: ('A' for Active; 'I' for Inactive)
DOCKED: REMARK    1  A    between atoms: C_2  and  C_19 
DOCKED: REMARK    2  A    between atoms: C_2  and  C_11 
DOCKED: REMARK    3  A    between atoms: C_19  and  C_20 
DOCKED: REMARK    4  A    between atoms: C_20  and  C_21 
DOCKED: REMARK    5  A    between atoms: C_21  and  N_22 
DOCKED: USER                              x       y       z     vdW  Elec       q    Type
DOCKED: USER                           _______ _______ _______ _____ _____    ______ ____
DOCKED: ROOT
DOCKED: ATOM      1  O   UNL     1     -33.938 -22.871  -1.620 -0.02 -0.00    -0.346 OA 
DOCKED: ATOM      2  C   UNL     1     -33.851 -21.952  -0.485 -0.08 +0.00    +0.130 C  
DOCKED: ATOM      3  C   UNL     1     -34.272 -22.788   0.689 -0.12 +0.00    +0.004 A  
DOCKED: ATOM      4  C   UNL     1     -34.475 -24.099   0.279 -0.15 +0.00    +0.006 A  
DOCKED: ATOM      5  C   UNL     1     -34.194 -24.222  -1.169 +0.00 +0.00    +0.169 C  
DOCKED: ATOM      6  C   UNL     1     -34.450 -22.422   2.014 -0.13 -0.00    -0.001 A  
DOCKED: ATOM      7  C   UNL     1     -34.865 -25.081   1.173 -0.27 +0.00    +0.008 A  
DOCKED: ATOM      8  C   UNL     1     -34.848 -23.400   2.928 -0.23 +0.00    +0.010 A  
DOCKED: ATOM      9  C   UNL     1     -35.053 -24.723   2.509 -0.30 +0.00    +0.068 A  
DOCKED: ATOM     10  N   UNL     1     -35.785 -26.515   4.231 -2.68 -0.00    -0.191 NA 
DOCKED: ATOM     11  C   UNL     1     -35.458 -25.711   3.458 -0.39 +0.00    +0.101 C  
DOCKED: ENDROOT
DOCKED: BRANCH   2  12
DOCKED: ATOM     12  C   UNL     1     -32.414 -21.455  -0.374 -0.02 +0.00    +0.038 C  
DOCKED: BRANCH  12  13
DOCKED: ATOM     13  C   UNL     1     -31.415 -22.597  -0.556 -0.01 +0.00    +0.038 C  
DOCKED: BRANCH  13  14
DOCKED: ATOM     14  C   UNL     1     -31.000 -23.183   0.793 -0.00 +0.00    +0.251 C  
DOCKED: BRANCH  14  15
DOCKED: ATOM     15  N   UNL     1     -30.536 -24.556   0.628 -0.02 +0.00    +0.141 N  
DOCKED: ATOM     16  C   UNL     1     -31.334 -25.471   1.444 -0.05 +0.00    +0.285 C  
DOCKED: ATOM     17  C   UNL     1     -30.591 -24.952  -0.780 -0.01 +0.00    +0.285 C  
DOCKED: ENDBRANCH  14  15
DOCKED: ENDBRANCH  13  14
DOCKED: ENDBRANCH  12  13
DOCKED: ENDBRANCH   2  12
DOCKED: BRANCH   2  18
DOCKED: ATOM     18  C   UNL     1     -34.789 -20.825  -0.763 -0.12 +0.00    +0.006 A  
DOCKED: ATOM     19  C   UNL     1     -34.335 -19.689  -1.430 -0.05 +0.00    +0.001 A  
DOCKED: ATOM     20  C   UNL     1     -35.214 -18.636  -1.689 -0.06 +0.00    +0.029 A  
DOCKED: ATOM     21  C   UNL     1     -36.544 -18.722  -1.282 -0.15 +0.00    +0.140 A  
DOCKED: ATOM     22  C   UNL     1     -36.998 -19.859  -0.614 -0.13 +0.00    +0.029 A  
DOCKED: ATOM     23  F   UNL     1     -37.388 -17.712  -1.532 -0.07 -0.00    -0.204 F  
DOCKED: ATOM     24  C   UNL     1     -36.119 -20.912  -0.354 -0.14 +0.00    +0.001 A  
DOCKED: ENDBRANCH   2  18
DOCKED: TORSDOF 5
DOCKED: TER
DOCKED: ENDMDL
________________________________________________________________________________


    FINAL DOCKED STATE:
    ________________________


Run:   17 / 512
Time taken for this run:   0.002s

DOCKED: MODEL        17
DOCKED: USER    Run = 17
DOCKED: USER
DOCKED: USER    Estimated Free Energy of Binding    =  -5.20 kcal/mol  [=(1)+(2)+(3)-(4)]
DOCKED: USER
DOCKED: USER    (1) Final Intermolecular Energy     =  -6.69 kcal/mol
DOCKED: USER        vdW + Hbond + desolv Energy     =  -6.69 kcal/mol
DOCKED: USER        Electrostatic Energy            =  +0.00 kcal/mol
DOCKED: USER        Moving Ligand-Fixed Receptor    =  -6.69 kcal/mol
DOCKED: USER        Moving Ligand-Moving Receptor   =  +0.00 kcal/mol
DOCKED: USER    (2) Final Total Internal Energy     =  -1.17 kcal/mol
DOCKED: USER    (3) Torsional Free Energy           =  +1.49 kcal/mol
DOCKED: USER    (4) Unbound System's Energy         =  -1.17 kcal/mol
DOCKED: USER
DOCKED: USER
DOCKED: REMARK  5 active torsions:
DOCKED: REMARK  status: ('A' for Active; 'I' for Inactive)
DOCKED: REMARK    1  A    between atoms: C_2  and  C_19 
DOCKED: REMARK    2  A    between atoms: C_2  and  C_11 
DOCKED: REMARK    3  A    between atoms: C_19  and  C_20 
DOCKED: REMARK    4  A    between atoms: C_20  and  C_21 
DOCKED: REMARK    5  A    between atoms: C_21  and  N_22 
DOCKED: USER                              x       y       z     vdW  Elec       q    Type
DOCKED: USER                           _______ _______ _______ _____ _____    ______ ____
DOCKED: ROOT
DOCKED: ATOM      1  O   UNL     1     -42.045 -21.857   8.407 -0.01 -0.00    -0.346 OA 
DOCKED: ATOM      2  C   UNL     1     -41.262 -23.093   8.369 -0.15 +0.00    +0.130 C  
DOCKED: ATOM      3  C   UNL     1     -41.596 -23.688   7.031 -0.30 +0.00    +0.004 A  
DOCKED: ATOM      4  C   UNL     1     -42.410 -22.816   6.322 -0.30 +0.00    +0.006 A  
DOCKED: ATOM      5  C   UNL     1     -42.657 -21.596   7.122 -0.18 +0.00    +0.169 C  
DOCKED: ATOM      6  C   UNL     1     -41.201 -24.899   6.482 -0.40 -0.00    -0.001 A  
DOCKED: ATOM      7  C   UNL     1     -42.858 -23.124   5.049 -0.17 +0.00    +0.008 A  
DOCKED: ATOM      8  C   UNL     1     -41.649 -25.226   5.201 -0.42 +0.00    +0.010 A  
DOCKED: ATOM      9  C   UNL     1     -42.473 -24.342   4.488 -0.42 +0.00    +0.068 A  
DOCKED: ATOM     10  N   UNL     1     -43.282 -24.978   2.110 -2.23 -0.00    -0.191 NA 
DOCKED: ATOM     11  C   UNL     1     -42.920 -24.693   3.177 -0.51 +0.00    +0.101 C  
DOCKED: ENDROOT
DOCKED: BRANCH   2  12
DOCKED: ATOM     12  C   UNL     1     -39.787 -22.735   8.508 -0.21 +0.00    +0.038 C  
DOCKED: BRANCH  12  13
DOCKED: ATOM     13  C   UNL     1     -39.559 -21.236   8.326 -0.14 +0.00    +0.038 C  
DOCKED: BRANCH  13  14
DOCKED: ATOM     14  C   UNL     1     -39.531 -20.859   6.846 -0.06 +0.00    +0.251 C  
DOCKED: BRANCH  14  15
DOCKED: ATOM     15  N   UNL     1     -39.534 -19.409   6.692 -0.13 +0.00    +0.141 N  
DOCKED: ATOM     16  C   UNL     1     -38.706 -19.010   5.553 -0.11 +0.00    +0.285 C  
DOCKED: ATOM     17  C   UNL     1     -40.901 -18.911   6.525 -0.11 +0.00    +0.285 C  
DOCKED: ENDBRANCH  14  15
DOCKED: ENDBRANCH  13  14
DOCKED: ENDBRANCH  12  13
DOCKED: ENDBRANCH   2  12
DOCKED: BRANCH   2  18
DOCKED: ATOM     18  C   UNL     1     -41.722 -23.936   9.511 -0.16 +0.00    +0.006 A  
DOCKED: ATOM     19  C   UNL     1     -43.023 -23.805   9.994 -0.11 +0.00    +0.001 A  
DOCKED: ATOM     20  C   UNL     1     -43.451 -24.594  11.063 -0.12 +0.00    +0.029 A  
DOCKED: ATOM     21  C   UNL     1     -42.579 -25.511  11.646 -0.01 +0.00    +0.140 A  
DOCKED: ATOM     22  C   UNL     1     -41.277 -25.641  11.162 -0.21 +0.00    +0.029 A  
DOCKED: ATOM     23  F   UNL     1     -42.991 -26.269  12.671 -0.04 -0.00    -0.204 F  
DOCKED: ATOM     24  C   UNL     1     -40.848 -24.852  10.094 -0.16 +0.00    +0.001 A  
DOCKED: ENDBRANCH   2  18
DOCKED: TORSDOF 5
DOCKED: TER
DOCKED: ENDMDL
________________________________________________________________________________


    FINAL DOCKED STATE:
    ________________________


Run:   18 / 512
Time taken for this run:   0.002s

DOCKED: MODEL        18
DOCKED: USER    Run = 18
DOCKED: USER
DOCKED: USER    Estimated Free Energy of Binding    =  -4.20 kcal/mol  [=(1)+(2)+(3)-(4)]
DOCKED: USER
DOCKED: USER    (1) Final Intermolecular Energy     =  -5.69 kcal/mol
DOCKED: USER        vdW + Hbond + desolv Energy     =  -5.69 kcal/mol
DOCKED: USER        Electrostatic Energy            =  +0.00 kcal/mol
DOCKED: USER        Moving Ligand-Fixed Receptor    =  -5.69 kcal/mol
DOCKED: USER        Moving Ligand-Moving Receptor   =  +0.00 kcal/mol
DOCKED: USER    (2) Final Total Internal Energy     =  -0.99 kcal/mol
DOCKED: USER    (3) Torsional Free Energy           =  +1.49 kcal/mol
DOCKED: USER    (4) Unbound System's Energy         =  -0.99 kcal/mol
DOCKED: USER
DOCKED: USER
DOCKED: REMARK  5 active torsions:
DOCKED: REMARK  status: ('A' for Active; 'I' for Inactive)
DOCKED: REMARK    1  A    between atoms: C_2  and  C_19 
DOCKED: REMARK    2  A    between atoms: C_2  and  C_11 
DOCKED: REMARK    3  A    between atoms: C_19  and  C_20 
DOCKED: REMARK    4  A    between atoms: C_20  and  C_21 
DOCKED: REMARK    5  A    between atoms: C_21  and  N_22 
DOCKED: USER                              x       y       z     vdW  Elec       q    Type
DOCKED: USER                           _______ _______ _______ _____ _____    ______ ____
DOCKED: ROOT
DOCKED: ATOM      1  O   UNL     1     -38.821 -16.129   0.895 -0.07 -0.00    -0.346 OA 
DOCKED: ATOM      2  C   UNL     1     -37.583 -15.481   0.458 -0.16 +0.00    +0.130 C  
DOCKED: ATOM      3  C   UNL     1     -37.974 -14.778  -0.809 -0.18 +0.00    +0.004 A  
DOCKED: ATOM      4  C   UNL     1     -39.338 -14.918  -1.020 -0.30 +0.00    +0.006 A  
DOCKED: ATOM      5  C   UNL     1     -39.939 -15.701   0.083 -0.19 +0.00    +0.169 C  
DOCKED: ATOM      6  C   UNL     1     -37.187 -14.061  -1.699 -0.18 -0.00    -0.001 A  
DOCKED: ATOM      7  C   UNL     1     -39.959 -14.356  -2.122 -0.27 +0.00    +0.008 A  
DOCKED: ATOM      8  C   UNL     1     -37.798 -13.491  -2.818 -0.27 +0.00    +0.010 A  
DOCKED: ATOM      9  C   UNL     1     -39.177 -13.637  -3.027 -0.34 +0.00    +0.068 A  
DOCKED: ATOM     10  N   UNL     1     -40.280 -12.562  -5.111 -2.45 -0.00    -0.191 NA 
DOCKED: ATOM     11  C   UNL     1     -39.785 -13.045  -4.177 -0.40 +0.00    +0.101 C  
DOCKED: ENDROOT
DOCKED: BRANCH   2  12
DOCKED: ATOM     12  C   UNL     1     -37.128 -14.522   1.552 -0.12 +0.00    +0.038 C  
DOCKED: BRANCH  12  13
DOCKED: ATOM     13  C   UNL     1     -37.596 -14.987   2.930 -0.15 +0.00    +0.038 C  
DOCKED: BRANCH  13  14
DOCKED: ATOM     14  C   UNL     1     -37.630 -13.824   3.920 -0.00 +0.00    +0.251 C  
DOCKED: BRANCH  14  15
DOCKED: ATOM     15  N   UNL     1     -39.006 -13.510   4.287 -0.15 +0.00    +0.141 N  
DOCKED: ATOM     16  C   UNL     1     -39.944 -14.133   3.352 -0.16 +0.00    +0.285 C  
DOCKED: ATOM     17  C   UNL     1     -39.287 -13.947   5.655 -0.05 +0.00    +0.285 C  
DOCKED: ENDBRANCH  14  15
DOCKED: ENDBRANCH  13  14
DOCKED: ENDBRANCH  12  13
DOCKED: ENDBRANCH   2  12
DOCKED: BRANCH   2  18
DOCKED: ATOM     18  C   UNL     1     -36.579 -16.562   0.238 -0.07 +0.00    +0.006 A  
DOCKED: ATOM     19  C   UNL     1     -36.621 -17.721   1.012 -0.07 +0.00    +0.001 A  
DOCKED: ATOM     20  C   UNL     1     -35.681 -18.731   0.805 -0.05 +0.00    +0.029 A  
DOCKED: ATOM     21  C   UNL     1     -34.702 -18.582  -0.176 -0.02 +0.00    +0.140 A  
DOCKED: ATOM     22  C   UNL     1     -34.660 -17.423  -0.950 -0.01 +0.00    +0.029 A  
DOCKED: ATOM     23  F   UNL     1     -33.801 -19.552  -0.376 +0.00 -0.00    -0.204 F  
DOCKED: ATOM     24  C   UNL     1     -35.600 -16.411  -0.744 -0.04 +0.00    +0.001 A  
DOCKED: ENDBRANCH   2  18
DOCKED: TORSDOF 5
DOCKED: TER
DOCKED: ENDMDL
________________________________________________________________________________


    FINAL DOCKED STATE:
    ________________________


Run:   19 / 512
Time taken for this run:   0.002s

DOCKED: MODEL        19
DOCKED: USER    Run = 19
DOCKED: USER
DOCKED: USER    Estimated Free Energy of Binding    =  -3.63 kcal/mol  [=(1)+(2)+(3)-(4)]
DOCKED: USER
DOCKED: USER    (1) Final Intermolecular Energy     =  -5.12 kcal/mol
DOCKED: USER        vdW + Hbond + desolv Energy     =  -5.12 kcal/mol
DOCKED: USER        Electrostatic Energy            =  +0.00 kcal/mol
DOCKED: USER        Moving Ligand-Fixed Receptor    =  -5.12 kcal/mol
DOCKED: USER        Moving Ligand-Moving Receptor   =  +0.00 kcal/mol
DOCKED: USER    (2) Final Total Internal Energy     =  -1.28 kcal/mol
DOCKED: USER    (3) Torsional Free Energy           =  +1.49 kcal/mol
DOCKED: USER    (4) Unbound System's Energy         =  -1.28 kcal/mol
DOCKED: USER
DOCKED: USER
DOCKED: REMARK  5 active torsions:
DOCKED: REMARK  status: ('A' for Active; 'I' for Inactive)
DOCKED: REMARK    1  A    between atoms: C_2  and  C_19 
DOCKED: REMARK    2  A    between atoms: C_2  and  C_11 
DOCKED: REMARK    3  A    between atoms: C_19  and  C_20 
DOCKED: REMARK    4  A    between atoms: C_20  and  C_21 
DOCKED: REMARK    5  A    between atoms: C_21  and  N_22 
DOCKED: USER                              x       y       z     vdW  Elec       q    Type
DOCKED: USER                           _______ _______ _______ _____ _____    ______ ____
DOCKED: ROOT
DOCKED: ATOM      1  O   UNL     1     -39.412 -20.829   8.481 -0.04 -0.00    -0.346 OA 
DOCKED: ATOM      2  C   UNL     1     -40.816 -20.580   8.809 -0.06 +0.00    +0.130 C  
DOCKED: ATOM      3  C   UNL     1     -41.552 -21.678   8.096 -0.13 +0.00    +0.004 A  
DOCKED: ATOM      4  C   UNL     1     -40.642 -22.542   7.505 -0.23 +0.00    +0.006 A  
DOCKED: ATOM      5  C   UNL     1     -39.262 -22.092   7.791 -0.07 +0.00    +0.169 C  
DOCKED: ATOM      6  C   UNL     1     -42.917 -21.899   7.989 -0.13 -0.00    -0.001 A  
DOCKED: ATOM      7  C   UNL     1     -41.062 -23.649   6.787 -0.32 +0.00    +0.008 A  
DOCKED: ATOM      8  C   UNL     1     -43.356 -23.009   7.265 -0.19 +0.00    +0.010 A  
DOCKED: ATOM      9  C   UNL     1     -42.433 -23.879   6.667 -0.24 +0.00    +0.068 A  
DOCKED: ATOM     10  N   UNL     1     -43.281 -25.932   5.334 -2.55 -0.00    -0.191 NA 
DOCKED: ATOM     11  C   UNL     1     -42.901 -25.011   5.931 -0.33 +0.00    +0.101 C  
DOCKED: ENDROOT
DOCKED: BRANCH   2  12
DOCKED: ATOM     12  C   UNL     1     -40.977 -20.644  10.323 -0.03 +0.00    +0.038 C  
DOCKED: BRANCH  12  13
DOCKED: ATOM     13  C   UNL     1     -41.599 -21.968  10.762 -0.04 +0.00    +0.038 C  
DOCKED: BRANCH  13  14
DOCKED: ATOM     14  C   UNL     1     -40.669 -22.726  11.707 -0.02 +0.00    +0.251 C  
DOCKED: BRANCH  14  15
DOCKED: ATOM     15  N   UNL     1     -40.129 -23.909  11.048 -0.10 +0.00    +0.141 N  
DOCKED: ATOM     16  C   UNL     1     -38.743 -24.141  11.458 -0.04 +0.00    +0.285 C  
DOCKED: ATOM     17  C   UNL     1     -40.950 -25.084  11.344 -0.14 +0.00    +0.285 C  
DOCKED: ENDBRANCH  14  15
DOCKED: ENDBRANCH  13  14
DOCKED: ENDBRANCH  12  13
DOCKED: ENDBRANCH   2  12
DOCKED: BRANCH   2  18
DOCKED: ATOM     18  C   UNL     1     -41.151 -19.222   8.289 -0.07 +0.00    +0.006 A  
DOCKED: ATOM     19  C   UNL     1     -41.444 -19.046   6.938 -0.16 +0.00    +0.001 A  
DOCKED: ATOM     20  C   UNL     1     -41.757 -17.776   6.453 -0.15 +0.00    +0.029 A  
DOCKED: ATOM     21  C   UNL     1     -41.777 -16.684   7.319 -0.04 +0.00    +0.140 A  
DOCKED: ATOM     22  C   UNL     1     -41.484 -16.861   8.671 -0.02 +0.00    +0.029 A  
DOCKED: ATOM     23  F   UNL     1     -42.079 -15.465   6.854 -0.00 -0.00    -0.204 F  
DOCKED: ATOM     24  C   UNL     1     -41.170 -18.131   9.157 -0.02 +0.00    +0.001 A  
DOCKED: ENDBRANCH   2  18
DOCKED: TORSDOF 5
DOCKED: TER
DOCKED: ENDMDL
________________________________________________________________________________


    FINAL DOCKED STATE:
    ________________________


Run:   20 / 512
Time taken for this run:   0.002s

DOCKED: MODEL        20
DOCKED: USER    Run = 20
DOCKED: USER
DOCKED: USER    Estimated Free Energy of Binding    =  -3.95 kcal/mol  [=(1)+(2)+(3)-(4)]
DOCKED: USER
DOCKED: USER    (1) Final Intermolecular Energy     =  -5.44 kcal/mol
DOCKED: USER        vdW + Hbond + desolv Energy     =  -5.44 kcal/mol
DOCKED: USER        Electrostatic Energy            =  +0.00 kcal/mol
DOCKED: USER        Moving Ligand-Fixed Receptor    =  -5.44 kcal/mol
DOCKED: USER        Moving Ligand-Moving Receptor   =  +0.00 kcal/mol
DOCKED: USER    (2) Final Total Internal Energy     =  -1.21 kcal/mol
DOCKED: USER    (3) Torsional Free Energy           =  +1.49 kcal/mol
DOCKED: USER    (4) Unbound System's Energy         =  -1.21 kcal/mol
DOCKED: USER
DOCKED: USER
DOCKED: REMARK  5 active torsions:
DOCKED: REMARK  status: ('A' for Active; 'I' for Inactive)
DOCKED: REMARK    1  A    between atoms: C_2  and  C_19 
DOCKED: REMARK    2  A    between atoms: C_2  and  C_11 
DOCKED: REMARK    3  A    between atoms: C_19  and  C_20 
DOCKED: REMARK    4  A    between atoms: C_20  and  C_21 
DOCKED: REMARK    5  A    between atoms: C_21  and  N_22 
DOCKED: USER                              x       y       z     vdW  Elec       q    Type
DOCKED: USER                           _______ _______ _______ _____ _____    ______ ____
DOCKED: ROOT
DOCKED: ATOM      1  O   UNL     1     -40.624 -19.681   7.302 -0.05 -0.00    -0.346 OA 
DOCKED: ATOM      2  C   UNL     1     -41.929 -19.844   7.944 -0.10 +0.00    +0.130 C  
DOCKED: ATOM      3  C   UNL     1     -42.402 -21.185   7.461 -0.18 +0.00    +0.004 A  
DOCKED: ATOM      4  C   UNL     1     -41.408 -21.784   6.700 -0.28 +0.00    +0.006 A  
DOCKED: ATOM      5  C   UNL     1     -40.222 -20.901   6.637 -0.16 +0.00    +0.169 C  
DOCKED: ATOM      6  C   UNL     1     -43.610 -21.828   7.688 -0.16 -0.00    -0.001 A  
DOCKED: ATOM      7  C   UNL     1     -41.588 -23.036   6.138 -0.34 +0.00    +0.008 A  
DOCKED: ATOM      8  C   UNL     1     -43.808 -23.089   7.124 -0.20 +0.00    +0.010 A  
DOCKED: ATOM      9  C   UNL     1     -42.802 -23.690   6.353 -0.25 +0.00    +0.068 A  
DOCKED: ATOM     10  N   UNL     1     -43.200 -26.035   5.325 -2.54 -0.00    -0.191 NA 
DOCKED: ATOM     11  C   UNL     1     -43.022 -24.983   5.786 -0.35 +0.00    +0.101 C  
DOCKED: ENDROOT
DOCKED: BRANCH   2  12
DOCKED: ATOM     12  C   UNL     1     -41.733 -19.793   9.455 -0.03 +0.00    +0.038 C  
DOCKED: BRANCH  12  13
DOCKED: ATOM     13  C   UNL     1     -40.778 -20.886   9.930 -0.04 +0.00    +0.038 C  
DOCKED: BRANCH  13  14
DOCKED: ATOM     14  C   UNL     1     -41.041 -21.248  11.391 -0.01 +0.00    +0.251 C  
DOCKED: BRANCH  14  15
DOCKED: ATOM     15  N   UNL     1     -41.361 -22.666  11.512 -0.03 +0.00    +0.141 N  
DOCKED: ATOM     16  C   UNL     1     -41.372 -23.307  10.197 -0.05 +0.00    +0.285 C  
DOCKED: ATOM     17  C   UNL     1     -40.405 -23.336  12.395 -0.03 +0.00    +0.285 C  
DOCKED: ENDBRANCH  14  15
DOCKED: ENDBRANCH  13  14
DOCKED: ENDBRANCH  12  13
DOCKED: ENDBRANCH   2  12
DOCKED: BRANCH   2  18
DOCKED: ATOM     18  C   UNL     1     -42.790 -18.720   7.475 -0.14 +0.00    +0.006 A  
DOCKED: ATOM     19  C   UNL     1     -42.708 -18.285   6.152 -0.17 +0.00    +0.001 A  
DOCKED: ATOM     20  C   UNL     1     -43.514 -17.233   5.715 -0.12 +0.00    +0.029 A  
DOCKED: ATOM     21  C   UNL     1     -44.400 -16.619   6.598 -0.10 +0.00    +0.140 A  
DOCKED: ATOM     22  C   UNL     1     -44.482 -17.055   7.920 -0.06 +0.00    +0.029 A  
DOCKED: ATOM     23  F   UNL     1     -45.175 -15.611   6.177 -0.00 -0.00    -0.204 F  
DOCKED: ATOM     24  C   UNL     1     -43.676 -18.107   8.360 -0.06 +0.00    +0.001 A  
DOCKED: ENDBRANCH   2  18
DOCKED: TORSDOF 5
DOCKED: TER
DOCKED: ENDMDL
________________________________________________________________________________


    FINAL DOCKED STATE:
    ________________________


Run:   21 / 512
Time taken for this run:   0.002s

DOCKED: MODEL        21
DOCKED: USER    Run = 21
DOCKED: USER
DOCKED: USER    Estimated Free Energy of Binding    =  -4.09 kcal/mol  [=(1)+(2)+(3)-(4)]
DOCKED: USER
DOCKED: USER    (1) Final Intermolecular Energy     =  -5.58 kcal/mol
DOCKED: USER        vdW + Hbond + desolv Energy     =  -5.58 kcal/mol
DOCKED: USER        Electrostatic Energy            =  +0.00 kcal/mol
DOCKED: USER        Moving Ligand-Fixed Receptor    =  -5.58 kcal/mol
DOCKED: USER        Moving Ligand-Moving Receptor   =  +0.00 kcal/mol
DOCKED: USER    (2) Final Total Internal Energy     =  -1.30 kcal/mol
DOCKED: USER    (3) Torsional Free Energy           =  +1.49 kcal/mol
DOCKED: USER    (4) Unbound System's Energy         =  -1.30 kcal/mol
DOCKED: USER
DOCKED: USER
DOCKED: REMARK  5 active torsions:
DOCKED: REMARK  status: ('A' for Active; 'I' for Inactive)
DOCKED: REMARK    1  A    between atoms: C_2  and  C_19 
DOCKED: REMARK    2  A    between atoms: C_2  and  C_11 
DOCKED: REMARK    3  A    between atoms: C_19  and  C_20 
DOCKED: REMARK    4  A    between atoms: C_20  and  C_21 
DOCKED: REMARK    5  A    between atoms: C_21  and  N_22 
DOCKED: USER                              x       y       z     vdW  Elec       q    Type
DOCKED: USER                           _______ _______ _______ _____ _____    ______ ____
DOCKED: ROOT
DOCKED: ATOM      1  O   UNL     1     -38.464 -22.128   8.622 -0.09 -0.00    -0.346 OA 
DOCKED: ATOM      2  C   UNL     1     -39.562 -21.250   8.215 -0.13 +0.00    +0.130 C  
DOCKED: ATOM      3  C   UNL     1     -40.495 -22.162   7.474 -0.22 +0.00    +0.004 A  
DOCKED: ATOM      4  C   UNL     1     -40.029 -23.467   7.546 -0.26 +0.00    +0.006 A  
DOCKED: ATOM      5  C   UNL     1     -38.779 -23.511   8.338 -0.11 +0.00    +0.169 C  
DOCKED: ATOM      6  C   UNL     1     -41.670 -21.863   6.799 -0.27 -0.00    -0.001 A  
DOCKED: ATOM      7  C   UNL     1     -40.712 -24.511   6.947 -0.38 +0.00    +0.008 A  
DOCKED: ATOM      8  C   UNL     1     -42.369 -22.905   6.186 -0.31 +0.00    +0.010 A  
DOCKED: ATOM      9  C   UNL     1     -41.892 -24.222   6.260 -0.32 +0.00    +0.068 A  
DOCKED: ATOM     10  N   UNL     1     -43.217 -26.133   5.116 -2.44 -0.00    -0.191 NA 
DOCKED: ATOM     11  C   UNL     1     -42.622 -25.276   5.629 -0.29 +0.00    +0.101 C  
DOCKED: ENDROOT
DOCKED: BRANCH   2  12
DOCKED: ATOM     12  C   UNL     1     -40.189 -20.649   9.467 -0.05 +0.00    +0.038 C  
DOCKED: BRANCH  12  13
DOCKED: ATOM     13  C   UNL     1     -39.581 -21.245  10.735 -0.03 +0.00    +0.038 C  
DOCKED: BRANCH  13  14
DOCKED: ATOM     14  C   UNL     1     -38.501 -20.330  11.309 -0.00 +0.00    +0.251 C  
DOCKED: BRANCH  14  15
DOCKED: ATOM     15  N   UNL     1     -37.187 -20.725  10.817 -0.01 +0.00    +0.141 N  
DOCKED: ATOM     16  C   UNL     1     -36.163 -19.778  11.261 -0.00 +0.00    +0.285 C  
DOCKED: ATOM     17  C   UNL     1     -36.854 -22.079  11.265 -0.02 +0.00    +0.285 C  
DOCKED: ENDBRANCH  14  15
DOCKED: ENDBRANCH  13  14
DOCKED: ENDBRANCH  12  13
DOCKED: ENDBRANCH   2  12
DOCKED: BRANCH   2  18
DOCKED: ATOM     18  C   UNL     1     -38.973 -20.189   7.345 -0.14 +0.00    +0.006 A  
DOCKED: ATOM     19  C   UNL     1     -37.706 -19.681   7.628 -0.09 +0.00    +0.001 A  
DOCKED: ATOM     20  C   UNL     1     -37.157 -18.689   6.814 -0.06 +0.00    +0.029 A  
DOCKED: ATOM     21  C   UNL     1     -37.875 -18.208   5.720 -0.07 +0.00    +0.140 A  
DOCKED: ATOM     22  C   UNL     1     -39.142 -18.717   5.438 -0.11 +0.00    +0.029 A  
DOCKED: ATOM     23  F   UNL     1     -37.346 -17.257   4.938 -0.00 -0.00    -0.204 F  
DOCKED: ATOM     24  C   UNL     1     -39.692 -19.709   6.252 -0.17 +0.00    +0.001 A  
DOCKED: ENDBRANCH   2  18
DOCKED: TORSDOF 5
DOCKED: TER
DOCKED: ENDMDL
________________________________________________________________________________


    FINAL DOCKED STATE:
    ________________________


Run:   22 / 512
Time taken for this run:   0.002s

DOCKED: MODEL        22
DOCKED: USER    Run = 22
DOCKED: USER
DOCKED: USER    Estimated Free Energy of Binding    =  -5.35 kcal/mol  [=(1)+(2)+(3)-(4)]
DOCKED: USER
DOCKED: USER    (1) Final Intermolecular Energy     =  -6.84 kcal/mol
DOCKED: USER        vdW + Hbond + desolv Energy     =  -6.84 kcal/mol
DOCKED: USER        Electrostatic Energy            =  +0.00 kcal/mol
DOCKED: USER        Moving Ligand-Fixed Receptor    =  -6.84 kcal/mol
DOCKED: USER        Moving Ligand-Moving Receptor   =  +0.00 kcal/mol
DOCKED: USER    (2) Final Total Internal Energy     =  -1.20 kcal/mol
DOCKED: USER    (3) Torsional Free Energy           =  +1.49 kcal/mol
DOCKED: USER    (4) Unbound System's Energy         =  -1.20 kcal/mol
DOCKED: USER
DOCKED: USER
DOCKED: REMARK  5 active torsions:
DOCKED: REMARK  status: ('A' for Active; 'I' for Inactive)
DOCKED: REMARK    1  A    between atoms: C_2  and  C_19 
DOCKED: REMARK    2  A    between atoms: C_2  and  C_11 
DOCKED: REMARK    3  A    between atoms: C_19  and  C_20 
DOCKED: REMARK    4  A    between atoms: C_20  and  C_21 
DOCKED: REMARK    5  A    between atoms: C_21  and  N_22 
DOCKED: USER                              x       y       z     vdW  Elec       q    Type
DOCKED: USER                           _______ _______ _______ _____ _____    ______ ____
DOCKED: ROOT
DOCKED: ATOM      1  O   UNL     1     -41.824 -21.884   8.290 -0.02 -0.00    -0.346 OA 
DOCKED: ATOM      2  C   UNL     1     -41.178 -23.197   8.273 -0.17 +0.00    +0.130 C  
DOCKED: ATOM      3  C   UNL     1     -41.553 -23.764   6.935 -0.31 +0.00    +0.004 A  
DOCKED: ATOM      4  C   UNL     1     -42.256 -22.816   6.206 -0.32 +0.00    +0.006 A  
DOCKED: ATOM      5  C   UNL     1     -42.384 -21.570   6.994 -0.20 +0.00    +0.169 C  
DOCKED: ATOM      6  C   UNL     1     -41.281 -25.016   6.400 -0.39 -0.00    -0.001 A  
DOCKED: ATOM      7  C   UNL     1     -42.715 -23.085   4.927 -0.13 +0.00    +0.008 A  
DOCKED: ATOM      8  C   UNL     1     -41.741 -25.303   5.114 -0.44 +0.00    +0.010 A  
DOCKED: ATOM      9  C   UNL     1     -42.454 -24.343   4.381 -0.43 +0.00    +0.068 A  
DOCKED: ATOM     10  N   UNL     1     -43.288 -24.908   1.994 -2.38 -0.00    -0.191 NA 
DOCKED: ATOM     11  C   UNL     1     -42.915 -24.654   3.065 -0.51 +0.00    +0.101 C  
DOCKED: ENDROOT
DOCKED: BRANCH   2  12
DOCKED: ATOM     12  C   UNL     1     -39.676 -22.998   8.435 -0.23 +0.00    +0.038 C  
DOCKED: BRANCH  12  13
DOCKED: ATOM     13  C   UNL     1     -39.181 -21.807   7.616 -0.08 +0.00    +0.038 C  
DOCKED: BRANCH  13  14
DOCKED: ATOM     14  C   UNL     1     -39.190 -20.526   8.448 -0.07 +0.00    +0.251 C  
DOCKED: BRANCH  14  15
DOCKED: ATOM     15  N   UNL     1     -38.841 -19.380   7.618 -0.07 +0.00    +0.141 N  
DOCKED: ATOM     16  C   UNL     1     -37.503 -19.545   7.046 -0.07 +0.00    +0.285 C  
DOCKED: ATOM     17  C   UNL     1     -39.828 -19.194   6.553 -0.11 +0.00    +0.285 C  
DOCKED: ENDBRANCH  14  15
DOCKED: ENDBRANCH  13  14
DOCKED: ENDBRANCH  12  13
DOCKED: ENDBRANCH   2  12
DOCKED: BRANCH   2  18
DOCKED: ATOM     18  C   UNL     1     -41.744 -23.976   9.414 -0.16 +0.00    +0.006 A  
DOCKED: ATOM     19  C   UNL     1     -43.125 -24.115   9.546 -0.14 +0.00    +0.001 A  
DOCKED: ATOM     20  C   UNL     1     -43.652 -24.843  10.613 -0.14 +0.00    +0.029 A  
DOCKED: ATOM     21  C   UNL     1     -42.799 -25.431  11.545 -0.03 +0.00    +0.140 A  
DOCKED: ATOM     22  C   UNL     1     -41.418 -25.292  11.412 -0.22 +0.00    +0.029 A  
DOCKED: ATOM     23  F   UNL     1     -43.306 -26.131  12.568 -0.04 -0.00    -0.204 F  
DOCKED: ATOM     24  C   UNL     1     -40.889 -24.563  10.346 -0.19 +0.00    +0.001 A  
DOCKED: ENDBRANCH   2  18
DOCKED: TORSDOF 5
DOCKED: TER
DOCKED: ENDMDL
________________________________________________________________________________


    FINAL DOCKED STATE:
    ________________________


Run:   23 / 512
Time taken for this run:   0.002s

DOCKED: MODEL        23
DOCKED: USER    Run = 23
DOCKED: USER
DOCKED: USER    Estimated Free Energy of Binding    =  -3.52 kcal/mol  [=(1)+(2)+(3)-(4)]
DOCKED: USER
DOCKED: USER    (1) Final Intermolecular Energy     =  -5.02 kcal/mol
DOCKED: USER        vdW + Hbond + desolv Energy     =  -5.02 kcal/mol
DOCKED: USER        Electrostatic Energy            =  +0.00 kcal/mol
DOCKED: USER        Moving Ligand-Fixed Receptor    =  -5.02 kcal/mol
DOCKED: USER        Moving Ligand-Moving Receptor   =  +0.00 kcal/mol
DOCKED: USER    (2) Final Total Internal Energy     =  -1.46 kcal/mol
DOCKED: USER    (3) Torsional Free Energy           =  +1.49 kcal/mol
DOCKED: USER    (4) Unbound System's Energy         =  -1.46 kcal/mol
DOCKED: USER
DOCKED: USER
DOCKED: REMARK  5 active torsions:
DOCKED: REMARK  status: ('A' for Active; 'I' for Inactive)
DOCKED: REMARK    1  A    between atoms: C_2  and  C_19 
DOCKED: REMARK    2  A    between atoms: C_2  and  C_11 
DOCKED: REMARK    3  A    between atoms: C_19  and  C_20 
DOCKED: REMARK    4  A    between atoms: C_20  and  C_21 
DOCKED: REMARK    5  A    between atoms: C_21  and  N_22 
DOCKED: USER                              x       y       z     vdW  Elec       q    Type
DOCKED: USER                           _______ _______ _______ _____ _____    ______ ____
DOCKED: ROOT
DOCKED: ATOM      1  O   UNL     1     -34.024 -11.586  -4.495 -0.01 -0.00    -0.346 OA 
DOCKED: ATOM      2  C   UNL     1     -34.316 -12.517  -3.404 -0.04 +0.00    +0.130 C  
DOCKED: ATOM      3  C   UNL     1     -35.797 -12.743  -3.512 -0.11 +0.00    +0.004 A  
DOCKED: ATOM      4  C   UNL     1     -36.289 -12.088  -4.631 -0.20 +0.00    +0.006 A  
DOCKED: ATOM      5  C   UNL     1     -35.184 -11.404  -5.340 -0.10 +0.00    +0.169 C  
DOCKED: ATOM      6  C   UNL     1     -36.638 -13.479  -2.691 -0.17 -0.00    -0.001 A  
DOCKED: ATOM      7  C   UNL     1     -37.631 -12.141  -4.965 -0.32 +0.00    +0.008 A  
DOCKED: ATOM      8  C   UNL     1     -37.995 -13.539  -3.011 -0.29 +0.00    +0.010 A  
DOCKED: ATOM      9  C   UNL     1     -38.489 -12.874  -4.144 -0.36 +0.00    +0.068 A  
DOCKED: ATOM     10  N   UNL     1     -41.013 -13.009  -4.713 -2.40 -0.00    -0.191 NA 
DOCKED: ATOM     11  C   UNL     1     -39.881 -12.948  -4.458 -0.35 +0.00    +0.101 C  
DOCKED: ENDROOT
DOCKED: BRANCH   2  12
DOCKED: ATOM     12  C   UNL     1     -33.504 -13.788  -3.623 -0.02 +0.00    +0.038 C  
DOCKED: BRANCH  12  13
DOCKED: ATOM     13  C   UNL     1     -34.309 -14.838  -4.387 -0.03 +0.00    +0.038 C  
DOCKED: BRANCH  13  14
DOCKED: ATOM     14  C   UNL     1     -34.160 -14.655  -5.896 -0.01 +0.00    +0.251 C  
DOCKED: BRANCH  14  15
DOCKED: ATOM     15  N   UNL     1     -35.471 -14.544  -6.525 -0.07 +0.00    +0.141 N  
DOCKED: ATOM     16  C   UNL     1     -35.354 -14.649  -7.981 -0.04 +0.00    +0.285 C  
DOCKED: ATOM     17  C   UNL     1     -36.377 -15.574  -6.013 -0.12 +0.00    +0.285 C  
DOCKED: ENDBRANCH  14  15
DOCKED: ENDBRANCH  13  14
DOCKED: ENDBRANCH  12  13
DOCKED: ENDBRANCH   2  12
DOCKED: BRANCH   2  18
DOCKED: ATOM     18  C   UNL     1     -33.922 -11.839  -2.134 -0.05 +0.00    +0.006 A  
DOCKED: ATOM     19  C   UNL     1     -34.591 -10.687  -1.723 -0.11 +0.00    +0.001 A  
DOCKED: ATOM     20  C   UNL     1     -34.221 -10.053  -0.536 -0.10 +0.00    +0.029 A  
DOCKED: ATOM     21  C   UNL     1     -33.185 -10.573   0.238 -0.05 +0.00    +0.140 A  
DOCKED: ATOM     22  C   UNL     1     -32.516 -11.726  -0.174 -0.03 +0.00    +0.029 A  
DOCKED: ATOM     23  F   UNL     1     -32.831  -9.966   1.378 -0.01 -0.00    -0.204 F  
DOCKED: ATOM     24  C   UNL     1     -32.885 -12.360  -1.362 -0.03 +0.00    +0.001 A  
DOCKED: ENDBRANCH   2  18
DOCKED: TORSDOF 5
DOCKED: TER
DOCKED: ENDMDL
________________________________________________________________________________


    FINAL DOCKED STATE:
    ________________________


Run:   24 / 512
Time taken for this run:   0.002s

DOCKED: MODEL        24
DOCKED: USER    Run = 24
DOCKED: USER
DOCKED: USER    Estimated Free Energy of Binding    =  -4.05 kcal/mol  [=(1)+(2)+(3)-(4)]
DOCKED: USER
DOCKED: USER    (1) Final Intermolecular Energy     =  -5.54 kcal/mol
DOCKED: USER        vdW + Hbond + desolv Energy     =  -5.54 kcal/mol
DOCKED: USER        Electrostatic Energy            =  +0.00 kcal/mol
DOCKED: USER        Moving Ligand-Fixed Receptor    =  -5.54 kcal/mol
DOCKED: USER        Moving Ligand-Moving Receptor   =  +0.00 kcal/mol
DOCKED: USER    (2) Final Total Internal Energy     =  -1.51 kcal/mol
DOCKED: USER    (3) Torsional Free Energy           =  +1.49 kcal/mol
DOCKED: USER    (4) Unbound System's Energy         =  -1.51 kcal/mol
DOCKED: USER
DOCKED: USER
DOCKED: REMARK  5 active torsions:
DOCKED: REMARK  status: ('A' for Active; 'I' for Inactive)
DOCKED: REMARK    1  A    between atoms: C_2  and  C_19 
DOCKED: REMARK    2  A    between atoms: C_2  and  C_11 
DOCKED: REMARK    3  A    between atoms: C_19  and  C_20 
DOCKED: REMARK    4  A    between atoms: C_20  and  C_21 
DOCKED: REMARK    5  A    between atoms: C_21  and  N_22 
DOCKED: USER                              x       y       z     vdW  Elec       q    Type
DOCKED: USER                           _______ _______ _______ _____ _____    ______ ____
DOCKED: ROOT
DOCKED: ATOM      1  O   UNL     1     -43.828 -19.525   7.884 -0.04 -0.00    -0.346 OA 
DOCKED: ATOM      2  C   UNL     1     -42.518 -19.573   7.233 -0.17 +0.00    +0.130 C  
DOCKED: ATOM      3  C   UNL     1     -42.409 -20.991   6.751 -0.23 +0.00    +0.004 A  
DOCKED: ATOM      4  C   UNL     1     -43.596 -21.664   7.005 -0.22 +0.00    +0.006 A  
DOCKED: ATOM      5  C   UNL     1     -44.563 -20.749   7.652 -0.14 +0.00    +0.169 C  
DOCKED: ATOM      6  C   UNL     1     -41.348 -21.631   6.127 -0.27 -0.00    -0.001 A  
DOCKED: ATOM      7  C   UNL     1     -43.761 -22.992   6.651 -0.23 +0.00    +0.008 A  
DOCKED: ATOM      8  C   UNL     1     -41.498 -22.971   5.768 -0.32 +0.00    +0.010 A  
DOCKED: ATOM      9  C   UNL     1     -42.699 -23.648   6.028 -0.28 +0.00    +0.068 A  
DOCKED: ATOM     10  N   UNL     1     -42.946 -26.134   5.343 -2.61 -0.00    -0.191 NA 
DOCKED: ATOM     11  C   UNL     1     -42.835 -25.019   5.651 -0.38 +0.00    +0.101 C  
DOCKED: ENDROOT
DOCKED: BRANCH   2  12
DOCKED: ATOM     12  C   UNL     1     -42.506 -18.557   6.097 -0.14 +0.00    +0.038 C  
DOCKED: BRANCH  12  13
DOCKED: ATOM     13  C   UNL     1     -43.723 -17.636   6.161 -0.20 +0.00    +0.038 C  
DOCKED: BRANCH  13  14
DOCKED: ATOM     14  C   UNL     1     -43.341 -16.258   6.699 -0.07 +0.00    +0.251 C  
DOCKED: BRANCH  14  15
DOCKED: ATOM     15  N   UNL     1     -42.883 -16.362   8.079 -0.02 +0.00    +0.141 N  
DOCKED: ATOM     16  C   UNL     1     -41.611 -15.659   8.255 -0.00 +0.00    +0.285 C  
DOCKED: ATOM     17  C   UNL     1     -43.889 -15.827   8.998 -0.00 +0.00    +0.285 C  
DOCKED: ENDBRANCH  14  15
DOCKED: ENDBRANCH  13  14
DOCKED: ENDBRANCH  12  13
DOCKED: ENDBRANCH   2  12
DOCKED: BRANCH   2  18
DOCKED: ATOM     18  C   UNL     1     -41.502 -19.232   8.272 -0.07 +0.00    +0.006 A  
DOCKED: ATOM     19  C   UNL     1     -40.168 -19.053   7.908 -0.08 +0.00    +0.001 A  
DOCKED: ATOM     20  C   UNL     1     -39.219 -18.734   8.880 -0.03 +0.00    +0.029 A  
DOCKED: ATOM     21  C   UNL     1     -39.605 -18.595  10.213 -0.00 +0.00    +0.140 A  
DOCKED: ATOM     22  C   UNL     1     -40.939 -18.775  10.575 -0.01 +0.00    +0.029 A  
DOCKED: ATOM     23  F   UNL     1     -38.694 -18.287  11.145 +0.00 -0.00    -0.204 F  
DOCKED: ATOM     24  C   UNL     1     -41.889 -19.094   9.604 -0.02 +0.00    +0.001 A  
DOCKED: ENDBRANCH   2  18
DOCKED: TORSDOF 5
DOCKED: TER
DOCKED: ENDMDL
________________________________________________________________________________


    FINAL DOCKED STATE:
    ________________________


Run:   25 / 512
Time taken for this run:   0.002s

DOCKED: MODEL        25
DOCKED: USER    Run = 25
DOCKED: USER
DOCKED: USER    Estimated Free Energy of Binding    =  -3.94 kcal/mol  [=(1)+(2)+(3)-(4)]
DOCKED: USER
DOCKED: USER    (1) Final Intermolecular Energy     =  -5.43 kcal/mol
DOCKED: USER        vdW + Hbond + desolv Energy     =  -5.43 kcal/mol
DOCKED: USER        Electrostatic Energy            =  +0.00 kcal/mol
DOCKED: USER        Moving Ligand-Fixed Receptor    =  -5.43 kcal/mol
DOCKED: USER        Moving Ligand-Moving Receptor   =  +0.00 kcal/mol
DOCKED: USER    (2) Final Total Internal Energy     =  -1.09 kcal/mol
DOCKED: USER    (3) Torsional Free Energy           =  +1.49 kcal/mol
DOCKED: USER    (4) Unbound System's Energy         =  -1.09 kcal/mol
DOCKED: USER
DOCKED: USER
DOCKED: REMARK  5 active torsions:
DOCKED: REMARK  status: ('A' for Active; 'I' for Inactive)
DOCKED: REMARK    1  A    between atoms: C_2  and  C_19 
DOCKED: REMARK    2  A    between atoms: C_2  and  C_11 
DOCKED: REMARK    3  A    between atoms: C_19  and  C_20 
DOCKED: REMARK    4  A    between atoms: C_20  and  C_21 
DOCKED: REMARK    5  A    between atoms: C_21  and  N_22 
DOCKED: USER                              x       y       z     vdW  Elec       q    Type
DOCKED: USER                           _______ _______ _______ _____ _____    ______ ____
DOCKED: ROOT
DOCKED: ATOM      1  O   UNL     1     -43.208 -19.385   7.660 -0.06 -0.00    -0.346 OA 
DOCKED: ATOM      2  C   UNL     1     -41.806 -19.756   7.463 -0.14 +0.00    +0.130 C  
DOCKED: ATOM      3  C   UNL     1     -41.873 -21.183   7.000 -0.23 +0.00    +0.004 A  
DOCKED: ATOM      4  C   UNL     1     -43.199 -21.560   6.840 -0.23 +0.00    +0.006 A  
DOCKED: ATOM      5  C   UNL     1     -44.088 -20.422   7.167 -0.19 +0.00    +0.169 C  
DOCKED: ATOM      6  C   UNL     1     -40.844 -22.073   6.732 -0.26 -0.00    -0.001 A  
DOCKED: ATOM      7  C   UNL     1     -43.541 -22.831   6.412 -0.24 +0.00    +0.008 A  
DOCKED: ATOM      8  C   UNL     1     -41.171 -23.361   6.304 -0.32 +0.00    +0.010 A  
DOCKED: ATOM      9  C   UNL     1     -42.513 -23.737   6.145 -0.28 +0.00    +0.068 A  
DOCKED: ATOM     10  N   UNL     1     -43.087 -26.134   5.344 -2.58 -0.00    -0.191 NA 
DOCKED: ATOM     11  C   UNL     1     -42.830 -25.059   5.704 -0.36 +0.00    +0.101 C  
DOCKED: ENDROOT
DOCKED: BRANCH   2  12
DOCKED: ATOM     12  C   UNL     1     -41.200 -18.823   6.422 -0.14 +0.00    +0.038 C  
DOCKED: BRANCH  12  13
DOCKED: ATOM     13  C   UNL     1     -41.955 -17.496   6.358 -0.16 +0.00    +0.038 C  
DOCKED: BRANCH  13  14
DOCKED: ATOM     14  C   UNL     1     -41.290 -16.443   7.243 -0.03 +0.00    +0.251 C  
DOCKED: BRANCH  14  15
DOCKED: ATOM     15  N   UNL     1     -41.195 -15.172   6.534 -0.02 +0.00    +0.141 N  
DOCKED: ATOM     16  C   UNL     1     -39.991 -15.133   5.703 -0.02 +0.00    +0.285 C  
DOCKED: ATOM     17  C   UNL     1     -42.386 -14.950   5.713 -0.03 +0.00    +0.285 C  
DOCKED: ENDBRANCH  14  15
DOCKED: ENDBRANCH  13  14
DOCKED: ENDBRANCH  12  13
DOCKED: ENDBRANCH   2  12
DOCKED: BRANCH   2  18
DOCKED: ATOM     18  C   UNL     1     -41.125 -19.605   8.783 -0.05 +0.00    +0.006 A  
DOCKED: ATOM     19  C   UNL     1     -39.763 -19.875   8.899 -0.05 +0.00    +0.001 A  
DOCKED: ATOM     20  C   UNL     1     -39.128 -19.734  10.134 -0.02 +0.00    +0.029 A  
DOCKED: ATOM     21  C   UNL     1     -39.855 -19.321  11.249 -0.00 +0.00    +0.140 A  
DOCKED: ATOM     22  C   UNL     1     -41.218 -19.050  11.132 -0.00 +0.00    +0.029 A  
DOCKED: ATOM     23  F   UNL     1     -39.245 -19.183  12.433 -0.00 -0.00    -0.204 F  
DOCKED: ATOM     24  C   UNL     1     -41.855 -19.193   9.897 -0.02 +0.00    +0.001 A  
DOCKED: ENDBRANCH   2  18
DOCKED: TORSDOF 5
DOCKED: TER
DOCKED: ENDMDL
________________________________________________________________________________


    FINAL DOCKED STATE:
    ________________________


Run:   26 / 512
Time taken for this run:   0.002s

DOCKED: MODEL        26
DOCKED: USER    Run = 26
DOCKED: USER
DOCKED: USER    Estimated Free Energy of Binding    =  -4.18 kcal/mol  [=(1)+(2)+(3)-(4)]
DOCKED: USER
DOCKED: USER    (1) Final Intermolecular Energy     =  -5.67 kcal/mol
DOCKED: USER        vdW + Hbond + desolv Energy     =  -5.67 kcal/mol
DOCKED: USER        Electrostatic Energy            =  +0.00 kcal/mol
DOCKED: USER        Moving Ligand-Fixed Receptor    =  -5.67 kcal/mol
DOCKED: USER        Moving Ligand-Moving Receptor   =  +0.00 kcal/mol
DOCKED: USER    (2) Final Total Internal Energy     =  -1.47 kcal/mol
DOCKED: USER    (3) Torsional Free Energy           =  +1.49 kcal/mol
DOCKED: USER    (4) Unbound System's Energy         =  -1.47 kcal/mol
DOCKED: USER
DOCKED: USER
DOCKED: REMARK  5 active torsions:
DOCKED: REMARK  status: ('A' for Active; 'I' for Inactive)
DOCKED: REMARK    1  A    between atoms: C_2  and  C_19 
DOCKED: REMARK    2  A    between atoms: C_2  and  C_11 
DOCKED: REMARK    3  A    between atoms: C_19  and  C_20 
DOCKED: REMARK    4  A    between atoms: C_20  and  C_21 
DOCKED: REMARK    5  A    between atoms: C_21  and  N_22 
DOCKED: USER                              x       y       z     vdW  Elec       q    Type
DOCKED: USER                           _______ _______ _______ _____ _____    ______ ____
DOCKED: ROOT
DOCKED: ATOM      1  O   UNL     1     -38.322 -21.903   8.623 -0.08 -0.00    -0.346 OA 
DOCKED: ATOM      2  C   UNL     1     -39.488 -21.047   8.403 -0.11 +0.00    +0.130 C  
DOCKED: ATOM      3  C   UNL     1     -40.464 -21.944   7.698 -0.20 +0.00    +0.004 A  
DOCKED: ATOM      4  C   UNL     1     -39.946 -23.229   7.621 -0.25 +0.00    +0.006 A  
DOCKED: ATOM      5  C   UNL     1     -38.617 -23.275   8.271 -0.12 +0.00    +0.169 C  
DOCKED: ATOM      6  C   UNL     1     -41.716 -21.650   7.177 -0.23 -0.00    -0.001 A  
DOCKED: ATOM      7  C   UNL     1     -40.653 -24.257   7.021 -0.35 +0.00    +0.008 A  
DOCKED: ATOM      8  C   UNL     1     -42.440 -22.674   6.564 -0.28 +0.00    +0.010 A  
DOCKED: ATOM      9  C   UNL     1     -41.911 -23.971   6.487 -0.29 +0.00    +0.068 A  
DOCKED: ATOM     10  N   UNL     1     -43.283 -25.851   5.348 -2.56 -0.00    -0.191 NA 
DOCKED: ATOM     11  C   UNL     1     -42.667 -25.008   5.859 -0.35 +0.00    +0.101 C  
DOCKED: ENDROOT
DOCKED: BRANCH   2  12
DOCKED: ATOM     12  C   UNL     1     -39.996 -20.565   9.756 -0.04 +0.00    +0.038 C  
DOCKED: BRANCH  12  13
DOCKED: ATOM     13  C   UNL     1     -39.695 -21.580  10.857 -0.04 +0.00    +0.038 C  
DOCKED: BRANCH  13  14
DOCKED: ATOM     14  C   UNL     1     -40.940 -22.391  11.213 -0.02 +0.00    +0.251 C  
DOCKED: BRANCH  14  15
DOCKED: ATOM     15  N   UNL     1     -40.883 -23.707  10.588 -0.09 +0.00    +0.141 N  
DOCKED: ATOM     16  C   UNL     1     -40.299 -24.688  11.503 -0.12 +0.00    +0.285 C  
DOCKED: ATOM     17  C   UNL     1     -42.219 -24.136  10.168 -0.08 +0.00    +0.285 C  
DOCKED: ENDBRANCH  14  15
DOCKED: ENDBRANCH  13  14
DOCKED: ENDBRANCH  12  13
DOCKED: ENDBRANCH   2  12
DOCKED: BRANCH   2  18
DOCKED: ATOM     18  C   UNL     1     -39.036 -19.903   7.558 -0.12 +0.00    +0.006 A  
DOCKED: ATOM     19  C   UNL     1     -38.085 -20.107   6.560 -0.07 +0.00    +0.001 A  
DOCKED: ATOM     20  C   UNL     1     -37.663 -19.035   5.771 -0.12 +0.00    +0.029 A  
DOCKED: ATOM     21  C   UNL     1     -38.193 -17.763   5.982 -0.05 +0.00    +0.140 A  
DOCKED: ATOM     22  C   UNL     1     -39.145 -17.560   6.981 -0.05 +0.00    +0.029 A  
DOCKED: ATOM     23  F   UNL     1     -37.789 -16.736   5.224 -0.00 -0.00    -0.204 F  
DOCKED: ATOM     24  C   UNL     1     -39.567 -18.631   7.771 -0.06 +0.00    +0.001 A  
DOCKED: ENDBRANCH   2  18
DOCKED: TORSDOF 5
DOCKED: TER
DOCKED: ENDMDL
________________________________________________________________________________


    FINAL DOCKED STATE:
    ________________________


Run:   27 / 512
Time taken for this run:   0.002s

DOCKED: MODEL        27
DOCKED: USER    Run = 27
DOCKED: USER
DOCKED: USER    Estimated Free Energy of Binding    =  -3.70 kcal/mol  [=(1)+(2)+(3)-(4)]
DOCKED: USER
DOCKED: USER    (1) Final Intermolecular Energy     =  -5.19 kcal/mol
DOCKED: USER        vdW + Hbond + desolv Energy     =  -5.19 kcal/mol
DOCKED: USER        Electrostatic Energy            =  +0.00 kcal/mol
DOCKED: USER        Moving Ligand-Fixed Receptor    =  -5.19 kcal/mol
DOCKED: USER        Moving Ligand-Moving Receptor   =  +0.00 kcal/mol
DOCKED: USER    (2) Final Total Internal Energy     =  -1.35 kcal/mol
DOCKED: USER    (3) Torsional Free Energy           =  +1.49 kcal/mol
DOCKED: USER    (4) Unbound System's Energy         =  -1.35 kcal/mol
DOCKED: USER
DOCKED: USER
DOCKED: REMARK  5 active torsions:
DOCKED: REMARK  status: ('A' for Active; 'I' for Inactive)
DOCKED: REMARK    1  A    between atoms: C_2  and  C_19 
DOCKED: REMARK    2  A    between atoms: C_2  and  C_11 
DOCKED: REMARK    3  A    between atoms: C_19  and  C_20 
DOCKED: REMARK    4  A    between atoms: C_20  and  C_21 
DOCKED: REMARK    5  A    between atoms: C_21  and  N_22 
DOCKED: USER                              x       y       z     vdW  Elec       q    Type
DOCKED: USER                           _______ _______ _______ _____ _____    ______ ____
DOCKED: ROOT
DOCKED: ATOM      1  O   UNL     1     -39.558 -22.531   9.939 -0.04 -0.00    -0.346 OA 
DOCKED: ATOM      2  C   UNL     1     -39.750 -21.641   8.794 -0.11 +0.00    +0.130 C  
DOCKED: ATOM      3  C   UNL     1     -40.516 -22.478   7.811 -0.21 +0.00    +0.004 A  
DOCKED: ATOM      4  C   UNL     1     -40.831 -23.701   8.386 -0.22 +0.00    +0.006 A  
DOCKED: ATOM      5  C   UNL     1     -40.315 -23.753   9.772 -0.12 +0.00    +0.169 C  
DOCKED: ATOM      6  C   UNL     1     -40.912 -22.178   6.516 -0.26 -0.00    -0.001 A  
DOCKED: ATOM      7  C   UNL     1     -41.545 -24.662   7.690 -0.30 +0.00    +0.008 A  
DOCKED: ATOM      8  C   UNL     1     -41.629 -23.138   5.800 -0.34 +0.00    +0.010 A  
DOCKED: ATOM      9  C   UNL     1     -41.944 -24.374   6.384 -0.31 +0.00    +0.068 A  
DOCKED: ATOM     10  N   UNL     1     -43.280 -26.132   5.029 -2.39 -0.00    -0.191 NA 
DOCKED: ATOM     11  C   UNL     1     -42.680 -25.343   5.637 -0.26 +0.00    +0.101 C  
DOCKED: ENDROOT
DOCKED: BRANCH   2  12
DOCKED: ATOM     12  C   UNL     1     -40.526 -20.415   9.260 -0.05 +0.00    +0.038 C  
DOCKED: BRANCH  12  13
DOCKED: ATOM     13  C   UNL     1     -40.993 -20.568  10.706 -0.02 +0.00    +0.038 C  
DOCKED: BRANCH  13  14
DOCKED: ATOM     14  C   UNL     1     -42.445 -21.037  10.768 -0.00 +0.00    +0.251 C  
DOCKED: BRANCH  14  15
DOCKED: ATOM     15  N   UNL     1     -42.652 -21.897  11.927 -0.01 +0.00    +0.141 N  
DOCKED: ATOM     16  C   UNL     1     -43.309 -23.145  11.533 -0.01 +0.00    +0.285 C  
DOCKED: ATOM     17  C   UNL     1     -41.379 -22.182  12.591 -0.00 +0.00    +0.285 C  
DOCKED: ENDBRANCH  14  15
DOCKED: ENDBRANCH  13  14
DOCKED: ENDBRANCH  12  13
DOCKED: ENDBRANCH   2  12
DOCKED: BRANCH   2  18
DOCKED: ATOM     18  C   UNL     1     -38.392 -21.264   8.302 -0.13 +0.00    +0.006 A  
DOCKED: ATOM     19  C   UNL     1     -37.428 -22.249   8.093 -0.07 +0.00    +0.001 A  
DOCKED: ATOM     20  C   UNL     1     -36.159 -21.895   7.634 -0.11 +0.00    +0.029 A  
DOCKED: ATOM     21  C   UNL     1     -35.856 -20.558   7.384 -0.07 +0.00    +0.140 A  
DOCKED: ATOM     22  C   UNL     1     -36.821 -19.573   7.593 -0.07 +0.00    +0.029 A  
DOCKED: ATOM     23  F   UNL     1     -34.638 -20.219   6.941 -0.01 -0.00    -0.204 F  
DOCKED: ATOM     24  C   UNL     1     -38.090 -19.925   8.053 -0.09 +0.00    +0.001 A  
DOCKED: ENDBRANCH   2  18
DOCKED: TORSDOF 5
DOCKED: TER
DOCKED: ENDMDL
________________________________________________________________________________


    FINAL DOCKED STATE:
    ________________________


Run:   28 / 512
Time taken for this run:   0.002s

DOCKED: MODEL        28
DOCKED: USER    Run = 28
DOCKED: USER
DOCKED: USER    Estimated Free Energy of Binding    =  -4.85 kcal/mol  [=(1)+(2)+(3)-(4)]
DOCKED: USER
DOCKED: USER    (1) Final Intermolecular Energy     =  -6.34 kcal/mol
DOCKED: USER        vdW + Hbond + desolv Energy     =  -6.34 kcal/mol
DOCKED: USER        Electrostatic Energy            =  +0.00 kcal/mol
DOCKED: USER        Moving Ligand-Fixed Receptor    =  -6.34 kcal/mol
DOCKED: USER        Moving Ligand-Moving Receptor   =  +0.00 kcal/mol
DOCKED: USER    (2) Final Total Internal Energy     =  -1.25 kcal/mol
DOCKED: USER    (3) Torsional Free Energy           =  +1.49 kcal/mol
DOCKED: USER    (4) Unbound System's Energy         =  -1.25 kcal/mol
DOCKED: USER
DOCKED: USER
DOCKED: REMARK  5 active torsions:
DOCKED: REMARK  status: ('A' for Active; 'I' for Inactive)
DOCKED: REMARK    1  A    between atoms: C_2  and  C_19 
DOCKED: REMARK    2  A    between atoms: C_2  and  C_11 
DOCKED: REMARK    3  A    between atoms: C_19  and  C_20 
DOCKED: REMARK    4  A    between atoms: C_20  and  C_21 
DOCKED: REMARK    5  A    between atoms: C_21  and  N_22 
DOCKED: USER                              x       y       z     vdW  Elec       q    Type
DOCKED: USER                           _______ _______ _______ _____ _____    ______ ____
DOCKED: ROOT
DOCKED: ATOM      1  O   UNL     1     -39.318 -15.910   0.907 -0.10 -0.00    -0.346 OA 
DOCKED: ATOM      2  C   UNL     1     -38.004 -15.754   0.281 -0.18 +0.00    +0.130 C  
DOCKED: ATOM      3  C   UNL     1     -38.302 -15.041  -1.006 -0.26 +0.00    +0.004 A  
DOCKED: ATOM      4  C   UNL     1     -39.650 -14.718  -1.060 -0.23 +0.00    +0.006 A  
DOCKED: ATOM      5  C   UNL     1     -40.327 -15.177   0.174 -0.07 +0.00    +0.169 C  
DOCKED: ATOM      6  C   UNL     1     -37.445 -14.696  -2.041 -0.22 -0.00    -0.001 A  
DOCKED: ATOM      7  C   UNL     1     -40.187 -14.047  -2.146 -0.36 +0.00    +0.008 A  
DOCKED: ATOM      8  C   UNL     1     -37.972 -14.023  -3.144 -0.27 +0.00    +0.010 A  
DOCKED: ATOM      9  C   UNL     1     -39.336 -13.700  -3.196 -0.29 +0.00    +0.068 A  
DOCKED: ATOM     10  N   UNL     1     -40.281 -12.445  -5.256 -2.47 -0.00    -0.191 NA 
DOCKED: ATOM     11  C   UNL     1     -39.858 -13.008  -4.332 -0.39 +0.00    +0.101 C  
DOCKED: ENDROOT
DOCKED: BRANCH   2  12
DOCKED: ATOM     12  C   UNL     1     -37.116 -14.944   1.218 -0.17 +0.00    +0.038 C  
DOCKED: BRANCH  12  13
DOCKED: ATOM     13  C   UNL     1     -36.925 -15.653   2.557 -0.11 +0.00    +0.038 C  
DOCKED: BRANCH  13  14
DOCKED: ATOM     14  C   UNL     1     -37.139 -14.691   3.724 -0.09 +0.00    +0.251 C  
DOCKED: BRANCH  14  15
DOCKED: ATOM     15  N   UNL     1     -38.555 -14.617   4.066 -0.11 +0.00    +0.141 N  
DOCKED: ATOM     16  C   UNL     1     -39.208 -15.907   3.841 -0.07 +0.00    +0.285 C  
DOCKED: ATOM     17  C   UNL     1     -38.727 -14.196   5.458 -0.05 +0.00    +0.285 C  
DOCKED: ENDBRANCH  14  15
DOCKED: ENDBRANCH  13  14
DOCKED: ENDBRANCH  12  13
DOCKED: ENDBRANCH   2  12
DOCKED: BRANCH   2  18
DOCKED: ATOM     18  C   UNL     1     -37.456 -17.126   0.073 -0.13 +0.00    +0.006 A  
DOCKED: ATOM     19  C   UNL     1     -38.180 -18.239   0.499 -0.20 +0.00    +0.001 A  
DOCKED: ATOM     20  C   UNL     1     -37.666 -19.521   0.304 -0.18 +0.00    +0.029 A  
DOCKED: ATOM     21  C   UNL     1     -36.429 -19.689  -0.317 -0.15 +0.00    +0.140 A  
DOCKED: ATOM     22  C   UNL     1     -35.705 -18.576  -0.744 -0.08 +0.00    +0.029 A  
DOCKED: ATOM     23  F   UNL     1     -35.937 -20.920  -0.506 -0.07 -0.00    -0.204 F  
DOCKED: ATOM     24  C   UNL     1     -36.219 -17.293  -0.549 -0.07 +0.00    +0.001 A  
DOCKED: ENDBRANCH   2  18
DOCKED: TORSDOF 5
DOCKED: TER
DOCKED: ENDMDL
________________________________________________________________________________


    FINAL DOCKED STATE:
    ________________________


Run:   29 / 512
Time taken for this run:   0.002s

DOCKED: MODEL        29
DOCKED: USER    Run = 29
DOCKED: USER
DOCKED: USER    Estimated Free Energy of Binding    =  -5.49 kcal/mol  [=(1)+(2)+(3)-(4)]
DOCKED: USER
DOCKED: USER    (1) Final Intermolecular Energy     =  -6.98 kcal/mol
DOCKED: USER        vdW + Hbond + desolv Energy     =  -6.98 kcal/mol
DOCKED: USER        Electrostatic Energy            =  +0.00 kcal/mol
DOCKED: USER        Moving Ligand-Fixed Receptor    =  -6.98 kcal/mol
DOCKED: USER        Moving Ligand-Moving Receptor   =  +0.00 kcal/mol
DOCKED: USER    (2) Final Total Internal Energy     =  -1.50 kcal/mol
DOCKED: USER    (3) Torsional Free Energy           =  +1.49 kcal/mol
DOCKED: USER    (4) Unbound System's Energy         =  -1.50 kcal/mol
DOCKED: USER
DOCKED: USER
DOCKED: REMARK  5 active torsions:
DOCKED: REMARK  status: ('A' for Active; 'I' for Inactive)
DOCKED: REMARK    1  A    between atoms: C_2  and  C_19 
DOCKED: REMARK    2  A    between atoms: C_2  and  C_11 
DOCKED: REMARK    3  A    between atoms: C_19  and  C_20 
DOCKED: REMARK    4  A    between atoms: C_20  and  C_21 
DOCKED: REMARK    5  A    between atoms: C_21  and  N_22 
DOCKED: USER                              x       y       z     vdW  Elec       q    Type
DOCKED: USER                           _______ _______ _______ _____ _____    ______ ____
DOCKED: ROOT
DOCKED: ATOM      1  O   UNL     1     -41.149 -23.741   7.976 -0.07 -0.00    -0.346 OA 
DOCKED: ATOM      2  C   UNL     1     -42.541 -24.188   8.028 -0.18 +0.00    +0.130 C  
DOCKED: ATOM      3  C   UNL     1     -42.934 -24.310   6.584 -0.29 +0.00    +0.004 A  
DOCKED: ATOM      4  C   UNL     1     -41.832 -24.062   5.778 -0.40 +0.00    +0.006 A  
DOCKED: ATOM      5  C   UNL     1     -40.648 -23.776   6.620 -0.25 +0.00    +0.169 C  
DOCKED: ATOM      6  C   UNL     1     -44.165 -24.626   6.029 -0.29 -0.00    -0.001 A  
DOCKED: ATOM      7  C   UNL     1     -41.922 -24.117   4.398 -0.26 +0.00    +0.008 A  
DOCKED: ATOM      8  C   UNL     1     -44.273 -24.681   4.638 -0.34 +0.00    +0.010 A  
DOCKED: ATOM      9  C   UNL     1     -43.156 -24.428   3.827 -0.41 +0.00    +0.068 A  
DOCKED: ATOM     10  N   UNL     1     -43.390 -24.543   1.249 -3.13 -0.00    -0.191 NA 
DOCKED: ATOM     11  C   UNL     1     -43.285 -24.491   2.405 -0.28 +0.00    +0.101 C  
DOCKED: ENDROOT
DOCKED: BRANCH   2  12
DOCKED: ATOM     12  C   UNL     1     -42.594 -25.517   8.772 -0.26 +0.00    +0.038 C  
DOCKED: BRANCH  12  13
DOCKED: ATOM     13  C   UNL     1     -41.445 -25.643   9.771 -0.22 +0.00    +0.038 C  
DOCKED: BRANCH  13  14
DOCKED: ATOM     14  C   UNL     1     -41.580 -24.617  10.894 -0.12 +0.00    +0.251 C  
DOCKED: BRANCH  14  15
DOCKED: ATOM     15  N   UNL     1     -40.564 -23.580  10.759 -0.08 +0.00    +0.141 N  
DOCKED: ATOM     16  C   UNL     1     -40.953 -22.377  11.496 -0.01 +0.00    +0.285 C  
DOCKED: ATOM     17  C   UNL     1     -39.265 -24.065  11.228 -0.04 +0.00    +0.285 C  
DOCKED: ENDBRANCH  14  15
DOCKED: ENDBRANCH  13  14
DOCKED: ENDBRANCH  12  13
DOCKED: ENDBRANCH   2  12
DOCKED: BRANCH   2  18
DOCKED: ATOM     18  C   UNL     1     -43.311 -23.135   8.753 -0.10 +0.00    +0.006 A  
DOCKED: ATOM     19  C   UNL     1     -44.402 -23.490   9.545 -0.09 +0.00    +0.001 A  
DOCKED: ATOM     20  C   UNL     1     -45.121 -22.504  10.222 -0.04 +0.00    +0.029 A  
DOCKED: ATOM     21  C   UNL     1     -44.748 -21.166  10.107 -0.01 +0.00    +0.140 A  
DOCKED: ATOM     22  C   UNL     1     -43.657 -20.812   9.315 -0.04 +0.00    +0.029 A  
DOCKED: ATOM     23  F   UNL     1     -45.438 -20.220  10.758 +0.01 -0.00    -0.204 F  
DOCKED: ATOM     24  C   UNL     1     -42.937 -21.797   8.637 -0.08 +0.00    +0.001 A  
DOCKED: ENDBRANCH   2  18
DOCKED: TORSDOF 5
DOCKED: TER
DOCKED: ENDMDL
________________________________________________________________________________


    FINAL DOCKED STATE:
    ________________________


Run:   30 / 512
Time taken for this run:   0.002s

DOCKED: MODEL        30
DOCKED: USER    Run = 30
DOCKED: USER
DOCKED: USER    Estimated Free Energy of Binding    =  -3.38 kcal/mol  [=(1)+(2)+(3)-(4)]
DOCKED: USER
DOCKED: USER    (1) Final Intermolecular Energy     =  -4.87 kcal/mol
DOCKED: USER        vdW + Hbond + desolv Energy     =  -4.87 kcal/mol
DOCKED: USER        Electrostatic Energy            =  +0.00 kcal/mol
DOCKED: USER        Moving Ligand-Fixed Receptor    =  -4.87 kcal/mol
DOCKED: USER        Moving Ligand-Moving Receptor   =  +0.00 kcal/mol
DOCKED: USER    (2) Final Total Internal Energy     =  -1.39 kcal/mol
DOCKED: USER    (3) Torsional Free Energy           =  +1.49 kcal/mol
DOCKED: USER    (4) Unbound System's Energy         =  -1.39 kcal/mol
DOCKED: USER
DOCKED: USER
DOCKED: REMARK  5 active torsions:
DOCKED: REMARK  status: ('A' for Active; 'I' for Inactive)
DOCKED: REMARK    1  A    between atoms: C_2  and  C_19 
DOCKED: REMARK    2  A    between atoms: C_2  and  C_11 
DOCKED: REMARK    3  A    between atoms: C_19  and  C_20 
DOCKED: REMARK    4  A    between atoms: C_20  and  C_21 
DOCKED: REMARK    5  A    between atoms: C_21  and  N_22 
DOCKED: USER                              x       y       z     vdW  Elec       q    Type
DOCKED: USER                           _______ _______ _______ _____ _____    ______ ____
DOCKED: ROOT
DOCKED: ATOM      1  O   UNL     1     -35.126 -18.892   1.617 +0.01 -0.00    -0.346 OA 
DOCKED: ATOM      2  C   UNL     1     -36.057 -19.754   0.888 -0.11 +0.00    +0.130 C  
DOCKED: ATOM      3  C   UNL     1     -35.909 -21.091   1.556 -0.19 +0.00    +0.004 A  
DOCKED: ATOM      4  C   UNL     1     -35.052 -20.977   2.642 -0.12 +0.00    +0.006 A  
DOCKED: ATOM      5  C   UNL     1     -34.592 -19.577   2.774 -0.03 +0.00    +0.169 C  
DOCKED: ATOM      6  C   UNL     1     -36.493 -22.307   1.235 -0.29 -0.00    -0.001 A  
DOCKED: ATOM      7  C   UNL     1     -34.749 -22.069   3.438 -0.15 +0.00    +0.008 A  
DOCKED: ATOM      8  C   UNL     1     -36.194 -23.418   2.025 -0.33 +0.00    +0.010 A  
DOCKED: ATOM      9  C   UNL     1     -35.327 -23.299   3.121 -0.22 +0.00    +0.068 A  
DOCKED: ATOM     10  N   UNL     1     -34.796 -25.380   4.570 -2.00 -0.00    -0.191 NA 
DOCKED: ATOM     11  C   UNL     1     -35.034 -24.447   3.920 -0.27 +0.00    +0.101 C  
DOCKED: ENDROOT
DOCKED: BRANCH   2  12
DOCKED: ATOM     12  C   UNL     1     -37.460 -19.175   1.025 -0.21 +0.00    +0.038 C  
DOCKED: BRANCH  12  13
DOCKED: ATOM     13  C   UNL     1     -37.679 -18.012   0.059 -0.19 +0.00    +0.038 C  
DOCKED: BRANCH  13  14
DOCKED: ATOM     14  C   UNL     1     -37.195 -16.696   0.666 -0.07 +0.00    +0.251 C  
DOCKED: BRANCH  14  15
DOCKED: ATOM     15  N   UNL     1     -36.229 -16.055  -0.219 -0.05 +0.00    +0.141 N  
DOCKED: ATOM     16  C   UNL     1     -36.913 -15.334  -1.294 -0.10 +0.00    +0.285 C  
DOCKED: ATOM     17  C   UNL     1     -35.367 -15.143   0.535 -0.06 +0.00    +0.285 C  
DOCKED: ENDBRANCH  14  15
DOCKED: ENDBRANCH  13  14
DOCKED: ENDBRANCH  12  13
DOCKED: ENDBRANCH   2  12
DOCKED: BRANCH   2  18
DOCKED: ATOM     18  C   UNL     1     -35.616 -19.765  -0.538 -0.13 +0.00    +0.006 A  
DOCKED: ATOM     19  C   UNL     1     -36.329 -20.501  -1.483 -0.02 +0.00    +0.001 A  
DOCKED: ATOM     20  C   UNL     1     -35.915 -20.510  -2.815 -0.20 +0.00    +0.029 A  
DOCKED: ATOM     21  C   UNL     1     -34.790 -19.783  -3.201 -0.08 +0.00    +0.140 A  
DOCKED: ATOM     22  C   UNL     1     -34.077 -19.047  -2.255 -0.02 +0.00    +0.029 A  
DOCKED: ATOM     23  F   UNL     1     -34.393 -19.791  -4.480 +0.00 -0.00    -0.204 F  
DOCKED: ATOM     24  C   UNL     1     -34.490 -19.038  -0.922 -0.03 +0.00    +0.001 A  
DOCKED: ENDBRANCH   2  18
DOCKED: TORSDOF 5
DOCKED: TER
DOCKED: ENDMDL
________________________________________________________________________________


    FINAL DOCKED STATE:
    ________________________


Run:   31 / 512
Time taken for this run:   0.002s

DOCKED: MODEL        31
DOCKED: USER    Run = 31
DOCKED: USER
DOCKED: USER    Estimated Free Energy of Binding    =  -4.40 kcal/mol  [=(1)+(2)+(3)-(4)]
DOCKED: USER
DOCKED: USER    (1) Final Intermolecular Energy     =  -5.89 kcal/mol
DOCKED: USER        vdW + Hbond + desolv Energy     =  -5.89 kcal/mol
DOCKED: USER        Electrostatic Energy            =  +0.00 kcal/mol
DOCKED: USER        Moving Ligand-Fixed Receptor    =  -5.89 kcal/mol
DOCKED: USER        Moving Ligand-Moving Receptor   =  +0.00 kcal/mol
DOCKED: USER    (2) Final Total Internal Energy     =  -1.06 kcal/mol
DOCKED: USER    (3) Torsional Free Energy           =  +1.49 kcal/mol
DOCKED: USER    (4) Unbound System's Energy         =  -1.06 kcal/mol
DOCKED: USER
DOCKED: USER
DOCKED: REMARK  5 active torsions:
DOCKED: REMARK  status: ('A' for Active; 'I' for Inactive)
DOCKED: REMARK    1  A    between atoms: C_2  and  C_19 
DOCKED: REMARK    2  A    between atoms: C_2  and  C_11 
DOCKED: REMARK    3  A    between atoms: C_19  and  C_20 
DOCKED: REMARK    4  A    between atoms: C_20  and  C_21 
DOCKED: REMARK    5  A    between atoms: C_21  and  N_22 
DOCKED: USER                              x       y       z     vdW  Elec       q    Type
DOCKED: USER                           _______ _______ _______ _____ _____    ______ ____
DOCKED: ROOT
DOCKED: ATOM      1  O   UNL     1     -40.774 -19.574   7.033 -0.07 -0.00    -0.346 OA 
DOCKED: ATOM      2  C   UNL     1     -42.130 -19.724   7.563 -0.14 +0.00    +0.130 C  
DOCKED: ATOM      3  C   UNL     1     -42.528 -21.110   7.145 -0.21 +0.00    +0.004 A  
DOCKED: ATOM      4  C   UNL     1     -41.456 -21.737   6.527 -0.28 +0.00    +0.006 A  
DOCKED: ATOM      5  C   UNL     1     -40.287 -20.829   6.505 -0.17 +0.00    +0.169 C  
DOCKED: ATOM      6  C   UNL     1     -43.739 -21.767   7.308 -0.19 -0.00    -0.001 A  
DOCKED: ATOM      7  C   UNL     1     -41.556 -23.033   6.050 -0.34 +0.00    +0.008 A  
DOCKED: ATOM      8  C   UNL     1     -43.857 -23.072   6.829 -0.22 +0.00    +0.010 A  
DOCKED: ATOM      9  C   UNL     1     -42.771 -23.702   6.203 -0.26 +0.00    +0.068 A  
DOCKED: ATOM     10  N   UNL     1     -43.023 -26.128   5.329 -2.59 -0.00    -0.191 NA 
DOCKED: ATOM     11  C   UNL     1     -42.910 -25.040   5.720 -0.36 +0.00    +0.101 C  
DOCKED: ENDROOT
DOCKED: BRANCH   2  12
DOCKED: ATOM     12  C   UNL     1     -42.078 -19.553   9.077 -0.05 +0.00    +0.038 C  
DOCKED: BRANCH  12  13
DOCKED: ATOM     13  C   UNL     1     -43.353 -18.901   9.608 -0.03 +0.00    +0.038 C  
DOCKED: BRANCH  13  14
DOCKED: ATOM     14  C   UNL     1     -44.382 -19.955  10.012 -0.01 +0.00    +0.251 C  
DOCKED: BRANCH  14  15
DOCKED: ATOM     15  N   UNL     1     -43.793 -20.907  10.946 -0.01 +0.00    +0.141 N  
DOCKED: ATOM     16  C   UNL     1     -44.026 -20.485  12.328 +0.00 +0.00    +0.285 C  
DOCKED: ATOM     17  C   UNL     1     -44.337 -22.248  10.726 -0.00 +0.00    +0.285 C  
DOCKED: ENDBRANCH  14  15
DOCKED: ENDBRANCH  13  14
DOCKED: ENDBRANCH  12  13
DOCKED: ENDBRANCH   2  12
DOCKED: BRANCH   2  18
DOCKED: ATOM     18  C   UNL     1     -42.966 -18.663   6.930 -0.19 +0.00    +0.006 A  
DOCKED: ATOM     19  C   UNL     1     -42.389 -17.449   6.560 -0.15 +0.00    +0.001 A  
DOCKED: ATOM     20  C   UNL     1     -43.172 -16.457   5.968 -0.14 +0.00    +0.029 A  
DOCKED: ATOM     21  C   UNL     1     -44.530 -16.680   5.747 -0.12 +0.00    +0.140 A  
DOCKED: ATOM     22  C   UNL     1     -45.107 -17.895   6.117 -0.12 +0.00    +0.029 A  
DOCKED: ATOM     23  F   UNL     1     -45.281 -15.729   5.177 -0.02 -0.00    -0.204 F  
DOCKED: ATOM     24  C   UNL     1     -44.325 -18.888   6.709 -0.23 +0.00    +0.001 A  
DOCKED: ENDBRANCH   2  18
DOCKED: TORSDOF 5
DOCKED: TER
DOCKED: ENDMDL
________________________________________________________________________________


    FINAL DOCKED STATE:
    ________________________


Run:   32 / 512
Time taken for this run:   0.002s

DOCKED: MODEL        32
DOCKED: USER    Run = 32
DOCKED: USER
DOCKED: USER    Estimated Free Energy of Binding    =  -4.72 kcal/mol  [=(1)+(2)+(3)-(4)]
DOCKED: USER
DOCKED: USER    (1) Final Intermolecular Energy     =  -6.21 kcal/mol
DOCKED: USER        vdW + Hbond + desolv Energy     =  -6.21 kcal/mol
DOCKED: USER        Electrostatic Energy            =  +0.00 kcal/mol
DOCKED: USER        Moving Ligand-Fixed Receptor    =  -6.21 kcal/mol
DOCKED: USER        Moving Ligand-Moving Receptor   =  +0.00 kcal/mol
DOCKED: USER    (2) Final Total Internal Energy     =  -1.23 kcal/mol
DOCKED: USER    (3) Torsional Free Energy           =  +1.49 kcal/mol
DOCKED: USER    (4) Unbound System's Energy         =  -1.23 kcal/mol
DOCKED: USER
DOCKED: USER
DOCKED: REMARK  5 active torsions:
DOCKED: REMARK  status: ('A' for Active; 'I' for Inactive)
DOCKED: REMARK    1  A    between atoms: C_2  and  C_19 
DOCKED: REMARK    2  A    between atoms: C_2  and  C_11 
DOCKED: REMARK    3  A    between atoms: C_19  and  C_20 
DOCKED: REMARK    4  A    between atoms: C_20  and  C_21 
DOCKED: REMARK    5  A    between atoms: C_21  and  N_22 
DOCKED: USER                              x       y       z     vdW  Elec       q    Type
DOCKED: USER                           _______ _______ _______ _____ _____    ______ ____
DOCKED: ROOT
DOCKED: ATOM      1  O   UNL     1     -41.833 -24.539   8.991 -0.08 -0.00    -0.346 OA 
DOCKED: ATOM      2  C   UNL     1     -41.549 -23.206   8.458 -0.14 +0.00    +0.130 C  
DOCKED: ATOM      3  C   UNL     1     -41.860 -23.331   6.994 -0.27 +0.00    +0.004 A  
DOCKED: ATOM      4  C   UNL     1     -42.381 -24.591   6.733 -0.30 +0.00    +0.006 A  
DOCKED: ATOM      5  C   UNL     1     -42.462 -25.371   7.988 -0.06 +0.00    +0.169 C  
DOCKED: ATOM      6  C   UNL     1     -41.705 -22.400   5.977 -0.32 -0.00    -0.001 A  
DOCKED: ATOM      7  C   UNL     1     -42.758 -24.963   5.454 -0.42 +0.00    +0.008 A  
DOCKED: ATOM      8  C   UNL     1     -42.077 -22.763   4.681 -0.06 +0.00    +0.010 A  
DOCKED: ATOM      9  C   UNL     1     -42.601 -24.038   4.422 -0.40 +0.00    +0.068 A  
DOCKED: ATOM     10  N   UNL     1     -43.287 -24.676   2.006 -2.50 -0.00    -0.191 NA 
DOCKED: ATOM     11  C   UNL     1     -42.979 -24.390   3.089 -0.47 +0.00    +0.101 C  
DOCKED: ENDROOT
DOCKED: BRANCH   2  12
DOCKED: ATOM     12  C   UNL     1     -42.445 -22.200   9.171 -0.08 +0.00    +0.038 C  
DOCKED: BRANCH  12  13
DOCKED: ATOM     13  C   UNL     1     -43.817 -22.108   8.507 -0.11 +0.00    +0.038 C  
DOCKED: BRANCH  13  14
DOCKED: ATOM     14  C   UNL     1     -44.884 -22.802   9.351 -0.02 +0.00    +0.251 C  
DOCKED: BRANCH  14  15
DOCKED: ATOM     15  N   UNL     1     -44.918 -24.229   9.052 -0.09 +0.00    +0.141 N  
DOCKED: ATOM     16  C   UNL     1     -45.052 -25.011  10.282 -0.06 +0.00    +0.285 C  
DOCKED: ATOM     17  C   UNL     1     -46.015 -24.537   8.133 -0.07 +0.00    +0.285 C  
DOCKED: ENDBRANCH  14  15
DOCKED: ENDBRANCH  13  14
DOCKED: ENDBRANCH  12  13
DOCKED: ENDBRANCH   2  12
DOCKED: BRANCH   2  18
DOCKED: ATOM     18  C   UNL     1     -40.108 -22.927   8.724 -0.18 +0.00    +0.006 A  
DOCKED: ATOM     19  C   UNL     1     -39.394 -22.079   7.879 -0.15 +0.00    +0.001 A  
DOCKED: ATOM     20  C   UNL     1     -38.046 -21.820   8.129 -0.10 +0.00    +0.029 A  
DOCKED: ATOM     21  C   UNL     1     -37.414 -22.408   9.224 -0.10 +0.00    +0.140 A  
DOCKED: ATOM     22  C   UNL     1     -38.129 -23.256  10.069 -0.08 +0.00    +0.029 A  
DOCKED: ATOM     23  F   UNL     1     -36.121 -22.157   9.465 -0.01 -0.00    -0.204 F  
DOCKED: ATOM     24  C   UNL     1     -39.477 -23.516   9.820 -0.11 +0.00    +0.001 A  
DOCKED: ENDBRANCH   2  18
DOCKED: TORSDOF 5
DOCKED: TER
DOCKED: ENDMDL
________________________________________________________________________________


    FINAL DOCKED STATE:
    ________________________


Run:   33 / 512
Time taken for this run:   0.002s

DOCKED: MODEL        33
DOCKED: USER    Run = 33
DOCKED: USER
DOCKED: USER    Estimated Free Energy of Binding    =  -5.63 kcal/mol  [=(1)+(2)+(3)-(4)]
DOCKED: USER
DOCKED: USER    (1) Final Intermolecular Energy     =  -7.12 kcal/mol
DOCKED: USER        vdW + Hbond + desolv Energy     =  -7.12 kcal/mol
DOCKED: USER        Electrostatic Energy            =  +0.00 kcal/mol
DOCKED: USER        Moving Ligand-Fixed Receptor    =  -7.12 kcal/mol
DOCKED: USER        Moving Ligand-Moving Receptor   =  +0.00 kcal/mol
DOCKED: USER    (2) Final Total Internal Energy     =  -1.50 kcal/mol
DOCKED: USER    (3) Torsional Free Energy           =  +1.49 kcal/mol
DOCKED: USER    (4) Unbound System's Energy         =  -1.50 kcal/mol
DOCKED: USER
DOCKED: USER
DOCKED: REMARK  5 active torsions:
DOCKED: REMARK  status: ('A' for Active; 'I' for Inactive)
DOCKED: REMARK    1  A    between atoms: C_2  and  C_19 
DOCKED: REMARK    2  A    between atoms: C_2  and  C_11 
DOCKED: REMARK    3  A    between atoms: C_19  and  C_20 
DOCKED: REMARK    4  A    between atoms: C_20  and  C_21 
DOCKED: REMARK    5  A    between atoms: C_21  and  N_22 
DOCKED: USER                              x       y       z     vdW  Elec       q    Type
DOCKED: USER                           _______ _______ _______ _____ _____    ______ ____
DOCKED: ROOT
DOCKED: ATOM      1  O   UNL     1     -41.343 -22.017   8.106 -0.03 -0.00    -0.346 OA 
DOCKED: ATOM      2  C   UNL     1     -40.931 -23.421   8.072 -0.21 +0.00    +0.130 C  
DOCKED: ATOM      3  C   UNL     1     -41.400 -23.901   6.729 -0.34 +0.00    +0.004 A  
DOCKED: ATOM      4  C   UNL     1     -41.934 -22.839   6.014 -0.34 +0.00    +0.006 A  
DOCKED: ATOM      5  C   UNL     1     -41.845 -21.598   6.815 -0.22 +0.00    +0.169 C  
DOCKED: ATOM      6  C   UNL     1     -41.348 -25.174   6.180 -0.31 -0.00    -0.001 A  
DOCKED: ATOM      7  C   UNL     1     -42.435 -23.011   4.735 -0.13 +0.00    +0.008 A  
DOCKED: ATOM      8  C   UNL     1     -41.854 -25.365   4.893 -0.46 +0.00    +0.010 A  
DOCKED: ATOM      9  C   UNL     1     -42.394 -24.288   4.174 -0.42 +0.00    +0.068 A  
DOCKED: ATOM     10  N   UNL     1     -43.320 -24.676   1.786 -2.73 -0.00    -0.191 NA 
DOCKED: ATOM     11  C   UNL     1     -42.905 -24.502   2.857 -0.46 +0.00    +0.101 C  
DOCKED: ENDROOT
DOCKED: BRANCH   2  12
DOCKED: ATOM     12  C   UNL     1     -39.416 -23.483   8.228 -0.25 +0.00    +0.038 C  
DOCKED: BRANCH  12  13
DOCKED: ATOM     13  C   UNL     1     -38.774 -22.120   7.979 -0.14 +0.00    +0.038 C  
DOCKED: BRANCH  13  14
DOCKED: ATOM     14  C   UNL     1     -38.328 -21.474   9.290 -0.06 +0.00    +0.251 C  
DOCKED: BRANCH  14  15
DOCKED: ATOM     15  N   UNL     1     -39.450 -21.383  10.217 -0.03 +0.00    +0.141 N  
DOCKED: ATOM     16  C   UNL     1     -39.027 -21.733  11.574 -0.01 +0.00    +0.285 C  
DOCKED: ATOM     17  C   UNL     1     -40.028 -20.039  10.196 -0.01 +0.00    +0.285 C  
DOCKED: ENDBRANCH  14  15
DOCKED: ENDBRANCH  13  14
DOCKED: ENDBRANCH  12  13
DOCKED: ENDBRANCH   2  12
DOCKED: BRANCH   2  18
DOCKED: ATOM     18  C   UNL     1     -41.618 -24.104   9.207 -0.18 +0.00    +0.006 A  
DOCKED: ATOM     19  C   UNL     1     -40.868 -24.656  10.245 -0.19 +0.00    +0.001 A  
DOCKED: ATOM     20  C   UNL     1     -41.511 -25.295  11.305 -0.21 +0.00    +0.029 A  
DOCKED: ATOM     21  C   UNL     1     -42.902 -25.381  11.326 -0.03 +0.00    +0.140 A  
DOCKED: ATOM     22  C   UNL     1     -43.652 -24.829  10.288 -0.14 +0.00    +0.029 A  
DOCKED: ATOM     23  F   UNL     1     -43.520 -25.993  12.345 -0.04 -0.00    -0.204 F  
DOCKED: ATOM     24  C   UNL     1     -43.009 -24.190   9.227 -0.16 +0.00    +0.001 A  
DOCKED: ENDBRANCH   2  18
DOCKED: TORSDOF 5
DOCKED: TER
DOCKED: ENDMDL
________________________________________________________________________________


    FINAL DOCKED STATE:
    ________________________


Run:   34 / 512
Time taken for this run:   0.002s

DOCKED: MODEL        34
DOCKED: USER    Run = 34
DOCKED: USER
DOCKED: USER    Estimated Free Energy of Binding    =  -4.07 kcal/mol  [=(1)+(2)+(3)-(4)]
DOCKED: USER
DOCKED: USER    (1) Final Intermolecular Energy     =  -5.56 kcal/mol
DOCKED: USER        vdW + Hbond + desolv Energy     =  -5.56 kcal/mol
DOCKED: USER        Electrostatic Energy            =  +0.00 kcal/mol
DOCKED: USER        Moving Ligand-Fixed Receptor    =  -5.56 kcal/mol
DOCKED: USER        Moving Ligand-Moving Receptor   =  +0.00 kcal/mol
DOCKED: USER    (2) Final Total Internal Energy     =  -1.25 kcal/mol
DOCKED: USER    (3) Torsional Free Energy           =  +1.49 kcal/mol
DOCKED: USER    (4) Unbound System's Energy         =  -1.25 kcal/mol
DOCKED: USER
DOCKED: USER
DOCKED: REMARK  5 active torsions:
DOCKED: REMARK  status: ('A' for Active; 'I' for Inactive)
DOCKED: REMARK    1  A    between atoms: C_2  and  C_19 
DOCKED: REMARK    2  A    between atoms: C_2  and  C_11 
DOCKED: REMARK    3  A    between atoms: C_19  and  C_20 
DOCKED: REMARK    4  A    between atoms: C_20  and  C_21 
DOCKED: REMARK    5  A    between atoms: C_21  and  N_22 
DOCKED: USER                              x       y       z     vdW  Elec       q    Type
DOCKED: USER                           _______ _______ _______ _____ _____    ______ ____
DOCKED: ROOT
DOCKED: ATOM      1  O   UNL     1     -33.848 -24.598  -1.972 -0.02 -0.00    -0.346 OA 
DOCKED: ATOM      2  C   UNL     1     -33.557 -23.471  -1.086 -0.10 +0.00    +0.130 C  
DOCKED: ATOM      3  C   UNL     1     -34.012 -23.948   0.263 -0.13 +0.00    +0.004 A  
DOCKED: ATOM      4  C   UNL     1     -34.423 -25.271   0.177 -0.20 +0.00    +0.006 A  
DOCKED: ATOM      5  C   UNL     1     -34.259 -25.758  -1.211 -0.02 +0.00    +0.169 C  
DOCKED: ATOM      6  C   UNL     1     -34.048 -23.270   1.473 -0.12 -0.00    -0.001 A  
DOCKED: ATOM      7  C   UNL     1     -34.885 -25.956   1.287 -0.32 +0.00    +0.008 A  
DOCKED: ATOM      8  C   UNL     1     -34.516 -23.946   2.601 -0.22 +0.00    +0.010 A  
DOCKED: ATOM      9  C   UNL     1     -34.932 -25.282   2.508 -0.32 +0.00    +0.068 A  
DOCKED: ATOM     10  N   UNL     1     -35.790 -26.509   4.623 -2.67 -0.00    -0.191 NA 
DOCKED: ATOM     11  C   UNL     1     -35.406 -25.959   3.674 -0.33 +0.00    +0.101 C  
DOCKED: ENDROOT
DOCKED: BRANCH   2  12
DOCKED: ATOM     12  C   UNL     1     -32.061 -23.186  -1.141 -0.03 +0.00    +0.038 C  
DOCKED: BRANCH  12  13
DOCKED: ATOM     13  C   UNL     1     -31.259 -24.283  -0.444 -0.03 +0.00    +0.038 C  
DOCKED: BRANCH  13  14
DOCKED: ATOM     14  C   UNL     1     -30.387 -23.704   0.668 -0.01 +0.00    +0.251 C  
DOCKED: BRANCH  14  15
DOCKED: ATOM     15  N   UNL     1     -30.957 -24.013   1.974 -0.02 +0.00    +0.141 N  
DOCKED: ATOM     16  C   UNL     1     -30.560 -25.354   2.406 -0.05 +0.00    +0.285 C  
DOCKED: ATOM     17  C   UNL     1     -30.546 -23.018   2.965 -0.00 +0.00    +0.285 C  
DOCKED: ENDBRANCH  14  15
DOCKED: ENDBRANCH  13  14
DOCKED: ENDBRANCH  12  13
DOCKED: ENDBRANCH   2  12
DOCKED: BRANCH   2  18
DOCKED: ATOM     18  C   UNL     1     -34.346 -22.307  -1.587 -0.09 +0.00    +0.006 A  
DOCKED: ATOM     19  C   UNL     1     -34.953 -21.436  -0.683 -0.12 +0.00    +0.001 A  
DOCKED: ATOM     20  C   UNL     1     -35.691 -20.349  -1.153 -0.17 +0.00    +0.029 A  
DOCKED: ATOM     21  C   UNL     1     -35.819 -20.134  -2.525 -0.18 +0.00    +0.140 A  
DOCKED: ATOM     22  C   UNL     1     -35.211 -21.005  -3.428 -0.19 +0.00    +0.029 A  
DOCKED: ATOM     23  F   UNL     1     -36.525 -19.089  -2.975 -0.09 -0.00    -0.204 F  
DOCKED: ATOM     24  C   UNL     1     -34.473 -22.094  -2.959 -0.14 +0.00    +0.001 A  
DOCKED: ENDBRANCH   2  18
DOCKED: TORSDOF 5
DOCKED: TER
DOCKED: ENDMDL
________________________________________________________________________________


    FINAL DOCKED STATE:
    ________________________


Run:   35 / 512
Time taken for this run:   0.002s

DOCKED: MODEL        35
DOCKED: USER    Run = 35
DOCKED: USER
DOCKED: USER    Estimated Free Energy of Binding    =  -3.64 kcal/mol  [=(1)+(2)+(3)-(4)]
DOCKED: USER
DOCKED: USER    (1) Final Intermolecular Energy     =  -5.13 kcal/mol
DOCKED: USER        vdW + Hbond + desolv Energy     =  -5.13 kcal/mol
DOCKED: USER        Electrostatic Energy            =  +0.00 kcal/mol
DOCKED: USER        Moving Ligand-Fixed Receptor    =  -5.13 kcal/mol
DOCKED: USER        Moving Ligand-Moving Receptor   =  +0.00 kcal/mol
DOCKED: USER    (2) Final Total Internal Energy     =  -1.25 kcal/mol
DOCKED: USER    (3) Torsional Free Energy           =  +1.49 kcal/mol
DOCKED: USER    (4) Unbound System's Energy         =  -1.25 kcal/mol
DOCKED: USER
DOCKED: USER
DOCKED: REMARK  5 active torsions:
DOCKED: REMARK  status: ('A' for Active; 'I' for Inactive)
DOCKED: REMARK    1  A    between atoms: C_2  and  C_19 
DOCKED: REMARK    2  A    between atoms: C_2  and  C_11 
DOCKED: REMARK    3  A    between atoms: C_19  and  C_20 
DOCKED: REMARK    4  A    between atoms: C_20  and  C_21 
DOCKED: REMARK    5  A    between atoms: C_21  and  N_22 
DOCKED: USER                              x       y       z     vdW  Elec       q    Type
DOCKED: USER                           _______ _______ _______ _____ _____    ______ ____
DOCKED: ROOT
DOCKED: ATOM      1  O   UNL     1     -41.759 -21.425  10.139 -0.00 -0.00    -0.346 OA 
DOCKED: ATOM      2  C   UNL     1     -40.847 -21.169   9.023 -0.06 +0.00    +0.130 C  
DOCKED: ATOM      3  C   UNL     1     -41.222 -22.208   8.006 -0.16 +0.00    +0.004 A  
DOCKED: ATOM      4  C   UNL     1     -42.325 -22.922   8.453 -0.12 +0.00    +0.006 A  
DOCKED: ATOM      5  C   UNL     1     -42.757 -22.406   9.771 -0.04 +0.00    +0.169 C  
DOCKED: ATOM      6  C   UNL     1     -40.642 -22.489   6.778 -0.24 -0.00    -0.001 A  
DOCKED: ATOM      7  C   UNL     1     -42.879 -23.939   7.695 -0.19 +0.00    +0.008 A  
DOCKED: ATOM      8  C   UNL     1     -41.187 -23.516   6.004 -0.30 +0.00    +0.010 A  
DOCKED: ATOM      9  C   UNL     1     -42.300 -24.236   6.461 -0.28 +0.00    +0.068 A  
DOCKED: ATOM     10  N   UNL     1     -43.290 -26.132   4.998 -2.37 -0.00    -0.191 NA 
DOCKED: ATOM     11  C   UNL     1     -42.846 -25.282   5.654 -0.29 +0.00    +0.101 C  
DOCKED: ENDROOT
DOCKED: BRANCH   2  12
DOCKED: ATOM     12  C   UNL     1     -41.074 -19.745   8.530 -0.07 +0.00    +0.038 C  
DOCKED: BRANCH  12  13
DOCKED: ATOM     13  C   UNL     1     -42.288 -19.663   7.607 -0.16 +0.00    +0.038 C  
DOCKED: BRANCH  13  14
DOCKED: ATOM     14  C   UNL     1     -43.590 -19.685   8.406 -0.05 +0.00    +0.251 C  
DOCKED: BRANCH  14  15
DOCKED: ATOM     15  N   UNL     1     -44.736 -19.755   7.508 -0.14 +0.00    +0.141 N  
DOCKED: ATOM     16  C   UNL     1     -44.645 -18.722   6.475 -0.14 +0.00    +0.285 C  
DOCKED: ATOM     17  C   UNL     1     -44.830 -21.080   6.894 -0.12 +0.00    +0.285 C  
DOCKED: ENDBRANCH  14  15
DOCKED: ENDBRANCH  13  14
DOCKED: ENDBRANCH  12  13
DOCKED: ENDBRANCH   2  12
DOCKED: BRANCH   2  18
DOCKED: ATOM     18  C   UNL     1     -39.460 -21.343   9.546 -0.07 +0.00    +0.006 A  
DOCKED: ATOM     19  C   UNL     1     -38.776 -22.537   9.325 -0.14 +0.00    +0.001 A  
DOCKED: ATOM     20  C   UNL     1     -37.479 -22.698   9.815 -0.11 +0.00    +0.029 A  
DOCKED: ATOM     21  C   UNL     1     -36.869 -21.665  10.524 -0.03 +0.00    +0.140 A  
DOCKED: ATOM     22  C   UNL     1     -37.553 -20.470  10.745 -0.02 +0.00    +0.029 A  
DOCKED: ATOM     23  F   UNL     1     -35.623 -21.819  10.993 +0.00 -0.00    -0.204 F  
DOCKED: ATOM     24  C   UNL     1     -38.851 -20.308  10.256 -0.02 +0.00    +0.001 A  
DOCKED: ENDBRANCH   2  18
DOCKED: TORSDOF 5
DOCKED: TER
DOCKED: ENDMDL
________________________________________________________________________________


    FINAL DOCKED STATE:
    ________________________


Run:   36 / 512
Time taken for this run:   0.002s

DOCKED: MODEL        36
DOCKED: USER    Run = 36
DOCKED: USER
DOCKED: USER    Estimated Free Energy of Binding    =  -4.29 kcal/mol  [=(1)+(2)+(3)-(4)]
DOCKED: USER
DOCKED: USER    (1) Final Intermolecular Energy     =  -5.78 kcal/mol
DOCKED: USER        vdW + Hbond + desolv Energy     =  -5.78 kcal/mol
DOCKED: USER        Electrostatic Energy            =  +0.00 kcal/mol
DOCKED: USER        Moving Ligand-Fixed Receptor    =  -5.78 kcal/mol
DOCKED: USER        Moving Ligand-Moving Receptor   =  +0.00 kcal/mol
DOCKED: USER    (2) Final Total Internal Energy     =  -1.10 kcal/mol
DOCKED: USER    (3) Torsional Free Energy           =  +1.49 kcal/mol
DOCKED: USER    (4) Unbound System's Energy         =  -1.10 kcal/mol
DOCKED: USER
DOCKED: USER
DOCKED: REMARK  5 active torsions:
DOCKED: REMARK  status: ('A' for Active; 'I' for Inactive)
DOCKED: REMARK    1  A    between atoms: C_2  and  C_19 
DOCKED: REMARK    2  A    between atoms: C_2  and  C_11 
DOCKED: REMARK    3  A    between atoms: C_19  and  C_20 
DOCKED: REMARK    4  A    between atoms: C_20  and  C_21 
DOCKED: REMARK    5  A    between atoms: C_21  and  N_22 
DOCKED: USER                              x       y       z     vdW  Elec       q    Type
DOCKED: USER                           _______ _______ _______ _____ _____    ______ ____
DOCKED: ROOT
DOCKED: ATOM      1  O   UNL     1     -44.173 -19.586   7.901 -0.04 -0.00    -0.346 OA 
DOCKED: ATOM      2  C   UNL     1     -42.869 -19.560   7.238 -0.18 +0.00    +0.130 C  
DOCKED: ATOM      3  C   UNL     1     -42.684 -20.969   6.753 -0.23 +0.00    +0.004 A  
DOCKED: ATOM      4  C   UNL     1     -43.829 -21.708   7.018 -0.21 +0.00    +0.006 A  
DOCKED: ATOM      5  C   UNL     1     -44.840 -20.849   7.675 -0.14 +0.00    +0.169 C  
DOCKED: ATOM      6  C   UNL     1     -41.595 -21.547   6.118 -0.26 -0.00    -0.001 A  
DOCKED: ATOM      7  C   UNL     1     -43.923 -23.043   6.664 -0.23 +0.00    +0.008 A  
DOCKED: ATOM      8  C   UNL     1     -41.673 -22.894   5.758 -0.34 +0.00    +0.010 A  
DOCKED: ATOM      9  C   UNL     1     -42.831 -23.637   6.030 -0.27 +0.00    +0.068 A  
DOCKED: ATOM     10  N   UNL     1     -42.944 -26.134   5.345 -2.61 -0.00    -0.191 NA 
DOCKED: ATOM     11  C   UNL     1     -42.893 -25.014   5.653 -0.38 +0.00    +0.101 C  
DOCKED: ENDROOT
DOCKED: BRANCH   2  12
DOCKED: ATOM     12  C   UNL     1     -42.925 -18.544   6.103 -0.15 +0.00    +0.038 C  
DOCKED: BRANCH  12  13
DOCKED: ATOM     13  C   UNL     1     -43.078 -17.121   6.636 -0.16 +0.00    +0.038 C  
DOCKED: BRANCH  13  14
DOCKED: ATOM     14  C   UNL     1     -44.543 -16.690   6.640 -0.09 +0.00    +0.251 C  
DOCKED: BRANCH  14  15
DOCKED: ATOM     15  N   UNL     1     -44.861 -15.961   5.418 -0.13 +0.00    +0.141 N  
DOCKED: ATOM     16  C   UNL     1     -46.280 -16.102   5.087 -0.12 +0.00    +0.285 C  
DOCKED: ATOM     17  C   UNL     1     -44.510 -14.547   5.555 -0.04 +0.00    +0.285 C  
DOCKED: ENDBRANCH  14  15
DOCKED: ENDBRANCH  13  14
DOCKED: ENDBRANCH  12  13
DOCKED: ENDBRANCH   2  12
DOCKED: BRANCH   2  18
DOCKED: ATOM     18  C   UNL     1     -41.864 -19.162   8.266 -0.07 +0.00    +0.006 A  
DOCKED: ATOM     19  C   UNL     1     -42.255 -18.990   9.593 -0.02 +0.00    +0.001 A  
DOCKED: ATOM     20  C   UNL     1     -41.314 -18.618  10.554 -0.01 +0.00    +0.029 A  
DOCKED: ATOM     21  C   UNL     1     -39.984 -18.420  10.187 -0.00 +0.00    +0.140 A  
DOCKED: ATOM     22  C   UNL     1     -39.593 -18.592   8.860 -0.03 +0.00    +0.029 A  
DOCKED: ATOM     23  F   UNL     1     -39.081 -18.064  11.110 -0.00 -0.00    -0.204 F  
DOCKED: ATOM     24  C   UNL     1     -40.534 -18.964   7.898 -0.08 +0.00    +0.001 A  
DOCKED: ENDBRANCH   2  18
DOCKED: TORSDOF 5
DOCKED: TER
DOCKED: ENDMDL
________________________________________________________________________________


    FINAL DOCKED STATE:
    ________________________


Run:   37 / 512
Time taken for this run:   0.002s

DOCKED: MODEL        37
DOCKED: USER    Run = 37
DOCKED: USER
DOCKED: USER    Estimated Free Energy of Binding    =  -3.99 kcal/mol  [=(1)+(2)+(3)-(4)]
DOCKED: USER
DOCKED: USER    (1) Final Intermolecular Energy     =  -5.49 kcal/mol
DOCKED: USER        vdW + Hbond + desolv Energy     =  -5.49 kcal/mol
DOCKED: USER        Electrostatic Energy            =  +0.00 kcal/mol
DOCKED: USER        Moving Ligand-Fixed Receptor    =  -5.49 kcal/mol
DOCKED: USER        Moving Ligand-Moving Receptor   =  +0.00 kcal/mol
DOCKED: USER    (2) Final Total Internal Energy     =  -1.41 kcal/mol
DOCKED: USER    (3) Torsional Free Energy           =  +1.49 kcal/mol
DOCKED: USER    (4) Unbound System's Energy         =  -1.41 kcal/mol
DOCKED: USER
DOCKED: USER
DOCKED: REMARK  5 active torsions:
DOCKED: REMARK  status: ('A' for Active; 'I' for Inactive)
DOCKED: REMARK    1  A    between atoms: C_2  and  C_19 
DOCKED: REMARK    2  A    between atoms: C_2  and  C_11 
DOCKED: REMARK    3  A    between atoms: C_19  and  C_20 
DOCKED: REMARK    4  A    between atoms: C_20  and  C_21 
DOCKED: REMARK    5  A    between atoms: C_21  and  N_22 
DOCKED: USER                              x       y       z     vdW  Elec       q    Type
DOCKED: USER                           _______ _______ _______ _____ _____    ______ ____
DOCKED: ROOT
DOCKED: ATOM      1  O   UNL     1     -33.054 -23.230  -1.732 -0.00 -0.00    -0.346 OA 
DOCKED: ATOM      2  C   UNL     1     -33.600 -22.195  -0.853 -0.08 +0.00    +0.130 C  
DOCKED: ATOM      3  C   UNL     1     -34.173 -22.968   0.300 -0.12 +0.00    +0.004 A  
DOCKED: ATOM      4  C   UNL     1     -33.882 -24.316   0.148 -0.14 +0.00    +0.006 A  
DOCKED: ATOM      5  C   UNL     1     -33.098 -24.525  -1.090 -0.07 +0.00    +0.169 C  
DOCKED: ATOM      6  C   UNL     1     -34.884 -22.513   1.400 -0.16 -0.00    -0.001 A  
DOCKED: ATOM      7  C   UNL     1     -34.293 -25.252   1.082 -0.23 +0.00    +0.008 A  
DOCKED: ATOM      8  C   UNL     1     -35.309 -23.444   2.349 -0.28 +0.00    +0.010 A  
DOCKED: ATOM      9  C   UNL     1     -35.015 -24.807   2.191 -0.29 +0.00    +0.068 A  
DOCKED: ATOM     10  N   UNL     1     -35.815 -26.508   3.973 -2.57 -0.00    -0.191 NA 
DOCKED: ATOM     11  C   UNL     1     -35.457 -25.745   3.174 -0.42 +0.00    +0.101 C  
DOCKED: ENDROOT
DOCKED: BRANCH   2  12
DOCKED: ATOM     12  C   UNL     1     -32.465 -21.265  -0.439 -0.02 +0.00    +0.038 C  
DOCKED: BRANCH  12  13
DOCKED: ATOM     13  C   UNL     1     -31.159 -21.636  -1.137 -0.00 +0.00    +0.038 C  
DOCKED: BRANCH  13  14
DOCKED: ATOM     14  C   UNL     1     -31.038 -20.932  -2.487 +0.00 +0.00    +0.251 C  
DOCKED: BRANCH  14  15
DOCKED: ATOM     15  N   UNL     1     -31.937 -19.786  -2.543 -0.00 +0.00    +0.141 N  
DOCKED: ATOM     16  C   UNL     1     -31.271 -18.582  -2.044 +0.00 +0.00    +0.285 C  
DOCKED: ATOM     17  C   UNL     1     -32.414 -19.571  -3.911 +0.00 +0.00    +0.285 C  
DOCKED: ENDBRANCH  14  15
DOCKED: ENDBRANCH  13  14
DOCKED: ENDBRANCH  12  13
DOCKED: ENDBRANCH   2  12
DOCKED: BRANCH   2  18
DOCKED: ATOM     18  C   UNL     1     -34.638 -21.462  -1.635 -0.13 +0.00    +0.006 A  
DOCKED: ATOM     19  C   UNL     1     -34.848 -21.773  -2.978 -0.14 +0.00    +0.001 A  
DOCKED: ATOM     20  C   UNL     1     -35.819 -21.086  -3.708 -0.20 +0.00    +0.029 A  
DOCKED: ATOM     21  C   UNL     1     -36.579 -20.091  -3.094 -0.17 +0.00    +0.140 A  
DOCKED: ATOM     22  C   UNL     1     -36.369 -19.781  -1.751 -0.19 +0.00    +0.029 A  
DOCKED: ATOM     23  F   UNL     1     -37.512 -19.434  -3.795 -0.11 -0.00    -0.204 F  
DOCKED: ATOM     24  C   UNL     1     -35.398 -20.467  -1.020 -0.15 +0.00    +0.001 A  
DOCKED: ENDBRANCH   2  18
DOCKED: TORSDOF 5
DOCKED: TER
DOCKED: ENDMDL
________________________________________________________________________________


    FINAL DOCKED STATE:
    ________________________


Run:   38 / 512
Time taken for this run:   0.002s

DOCKED: MODEL        38
DOCKED: USER    Run = 38
DOCKED: USER
DOCKED: USER    Estimated Free Energy of Binding    =  -4.75 kcal/mol  [=(1)+(2)+(3)-(4)]
DOCKED: USER
DOCKED: USER    (1) Final Intermolecular Energy     =  -6.24 kcal/mol
DOCKED: USER        vdW + Hbond + desolv Energy     =  -6.24 kcal/mol
DOCKED: USER        Electrostatic Energy            =  +0.00 kcal/mol
DOCKED: USER        Moving Ligand-Fixed Receptor    =  -6.24 kcal/mol
DOCKED: USER        Moving Ligand-Moving Receptor   =  +0.00 kcal/mol
DOCKED: USER    (2) Final Total Internal Energy     =  -1.39 kcal/mol
DOCKED: USER    (3) Torsional Free Energy           =  +1.49 kcal/mol
DOCKED: USER    (4) Unbound System's Energy         =  -1.39 kcal/mol
DOCKED: USER
DOCKED: USER
DOCKED: REMARK  5 active torsions:
DOCKED: REMARK  status: ('A' for Active; 'I' for Inactive)
DOCKED: REMARK    1  A    between atoms: C_2  and  C_19 
DOCKED: REMARK    2  A    between atoms: C_2  and  C_11 
DOCKED: REMARK    3  A    between atoms: C_19  and  C_20 
DOCKED: REMARK    4  A    between atoms: C_20  and  C_21 
DOCKED: REMARK    5  A    between atoms: C_21  and  N_22 
DOCKED: USER                              x       y       z     vdW  Elec       q    Type
DOCKED: USER                           _______ _______ _______ _____ _____    ______ ____
DOCKED: ROOT
DOCKED: ATOM      1  O   UNL     1     -40.856 -19.429   6.699 -0.08 -0.00    -0.346 OA 
DOCKED: ATOM      2  C   UNL     1     -42.112 -19.654   7.414 -0.15 +0.00    +0.130 C  
DOCKED: ATOM      3  C   UNL     1     -42.480 -21.066   7.059 -0.22 +0.00    +0.004 A  
DOCKED: ATOM      4  C   UNL     1     -41.469 -21.634   6.298 -0.28 +0.00    +0.006 A  
DOCKED: ATOM      5  C   UNL     1     -40.372 -20.658   6.110 -0.08 +0.00    +0.169 C  
DOCKED: ATOM      6  C   UNL     1     -43.614 -21.792   7.392 -0.19 -0.00    -0.001 A  
DOCKED: ATOM      7  C   UNL     1     -41.556 -22.939   5.842 -0.33 +0.00    +0.008 A  
DOCKED: ATOM      8  C   UNL     1     -43.719 -23.108   6.936 -0.21 +0.00    +0.010 A  
DOCKED: ATOM      9  C   UNL     1     -42.695 -23.678   6.165 -0.27 +0.00    +0.068 A  
DOCKED: ATOM     10  N   UNL     1     -42.919 -26.123   5.340 -2.61 -0.00    -0.191 NA 
DOCKED: ATOM     11  C   UNL     1     -42.819 -25.026   5.709 -0.37 +0.00    +0.101 C  
DOCKED: ENDROOT
DOCKED: BRANCH   2  12
DOCKED: ATOM     12  C   UNL     1     -41.860 -19.465   8.905 -0.05 +0.00    +0.038 C  
DOCKED: BRANCH  12  13
DOCKED: ATOM     13  C   UNL     1     -41.427 -20.772   9.567 -0.04 +0.00    +0.038 C  
DOCKED: BRANCH  13  14
DOCKED: ATOM     14  C   UNL     1     -39.923 -20.991   9.418 -0.03 +0.00    +0.251 C  
DOCKED: BRANCH  14  15
DOCKED: ATOM     15  N   UNL     1     -39.659 -22.264   8.757 -0.11 +0.00    +0.141 N  
DOCKED: ATOM     16  C   UNL     1     -38.226 -22.562   8.763 -0.11 +0.00    +0.285 C  
DOCKED: ATOM     17  C   UNL     1     -40.405 -23.345   9.404 -0.08 +0.00    +0.285 C  
DOCKED: ENDBRANCH  14  15
DOCKED: ENDBRANCH  13  14
DOCKED: ENDBRANCH  12  13
DOCKED: ENDBRANCH   2  12
DOCKED: BRANCH   2  18
DOCKED: ATOM     18  C   UNL     1     -43.092 -18.652   6.903 -0.20 +0.00    +0.006 A  
DOCKED: ATOM     19  C   UNL     1     -42.664 -17.627   6.060 -0.17 +0.00    +0.001 A  
DOCKED: ATOM     20  C   UNL     1     -43.581 -16.690   5.582 -0.15 +0.00    +0.029 A  
DOCKED: ATOM     21  C   UNL     1     -44.924 -16.779   5.948 -0.11 +0.00    +0.140 A  
DOCKED: ATOM     22  C   UNL     1     -45.351 -17.804   6.791 -0.18 +0.00    +0.029 A  
DOCKED: ATOM     23  F   UNL     1     -45.804 -15.880   5.488 -0.02 -0.00    -0.204 F  
DOCKED: ATOM     24  C   UNL     1     -44.434 -18.742   7.269 -0.19 +0.00    +0.001 A  
DOCKED: ENDBRANCH   2  18
DOCKED: TORSDOF 5
DOCKED: TER
DOCKED: ENDMDL
________________________________________________________________________________


    FINAL DOCKED STATE:
    ________________________


Run:   39 / 512
Time taken for this run:   0.002s

DOCKED: MODEL        39
DOCKED: USER    Run = 39
DOCKED: USER
DOCKED: USER    Estimated Free Energy of Binding    =  -4.30 kcal/mol  [=(1)+(2)+(3)-(4)]
DOCKED: USER
DOCKED: USER    (1) Final Intermolecular Energy     =  -5.79 kcal/mol
DOCKED: USER        vdW + Hbond + desolv Energy     =  -5.79 kcal/mol
DOCKED: USER        Electrostatic Energy            =  +0.00 kcal/mol
DOCKED: USER        Moving Ligand-Fixed Receptor    =  -5.79 kcal/mol
DOCKED: USER        Moving Ligand-Moving Receptor   =  +0.00 kcal/mol
DOCKED: USER    (2) Final Total Internal Energy     =  -1.42 kcal/mol
DOCKED: USER    (3) Torsional Free Energy           =  +1.49 kcal/mol
DOCKED: USER    (4) Unbound System's Energy         =  -1.42 kcal/mol
DOCKED: USER
DOCKED: USER
DOCKED: REMARK  5 active torsions:
DOCKED: REMARK  status: ('A' for Active; 'I' for Inactive)
DOCKED: REMARK    1  A    between atoms: C_2  and  C_19 
DOCKED: REMARK    2  A    between atoms: C_2  and  C_11 
DOCKED: REMARK    3  A    between atoms: C_19  and  C_20 
DOCKED: REMARK    4  A    between atoms: C_20  and  C_21 
DOCKED: REMARK    5  A    between atoms: C_21  and  N_22 
DOCKED: USER                              x       y       z     vdW  Elec       q    Type
DOCKED: USER                           _______ _______ _______ _____ _____    ______ ____
DOCKED: ROOT
DOCKED: ATOM      1  O   UNL     1     -37.512 -15.778   0.023 -0.05 -0.00    -0.346 OA 
DOCKED: ATOM      2  C   UNL     1     -36.490 -15.737  -1.023 -0.10 +0.00    +0.130 C  
DOCKED: ATOM      3  C   UNL     1     -37.160 -15.010  -2.153 -0.19 +0.00    +0.004 A  
DOCKED: ATOM      4  C   UNL     1     -38.415 -14.575  -1.749 -0.29 +0.00    +0.006 A  
DOCKED: ATOM      5  C   UNL     1     -38.653 -14.968  -0.342 -0.18 +0.00    +0.169 C  
DOCKED: ATOM      6  C   UNL     1     -36.692 -14.744  -3.431 -0.15 -0.00    -0.001 A  
DOCKED: ATOM      7  C   UNL     1     -39.242 -13.868  -2.604 -0.37 +0.00    +0.008 A  
DOCKED: ATOM      8  C   UNL     1     -37.517 -14.035  -4.307 -0.23 +0.00    +0.010 A  
DOCKED: ATOM      9  C   UNL     1     -38.785 -13.600  -3.895 -0.26 +0.00    +0.068 A  
DOCKED: ATOM     10  N   UNL     1     -40.288 -12.283  -5.545 -2.55 -0.00    -0.191 NA 
DOCKED: ATOM     11  C   UNL     1     -39.614 -12.874  -4.805 -0.35 +0.00    +0.101 C  
DOCKED: ENDROOT
DOCKED: BRANCH   2  12
DOCKED: ATOM     12  C   UNL     1     -35.273 -14.998  -0.481 -0.08 +0.00    +0.038 C  
DOCKED: BRANCH  12  13
DOCKED: ATOM     13  C   UNL     1     -35.347 -14.841   1.037 -0.11 +0.00    +0.038 C  
DOCKED: BRANCH  13  14
DOCKED: ATOM     14  C   UNL     1     -34.944 -16.134   1.743 -0.02 +0.00    +0.251 C  
DOCKED: BRANCH  14  15
DOCKED: ATOM     15  N   UNL     1     -35.672 -16.275   2.998 -0.02 +0.00    +0.141 N  
DOCKED: ATOM     16  C   UNL     1     -36.057 -14.964   3.522 -0.07 +0.00    +0.285 C  
DOCKED: ATOM     17  C   UNL     1     -36.856 -17.116   2.816 -0.03 +0.00    +0.285 C  
DOCKED: ENDBRANCH  14  15
DOCKED: ENDBRANCH  13  14
DOCKED: ENDBRANCH  12  13
DOCKED: ENDBRANCH   2  12
DOCKED: BRANCH   2  18
DOCKED: ATOM     18  C   UNL     1     -36.154 -17.152  -1.361 -0.08 +0.00    +0.006 A  
DOCKED: ATOM     19  C   UNL     1     -37.142 -18.004  -1.852 -0.21 +0.00    +0.001 A  
DOCKED: ATOM     20  C   UNL     1     -36.828 -19.326  -2.167 -0.20 +0.00    +0.029 A  
DOCKED: ATOM     21  C   UNL     1     -35.526 -19.794  -1.990 -0.14 +0.00    +0.140 A  
DOCKED: ATOM     22  C   UNL     1     -34.538 -18.941  -1.499 -0.03 +0.00    +0.029 A  
DOCKED: ATOM     23  F   UNL     1     -35.224 -21.063  -2.294 -0.08 -0.00    -0.204 F  
DOCKED: ATOM     24  C   UNL     1     -34.853 -17.618  -1.183 -0.02 +0.00    +0.001 A  
DOCKED: ENDBRANCH   2  18
DOCKED: TORSDOF 5
DOCKED: TER
DOCKED: ENDMDL
________________________________________________________________________________


    FINAL DOCKED STATE:
    ________________________


Run:   40 / 512
Time taken for this run:   0.002s

DOCKED: MODEL        40
DOCKED: USER    Run = 40
DOCKED: USER
DOCKED: USER    Estimated Free Energy of Binding    =  -4.01 kcal/mol  [=(1)+(2)+(3)-(4)]
DOCKED: USER
DOCKED: USER    (1) Final Intermolecular Energy     =  -5.51 kcal/mol
DOCKED: USER        vdW + Hbond + desolv Energy     =  -5.51 kcal/mol
DOCKED: USER        Electrostatic Energy            =  +0.00 kcal/mol
DOCKED: USER        Moving Ligand-Fixed Receptor    =  -5.51 kcal/mol
DOCKED: USER        Moving Ligand-Moving Receptor   =  +0.00 kcal/mol
DOCKED: USER    (2) Final Total Internal Energy     =  -1.24 kcal/mol
DOCKED: USER    (3) Torsional Free Energy           =  +1.49 kcal/mol
DOCKED: USER    (4) Unbound System's Energy         =  -1.24 kcal/mol
DOCKED: USER
DOCKED: USER
DOCKED: REMARK  5 active torsions:
DOCKED: REMARK  status: ('A' for Active; 'I' for Inactive)
DOCKED: REMARK    1  A    between atoms: C_2  and  C_19 
DOCKED: REMARK    2  A    between atoms: C_2  and  C_11 
DOCKED: REMARK    3  A    between atoms: C_19  and  C_20 
DOCKED: REMARK    4  A    between atoms: C_20  and  C_21 
DOCKED: REMARK    5  A    between atoms: C_21  and  N_22 
DOCKED: USER                              x       y       z     vdW  Elec       q    Type
DOCKED: USER                           _______ _______ _______ _____ _____    ______ ____
DOCKED: ROOT
DOCKED: ATOM      1  O   UNL     1     -33.271 -25.092  -2.085 -0.02 -0.00    -0.346 OA 
DOCKED: ATOM      2  C   UNL     1     -33.133 -23.876  -1.282 -0.08 +0.00    +0.130 C  
DOCKED: ATOM      3  C   UNL     1     -33.718 -24.255   0.048 -0.12 +0.00    +0.004 A  
DOCKED: ATOM      4  C   UNL     1     -34.059 -25.601   0.042 -0.19 +0.00    +0.006 A  
DOCKED: ATOM      5  C   UNL     1     -33.717 -26.200  -1.268 -0.10 +0.00    +0.169 C  
DOCKED: ATOM      6  C   UNL     1     -33.922 -23.475   1.176 -0.12 -0.00    -0.001 A  
DOCKED: ATOM      7  C   UNL     1     -34.616 -26.208   1.154 -0.30 +0.00    +0.008 A  
DOCKED: ATOM      8  C   UNL     1     -34.487 -24.072   2.305 -0.22 +0.00    +0.010 A  
DOCKED: ATOM      9  C   UNL     1     -34.831 -25.432   2.294 -0.31 +0.00    +0.068 A  
DOCKED: ATOM     10  N   UNL     1     -35.873 -26.509   4.407 -2.60 -0.00    -0.191 NA 
DOCKED: ATOM     11  C   UNL     1     -35.406 -26.026   3.459 -0.39 +0.00    +0.101 C  
DOCKED: ENDROOT
DOCKED: BRANCH   2  12
DOCKED: ATOM     12  C   UNL     1     -31.654 -23.518  -1.199 -0.02 +0.00    +0.038 C  
DOCKED: BRANCH  12  13
DOCKED: ATOM     13  C   UNL     1     -30.774 -24.676  -1.664 -0.02 +0.00    +0.038 C  
DOCKED: BRANCH  13  14
DOCKED: ATOM     14  C   UNL     1     -30.342 -25.546  -0.485 -0.02 +0.00    +0.251 C  
DOCKED: BRANCH  14  15
DOCKED: ATOM     15  N   UNL     1     -30.099 -24.721   0.692 -0.02 +0.00    +0.141 N  
DOCKED: ATOM     16  C   UNL     1     -30.282 -25.502   1.917 -0.04 +0.00    +0.285 C  
DOCKED: ATOM     17  C   UNL     1     -28.752 -24.149   0.651 -0.01 +0.00    +0.285 C  
DOCKED: ENDBRANCH  14  15
DOCKED: ENDBRANCH  13  14
DOCKED: ENDBRANCH  12  13
DOCKED: ENDBRANCH   2  12
DOCKED: BRANCH   2  18
DOCKED: ATOM     18  C   UNL     1     -33.909 -22.806  -1.975 -0.12 +0.00    +0.006 A  
DOCKED: ATOM     19  C   UNL     1     -34.455 -21.755  -1.240 -0.11 +0.00    +0.001 A  
DOCKED: ATOM     20  C   UNL     1     -35.180 -20.755  -1.889 -0.15 +0.00    +0.029 A  
DOCKED: ATOM     21  C   UNL     1     -35.357 -20.807  -3.270 -0.18 +0.00    +0.140 A  
DOCKED: ATOM     22  C   UNL     1     -34.810 -21.858  -4.005 -0.17 +0.00    +0.029 A  
DOCKED: ATOM     23  F   UNL     1     -36.052 -19.846  -3.893 -0.08 -0.00    -0.204 F  
DOCKED: ATOM     24  C   UNL     1     -34.085 -22.860  -3.357 -0.11 +0.00    +0.001 A  
DOCKED: ENDBRANCH   2  18
DOCKED: TORSDOF 5
DOCKED: TER
DOCKED: ENDMDL
________________________________________________________________________________


    FINAL DOCKED STATE:
    ________________________


Run:   41 / 512
Time taken for this run:   0.002s

DOCKED: MODEL        41
DOCKED: USER    Run = 41
DOCKED: USER
DOCKED: USER    Estimated Free Energy of Binding    =  -3.84 kcal/mol  [=(1)+(2)+(3)-(4)]
DOCKED: USER
DOCKED: USER    (1) Final Intermolecular Energy     =  -5.34 kcal/mol
DOCKED: USER        vdW + Hbond + desolv Energy     =  -5.34 kcal/mol
DOCKED: USER        Electrostatic Energy            =  +0.00 kcal/mol
DOCKED: USER        Moving Ligand-Fixed Receptor    =  -5.34 kcal/mol
DOCKED: USER        Moving Ligand-Moving Receptor   =  +0.00 kcal/mol
DOCKED: USER    (2) Final Total Internal Energy     =  -1.30 kcal/mol
DOCKED: USER    (3) Torsional Free Energy           =  +1.49 kcal/mol
DOCKED: USER    (4) Unbound System's Energy         =  -1.30 kcal/mol
DOCKED: USER
DOCKED: USER
DOCKED: REMARK  5 active torsions:
DOCKED: REMARK  status: ('A' for Active; 'I' for Inactive)
DOCKED: REMARK    1  A    between atoms: C_2  and  C_19 
DOCKED: REMARK    2  A    between atoms: C_2  and  C_11 
DOCKED: REMARK    3  A    between atoms: C_19  and  C_20 
DOCKED: REMARK    4  A    between atoms: C_20  and  C_21 
DOCKED: REMARK    5  A    between atoms: C_21  and  N_22 
DOCKED: USER                              x       y       z     vdW  Elec       q    Type
DOCKED: USER                           _______ _______ _______ _____ _____    ______ ____
DOCKED: ROOT
DOCKED: ATOM      1  O   UNL     1     -41.677 -19.144   7.380 -0.05 -0.00    -0.346 OA 
DOCKED: ATOM      2  C   UNL     1     -40.662 -20.031   7.950 -0.10 +0.00    +0.130 C  
DOCKED: ATOM      3  C   UNL     1     -41.083 -21.398   7.494 -0.19 +0.00    +0.004 A  
DOCKED: ATOM      4  C   UNL     1     -42.177 -21.292   6.647 -0.25 +0.00    +0.006 A  
DOCKED: ATOM      5  C   UNL     1     -42.543 -19.868   6.476 -0.17 +0.00    +0.169 C  
DOCKED: ATOM      6  C   UNL     1     -40.534 -22.636   7.795 -0.22 -0.00    -0.001 A  
DOCKED: ATOM      7  C   UNL     1     -42.760 -22.412   6.079 -0.26 +0.00    +0.008 A  
DOCKED: ATOM      8  C   UNL     1     -41.113 -23.775   7.233 -0.31 +0.00    +0.010 A  
DOCKED: ATOM      9  C   UNL     1     -42.220 -23.663   6.379 -0.28 +0.00    +0.068 A  
DOCKED: ATOM     10  N   UNL     1     -43.268 -25.797   5.349 -2.56 -0.00    -0.191 NA 
DOCKED: ATOM     11  C   UNL     1     -42.799 -24.840   5.811 -0.36 +0.00    +0.101 C  
DOCKED: ENDROOT
DOCKED: BRANCH   2  12
DOCKED: ATOM     12  C   UNL     1     -39.299 -19.618   7.406 -0.13 +0.00    +0.038 C  
DOCKED: BRANCH  12  13
DOCKED: ATOM     13  C   UNL     1     -39.240 -19.759   5.887 -0.15 +0.00    +0.038 C  
DOCKED: BRANCH  13  14
DOCKED: ATOM     14  C   UNL     1     -38.794 -18.453   5.231 -0.10 +0.00    +0.251 C  
DOCKED: BRANCH  14  15
DOCKED: ATOM     15  N   UNL     1     -39.613 -17.343   5.703 -0.07 +0.00    +0.141 N  
DOCKED: ATOM     16  C   UNL     1     -38.787 -16.343   6.381 -0.02 +0.00    +0.285 C  
DOCKED: ATOM     17  C   UNL     1     -40.341 -16.729   4.590 -0.05 +0.00    +0.285 C  
DOCKED: ENDBRANCH  14  15
DOCKED: ENDBRANCH  13  14
DOCKED: ENDBRANCH  12  13
DOCKED: ENDBRANCH   2  12
DOCKED: BRANCH   2  18
DOCKED: ATOM     18  C   UNL     1     -40.722 -19.869   9.432 -0.03 +0.00    +0.006 A  
DOCKED: ATOM     19  C   UNL     1     -41.930 -20.053  10.104 -0.02 +0.00    +0.001 A  
DOCKED: ATOM     20  C   UNL     1     -41.985 -19.900  11.490 -0.00 +0.00    +0.029 A  
DOCKED: ATOM     21  C   UNL     1     -40.834 -19.564  12.201 -0.00 +0.00    +0.140 A  
DOCKED: ATOM     22  C   UNL     1     -39.626 -19.381  11.528 -0.00 +0.00    +0.029 A  
DOCKED: ATOM     23  F   UNL     1     -40.887 -19.420  13.532 +0.00 -0.00    -0.204 F  
DOCKED: ATOM     24  C   UNL     1     -39.570 -19.533  10.142 -0.01 +0.00    +0.001 A  
DOCKED: ENDBRANCH   2  18
DOCKED: TORSDOF 5
DOCKED: TER
DOCKED: ENDMDL
________________________________________________________________________________


    FINAL DOCKED STATE:
    ________________________


Run:   42 / 512
Time taken for this run:   0.002s

DOCKED: MODEL        42
DOCKED: USER    Run = 42
DOCKED: USER
DOCKED: USER    Estimated Free Energy of Binding    =  -4.09 kcal/mol  [=(1)+(2)+(3)-(4)]
DOCKED: USER
DOCKED: USER    (1) Final Intermolecular Energy     =  -5.58 kcal/mol
DOCKED: USER        vdW + Hbond + desolv Energy     =  -5.58 kcal/mol
DOCKED: USER        Electrostatic Energy            =  +0.00 kcal/mol
DOCKED: USER        Moving Ligand-Fixed Receptor    =  -5.58 kcal/mol
DOCKED: USER        Moving Ligand-Moving Receptor   =  +0.00 kcal/mol
DOCKED: USER    (2) Final Total Internal Energy     =  -1.31 kcal/mol
DOCKED: USER    (3) Torsional Free Energy           =  +1.49 kcal/mol
DOCKED: USER    (4) Unbound System's Energy         =  -1.31 kcal/mol
DOCKED: USER
DOCKED: USER
DOCKED: REMARK  5 active torsions:
DOCKED: REMARK  status: ('A' for Active; 'I' for Inactive)
DOCKED: REMARK    1  A    between atoms: C_2  and  C_19 
DOCKED: REMARK    2  A    between atoms: C_2  and  C_11 
DOCKED: REMARK    3  A    between atoms: C_19  and  C_20 
DOCKED: REMARK    4  A    between atoms: C_20  and  C_21 
DOCKED: REMARK    5  A    between atoms: C_21  and  N_22 
DOCKED: USER                              x       y       z     vdW  Elec       q    Type
DOCKED: USER                           _______ _______ _______ _____ _____    ______ ____
DOCKED: ROOT
DOCKED: ATOM      1  O   UNL     1     -39.282 -21.036   8.762 -0.04 -0.00    -0.346 OA 
DOCKED: ATOM      2  C   UNL     1     -40.248 -20.371   7.887 -0.12 +0.00    +0.130 C  
DOCKED: ATOM      3  C   UNL     1     -40.946 -21.506   7.195 -0.23 +0.00    +0.004 A  
DOCKED: ATOM      4  C   UNL     1     -40.497 -22.714   7.709 -0.23 +0.00    +0.006 A  
DOCKED: ATOM      5  C   UNL     1     -39.496 -22.466   8.771 -0.14 +0.00    +0.169 C  
DOCKED: ATOM      6  C   UNL     1     -41.910 -21.471   6.197 -0.24 -0.00    -0.001 A  
DOCKED: ATOM      7  C   UNL     1     -40.989 -23.922   7.246 -0.32 +0.00    +0.008 A  
DOCKED: ATOM      8  C   UNL     1     -42.412 -22.681   5.716 -0.31 +0.00    +0.010 A  
DOCKED: ATOM      9  C   UNL     1     -41.954 -23.900   6.238 -0.31 +0.00    +0.068 A  
DOCKED: ATOM     10  N   UNL     1     -42.912 -26.128   5.326 -2.60 -0.00    -0.191 NA 
DOCKED: ATOM     11  C   UNL     1     -42.482 -25.129   5.735 -0.31 +0.00    +0.101 C  
DOCKED: ENDROOT
DOCKED: BRANCH   2  12
DOCKED: ATOM     12  C   UNL     1     -41.186 -19.535   8.749 -0.06 +0.00    +0.038 C  
DOCKED: BRANCH  12  13
DOCKED: ATOM     13  C   UNL     1     -40.650 -19.387  10.172 -0.02 +0.00    +0.038 C  
DOCKED: BRANCH  13  14
DOCKED: ATOM     14  C   UNL     1     -40.871 -17.969  10.697 -0.00 +0.00    +0.251 C  
DOCKED: BRANCH  14  15
DOCKED: ATOM     15  N   UNL     1     -40.201 -17.000   9.838 -0.00 +0.00    +0.141 N  
DOCKED: ATOM     16  C   UNL     1     -40.597 -15.636  10.193 +0.00 +0.00    +0.285 C  
DOCKED: ATOM     17  C   UNL     1     -38.748 -17.146   9.931 -0.00 +0.00    +0.285 C  
DOCKED: ENDBRANCH  14  15
DOCKED: ENDBRANCH  13  14
DOCKED: ENDBRANCH  12  13
DOCKED: ENDBRANCH   2  12
DOCKED: BRANCH   2  18
DOCKED: ATOM     18  C   UNL     1     -39.468 -19.510   6.950 -0.15 +0.00    +0.006 A  
DOCKED: ATOM     19  C   UNL     1     -38.160 -19.857   6.611 -0.12 +0.00    +0.001 A  
DOCKED: ATOM     20  C   UNL     1     -37.432 -19.051   5.735 -0.11 +0.00    +0.029 A  
DOCKED: ATOM     21  C   UNL     1     -38.011 -17.901   5.200 -0.07 +0.00    +0.140 A  
DOCKED: ATOM     22  C   UNL     1     -39.319 -17.556   5.539 -0.09 +0.00    +0.029 A  
DOCKED: ATOM     23  F   UNL     1     -37.312 -17.129   4.358 -0.00 -0.00    -0.204 F  
DOCKED: ATOM     24  C   UNL     1     -40.048 -18.361   6.416 -0.12 +0.00    +0.001 A  
DOCKED: ENDBRANCH   2  18
DOCKED: TORSDOF 5
DOCKED: TER
DOCKED: ENDMDL
________________________________________________________________________________


    FINAL DOCKED STATE:
    ________________________


Run:   43 / 512
Time taken for this run:   0.002s

DOCKED: MODEL        43
DOCKED: USER    Run = 43
DOCKED: USER
DOCKED: USER    Estimated Free Energy of Binding    =  -4.51 kcal/mol  [=(1)+(2)+(3)-(4)]
DOCKED: USER
DOCKED: USER    (1) Final Intermolecular Energy     =  -6.01 kcal/mol
DOCKED: USER        vdW + Hbond + desolv Energy     =  -6.01 kcal/mol
DOCKED: USER        Electrostatic Energy            =  +0.00 kcal/mol
DOCKED: USER        Moving Ligand-Fixed Receptor    =  -6.01 kcal/mol
DOCKED: USER        Moving Ligand-Moving Receptor   =  +0.00 kcal/mol
DOCKED: USER    (2) Final Total Internal Energy     =  -1.25 kcal/mol
DOCKED: USER    (3) Torsional Free Energy           =  +1.49 kcal/mol
DOCKED: USER    (4) Unbound System's Energy         =  -1.25 kcal/mol
DOCKED: USER
DOCKED: USER
DOCKED: REMARK  5 active torsions:
DOCKED: REMARK  status: ('A' for Active; 'I' for Inactive)
DOCKED: REMARK    1  A    between atoms: C_2  and  C_19 
DOCKED: REMARK    2  A    between atoms: C_2  and  C_11 
DOCKED: REMARK    3  A    between atoms: C_19  and  C_20 
DOCKED: REMARK    4  A    between atoms: C_20  and  C_21 
DOCKED: REMARK    5  A    between atoms: C_21  and  N_22 
DOCKED: USER                              x       y       z     vdW  Elec       q    Type
DOCKED: USER                           _______ _______ _______ _____ _____    ______ ____
DOCKED: ROOT
DOCKED: ATOM      1  O   UNL     1     -38.975 -22.097   9.151 -0.06 -0.00    -0.346 OA 
DOCKED: ATOM      2  C   UNL     1     -39.636 -21.208   8.194 -0.13 +0.00    +0.130 C  
DOCKED: ATOM      3  C   UNL     1     -40.477 -22.135   7.365 -0.23 +0.00    +0.004 A  
DOCKED: ATOM      4  C   UNL     1     -40.392 -23.424   7.872 -0.26 +0.00    +0.006 A  
DOCKED: ATOM      5  C   UNL     1     -39.512 -23.438   9.062 -0.13 +0.00    +0.169 C  
DOCKED: ATOM      6  C   UNL     1     -41.264 -21.857   6.257 -0.28 -0.00    -0.001 A  
DOCKED: ATOM      7  C   UNL     1     -41.081 -24.474   7.291 -0.35 +0.00    +0.008 A  
DOCKED: ATOM      8  C   UNL     1     -41.963 -22.907   5.657 -0.35 +0.00    +0.010 A  
DOCKED: ATOM      9  C   UNL     1     -41.872 -24.208   6.172 -0.33 +0.00    +0.068 A  
DOCKED: ATOM     10  N   UNL     1     -43.185 -26.132   5.038 -2.40 -0.00    -0.191 NA 
DOCKED: ATOM     11  C   UNL     1     -42.595 -25.270   5.546 -0.32 +0.00    +0.101 C  
DOCKED: ENDROOT
DOCKED: BRANCH   2  12
DOCKED: ATOM     12  C   UNL     1     -40.463 -20.192   8.972 -0.06 +0.00    +0.038 C  
DOCKED: BRANCH  12  13
DOCKED: ATOM     13  C   UNL     1     -41.907 -20.662   9.142 -0.06 +0.00    +0.038 C  
DOCKED: BRANCH  13  14
DOCKED: ATOM     14  C   UNL     1     -42.891 -19.602   8.652 -0.04 +0.00    +0.251 C  
DOCKED: BRANCH  14  15
DOCKED: ATOM     15  N   UNL     1     -43.661 -20.109   7.523 -0.14 +0.00    +0.141 N  
DOCKED: ATOM     16  C   UNL     1     -45.001 -20.515   7.951 -0.08 +0.00    +0.285 C  
DOCKED: ATOM     17  C   UNL     1     -43.751 -19.100   6.465 -0.14 +0.00    +0.285 C  
DOCKED: ENDBRANCH  14  15
DOCKED: ENDBRANCH  13  14
DOCKED: ENDBRANCH  12  13
DOCKED: ENDBRANCH   2  12
DOCKED: BRANCH   2  18
DOCKED: ATOM     18  C   UNL     1     -38.560 -20.538   7.407 -0.12 +0.00    +0.006 A  
DOCKED: ATOM     19  C   UNL     1     -38.895 -19.638   6.396 -0.16 +0.00    +0.001 A  
DOCKED: ATOM     20  C   UNL     1     -37.888 -19.012   5.660 -0.12 +0.00    +0.029 A  
DOCKED: ATOM     21  C   UNL     1     -36.549 -19.286   5.937 -0.07 +0.00    +0.140 A  
DOCKED: ATOM     22  C   UNL     1     -36.215 -20.186   6.948 -0.09 +0.00    +0.029 A  
DOCKED: ATOM     23  F   UNL     1     -35.583 -18.683   5.232 -0.01 -0.00    -0.204 F  
DOCKED: ATOM     24  C   UNL     1     -37.222 -20.813   7.685 -0.11 +0.00    +0.001 A  
DOCKED: ENDBRANCH   2  18
DOCKED: TORSDOF 5
DOCKED: TER
DOCKED: ENDMDL
________________________________________________________________________________


    FINAL DOCKED STATE:
    ________________________


Run:   44 / 512
Time taken for this run:   0.002s

DOCKED: MODEL        44
DOCKED: USER    Run = 44
DOCKED: USER
DOCKED: USER    Estimated Free Energy of Binding    =  -5.72 kcal/mol  [=(1)+(2)+(3)-(4)]
DOCKED: USER
DOCKED: USER    (1) Final Intermolecular Energy     =  -7.21 kcal/mol
DOCKED: USER        vdW + Hbond + desolv Energy     =  -7.21 kcal/mol
DOCKED: USER        Electrostatic Energy            =  +0.00 kcal/mol
DOCKED: USER        Moving Ligand-Fixed Receptor    =  -7.21 kcal/mol
DOCKED: USER        Moving Ligand-Moving Receptor   =  +0.00 kcal/mol
DOCKED: USER    (2) Final Total Internal Energy     =  -0.55 kcal/mol
DOCKED: USER    (3) Torsional Free Energy           =  +1.49 kcal/mol
DOCKED: USER    (4) Unbound System's Energy         =  -0.55 kcal/mol
DOCKED: USER
DOCKED: USER
DOCKED: REMARK  5 active torsions:
DOCKED: REMARK  status: ('A' for Active; 'I' for Inactive)
DOCKED: REMARK    1  A    between atoms: C_2  and  C_19 
DOCKED: REMARK    2  A    between atoms: C_2  and  C_11 
DOCKED: REMARK    3  A    between atoms: C_19  and  C_20 
DOCKED: REMARK    4  A    between atoms: C_20  and  C_21 
DOCKED: REMARK    5  A    between atoms: C_21  and  N_22 
DOCKED: USER                              x       y       z     vdW  Elec       q    Type
DOCKED: USER                           _______ _______ _______ _____ _____    ______ ____
DOCKED: ROOT
DOCKED: ATOM      1  O   UNL     1     -41.235 -21.916   7.940 -0.04 -0.00    -0.346 OA 
DOCKED: ATOM      2  C   UNL     1     -40.915 -23.344   7.940 -0.22 +0.00    +0.130 C  
DOCKED: ATOM      3  C   UNL     1     -41.398 -23.820   6.600 -0.34 +0.00    +0.004 A  
DOCKED: ATOM      4  C   UNL     1     -41.852 -22.740   5.857 -0.34 +0.00    +0.006 A  
DOCKED: ATOM      5  C   UNL     1     -41.693 -21.492   6.635 -0.23 +0.00    +0.169 C  
DOCKED: ATOM      6  C   UNL     1     -41.422 -25.105   6.077 -0.37 -0.00    -0.001 A  
DOCKED: ATOM      7  C   UNL     1     -42.348 -22.905   4.575 +0.04 +0.00    +0.008 A  
DOCKED: ATOM      8  C   UNL     1     -41.923 -25.288   4.787 -0.46 +0.00    +0.010 A  
DOCKED: ATOM      9  C   UNL     1     -42.384 -24.194   4.040 -0.42 +0.00    +0.068 A  
DOCKED: ATOM     10  N   UNL     1     -43.303 -24.569   1.647 -2.94 -0.00    -0.191 NA 
DOCKED: ATOM     11  C   UNL     1     -42.891 -24.401   2.720 -0.43 +0.00    +0.101 C  
DOCKED: ENDROOT
DOCKED: BRANCH   2  12
DOCKED: ATOM     12  C   UNL     1     -39.409 -23.501   8.118 -0.25 +0.00    +0.038 C  
DOCKED: BRANCH  12  13
DOCKED: ATOM     13  C   UNL     1     -38.950 -22.971   9.474 -0.16 +0.00    +0.038 C  
DOCKED: BRANCH  13  14
DOCKED: ATOM     14  C   UNL     1     -39.364 -21.512   9.662 -0.04 +0.00    +0.251 C  
DOCKED: BRANCH  14  15
DOCKED: ATOM     15  N   UNL     1     -38.210 -20.702  10.034 -0.02 +0.00    +0.141 N  
DOCKED: ATOM     16  C   UNL     1     -37.736 -21.063  11.371 -0.01 +0.00    +0.285 C  
DOCKED: ATOM     17  C   UNL     1     -37.133 -20.857   9.055 -0.04 +0.00    +0.285 C  
DOCKED: ENDBRANCH  14  15
DOCKED: ENDBRANCH  13  14
DOCKED: ENDBRANCH  12  13
DOCKED: ENDBRANCH   2  12
DOCKED: BRANCH   2  18
DOCKED: ATOM     18  C   UNL     1     -41.658 -23.959   9.078 -0.17 +0.00    +0.006 A  
DOCKED: ATOM     19  C   UNL     1     -40.996 -24.803   9.968 -0.20 +0.00    +0.001 A  
DOCKED: ATOM     20  C   UNL     1     -41.693 -25.377  11.032 -0.20 +0.00    +0.029 A  
DOCKED: ATOM     21  C   UNL     1     -43.049 -25.106  11.205 -0.08 +0.00    +0.140 A  
DOCKED: ATOM     22  C   UNL     1     -43.711 -24.261  10.314 -0.12 +0.00    +0.029 A  
DOCKED: ATOM     23  F   UNL     1     -43.718 -25.656  12.227 -0.03 -0.00    -0.204 F  
DOCKED: ATOM     24  C   UNL     1     -43.015 -23.687   9.249 -0.12 +0.00    +0.001 A  
DOCKED: ENDBRANCH   2  18
DOCKED: TORSDOF 5
DOCKED: TER
DOCKED: ENDMDL
________________________________________________________________________________


    FINAL DOCKED STATE:
    ________________________


Run:   45 / 512
Time taken for this run:   0.002s

DOCKED: MODEL        45
DOCKED: USER    Run = 45
DOCKED: USER
DOCKED: USER    Estimated Free Energy of Binding    =  -4.27 kcal/mol  [=(1)+(2)+(3)-(4)]
DOCKED: USER
DOCKED: USER    (1) Final Intermolecular Energy     =  -5.77 kcal/mol
DOCKED: USER        vdW + Hbond + desolv Energy     =  -5.77 kcal/mol
DOCKED: USER        Electrostatic Energy            =  +0.00 kcal/mol
DOCKED: USER        Moving Ligand-Fixed Receptor    =  -5.77 kcal/mol
DOCKED: USER        Moving Ligand-Moving Receptor   =  +0.00 kcal/mol
DOCKED: USER    (2) Final Total Internal Energy     =  -1.40 kcal/mol
DOCKED: USER    (3) Torsional Free Energy           =  +1.49 kcal/mol
DOCKED: USER    (4) Unbound System's Energy         =  -1.40 kcal/mol
DOCKED: USER
DOCKED: USER
DOCKED: REMARK  5 active torsions:
DOCKED: REMARK  status: ('A' for Active; 'I' for Inactive)
DOCKED: REMARK    1  A    between atoms: C_2  and  C_19 
DOCKED: REMARK    2  A    between atoms: C_2  and  C_11 
DOCKED: REMARK    3  A    between atoms: C_19  and  C_20 
DOCKED: REMARK    4  A    between atoms: C_20  and  C_21 
DOCKED: REMARK    5  A    between atoms: C_21  and  N_22 
DOCKED: USER                              x       y       z     vdW  Elec       q    Type
DOCKED: USER                           _______ _______ _______ _____ _____    ______ ____
DOCKED: ROOT
DOCKED: ATOM      1  O   UNL     1     -44.066 -19.445   7.598 -0.07 -0.00    -0.346 OA 
DOCKED: ATOM      2  C   UNL     1     -42.638 -19.569   7.304 -0.17 +0.00    +0.130 C  
DOCKED: ATOM      3  C   UNL     1     -42.483 -20.995   6.862 -0.23 +0.00    +0.004 A  
DOCKED: ATOM      4  C   UNL     1     -43.729 -21.602   6.801 -0.21 +0.00    +0.006 A  
DOCKED: ATOM      5  C   UNL     1     -44.780 -20.632   7.181 -0.18 +0.00    +0.169 C  
DOCKED: ATOM      6  C   UNL     1     -41.333 -21.695   6.528 -0.28 -0.00    -0.001 A  
DOCKED: ATOM      7  C   UNL     1     -43.869 -22.924   6.411 -0.24 +0.00    +0.008 A  
DOCKED: ATOM      8  C   UNL     1     -41.456 -23.030   6.138 -0.34 +0.00    +0.010 A  
DOCKED: ATOM      9  C   UNL     1     -42.718 -23.640   6.079 -0.28 +0.00    +0.068 A  
DOCKED: ATOM     10  N   UNL     1     -42.912 -26.118   5.346 -2.61 -0.00    -0.191 NA 
DOCKED: ATOM     11  C   UNL     1     -42.825 -25.007   5.675 -0.38 +0.00    +0.101 C  
DOCKED: ENDROOT
DOCKED: BRANCH   2  12
DOCKED: ATOM     12  C   UNL     1     -42.281 -18.566   6.213 -0.15 +0.00    +0.038 C  
DOCKED: BRANCH  12  13
DOCKED: ATOM     13  C   UNL     1     -42.612 -17.137   6.639 -0.15 +0.00    +0.038 C  
DOCKED: BRANCH  13  14
DOCKED: ATOM     14  C   UNL     1     -43.968 -16.700   6.090 -0.12 +0.00    +0.251 C  
DOCKED: BRANCH  14  15
DOCKED: ATOM     15  N   UNL     1     -45.041 -17.150   6.970 -0.10 +0.00    +0.141 N  
DOCKED: ATOM     16  C   UNL     1     -45.317 -16.148   8.000 -0.01 +0.00    +0.285 C  
DOCKED: ATOM     17  C   UNL     1     -46.253 -17.435   6.201 -0.11 +0.00    +0.285 C  
DOCKED: ENDBRANCH  14  15
DOCKED: ENDBRANCH  13  14
DOCKED: ENDBRANCH  12  13
DOCKED: ENDBRANCH   2  12
DOCKED: BRANCH   2  18
DOCKED: ATOM     18  C   UNL     1     -41.905 -19.270   8.570 -0.06 +0.00    +0.006 A  
DOCKED: ATOM     19  C   UNL     1     -42.609 -19.116   9.763 -0.02 +0.00    +0.001 A  
DOCKED: ATOM     20  C   UNL     1     -41.923 -18.836  10.945 -0.00 +0.00    +0.029 A  
DOCKED: ATOM     21  C   UNL     1     -40.534 -18.712  10.933 -0.00 +0.00    +0.140 A  
DOCKED: ATOM     22  C   UNL     1     -39.830 -18.867   9.739 -0.01 +0.00    +0.029 A  
DOCKED: ATOM     23  F   UNL     1     -39.875 -18.445  12.068 -0.00 -0.00    -0.204 F  
DOCKED: ATOM     24  C   UNL     1     -40.516 -19.146   8.555 -0.05 +0.00    +0.001 A  
DOCKED: ENDBRANCH   2  18
DOCKED: TORSDOF 5
DOCKED: TER
DOCKED: ENDMDL
________________________________________________________________________________


    FINAL DOCKED STATE:
    ________________________


Run:   46 / 512
Time taken for this run:   0.002s

DOCKED: MODEL        46
DOCKED: USER    Run = 46
DOCKED: USER
DOCKED: USER    Estimated Free Energy of Binding    =  -4.19 kcal/mol  [=(1)+(2)+(3)-(4)]
DOCKED: USER
DOCKED: USER    (1) Final Intermolecular Energy     =  -5.68 kcal/mol
DOCKED: USER        vdW + Hbond + desolv Energy     =  -5.68 kcal/mol
DOCKED: USER        Electrostatic Energy            =  +0.00 kcal/mol
DOCKED: USER        Moving Ligand-Fixed Receptor    =  -5.68 kcal/mol
DOCKED: USER        Moving Ligand-Moving Receptor   =  +0.00 kcal/mol
DOCKED: USER    (2) Final Total Internal Energy     =  -1.50 kcal/mol
DOCKED: USER    (3) Torsional Free Energy           =  +1.49 kcal/mol
DOCKED: USER    (4) Unbound System's Energy         =  -1.50 kcal/mol
DOCKED: USER
DOCKED: USER
DOCKED: REMARK  5 active torsions:
DOCKED: REMARK  status: ('A' for Active; 'I' for Inactive)
DOCKED: REMARK    1  A    between atoms: C_2  and  C_19 
DOCKED: REMARK    2  A    between atoms: C_2  and  C_11 
DOCKED: REMARK    3  A    between atoms: C_19  and  C_20 
DOCKED: REMARK    4  A    between atoms: C_20  and  C_21 
DOCKED: REMARK    5  A    between atoms: C_21  and  N_22 
DOCKED: USER                              x       y       z     vdW  Elec       q    Type
DOCKED: USER                           _______ _______ _______ _____ _____    ______ ____
DOCKED: ROOT
DOCKED: ATOM      1  O   UNL     1     -38.699 -21.354   8.344 -0.07 -0.00    -0.346 OA 
DOCKED: ATOM      2  C   UNL     1     -39.808 -20.573   7.795 -0.13 +0.00    +0.130 C  
DOCKED: ATOM      3  C   UNL     1     -40.700 -21.606   7.170 -0.23 +0.00    +0.004 A  
DOCKED: ATOM      4  C   UNL     1     -40.203 -22.874   7.434 -0.23 +0.00    +0.006 A  
DOCKED: ATOM      5  C   UNL     1     -38.973 -22.771   8.250 -0.15 +0.00    +0.169 C  
DOCKED: ATOM      6  C   UNL     1     -41.865 -21.437   6.436 -0.27 -0.00    -0.001 A  
DOCKED: ATOM      7  C   UNL     1     -40.846 -24.010   6.973 -0.34 +0.00    +0.008 A  
DOCKED: ATOM      8  C   UNL     1     -42.523 -22.573   5.960 -0.29 +0.00    +0.010 A  
DOCKED: ATOM      9  C   UNL     1     -42.016 -23.853   6.228 -0.30 +0.00    +0.068 A  
DOCKED: ATOM     10  N   UNL     1     -43.264 -25.941   5.336 -2.55 -0.00    -0.191 NA 
DOCKED: ATOM     11  C   UNL     1     -42.704 -25.004   5.736 -0.37 +0.00    +0.101 C  
DOCKED: ENDROOT
DOCKED: BRANCH   2  12
DOCKED: ATOM     12  C   UNL     1     -40.480 -19.821   8.937 -0.05 +0.00    +0.038 C  
DOCKED: BRANCH  12  13
DOCKED: ATOM     13  C   UNL     1     -39.522 -19.614  10.108 -0.02 +0.00    +0.038 C  
DOCKED: BRANCH  13  14
DOCKED: ATOM     14  C   UNL     1     -38.960 -18.193  10.114 -0.00 +0.00    +0.251 C  
DOCKED: BRANCH  14  15
DOCKED: ATOM     15  N   UNL     1     -37.511 -18.221  10.271 -0.00 +0.00    +0.141 N  
DOCKED: ATOM     16  C   UNL     1     -37.041 -19.591  10.477 -0.00 +0.00    +0.285 C  
DOCKED: ATOM     17  C   UNL     1     -36.855 -17.628   9.104 -0.00 +0.00    +0.285 C  
DOCKED: ENDBRANCH  14  15
DOCKED: ENDBRANCH  13  14
DOCKED: ENDBRANCH  12  13
DOCKED: ENDBRANCH   2  12
DOCKED: BRANCH   2  18
DOCKED: ATOM     18  C   UNL     1     -39.225 -19.628   6.797 -0.15 +0.00    +0.006 A  
DOCKED: ATOM     19  C   UNL     1     -39.963 -18.527   6.366 -0.13 +0.00    +0.001 A  
DOCKED: ATOM     20  C   UNL     1     -39.416 -17.645   5.433 -0.10 +0.00    +0.029 A  
DOCKED: ATOM     21  C   UNL     1     -38.133 -17.864   4.934 -0.07 +0.00    +0.140 A  
DOCKED: ATOM     22  C   UNL     1     -37.395 -18.966   5.367 -0.11 +0.00    +0.029 A  
DOCKED: ATOM     23  F   UNL     1     -37.608 -17.016   4.041 -0.01 -0.00    -0.204 F  
DOCKED: ATOM     24  C   UNL     1     -37.941 -19.849   6.299 -0.09 +0.00    +0.001 A  
DOCKED: ENDBRANCH   2  18
DOCKED: TORSDOF 5
DOCKED: TER
DOCKED: ENDMDL
________________________________________________________________________________


    FINAL DOCKED STATE:
    ________________________


Run:   47 / 512
Time taken for this run:   0.002s

DOCKED: MODEL        47
DOCKED: USER    Run = 47
DOCKED: USER
DOCKED: USER    Estimated Free Energy of Binding    =  -4.02 kcal/mol  [=(1)+(2)+(3)-(4)]
DOCKED: USER
DOCKED: USER    (1) Final Intermolecular Energy     =  -5.51 kcal/mol
DOCKED: USER        vdW + Hbond + desolv Energy     =  -5.51 kcal/mol
DOCKED: USER        Electrostatic Energy            =  +0.00 kcal/mol
DOCKED: USER        Moving Ligand-Fixed Receptor    =  -5.51 kcal/mol
DOCKED: USER        Moving Ligand-Moving Receptor   =  +0.00 kcal/mol
DOCKED: USER    (2) Final Total Internal Energy     =  -1.23 kcal/mol
DOCKED: USER    (3) Torsional Free Energy           =  +1.49 kcal/mol
DOCKED: USER    (4) Unbound System's Energy         =  -1.23 kcal/mol
DOCKED: USER
DOCKED: USER
DOCKED: REMARK  5 active torsions:
DOCKED: REMARK  status: ('A' for Active; 'I' for Inactive)
DOCKED: REMARK    1  A    between atoms: C_2  and  C_19 
DOCKED: REMARK    2  A    between atoms: C_2  and  C_11 
DOCKED: REMARK    3  A    between atoms: C_19  and  C_20 
DOCKED: REMARK    4  A    between atoms: C_20  and  C_21 
DOCKED: REMARK    5  A    between atoms: C_21  and  N_22 
DOCKED: USER                              x       y       z     vdW  Elec       q    Type
DOCKED: USER                           _______ _______ _______ _____ _____    ______ ____
DOCKED: ROOT
DOCKED: ATOM      1  O   UNL     1     -39.750 -19.901   7.287 -0.06 -0.00    -0.346 OA 
DOCKED: ATOM      2  C   UNL     1     -39.154 -21.028   8.004 -0.13 +0.00    +0.130 C  
DOCKED: ATOM      3  C   UNL     1     -39.966 -22.209   7.556 -0.20 +0.00    +0.004 A  
DOCKED: ATOM      4  C   UNL     1     -40.874 -21.810   6.585 -0.25 +0.00    +0.006 A  
DOCKED: ATOM      5  C   UNL     1     -40.719 -20.363   6.318 -0.15 +0.00    +0.169 C  
DOCKED: ATOM      6  C   UNL     1     -39.899 -23.532   7.967 -0.27 -0.00    -0.001 A  
DOCKED: ATOM      7  C   UNL     1     -41.743 -22.713   5.998 -0.34 +0.00    +0.008 A  
DOCKED: ATOM      8  C   UNL     1     -40.772 -24.454   7.387 -0.35 +0.00    +0.010 A  
DOCKED: ATOM      9  C   UNL     1     -41.689 -24.046   6.407 -0.31 +0.00    +0.068 A  
DOCKED: ATOM     10  N   UNL     1     -43.293 -25.784   5.347 -2.56 -0.00    -0.191 NA 
DOCKED: ATOM     11  C   UNL     1     -42.574 -25.004   5.823 -0.36 +0.00    +0.101 C  
DOCKED: ENDROOT
DOCKED: BRANCH   2  12
DOCKED: ATOM     12  C   UNL     1     -37.687 -21.132   7.606 -0.04 +0.00    +0.038 C  
DOCKED: BRANCH  12  13
DOCKED: ATOM     13  C   UNL     1     -37.040 -19.752   7.498 -0.09 +0.00    +0.038 C  
DOCKED: BRANCH  13  14
DOCKED: ATOM     14  C   UNL     1     -35.952 -19.738   6.427 -0.06 +0.00    +0.251 C  
DOCKED: BRANCH  14  15
DOCKED: ATOM     15  N   UNL     1     -36.457 -19.135   5.199 -0.08 +0.00    +0.141 N  
DOCKED: ATOM     16  C   UNL     1     -36.524 -20.127   4.125 -0.07 +0.00    +0.285 C  
DOCKED: ATOM     17  C   UNL     1     -37.775 -18.538   5.422 -0.08 +0.00    +0.285 C  
DOCKED: ENDBRANCH  14  15
DOCKED: ENDBRANCH  13  14
DOCKED: ENDBRANCH  12  13
DOCKED: ENDBRANCH   2  12
DOCKED: BRANCH   2  18
DOCKED: ATOM     18  C   UNL     1     -39.298 -20.743   9.462 -0.05 +0.00    +0.006 A  
DOCKED: ATOM     19  C   UNL     1     -38.364 -21.248  10.366 -0.04 +0.00    +0.001 A  
DOCKED: ATOM     20  C   UNL     1     -38.500 -20.981  11.729 -0.01 +0.00    +0.029 A  
DOCKED: ATOM     21  C   UNL     1     -39.568 -20.210  12.185 -0.00 +0.00    +0.140 A  
DOCKED: ATOM     22  C   UNL     1     -40.501 -19.704  11.281 -0.00 +0.00    +0.029 A  
DOCKED: ATOM     23  F   UNL     1     -39.697 -19.952  13.493 +0.00 -0.00    -0.204 F  
DOCKED: ATOM     24  C   UNL     1     -40.366 -19.972   9.917 -0.02 +0.00    +0.001 A  
DOCKED: ENDBRANCH   2  18
DOCKED: TORSDOF 5
DOCKED: TER
DOCKED: ENDMDL
________________________________________________________________________________


    FINAL DOCKED STATE:
    ________________________


Run:   48 / 512
Time taken for this run:   0.002s

DOCKED: MODEL        48
DOCKED: USER    Run = 48
DOCKED: USER
DOCKED: USER    Estimated Free Energy of Binding    =  -4.48 kcal/mol  [=(1)+(2)+(3)-(4)]
DOCKED: USER
DOCKED: USER    (1) Final Intermolecular Energy     =  -5.97 kcal/mol
DOCKED: USER        vdW + Hbond + desolv Energy     =  -5.97 kcal/mol
DOCKED: USER        Electrostatic Energy            =  +0.00 kcal/mol
DOCKED: USER        Moving Ligand-Fixed Receptor    =  -5.97 kcal/mol
DOCKED: USER        Moving Ligand-Moving Receptor   =  +0.00 kcal/mol
DOCKED: USER    (2) Final Total Internal Energy     =  -1.25 kcal/mol
DOCKED: USER    (3) Torsional Free Energy           =  +1.49 kcal/mol
DOCKED: USER    (4) Unbound System's Energy         =  -1.25 kcal/mol
DOCKED: USER
DOCKED: USER
DOCKED: REMARK  5 active torsions:
DOCKED: REMARK  status: ('A' for Active; 'I' for Inactive)
DOCKED: REMARK    1  A    between atoms: C_2  and  C_19 
DOCKED: REMARK    2  A    between atoms: C_2  and  C_11 
DOCKED: REMARK    3  A    between atoms: C_19  and  C_20 
DOCKED: REMARK    4  A    between atoms: C_20  and  C_21 
DOCKED: REMARK    5  A    between atoms: C_21  and  N_22 
DOCKED: USER                              x       y       z     vdW  Elec       q    Type
DOCKED: USER                           _______ _______ _______ _____ _____    ______ ____
DOCKED: ROOT
DOCKED: ATOM      1  O   UNL     1     -38.565 -21.538   8.691 -0.06 -0.00    -0.346 OA 
DOCKED: ATOM      2  C   UNL     1     -39.615 -20.725   8.075 -0.12 +0.00    +0.130 C  
DOCKED: ATOM      3  C   UNL     1     -40.488 -21.731   7.383 -0.21 +0.00    +0.004 A  
DOCKED: ATOM      4  C   UNL     1     -40.042 -23.013   7.670 -0.24 +0.00    +0.006 A  
DOCKED: ATOM      5  C   UNL     1     -38.868 -22.947   8.568 -0.17 +0.00    +0.169 C  
DOCKED: ATOM      6  C   UNL     1     -41.597 -21.528   6.574 -0.27 -0.00    -0.001 A  
DOCKED: ATOM      7  C   UNL     1     -40.680 -24.130   7.158 -0.34 +0.00    +0.008 A  
DOCKED: ATOM      8  C   UNL     1     -42.249 -22.643   6.046 -0.32 +0.00    +0.010 A  
DOCKED: ATOM      9  C   UNL     1     -41.793 -23.938   6.337 -0.31 +0.00    +0.068 A  
DOCKED: ATOM     10  N   UNL     1     -43.030 -25.987   5.345 -2.54 -0.00    -0.191 NA 
DOCKED: ATOM     11  C   UNL     1     -42.474 -25.068   5.790 -0.32 +0.00    +0.101 C  
DOCKED: ENDROOT
DOCKED: BRANCH   2  12
DOCKED: ATOM     12  C   UNL     1     -40.344 -19.963   9.176 -0.05 +0.00    +0.038 C  
DOCKED: BRANCH  12  13
DOCKED: ATOM     13  C   UNL     1     -40.898 -18.636   8.661 -0.04 +0.00    +0.038 C  
DOCKED: BRANCH  13  14
DOCKED: ATOM     14  C   UNL     1     -42.381 -18.758   8.316 -0.04 +0.00    +0.251 C  
DOCKED: BRANCH  14  15
DOCKED: ATOM     15  N   UNL     1     -42.592 -18.519   6.893 -0.15 +0.00    +0.141 N  
DOCKED: ATOM     16  C   UNL     1     -43.942 -18.922   6.497 -0.15 +0.00    +0.285 C  
DOCKED: ATOM     17  C   UNL     1     -42.368 -17.109   6.568 -0.10 +0.00    +0.285 C  
DOCKED: ENDBRANCH  14  15
DOCKED: ENDBRANCH  13  14
DOCKED: ENDBRANCH  12  13
DOCKED: ENDBRANCH   2  12
DOCKED: BRANCH   2  18
DOCKED: ATOM     18  C   UNL     1     -38.942 -19.789   7.127 -0.14 +0.00    +0.006 A  
DOCKED: ATOM     19  C   UNL     1     -39.326 -19.759   5.787 -0.12 +0.00    +0.001 A  
DOCKED: ATOM     20  C   UNL     1     -38.696 -18.883   4.902 -0.11 +0.00    +0.029 A  
DOCKED: ATOM     21  C   UNL     1     -37.684 -18.040   5.358 -0.06 +0.00    +0.140 A  
DOCKED: ATOM     22  C   UNL     1     -37.300 -18.071   6.698 -0.04 +0.00    +0.029 A  
DOCKED: ATOM     23  F   UNL     1     -37.080 -17.199   4.508 -0.00 -0.00    -0.204 F  
DOCKED: ATOM     24  C   UNL     1     -37.929 -18.947   7.584 -0.06 +0.00    +0.001 A  
DOCKED: ENDBRANCH   2  18
DOCKED: TORSDOF 5
DOCKED: TER
DOCKED: ENDMDL
________________________________________________________________________________


    FINAL DOCKED STATE:
    ________________________


Run:   49 / 512
Time taken for this run:   0.002s

DOCKED: MODEL        49
DOCKED: USER    Run = 49
DOCKED: USER
DOCKED: USER    Estimated Free Energy of Binding    =  -3.74 kcal/mol  [=(1)+(2)+(3)-(4)]
DOCKED: USER
DOCKED: USER    (1) Final Intermolecular Energy     =  -5.23 kcal/mol
DOCKED: USER        vdW + Hbond + desolv Energy     =  -5.23 kcal/mol
DOCKED: USER        Electrostatic Energy            =  +0.00 kcal/mol
DOCKED: USER        Moving Ligand-Fixed Receptor    =  -5.23 kcal/mol
DOCKED: USER        Moving Ligand-Moving Receptor   =  +0.00 kcal/mol
DOCKED: USER    (2) Final Total Internal Energy     =  -1.38 kcal/mol
DOCKED: USER    (3) Torsional Free Energy           =  +1.49 kcal/mol
DOCKED: USER    (4) Unbound System's Energy         =  -1.38 kcal/mol
DOCKED: USER
DOCKED: USER
DOCKED: REMARK  5 active torsions:
DOCKED: REMARK  status: ('A' for Active; 'I' for Inactive)
DOCKED: REMARK    1  A    between atoms: C_2  and  C_19 
DOCKED: REMARK    2  A    between atoms: C_2  and  C_11 
DOCKED: REMARK    3  A    between atoms: C_19  and  C_20 
DOCKED: REMARK    4  A    between atoms: C_20  and  C_21 
DOCKED: REMARK    5  A    between atoms: C_21  and  N_22 
DOCKED: USER                              x       y       z     vdW  Elec       q    Type
DOCKED: USER                           _______ _______ _______ _____ _____    ______ ____
DOCKED: ROOT
DOCKED: ATOM      1  O   UNL     1     -32.524 -24.759  -2.046 -0.00 -0.00    -0.346 OA 
DOCKED: ATOM      2  C   UNL     1     -32.901 -23.513  -1.378 -0.07 +0.00    +0.130 C  
DOCKED: ATOM      3  C   UNL     1     -33.595 -23.971  -0.128 -0.11 +0.00    +0.004 A  
DOCKED: ATOM      4  C   UNL     1     -33.523 -25.354  -0.034 -0.14 +0.00    +0.006 A  
DOCKED: ATOM      5  C   UNL     1     -32.778 -25.898  -1.191 -0.07 +0.00    +0.169 C  
DOCKED: ATOM      6  C   UNL     1     -34.228 -23.223   0.854 -0.13 -0.00    -0.001 A  
DOCKED: ATOM      7  C   UNL     1     -34.082 -26.034   1.035 -0.25 +0.00    +0.008 A  
DOCKED: ATOM      8  C   UNL     1     -34.801 -23.894   1.936 -0.23 +0.00    +0.010 A  
DOCKED: ATOM      9  C   UNL     1     -34.728 -25.292   2.026 -0.28 +0.00    +0.068 A  
DOCKED: ATOM     10  N   UNL     1     -35.797 -26.506   4.050 -2.61 -0.00    -0.191 NA 
DOCKED: ATOM     11  C   UNL     1     -35.318 -25.962   3.142 -0.38 +0.00    +0.101 C  
DOCKED: ENDROOT
DOCKED: BRANCH   2  12
DOCKED: ATOM     12  C   UNL     1     -31.634 -22.715  -1.095 -0.02 +0.00    +0.038 C  
DOCKED: BRANCH  12  13
DOCKED: ATOM     13  C   UNL     1     -30.446 -23.256  -1.889 -0.00 +0.00    +0.038 C  
DOCKED: BRANCH  13  14
DOCKED: ATOM     14  C   UNL     1     -30.016 -22.270  -2.973 -0.00 +0.00    +0.251 C  
DOCKED: BRANCH  14  15
DOCKED: ATOM     15  N   UNL     1     -30.069 -22.904  -4.285 -0.00 +0.00    +0.141 N  
DOCKED: ATOM     16  C   UNL     1     -30.460 -24.309  -4.163 -0.00 +0.00    +0.285 C  
DOCKED: ATOM     17  C   UNL     1     -30.998 -22.193  -5.164 +0.00 +0.00    +0.285 C  
DOCKED: ENDBRANCH  14  15
DOCKED: ENDBRANCH  13  14
DOCKED: ENDBRANCH  12  13
DOCKED: ENDBRANCH   2  12
DOCKED: BRANCH   2  18
DOCKED: ATOM     18  C   UNL     1     -33.806 -22.776  -2.308 -0.12 +0.00    +0.006 A  
DOCKED: ATOM     19  C   UNL     1     -34.545 -21.688  -1.844 -0.12 +0.00    +0.001 A  
DOCKED: ATOM     20  C   UNL     1     -35.391 -21.000  -2.715 -0.18 +0.00    +0.029 A  
DOCKED: ATOM     21  C   UNL     1     -35.495 -21.399  -4.046 -0.18 +0.00    +0.140 A  
DOCKED: ATOM     22  C   UNL     1     -34.755 -22.486  -4.509 -0.13 +0.00    +0.029 A  
DOCKED: ATOM     23  F   UNL     1     -36.306 -20.737  -4.882 -0.11 -0.00    -0.204 F  
DOCKED: ATOM     24  C   UNL     1     -33.909 -23.176  -3.639 -0.11 +0.00    +0.001 A  
DOCKED: ENDBRANCH   2  18
DOCKED: TORSDOF 5
DOCKED: TER
DOCKED: ENDMDL
________________________________________________________________________________


    FINAL DOCKED STATE:
    ________________________


Run:   50 / 512
Time taken for this run:   0.002s

DOCKED: MODEL        50
DOCKED: USER    Run = 50
DOCKED: USER
DOCKED: USER    Estimated Free Energy of Binding    =  -3.83 kcal/mol  [=(1)+(2)+(3)-(4)]
DOCKED: USER
DOCKED: USER    (1) Final Intermolecular Energy     =  -5.32 kcal/mol
DOCKED: USER        vdW + Hbond + desolv Energy     =  -5.32 kcal/mol
DOCKED: USER        Electrostatic Energy            =  +0.00 kcal/mol
DOCKED: USER        Moving Ligand-Fixed Receptor    =  -5.32 kcal/mol
DOCKED: USER        Moving Ligand-Moving Receptor   =  +0.00 kcal/mol
DOCKED: USER    (2) Final Total Internal Energy     =  -1.16 kcal/mol
DOCKED: USER    (3) Torsional Free Energy           =  +1.49 kcal/mol
DOCKED: USER    (4) Unbound System's Energy         =  -1.16 kcal/mol
DOCKED: USER
DOCKED: USER
DOCKED: REMARK  5 active torsions:
DOCKED: REMARK  status: ('A' for Active; 'I' for Inactive)
DOCKED: REMARK    1  A    between atoms: C_2  and  C_19 
DOCKED: REMARK    2  A    between atoms: C_2  and  C_11 
DOCKED: REMARK    3  A    between atoms: C_19  and  C_20 
DOCKED: REMARK    4  A    between atoms: C_20  and  C_21 
DOCKED: REMARK    5  A    between atoms: C_21  and  N_22 
DOCKED: USER                              x       y       z     vdW  Elec       q    Type
DOCKED: USER                           _______ _______ _______ _____ _____    ______ ____
DOCKED: ROOT
DOCKED: ATOM      1  O   UNL     1     -41.006 -19.481   7.562 -0.04 -0.00    -0.346 OA 
DOCKED: ATOM      2  C   UNL     1     -40.283 -20.497   8.329 -0.09 +0.00    +0.130 C  
DOCKED: ATOM      3  C   UNL     1     -40.834 -21.795   7.815 -0.18 +0.00    +0.004 A  
DOCKED: ATOM      4  C   UNL     1     -41.712 -21.549   6.769 -0.26 +0.00    +0.006 A  
DOCKED: ATOM      5  C   UNL     1     -41.793 -20.093   6.514 -0.16 +0.00    +0.169 C  
DOCKED: ATOM      6  C   UNL     1     -40.569 -23.092   8.231 -0.21 -0.00    -0.001 A  
DOCKED: ATOM      7  C   UNL     1     -42.357 -22.582   6.111 -0.31 +0.00    +0.008 A  
DOCKED: ATOM      8  C   UNL     1     -41.215 -24.144   7.580 -0.30 +0.00    +0.010 A  
DOCKED: ATOM      9  C   UNL     1     -42.104 -23.890   6.525 -0.28 +0.00    +0.068 A  
DOCKED: ATOM     10  N   UNL     1     -43.281 -25.867   5.334 -2.55 -0.00    -0.191 NA 
DOCKED: ATOM     11  C   UNL     1     -42.754 -24.980   5.869 -0.35 +0.00    +0.101 C  
DOCKED: ENDROOT
DOCKED: BRANCH   2  12
DOCKED: ATOM     12  C   UNL     1     -38.792 -20.336   8.058 -0.11 +0.00    +0.038 C  
DOCKED: BRANCH  12  13
DOCKED: ATOM     13  C   UNL     1     -38.528 -19.962   6.600 -0.13 +0.00    +0.038 C  
DOCKED: BRANCH  13  14
DOCKED: ATOM     14  C   UNL     1     -38.501 -18.446   6.418 -0.08 +0.00    +0.251 C  
DOCKED: BRANCH  14  15
DOCKED: ATOM     15  N   UNL     1     -38.035 -18.104   5.079 -0.08 +0.00    +0.141 N  
DOCKED: ATOM     16  C   UNL     1     -37.939 -19.303   4.245 -0.09 +0.00    +0.285 C  
DOCKED: ATOM     17  C   UNL     1     -38.926 -17.123   4.458 -0.06 +0.00    +0.285 C  
DOCKED: ENDBRANCH  14  15
DOCKED: ENDBRANCH  13  14
DOCKED: ENDBRANCH  12  13
DOCKED: ENDBRANCH   2  12
DOCKED: BRANCH   2  18
DOCKED: ATOM     18  C   UNL     1     -40.596 -20.261   9.769 -0.03 +0.00    +0.006 A  
DOCKED: ATOM     19  C   UNL     1     -41.895 -20.452  10.239 -0.02 +0.00    +0.001 A  
DOCKED: ATOM     20  C   UNL     1     -42.187 -20.231  11.586 -0.00 +0.00    +0.029 A  
DOCKED: ATOM     21  C   UNL     1     -41.181 -19.821  12.459 -0.00 +0.00    +0.140 A  
DOCKED: ATOM     22  C   UNL     1     -39.882 -19.631  11.988 -0.00 +0.00    +0.029 A  
DOCKED: ATOM     23  F   UNL     1     -41.461 -19.611  13.752 +0.00 -0.00    -0.204 F  
DOCKED: ATOM     24  C   UNL     1     -39.589 -19.851  10.641 -0.01 +0.00    +0.001 A  
DOCKED: ENDBRANCH   2  18
DOCKED: TORSDOF 5
DOCKED: TER
DOCKED: ENDMDL
________________________________________________________________________________


    FINAL DOCKED STATE:
    ________________________


Run:   51 / 512
Time taken for this run:   0.002s

DOCKED: MODEL        51
DOCKED: USER    Run = 51
DOCKED: USER
DOCKED: USER    Estimated Free Energy of Binding    =  -5.02 kcal/mol  [=(1)+(2)+(3)-(4)]
DOCKED: USER
DOCKED: USER    (1) Final Intermolecular Energy     =  -6.51 kcal/mol
DOCKED: USER        vdW + Hbond + desolv Energy     =  -6.51 kcal/mol
DOCKED: USER        Electrostatic Energy            =  +0.00 kcal/mol
DOCKED: USER        Moving Ligand-Fixed Receptor    =  -6.51 kcal/mol
DOCKED: USER        Moving Ligand-Moving Receptor   =  +0.00 kcal/mol
DOCKED: USER    (2) Final Total Internal Energy     =  -1.31 kcal/mol
DOCKED: USER    (3) Torsional Free Energy           =  +1.49 kcal/mol
DOCKED: USER    (4) Unbound System's Energy         =  -1.31 kcal/mol
DOCKED: USER
DOCKED: USER
DOCKED: REMARK  5 active torsions:
DOCKED: REMARK  status: ('A' for Active; 'I' for Inactive)
DOCKED: REMARK    1  A    between atoms: C_2  and  C_19 
DOCKED: REMARK    2  A    between atoms: C_2  and  C_11 
DOCKED: REMARK    3  A    between atoms: C_19  and  C_20 
DOCKED: REMARK    4  A    between atoms: C_20  and  C_21 
DOCKED: REMARK    5  A    between atoms: C_21  and  N_22 
DOCKED: USER                              x       y       z     vdW  Elec       q    Type
DOCKED: USER                           _______ _______ _______ _____ _____    ______ ____
DOCKED: ROOT
DOCKED: ATOM      1  O   UNL     1     -44.566 -22.467   8.184 -0.01 -0.00    -0.346 OA 
DOCKED: ATOM      2  C   UNL     1     -43.120 -22.645   8.044 -0.11 +0.00    +0.130 C  
DOCKED: ATOM      3  C   UNL     1     -42.958 -23.196   6.657 -0.25 +0.00    +0.004 A  
DOCKED: ATOM      4  C   UNL     1     -44.190 -23.227   6.020 -0.25 +0.00    +0.006 A  
DOCKED: ATOM      5  C   UNL     1     -45.236 -22.694   6.922 -0.18 +0.00    +0.169 C  
DOCKED: ATOM      6  C   UNL     1     -41.810 -23.625   6.008 -0.37 -0.00    -0.001 A  
DOCKED: ATOM      7  C   UNL     1     -44.318 -23.689   4.721 -0.08 +0.00    +0.008 A  
DOCKED: ATOM      8  C   UNL     1     -41.923 -24.098   4.699 -0.34 +0.00    +0.010 A  
DOCKED: ATOM      9  C   UNL     1     -43.171 -24.129   4.059 -0.38 +0.00    +0.068 A  
DOCKED: ATOM     10  N   UNL     1     -43.346 -25.007   1.628 -2.62 -0.00    -0.191 NA 
DOCKED: ATOM     11  C   UNL     1     -43.267 -24.614   2.719 -0.29 +0.00    +0.101 C  
DOCKED: ENDROOT
DOCKED: BRANCH   2  12
DOCKED: ATOM     12  C   UNL     1     -42.448 -21.289   8.227 -0.12 +0.00    +0.038 C  
DOCKED: BRANCH  12  13
DOCKED: ATOM     13  C   UNL     1     -42.479 -20.474   6.935 -0.24 +0.00    +0.038 C  
DOCKED: BRANCH  13  14
DOCKED: ATOM     14  C   UNL     1     -43.824 -19.771   6.762 -0.17 +0.00    +0.251 C  
DOCKED: BRANCH  14  15
DOCKED: ATOM     15  N   UNL     1     -44.476 -19.597   8.055 -0.08 +0.00    +0.141 N  
DOCKED: ATOM     16  C   UNL     1     -43.943 -18.422   8.747 -0.02 +0.00    +0.285 C  
DOCKED: ATOM     17  C   UNL     1     -45.925 -19.474   7.889 -0.07 +0.00    +0.285 C  
DOCKED: ENDBRANCH  14  15
DOCKED: ENDBRANCH  13  14
DOCKED: ENDBRANCH  12  13
DOCKED: ENDBRANCH   2  12
DOCKED: BRANCH   2  18
DOCKED: ATOM     18  C   UNL     1     -42.694 -23.604   9.105 -0.12 +0.00    +0.006 A  
DOCKED: ATOM     19  C   UNL     1     -43.634 -24.119   9.997 -0.12 +0.00    +0.001 A  
DOCKED: ATOM     20  C   UNL     1     -43.235 -25.016  10.988 -0.14 +0.00    +0.029 A  
DOCKED: ATOM     21  C   UNL     1     -41.897 -25.396  11.086 -0.11 +0.00    +0.140 A  
DOCKED: ATOM     22  C   UNL     1     -40.958 -24.881  10.194 -0.19 +0.00    +0.029 A  
DOCKED: ATOM     23  F   UNL     1     -41.514 -26.258  12.037 -0.07 -0.00    -0.204 F  
DOCKED: ATOM     24  C   UNL     1     -41.356 -23.983   9.202 -0.18 +0.00    +0.001 A  
DOCKED: ENDBRANCH   2  18
DOCKED: TORSDOF 5
DOCKED: TER
DOCKED: ENDMDL
________________________________________________________________________________


    FINAL DOCKED STATE:
    ________________________


Run:   52 / 512
Time taken for this run:   0.002s

DOCKED: MODEL        52
DOCKED: USER    Run = 52
DOCKED: USER
DOCKED: USER    Estimated Free Energy of Binding    =  -3.88 kcal/mol  [=(1)+(2)+(3)-(4)]
DOCKED: USER
DOCKED: USER    (1) Final Intermolecular Energy     =  -5.37 kcal/mol
DOCKED: USER        vdW + Hbond + desolv Energy     =  -5.37 kcal/mol
DOCKED: USER        Electrostatic Energy            =  +0.00 kcal/mol
DOCKED: USER        Moving Ligand-Fixed Receptor    =  -5.37 kcal/mol
DOCKED: USER        Moving Ligand-Moving Receptor   =  +0.00 kcal/mol
DOCKED: USER    (2) Final Total Internal Energy     =  -1.47 kcal/mol
DOCKED: USER    (3) Torsional Free Energy           =  +1.49 kcal/mol
DOCKED: USER    (4) Unbound System's Energy         =  -1.47 kcal/mol
DOCKED: USER
DOCKED: USER
DOCKED: REMARK  5 active torsions:
DOCKED: REMARK  status: ('A' for Active; 'I' for Inactive)
DOCKED: REMARK    1  A    between atoms: C_2  and  C_19 
DOCKED: REMARK    2  A    between atoms: C_2  and  C_11 
DOCKED: REMARK    3  A    between atoms: C_19  and  C_20 
DOCKED: REMARK    4  A    between atoms: C_20  and  C_21 
DOCKED: REMARK    5  A    between atoms: C_21  and  N_22 
DOCKED: USER                              x       y       z     vdW  Elec       q    Type
DOCKED: USER                           _______ _______ _______ _____ _____    ______ ____
DOCKED: ROOT
DOCKED: ATOM      1  O   UNL     1     -33.463 -20.562   1.072 +0.01 -0.00    -0.346 OA 
DOCKED: ATOM      2  C   UNL     1     -34.916 -20.652   0.924 -0.08 +0.00    +0.130 C  
DOCKED: ATOM      3  C   UNL     1     -35.255 -21.993   1.509 -0.18 +0.00    +0.004 A  
DOCKED: ATOM      4  C   UNL     1     -34.112 -22.571   2.044 -0.10 +0.00    +0.006 A  
DOCKED: ATOM      5  C   UNL     1     -32.958 -21.661   1.866 -0.02 +0.00    +0.169 C  
DOCKED: ATOM      6  C   UNL     1     -36.478 -22.644   1.572 -0.33 -0.00    -0.001 A  
DOCKED: ATOM      7  C   UNL     1     -34.151 -23.813   2.654 -0.17 +0.00    +0.008 A  
DOCKED: ATOM      8  C   UNL     1     -36.533 -23.899   2.180 -0.17 +0.00    +0.010 A  
DOCKED: ATOM      9  C   UNL     1     -35.375 -24.480   2.718 -0.31 +0.00    +0.068 A  
DOCKED: ATOM     10  N   UNL     1     -35.513 -26.810   3.844 -2.28 -0.00    -0.191 NA 
DOCKED: ATOM     11  C   UNL     1     -35.451 -25.765   3.338 -0.41 +0.00    +0.101 C  
DOCKED: ENDROOT
DOCKED: BRANCH   2  12
DOCKED: ATOM     12  C   UNL     1     -35.551 -19.495   1.686 -0.07 +0.00    +0.038 C  
DOCKED: BRANCH  12  13
DOCKED: ATOM     13  C   UNL     1     -34.681 -19.057   2.862 -0.04 +0.00    +0.038 C  
DOCKED: BRANCH  13  14
DOCKED: ATOM     14  C   UNL     1     -35.187 -19.654   4.173 -0.05 +0.00    +0.251 C  
DOCKED: BRANCH  14  15
DOCKED: ATOM     15  N   UNL     1     -34.322 -20.747   4.600 -0.06 +0.00    +0.141 N  
DOCKED: ATOM     16  C   UNL     1     -33.058 -20.229   5.127 -0.01 +0.00    +0.285 C  
DOCKED: ATOM     17  C   UNL     1     -34.992 -21.571   5.608 -0.06 +0.00    +0.285 C  
DOCKED: ENDBRANCH  14  15
DOCKED: ENDBRANCH  13  14
DOCKED: ENDBRANCH  12  13
DOCKED: ENDBRANCH   2  12
DOCKED: BRANCH   2  18
DOCKED: ATOM     18  C   UNL     1     -35.212 -20.563  -0.536 -0.13 +0.00    +0.006 A  
DOCKED: ATOM     19  C   UNL     1     -35.935 -19.480  -1.035 -0.16 +0.00    +0.001 A  
DOCKED: ATOM     20  C   UNL     1     -36.211 -19.398  -2.401 -0.21 +0.00    +0.029 A  
DOCKED: ATOM     21  C   UNL     1     -35.764 -20.398  -3.264 -0.20 +0.00    +0.140 A  
DOCKED: ATOM     22  C   UNL     1     -35.041 -21.480  -2.763 -0.14 +0.00    +0.029 A  
DOCKED: ATOM     23  F   UNL     1     -36.028 -20.318  -4.574 -0.08 -0.00    -0.204 F  
DOCKED: ATOM     24  C   UNL     1     -34.765 -21.563  -1.398 -0.11 +0.00    +0.001 A  
DOCKED: ENDBRANCH   2  18
DOCKED: TORSDOF 5
DOCKED: TER
DOCKED: ENDMDL
________________________________________________________________________________


    FINAL DOCKED STATE:
    ________________________


Run:   53 / 512
Time taken for this run:   0.002s

DOCKED: MODEL        53
DOCKED: USER    Run = 53
DOCKED: USER
DOCKED: USER    Estimated Free Energy of Binding    =  -3.74 kcal/mol  [=(1)+(2)+(3)-(4)]
DOCKED: USER
DOCKED: USER    (1) Final Intermolecular Energy     =  -5.23 kcal/mol
DOCKED: USER        vdW + Hbond + desolv Energy     =  -5.23 kcal/mol
DOCKED: USER        Electrostatic Energy            =  +0.00 kcal/mol
DOCKED: USER        Moving Ligand-Fixed Receptor    =  -5.23 kcal/mol
DOCKED: USER        Moving Ligand-Moving Receptor   =  +0.00 kcal/mol
DOCKED: USER    (2) Final Total Internal Energy     =  -1.26 kcal/mol
DOCKED: USER    (3) Torsional Free Energy           =  +1.49 kcal/mol
DOCKED: USER    (4) Unbound System's Energy         =  -1.26 kcal/mol
DOCKED: USER
DOCKED: USER
DOCKED: REMARK  5 active torsions:
DOCKED: REMARK  status: ('A' for Active; 'I' for Inactive)
DOCKED: REMARK    1  A    between atoms: C_2  and  C_19 
DOCKED: REMARK    2  A    between atoms: C_2  and  C_11 
DOCKED: REMARK    3  A    between atoms: C_19  and  C_20 
DOCKED: REMARK    4  A    between atoms: C_20  and  C_21 
DOCKED: REMARK    5  A    between atoms: C_21  and  N_22 
DOCKED: USER                              x       y       z     vdW  Elec       q    Type
DOCKED: USER                           _______ _______ _______ _____ _____    ______ ____
DOCKED: ROOT
DOCKED: ATOM      1  O   UNL     1     -34.967 -10.822  -2.165 -0.06 -0.00    -0.346 OA 
DOCKED: ATOM      2  C   UNL     1     -34.808 -11.212  -3.567 -0.10 +0.00    +0.130 C  
DOCKED: ATOM      3  C   UNL     1     -36.157 -11.753  -3.944 -0.13 +0.00    +0.004 A  
DOCKED: ATOM      4  C   UNL     1     -37.040 -11.585  -2.887 -0.19 +0.00    +0.006 A  
DOCKED: ATOM      5  C   UNL     1     -36.351 -10.920  -1.758 -0.22 +0.00    +0.169 C  
DOCKED: ATOM      6  C   UNL     1     -36.572 -12.337  -5.132 -0.22 -0.00    -0.001 A  
DOCKED: ATOM      7  C   UNL     1     -38.358 -11.996  -2.977 -0.27 +0.00    +0.008 A  
DOCKED: ATOM      8  C   UNL     1     -37.898 -12.760  -5.238 -0.34 +0.00    +0.010 A  
DOCKED: ATOM      9  C   UNL     1     -38.786 -12.591  -4.165 -0.40 +0.00    +0.068 A  
DOCKED: ATOM     10  N   UNL     1     -41.242 -13.384  -4.396 -2.42 -0.00    -0.191 NA 
DOCKED: ATOM     11  C   UNL     1     -40.141 -13.028  -4.292 -0.26 +0.00    +0.101 C  
DOCKED: ENDROOT
DOCKED: BRANCH   2  12
DOCKED: ATOM     12  C   UNL     1     -34.418  -9.977  -4.371 -0.08 +0.00    +0.038 C  
DOCKED: BRANCH  12  13
DOCKED: ATOM     13  C   UNL     1     -34.151  -8.781  -3.459 -0.14 +0.00    +0.038 C  
DOCKED: BRANCH  13  14
DOCKED: ATOM     14  C   UNL     1     -35.428  -7.977  -3.218 -0.11 +0.00    +0.251 C  
DOCKED: BRANCH  14  15
DOCKED: ATOM     15  N   UNL     1     -35.311  -7.195  -1.993 -0.09 +0.00    +0.141 N  
DOCKED: ATOM     16  C   UNL     1     -36.566  -6.500  -1.703 -0.07 +0.00    +0.285 C  
DOCKED: ATOM     17  C   UNL     1     -34.934  -8.052  -0.868 -0.04 +0.00    +0.285 C  
DOCKED: ENDBRANCH  14  15
DOCKED: ENDBRANCH  13  14
DOCKED: ENDBRANCH  12  13
DOCKED: ENDBRANCH   2  12
DOCKED: BRANCH   2  18
DOCKED: ATOM     18  C   UNL     1     -33.733 -12.246  -3.613 -0.04 +0.00    +0.006 A  
DOCKED: ATOM     19  C   UNL     1     -32.719 -12.154  -4.566 -0.02 +0.00    +0.001 A  
DOCKED: ATOM     20  C   UNL     1     -31.714 -13.122  -4.608 -0.00 +0.00    +0.029 A  
DOCKED: ATOM     21  C   UNL     1     -31.725 -14.178  -3.698 +0.00 +0.00    +0.140 A  
DOCKED: ATOM     22  C   UNL     1     -32.739 -14.269  -2.746 -0.01 +0.00    +0.029 A  
DOCKED: ATOM     23  F   UNL     1     -30.759 -15.105  -3.738 +0.00 -0.00    -0.204 F  
DOCKED: ATOM     24  C   UNL     1     -33.745 -13.302  -2.703 -0.02 +0.00    +0.001 A  
DOCKED: ENDBRANCH   2  18
DOCKED: TORSDOF 5
DOCKED: TER
DOCKED: ENDMDL
________________________________________________________________________________


    FINAL DOCKED STATE:
    ________________________


Run:   54 / 512
Time taken for this run:   0.002s

DOCKED: MODEL        54
DOCKED: USER    Run = 54
DOCKED: USER
DOCKED: USER    Estimated Free Energy of Binding    =  -4.92 kcal/mol  [=(1)+(2)+(3)-(4)]
DOCKED: USER
DOCKED: USER    (1) Final Intermolecular Energy     =  -6.41 kcal/mol
DOCKED: USER        vdW + Hbond + desolv Energy     =  -6.41 kcal/mol
DOCKED: USER        Electrostatic Energy            =  +0.00 kcal/mol
DOCKED: USER        Moving Ligand-Fixed Receptor    =  -6.41 kcal/mol
DOCKED: USER        Moving Ligand-Moving Receptor   =  +0.00 kcal/mol
DOCKED: USER    (2) Final Total Internal Energy     =  -0.73 kcal/mol
DOCKED: USER    (3) Torsional Free Energy           =  +1.49 kcal/mol
DOCKED: USER    (4) Unbound System's Energy         =  -0.73 kcal/mol
DOCKED: USER
DOCKED: USER
DOCKED: REMARK  5 active torsions:
DOCKED: REMARK  status: ('A' for Active; 'I' for Inactive)
DOCKED: REMARK    1  A    between atoms: C_2  and  C_19 
DOCKED: REMARK    2  A    between atoms: C_2  and  C_11 
DOCKED: REMARK    3  A    between atoms: C_19  and  C_20 
DOCKED: REMARK    4  A    between atoms: C_20  and  C_21 
DOCKED: REMARK    5  A    between atoms: C_21  and  N_22 
DOCKED: USER                              x       y       z     vdW  Elec       q    Type
DOCKED: USER                           _______ _______ _______ _____ _____    ______ ____
DOCKED: ROOT
DOCKED: ATOM      1  O   UNL     1     -44.799 -24.350   8.420 -0.06 -0.00    -0.346 OA 
DOCKED: ATOM      2  C   UNL     1     -43.823 -23.297   8.137 -0.11 +0.00    +0.130 C  
DOCKED: ATOM      3  C   UNL     1     -43.533 -23.459   6.673 -0.24 +0.00    +0.004 A  
DOCKED: ATOM      4  C   UNL     1     -44.353 -24.445   6.141 -0.28 +0.00    +0.006 A  
DOCKED: ATOM      5  C   UNL     1     -45.237 -24.987   7.197 -0.00 +0.00    +0.169 C  
DOCKED: ATOM      6  C   UNL     1     -42.625 -22.781   5.873 -0.31 -0.00    -0.001 A  
DOCKED: ATOM      7  C   UNL     1     -44.291 -24.788   4.801 -0.36 +0.00    +0.008 A  
DOCKED: ATOM      8  C   UNL     1     -42.548 -23.119   4.520 -0.14 +0.00    +0.010 A  
DOCKED: ATOM      9  C   UNL     1     -43.377 -24.117   3.988 -0.31 +0.00    +0.068 A  
DOCKED: ATOM     10  N   UNL     1     -43.212 -24.715   1.472 -2.76 -0.00    -0.191 NA 
DOCKED: ATOM     11  C   UNL     1     -43.286 -24.447   2.600 -0.27 +0.00    +0.101 C  
DOCKED: ENDROOT
DOCKED: BRANCH   2  12
DOCKED: ATOM     12  C   UNL     1     -44.455 -21.951   8.471 -0.12 +0.00    +0.038 C  
DOCKED: BRANCH  12  13
DOCKED: ATOM     13  C   UNL     1     -43.804 -20.818   7.680 -0.18 +0.00    +0.038 C  
DOCKED: BRANCH  13  14
DOCKED: ATOM     14  C   UNL     1     -44.333 -19.458   8.131 -0.07 +0.00    +0.251 C  
DOCKED: BRANCH  14  15
DOCKED: ATOM     15  N   UNL     1     -45.125 -18.845   7.072 -0.17 +0.00    +0.141 N  
DOCKED: ATOM     16  C   UNL     1     -46.215 -19.733   6.664 -0.11 +0.00    +0.285 C  
DOCKED: ATOM     17  C   UNL     1     -45.659 -17.554   7.509 -0.06 +0.00    +0.285 C  
DOCKED: ENDBRANCH  14  15
DOCKED: ENDBRANCH  13  14
DOCKED: ENDBRANCH  12  13
DOCKED: ENDBRANCH   2  12
DOCKED: BRANCH   2  18
DOCKED: ATOM     18  C   UNL     1     -42.633 -23.562   8.998 -0.12 +0.00    +0.006 A  
DOCKED: ATOM     19  C   UNL     1     -42.800 -24.124  10.263 -0.13 +0.00    +0.001 A  
DOCKED: ATOM     20  C   UNL     1     -41.687 -24.371  11.067 -0.14 +0.00    +0.029 A  
DOCKED: ATOM     21  C   UNL     1     -40.409 -24.057  10.605 -0.10 +0.00    +0.140 A  
DOCKED: ATOM     22  C   UNL     1     -40.243 -23.495   9.339 -0.16 +0.00    +0.029 A  
DOCKED: ATOM     23  F   UNL     1     -39.341 -24.296  11.377 -0.04 -0.00    -0.204 F  
DOCKED: ATOM     24  C   UNL     1     -41.356 -23.247   8.534 -0.16 +0.00    +0.001 A  
DOCKED: ENDBRANCH   2  18
DOCKED: TORSDOF 5
DOCKED: TER
DOCKED: ENDMDL
________________________________________________________________________________


    FINAL DOCKED STATE:
    ________________________


Run:   55 / 512
Time taken for this run:   0.002s

DOCKED: MODEL        55
DOCKED: USER    Run = 55
DOCKED: USER
DOCKED: USER    Estimated Free Energy of Binding    =  -4.14 kcal/mol  [=(1)+(2)+(3)-(4)]
DOCKED: USER
DOCKED: USER    (1) Final Intermolecular Energy     =  -5.63 kcal/mol
DOCKED: USER        vdW + Hbond + desolv Energy     =  -5.63 kcal/mol
DOCKED: USER        Electrostatic Energy            =  +0.00 kcal/mol
DOCKED: USER        Moving Ligand-Fixed Receptor    =  -5.63 kcal/mol
DOCKED: USER        Moving Ligand-Moving Receptor   =  +0.00 kcal/mol
DOCKED: USER    (2) Final Total Internal Energy     =  -1.11 kcal/mol
DOCKED: USER    (3) Torsional Free Energy           =  +1.49 kcal/mol
DOCKED: USER    (4) Unbound System's Energy         =  -1.11 kcal/mol
DOCKED: USER
DOCKED: USER
DOCKED: REMARK  5 active torsions:
DOCKED: REMARK  status: ('A' for Active; 'I' for Inactive)
DOCKED: REMARK    1  A    between atoms: C_2  and  C_19 
DOCKED: REMARK    2  A    between atoms: C_2  and  C_11 
DOCKED: REMARK    3  A    between atoms: C_19  and  C_20 
DOCKED: REMARK    4  A    between atoms: C_20  and  C_21 
DOCKED: REMARK    5  A    between atoms: C_21  and  N_22 
DOCKED: USER                              x       y       z     vdW  Elec       q    Type
DOCKED: USER                           _______ _______ _______ _____ _____    ______ ____
DOCKED: ROOT
DOCKED: ATOM      1  O   UNL     1     -44.510 -19.630   7.788 -0.05 -0.00    -0.346 OA 
DOCKED: ATOM      2  C   UNL     1     -43.063 -19.675   7.571 -0.15 +0.00    +0.130 C  
DOCKED: ATOM      3  C   UNL     1     -42.817 -21.070   7.076 -0.22 +0.00    +0.004 A  
DOCKED: ATOM      4  C   UNL     1     -44.027 -21.730   6.917 -0.22 +0.00    +0.006 A  
DOCKED: ATOM      5  C   UNL     1     -45.143 -20.827   7.278 -0.18 +0.00    +0.169 C  
DOCKED: ATOM      6  C   UNL     1     -41.618 -21.702   6.778 -0.27 -0.00    -0.001 A  
DOCKED: ATOM      7  C   UNL     1     -44.082 -23.037   6.463 -0.24 +0.00    +0.008 A  
DOCKED: ATOM      8  C   UNL     1     -41.656 -23.021   6.323 -0.33 +0.00    +0.010 A  
DOCKED: ATOM      9  C   UNL     1     -42.882 -23.684   6.166 -0.26 +0.00    +0.068 A  
DOCKED: ATOM     10  N   UNL     1     -42.916 -26.131   5.314 -2.60 -0.00    -0.191 NA 
DOCKED: ATOM     11  C   UNL     1     -42.901 -25.034   5.697 -0.37 +0.00    +0.101 C  
DOCKED: ENDROOT
DOCKED: BRANCH   2  12
DOCKED: ATOM     12  C   UNL     1     -42.696 -18.608   6.547 -0.21 +0.00    +0.038 C  
DOCKED: BRANCH  12  13
DOCKED: ATOM     13  C   UNL     1     -43.923 -17.814   6.104 -0.19 +0.00    +0.038 C  
DOCKED: BRANCH  13  14
DOCKED: ATOM     14  C   UNL     1     -44.154 -16.607   7.013 -0.07 +0.00    +0.251 C  
DOCKED: BRANCH  14  15
DOCKED: ATOM     15  N   UNL     1     -43.979 -15.368   6.264 -0.06 +0.00    +0.141 N  
DOCKED: ATOM     16  C   UNL     1     -42.559 -15.096   6.041 -0.03 +0.00    +0.285 C  
DOCKED: ATOM     17  C   UNL     1     -44.691 -15.433   4.987 -0.09 +0.00    +0.285 C  
DOCKED: ENDBRANCH  14  15
DOCKED: ENDBRANCH  13  14
DOCKED: ENDBRANCH  12  13
DOCKED: ENDBRANCH   2  12
DOCKED: BRANCH   2  18
DOCKED: ATOM     18  C   UNL     1     -42.417 -19.402   8.888 -0.05 +0.00    +0.006 A  
DOCKED: ATOM     19  C   UNL     1     -43.198 -19.285  10.037 -0.02 +0.00    +0.001 A  
DOCKED: ATOM     20  C   UNL     1     -42.592 -19.030  11.268 -0.00 +0.00    +0.029 A  
DOCKED: ATOM     21  C   UNL     1     -41.207 -18.893  11.348 -0.00 +0.00    +0.140 A  
DOCKED: ATOM     22  C   UNL     1     -40.426 -19.011  10.198 -0.01 +0.00    +0.029 A  
DOCKED: ATOM     23  F   UNL     1     -40.625 -18.650  12.530 +0.00 -0.00    -0.204 F  
DOCKED: ATOM     24  C   UNL     1     -41.031 -19.265   8.967 -0.04 +0.00    +0.001 A  
DOCKED: ENDBRANCH   2  18
DOCKED: TORSDOF 5
DOCKED: TER
DOCKED: ENDMDL
________________________________________________________________________________


    FINAL DOCKED STATE:
    ________________________


Run:   56 / 512
Time taken for this run:   0.002s

DOCKED: MODEL        56
DOCKED: USER    Run = 56
DOCKED: USER
DOCKED: USER    Estimated Free Energy of Binding    =  -3.59 kcal/mol  [=(1)+(2)+(3)-(4)]
DOCKED: USER
DOCKED: USER    (1) Final Intermolecular Energy     =  -5.09 kcal/mol
DOCKED: USER        vdW + Hbond + desolv Energy     =  -5.09 kcal/mol
DOCKED: USER        Electrostatic Energy            =  +0.00 kcal/mol
DOCKED: USER        Moving Ligand-Fixed Receptor    =  -5.09 kcal/mol
DOCKED: USER        Moving Ligand-Moving Receptor   =  +0.00 kcal/mol
DOCKED: USER    (2) Final Total Internal Energy     =  -1.44 kcal/mol
DOCKED: USER    (3) Torsional Free Energy           =  +1.49 kcal/mol
DOCKED: USER    (4) Unbound System's Energy         =  -1.44 kcal/mol
DOCKED: USER
DOCKED: USER
DOCKED: REMARK  5 active torsions:
DOCKED: REMARK  status: ('A' for Active; 'I' for Inactive)
DOCKED: REMARK    1  A    between atoms: C_2  and  C_19 
DOCKED: REMARK    2  A    between atoms: C_2  and  C_11 
DOCKED: REMARK    3  A    between atoms: C_19  and  C_20 
DOCKED: REMARK    4  A    between atoms: C_20  and  C_21 
DOCKED: REMARK    5  A    between atoms: C_21  and  N_22 
DOCKED: USER                              x       y       z     vdW  Elec       q    Type
DOCKED: USER                           _______ _______ _______ _____ _____    ______ ____
DOCKED: ROOT
DOCKED: ATOM      1  O   UNL     1     -37.755 -16.048   1.183 -0.04 -0.00    -0.346 OA 
DOCKED: ATOM      2  C   UNL     1     -38.933 -16.120   0.318 -0.23 +0.00    +0.130 C  
DOCKED: ATOM      3  C   UNL     1     -38.641 -15.129  -0.771 -0.27 +0.00    +0.004 A  
DOCKED: ATOM      4  C   UNL     1     -37.362 -14.617  -0.606 -0.13 +0.00    +0.006 A  
DOCKED: ATOM      5  C   UNL     1     -36.724 -15.233   0.579 -0.12 +0.00    +0.169 C  
DOCKED: ATOM      6  C   UNL     1     -39.439 -14.722  -1.831 -0.24 -0.00    -0.001 A  
DOCKED: ATOM      7  C   UNL     1     -36.841 -13.683  -1.484 -0.12 +0.00    +0.008 A  
DOCKED: ATOM      8  C   UNL     1     -38.929 -13.777  -2.723 -0.36 +0.00    +0.010 A  
DOCKED: ATOM      9  C   UNL     1     -37.636 -13.261  -2.551 -0.22 +0.00    +0.068 A  
DOCKED: ATOM     10  N   UNL     1     -36.719 -11.512  -4.228 -0.75 -0.00    -0.191 NA 
DOCKED: ATOM     11  C   UNL     1     -37.131 -12.296  -3.475 -0.26 +0.00    +0.101 C  
DOCKED: ENDROOT
DOCKED: BRANCH   2  12
DOCKED: ATOM     12  C   UNL     1     -39.066 -17.548  -0.199 -0.10 +0.00    +0.038 C  
DOCKED: BRANCH  12  13
DOCKED: ATOM     13  C   UNL     1     -38.055 -18.478   0.469 -0.22 +0.00    +0.038 C  
DOCKED: BRANCH  13  14
DOCKED: ATOM     14  C   UNL     1     -36.971 -18.909  -0.517 -0.14 +0.00    +0.251 C  
DOCKED: BRANCH  14  15
DOCKED: ATOM     15  N   UNL     1     -36.687 -17.834  -1.461 -0.12 +0.00    +0.141 N  
DOCKED: ATOM     16  C   UNL     1     -35.244 -17.635  -1.599 -0.02 +0.00    +0.285 C  
DOCKED: ATOM     17  C   UNL     1     -37.287 -18.122  -2.765 -0.16 +0.00    +0.285 C  
DOCKED: ENDBRANCH  14  15
DOCKED: ENDBRANCH  13  14
DOCKED: ENDBRANCH  12  13
DOCKED: ENDBRANCH   2  12
DOCKED: BRANCH   2  18
DOCKED: ATOM     18  C   UNL     1     -40.111 -15.738   1.152 -0.29 +0.00    +0.006 A  
DOCKED: ATOM     19  C   UNL     1     -40.303 -14.406   1.517 -0.27 +0.00    +0.001 A  
DOCKED: ATOM     20  C   UNL     1     -41.404 -14.050   2.297 -0.29 +0.00    +0.029 A  
DOCKED: ATOM     21  C   UNL     1     -42.310 -15.025   2.709 -0.19 +0.00    +0.140 A  
DOCKED: ATOM     22  C   UNL     1     -42.118 -16.357   2.343 -0.24 +0.00    +0.029 A  
DOCKED: ATOM     23  F   UNL     1     -43.368 -14.683   3.456 -0.02 -0.00    -0.204 F  
DOCKED: ATOM     24  C   UNL     1     -41.017 -16.714   1.564 -0.26 +0.00    +0.001 A  
DOCKED: ENDBRANCH   2  18
DOCKED: TORSDOF 5
DOCKED: TER
DOCKED: ENDMDL
________________________________________________________________________________


    FINAL DOCKED STATE:
    ________________________


Run:   57 / 512
Time taken for this run:   0.002s

DOCKED: MODEL        57
DOCKED: USER    Run = 57
DOCKED: USER
DOCKED: USER    Estimated Free Energy of Binding    =  -3.93 kcal/mol  [=(1)+(2)+(3)-(4)]
DOCKED: USER
DOCKED: USER    (1) Final Intermolecular Energy     =  -5.42 kcal/mol
DOCKED: USER        vdW + Hbond + desolv Energy     =  -5.42 kcal/mol
DOCKED: USER        Electrostatic Energy            =  +0.00 kcal/mol
DOCKED: USER        Moving Ligand-Fixed Receptor    =  -5.42 kcal/mol
DOCKED: USER        Moving Ligand-Moving Receptor   =  +0.00 kcal/mol
DOCKED: USER    (2) Final Total Internal Energy     =  -1.49 kcal/mol
DOCKED: USER    (3) Torsional Free Energy           =  +1.49 kcal/mol
DOCKED: USER    (4) Unbound System's Energy         =  -1.49 kcal/mol
DOCKED: USER
DOCKED: USER
DOCKED: REMARK  5 active torsions:
DOCKED: REMARK  status: ('A' for Active; 'I' for Inactive)
DOCKED: REMARK    1  A    between atoms: C_2  and  C_19 
DOCKED: REMARK    2  A    between atoms: C_2  and  C_11 
DOCKED: REMARK    3  A    between atoms: C_19  and  C_20 
DOCKED: REMARK    4  A    between atoms: C_20  and  C_21 
DOCKED: REMARK    5  A    between atoms: C_21  and  N_22 
DOCKED: USER                              x       y       z     vdW  Elec       q    Type
DOCKED: USER                           _______ _______ _______ _____ _____    ______ ____
DOCKED: ROOT
DOCKED: ATOM      1  O   UNL     1     -40.500 -21.586   9.768 -0.01 -0.00    -0.346 OA 
DOCKED: ATOM      2  C   UNL     1     -40.532 -20.898   8.476 -0.09 +0.00    +0.130 C  
DOCKED: ATOM      3  C   UNL     1     -41.094 -21.925   7.536 -0.20 +0.00    +0.004 A  
DOCKED: ATOM      4  C   UNL     1     -41.456 -23.060   8.246 -0.17 +0.00    +0.006 A  
DOCKED: ATOM      5  C   UNL     1     -41.175 -22.863   9.686 -0.07 +0.00    +0.169 C  
DOCKED: ATOM      6  C   UNL     1     -41.281 -21.854   6.163 -0.28 -0.00    -0.001 A  
DOCKED: ATOM      7  C   UNL     1     -42.010 -24.160   7.614 -0.25 +0.00    +0.008 A  
DOCKED: ATOM      8  C   UNL     1     -41.834 -22.957   5.510 -0.34 +0.00    +0.010 A  
DOCKED: ATOM      9  C   UNL     1     -42.197 -24.104   6.232 -0.30 +0.00    +0.068 A  
DOCKED: ATOM     10  N   UNL     1     -43.226 -26.131   4.989 -2.37 -0.00    -0.191 NA 
DOCKED: ATOM     11  C   UNL     1     -42.764 -25.222   5.546 -0.34 +0.00    +0.101 C  
DOCKED: ENDROOT
DOCKED: BRANCH   2  12
DOCKED: ATOM     12  C   UNL     1     -41.418 -19.665   8.607 -0.07 +0.00    +0.038 C  
DOCKED: BRANCH  12  13
DOCKED: ATOM     13  C   UNL     1     -42.828 -20.038   9.061 -0.05 +0.00    +0.038 C  
DOCKED: BRANCH  13  14
DOCKED: ATOM     14  C   UNL     1     -43.825 -19.919   7.910 -0.09 +0.00    +0.251 C  
DOCKED: BRANCH  14  15
DOCKED: ATOM     15  N   UNL     1     -44.875 -20.922   8.043 -0.09 +0.00    +0.141 N  
DOCKED: ATOM     16  C   UNL     1     -44.946 -21.757   6.843 -0.12 +0.00    +0.285 C  
DOCKED: ATOM     17  C   UNL     1     -44.647 -21.753   9.226 -0.01 +0.00    +0.285 C  
DOCKED: ENDBRANCH  14  15
DOCKED: ENDBRANCH  13  14
DOCKED: ENDBRANCH  12  13
DOCKED: ENDBRANCH   2  12
DOCKED: BRANCH   2  18
DOCKED: ATOM     18  C   UNL     1     -39.126 -20.519   8.150 -0.11 +0.00    +0.006 A  
DOCKED: ATOM     19  C   UNL     1     -38.074 -21.351   8.529 -0.12 +0.00    +0.001 A  
DOCKED: ATOM     20  C   UNL     1     -36.759 -20.995   8.224 -0.10 +0.00    +0.029 A  
DOCKED: ATOM     21  C   UNL     1     -36.500 -19.809   7.539 -0.06 +0.00    +0.140 A  
DOCKED: ATOM     22  C   UNL     1     -37.553 -18.977   7.160 -0.07 +0.00    +0.029 A  
DOCKED: ATOM     23  F   UNL     1     -35.238 -19.468   7.244 -0.00 -0.00    -0.204 F  
DOCKED: ATOM     24  C   UNL     1     -38.868 -19.332   7.465 -0.10 +0.00    +0.001 A  
DOCKED: ENDBRANCH   2  18
DOCKED: TORSDOF 5
DOCKED: TER
DOCKED: ENDMDL
________________________________________________________________________________


    FINAL DOCKED STATE:
    ________________________


Run:   58 / 512
Time taken for this run:   0.002s

DOCKED: MODEL        58
DOCKED: USER    Run = 58
DOCKED: USER
DOCKED: USER    Estimated Free Energy of Binding    =  -4.33 kcal/mol  [=(1)+(2)+(3)-(4)]
DOCKED: USER
DOCKED: USER    (1) Final Intermolecular Energy     =  -5.82 kcal/mol
DOCKED: USER        vdW + Hbond + desolv Energy     =  -5.82 kcal/mol
DOCKED: USER        Electrostatic Energy            =  +0.00 kcal/mol
DOCKED: USER        Moving Ligand-Fixed Receptor    =  -5.82 kcal/mol
DOCKED: USER        Moving Ligand-Moving Receptor   =  +0.00 kcal/mol
DOCKED: USER    (2) Final Total Internal Energy     =  -1.30 kcal/mol
DOCKED: USER    (3) Torsional Free Energy           =  +1.49 kcal/mol
DOCKED: USER    (4) Unbound System's Energy         =  -1.30 kcal/mol
DOCKED: USER
DOCKED: USER
DOCKED: REMARK  5 active torsions:
DOCKED: REMARK  status: ('A' for Active; 'I' for Inactive)
DOCKED: REMARK    1  A    between atoms: C_2  and  C_19 
DOCKED: REMARK    2  A    between atoms: C_2  and  C_11 
DOCKED: REMARK    3  A    between atoms: C_19  and  C_20 
DOCKED: REMARK    4  A    between atoms: C_20  and  C_21 
DOCKED: REMARK    5  A    between atoms: C_21  and  N_22 
DOCKED: USER                              x       y       z     vdW  Elec       q    Type
DOCKED: USER                           _______ _______ _______ _____ _____    ______ ____
DOCKED: ROOT
DOCKED: ATOM      1  O   UNL     1     -41.010 -24.879   9.400 -0.11 -0.00    -0.346 OA 
DOCKED: ATOM      2  C   UNL     1     -41.008 -23.460   9.042 -0.14 +0.00    +0.130 C  
DOCKED: ATOM      3  C   UNL     1     -41.396 -23.455   7.591 -0.25 +0.00    +0.004 A  
DOCKED: ATOM      4  C   UNL     1     -41.700 -24.747   7.185 -0.31 +0.00    +0.006 A  
DOCKED: ATOM      5  C   UNL     1     -41.550 -25.680   8.324 -0.17 +0.00    +0.169 C  
DOCKED: ATOM      6  C   UNL     1     -41.483 -22.392   6.705 -0.29 -0.00    -0.001 A  
DOCKED: ATOM      7  C   UNL     1     -42.095 -25.020   5.886 -0.36 +0.00    +0.008 A  
DOCKED: ATOM      8  C   UNL     1     -41.876 -22.651   5.391 -0.30 +0.00    +0.010 A  
DOCKED: ATOM      9  C   UNL     1     -42.181 -23.958   4.984 -0.38 +0.00    +0.068 A  
DOCKED: ATOM     10  N   UNL     1     -42.912 -24.404   2.539 -1.90 -0.00    -0.191 NA 
DOCKED: ATOM     11  C   UNL     1     -42.583 -24.204   3.635 -0.51 +0.00    +0.101 C  
DOCKED: ENDROOT
DOCKED: BRANCH   2  12
DOCKED: ATOM     12  C   UNL     1     -42.016 -22.737   9.927 -0.08 +0.00    +0.038 C  
DOCKED: BRANCH  12  13
DOCKED: ATOM     13  C   UNL     1     -43.247 -22.305   9.132 -0.08 +0.00    +0.038 C  
DOCKED: BRANCH  13  14
DOCKED: ATOM     14  C   UNL     1     -44.519 -22.920   9.713 -0.02 +0.00    +0.251 C  
DOCKED: BRANCH  14  15
DOCKED: ATOM     15  N   UNL     1     -44.555 -24.354   9.450 -0.09 +0.00    +0.141 N  
DOCKED: ATOM     16  C   UNL     1     -45.498 -25.019  10.350 -0.05 +0.00    +0.285 C  
DOCKED: ATOM     17  C   UNL     1     -44.916 -24.613   8.055 -0.08 +0.00    +0.285 C  
DOCKED: ENDBRANCH  14  15
DOCKED: ENDBRANCH  13  14
DOCKED: ENDBRANCH  12  13
DOCKED: ENDBRANCH   2  12
DOCKED: BRANCH   2  18
DOCKED: ATOM     18  C   UNL     1     -39.624 -22.952   9.276 -0.15 +0.00    +0.006 A  
DOCKED: ATOM     19  C   UNL     1     -39.326 -22.260  10.448 -0.07 +0.00    +0.001 A  
DOCKED: ATOM     20  C   UNL     1     -38.031 -21.785  10.665 -0.05 +0.00    +0.029 A  
DOCKED: ATOM     21  C   UNL     1     -37.039 -22.004   9.711 -0.06 +0.00    +0.140 A  
DOCKED: ATOM     22  C   UNL     1     -37.339 -22.697   8.539 -0.16 +0.00    +0.029 A  
DOCKED: ATOM     23  F   UNL     1     -35.796 -21.550   9.921 -0.00 -0.00    -0.204 F  
DOCKED: ATOM     24  C   UNL     1     -38.633 -23.172   8.320 -0.19 +0.00    +0.001 A  
DOCKED: ENDBRANCH   2  18
DOCKED: TORSDOF 5
DOCKED: TER
DOCKED: ENDMDL
________________________________________________________________________________


    FINAL DOCKED STATE:
    ________________________


Run:   59 / 512
Time taken for this run:   0.002s

DOCKED: MODEL        59
DOCKED: USER    Run = 59
DOCKED: USER
DOCKED: USER    Estimated Free Energy of Binding    =  -3.90 kcal/mol  [=(1)+(2)+(3)-(4)]
DOCKED: USER
DOCKED: USER    (1) Final Intermolecular Energy     =  -5.39 kcal/mol
DOCKED: USER        vdW + Hbond + desolv Energy     =  -5.39 kcal/mol
DOCKED: USER        Electrostatic Energy            =  +0.00 kcal/mol
DOCKED: USER        Moving Ligand-Fixed Receptor    =  -5.39 kcal/mol
DOCKED: USER        Moving Ligand-Moving Receptor   =  +0.00 kcal/mol
DOCKED: USER    (2) Final Total Internal Energy     =  -1.41 kcal/mol
DOCKED: USER    (3) Torsional Free Energy           =  +1.49 kcal/mol
DOCKED: USER    (4) Unbound System's Energy         =  -1.41 kcal/mol
DOCKED: USER
DOCKED: USER
DOCKED: REMARK  5 active torsions:
DOCKED: REMARK  status: ('A' for Active; 'I' for Inactive)
DOCKED: REMARK    1  A    between atoms: C_2  and  C_19 
DOCKED: REMARK    2  A    between atoms: C_2  and  C_11 
DOCKED: REMARK    3  A    between atoms: C_19  and  C_20 
DOCKED: REMARK    4  A    between atoms: C_20  and  C_21 
DOCKED: REMARK    5  A    between atoms: C_21  and  N_22 
DOCKED: USER                              x       y       z     vdW  Elec       q    Type
DOCKED: USER                           _______ _______ _______ _____ _____    ______ ____
DOCKED: ROOT
DOCKED: ATOM      1  O   UNL     1     -41.789 -19.598   7.469 -0.05 -0.00    -0.346 OA 
DOCKED: ATOM      2  C   UNL     1     -40.618 -20.437   7.727 -0.13 +0.00    +0.130 C  
DOCKED: ATOM      3  C   UNL     1     -41.018 -21.785   7.199 -0.23 +0.00    +0.004 A  
DOCKED: ATOM      4  C   UNL     1     -42.263 -21.698   6.593 -0.26 +0.00    +0.006 A  
DOCKED: ATOM      5  C   UNL     1     -42.761 -20.306   6.665 -0.18 +0.00    +0.169 C  
DOCKED: ATOM      6  C   UNL     1     -40.329 -22.988   7.241 -0.25 -0.00    -0.001 A  
DOCKED: ATOM      7  C   UNL     1     -42.862 -22.805   6.015 -0.28 +0.00    +0.008 A  
DOCKED: ATOM      8  C   UNL     1     -40.922 -24.114   6.667 -0.35 +0.00    +0.010 A  
DOCKED: ATOM      9  C   UNL     1     -42.181 -24.023   6.057 -0.32 +0.00    +0.068 A  
DOCKED: ATOM     10  N   UNL     1     -43.251 -26.131   4.997 -2.37 -0.00    -0.191 NA 
DOCKED: ATOM     11  C   UNL     1     -42.772 -25.186   5.473 -0.37 +0.00    +0.101 C  
DOCKED: ENDROOT
DOCKED: BRANCH   2  12
DOCKED: ATOM     12  C   UNL     1     -39.425 -19.841   6.989 -0.17 +0.00    +0.038 C  
DOCKED: BRANCH  12  13
DOCKED: ATOM     13  C   UNL     1     -39.740 -18.443   6.460 -0.13 +0.00    +0.038 C  
DOCKED: BRANCH  13  14
DOCKED: ATOM     14  C   UNL     1     -40.012 -17.470   7.606 -0.03 +0.00    +0.251 C  
DOCKED: BRANCH  14  15
DOCKED: ATOM     15  N   UNL     1     -40.988 -16.466   7.199 -0.03 +0.00    +0.141 N  
DOCKED: ATOM     16  C   UNL     1     -41.628 -16.850   5.940 -0.10 +0.00    +0.285 C  
DOCKED: ATOM     17  C   UNL     1     -41.996 -16.273   8.242 -0.01 +0.00    +0.285 C  
DOCKED: ENDBRANCH  14  15
DOCKED: ENDBRANCH  13  14
DOCKED: ENDBRANCH  12  13
DOCKED: ENDBRANCH   2  12
DOCKED: BRANCH   2  18
DOCKED: ATOM     18  C   UNL     1     -40.395 -20.433   9.202 -0.05 +0.00    +0.006 A  
DOCKED: ATOM     19  C   UNL     1     -41.483 -20.513  10.071 -0.02 +0.00    +0.001 A  
DOCKED: ATOM     20  C   UNL     1     -41.273 -20.509  11.451 -0.01 +0.00    +0.029 A  
DOCKED: ATOM     21  C   UNL     1     -39.977 -20.426  11.959 -0.00 +0.00    +0.140 A  
DOCKED: ATOM     22  C   UNL     1     -38.890 -20.347  11.089 -0.01 +0.00    +0.029 A  
DOCKED: ATOM     23  F   UNL     1     -39.776 -20.425  13.283 +0.00 -0.00    -0.204 F  
DOCKED: ATOM     24  C   UNL     1     -39.099 -20.350   9.709 -0.04 +0.00    +0.001 A  
DOCKED: ENDBRANCH   2  18
DOCKED: TORSDOF 5
DOCKED: TER
DOCKED: ENDMDL
________________________________________________________________________________


    FINAL DOCKED STATE:
    ________________________


Run:   60 / 512
Time taken for this run:   0.002s

DOCKED: MODEL        60
DOCKED: USER    Run = 60
DOCKED: USER
DOCKED: USER    Estimated Free Energy of Binding    =  -5.10 kcal/mol  [=(1)+(2)+(3)-(4)]
DOCKED: USER
DOCKED: USER    (1) Final Intermolecular Energy     =  -6.59 kcal/mol
DOCKED: USER        vdW + Hbond + desolv Energy     =  -6.59 kcal/mol
DOCKED: USER        Electrostatic Energy            =  +0.00 kcal/mol
DOCKED: USER        Moving Ligand-Fixed Receptor    =  -6.59 kcal/mol
DOCKED: USER        Moving Ligand-Moving Receptor   =  +0.00 kcal/mol
DOCKED: USER    (2) Final Total Internal Energy     =  -1.30 kcal/mol
DOCKED: USER    (3) Torsional Free Energy           =  +1.49 kcal/mol
DOCKED: USER    (4) Unbound System's Energy         =  -1.30 kcal/mol
DOCKED: USER
DOCKED: USER
DOCKED: REMARK  5 active torsions:
DOCKED: REMARK  status: ('A' for Active; 'I' for Inactive)
DOCKED: REMARK    1  A    between atoms: C_2  and  C_19 
DOCKED: REMARK    2  A    between atoms: C_2  and  C_11 
DOCKED: REMARK    3  A    between atoms: C_19  and  C_20 
DOCKED: REMARK    4  A    between atoms: C_20  and  C_21 
DOCKED: REMARK    5  A    between atoms: C_21  and  N_22 
DOCKED: USER                              x       y       z     vdW  Elec       q    Type
DOCKED: USER                           _______ _______ _______ _____ _____    ______ ____
DOCKED: ROOT
DOCKED: ATOM      1  O   UNL     1     -39.249 -15.995   0.873 -0.10 -0.00    -0.346 OA 
DOCKED: ATOM      2  C   UNL     1     -37.933 -15.760   0.276 -0.17 +0.00    +0.130 C  
DOCKED: ATOM      3  C   UNL     1     -38.242 -15.033  -1.000 -0.25 +0.00    +0.004 A  
DOCKED: ATOM      4  C   UNL     1     -39.604 -14.776  -1.074 -0.25 +0.00    +0.006 A  
DOCKED: ATOM      5  C   UNL     1     -40.279 -15.296   0.136 -0.11 +0.00    +0.169 C  
DOCKED: ATOM      6  C   UNL     1     -37.384 -14.622  -2.010 -0.21 -0.00    -0.001 A  
DOCKED: ATOM      7  C   UNL     1     -40.153 -14.108  -2.154 -0.38 +0.00    +0.008 A  
DOCKED: ATOM      8  C   UNL     1     -37.924 -13.950  -3.109 -0.27 +0.00    +0.010 A  
DOCKED: ATOM      9  C   UNL     1     -39.302 -13.694  -3.180 -0.30 +0.00    +0.068 A  
DOCKED: ATOM     10  N   UNL     1     -40.270 -12.441  -5.230 -2.44 -0.00    -0.191 NA 
DOCKED: ATOM     11  C   UNL     1     -39.836 -13.004  -4.311 -0.40 +0.00    +0.101 C  
DOCKED: ENDROOT
DOCKED: BRANCH   2  12
DOCKED: ATOM     12  C   UNL     1     -37.104 -14.928   1.248 -0.17 +0.00    +0.038 C  
DOCKED: BRANCH  12  13
DOCKED: ATOM     13  C   UNL     1     -37.408 -15.298   2.698 -0.14 +0.00    +0.038 C  
DOCKED: BRANCH  13  14
DOCKED: ATOM     14  C   UNL     1     -38.259 -14.223   3.372 -0.13 +0.00    +0.251 C  
DOCKED: BRANCH  14  15
DOCKED: ATOM     15  N   UNL     1     -39.663 -14.389   3.015 -0.18 +0.00    +0.141 N  
DOCKED: ATOM     16  C   UNL     1     -40.274 -15.457   3.809 -0.08 +0.00    +0.285 C  
DOCKED: ATOM     17  C   UNL     1     -40.394 -13.135   3.203 -0.16 +0.00    +0.285 C  
DOCKED: ENDBRANCH  14  15
DOCKED: ENDBRANCH  13  14
DOCKED: ENDBRANCH  12  13
DOCKED: ENDBRANCH   2  12
DOCKED: BRANCH   2  18
DOCKED: ATOM     18  C   UNL     1     -37.313 -17.098   0.048 -0.12 +0.00    +0.006 A  
DOCKED: ATOM     19  C   UNL     1     -36.209 -17.220  -0.795 -0.07 +0.00    +0.001 A  
DOCKED: ATOM     20  C   UNL     1     -35.631 -18.472  -1.008 -0.07 +0.00    +0.029 A  
DOCKED: ATOM     21  C   UNL     1     -36.155 -19.599  -0.377 -0.13 +0.00    +0.140 A  
DOCKED: ATOM     22  C   UNL     1     -37.258 -19.476   0.467 -0.21 +0.00    +0.029 A  
DOCKED: ATOM     23  F   UNL     1     -35.598 -20.800  -0.580 -0.06 -0.00    -0.204 F  
DOCKED: ATOM     24  C   UNL     1     -37.839 -18.224   0.680 -0.18 +0.00    +0.001 A  
DOCKED: ENDBRANCH   2  18
DOCKED: TORSDOF 5
DOCKED: TER
DOCKED: ENDMDL
________________________________________________________________________________


    FINAL DOCKED STATE:
    ________________________


Run:   61 / 512
Time taken for this run:   0.002s

DOCKED: MODEL        61
DOCKED: USER    Run = 61
DOCKED: USER
DOCKED: USER    Estimated Free Energy of Binding    =  -3.88 kcal/mol  [=(1)+(2)+(3)-(4)]
DOCKED: USER
DOCKED: USER    (1) Final Intermolecular Energy     =  -5.37 kcal/mol
DOCKED: USER        vdW + Hbond + desolv Energy     =  -5.37 kcal/mol
DOCKED: USER        Electrostatic Energy            =  +0.00 kcal/mol
DOCKED: USER        Moving Ligand-Fixed Receptor    =  -5.37 kcal/mol
DOCKED: USER        Moving Ligand-Moving Receptor   =  +0.00 kcal/mol
DOCKED: USER    (2) Final Total Internal Energy     =  -1.01 kcal/mol
DOCKED: USER    (3) Torsional Free Energy           =  +1.49 kcal/mol
DOCKED: USER    (4) Unbound System's Energy         =  -1.01 kcal/mol
DOCKED: USER
DOCKED: USER
DOCKED: REMARK  5 active torsions:
DOCKED: REMARK  status: ('A' for Active; 'I' for Inactive)
DOCKED: REMARK    1  A    between atoms: C_2  and  C_19 
DOCKED: REMARK    2  A    between atoms: C_2  and  C_11 
DOCKED: REMARK    3  A    between atoms: C_19  and  C_20 
DOCKED: REMARK    4  A    between atoms: C_20  and  C_21 
DOCKED: REMARK    5  A    between atoms: C_21  and  N_22 
DOCKED: USER                              x       y       z     vdW  Elec       q    Type
DOCKED: USER                           _______ _______ _______ _____ _____    ______ ____
DOCKED: ROOT
DOCKED: ATOM      1  O   UNL     1     -40.565 -20.234   7.960 -0.03 -0.00    -0.346 OA 
DOCKED: ATOM      2  C   UNL     1     -39.635 -21.331   8.230 -0.13 +0.00    +0.130 C  
DOCKED: ATOM      3  C   UNL     1     -40.288 -22.522   7.591 -0.23 +0.00    +0.004 A  
DOCKED: ATOM      4  C   UNL     1     -41.434 -22.122   6.920 -0.27 +0.00    +0.006 A  
DOCKED: ATOM      5  C   UNL     1     -41.610 -20.659   7.055 -0.18 +0.00    +0.169 C  
DOCKED: ATOM      6  C   UNL     1     -39.892 -23.852   7.594 -0.28 -0.00    -0.001 A  
DOCKED: ATOM      7  C   UNL     1     -42.223 -23.031   6.236 -0.32 +0.00    +0.008 A  
DOCKED: ATOM      8  C   UNL     1     -40.680 -24.782   6.912 -0.40 +0.00    +0.010 A  
DOCKED: ATOM      9  C   UNL     1     -41.839 -24.373   6.236 -0.33 +0.00    +0.068 A  
DOCKED: ATOM     10  N   UNL     1     -43.275 -26.123   4.977 -2.36 -0.00    -0.191 NA 
DOCKED: ATOM     11  C   UNL     1     -42.631 -25.338   5.542 -0.31 +0.00    +0.101 C  
DOCKED: ENDROOT
DOCKED: BRANCH   2  12
DOCKED: ATOM     12  C   UNL     1     -38.288 -20.986   7.606 -0.09 +0.00    +0.038 C  
DOCKED: BRANCH  12  13
DOCKED: ATOM     13  C   UNL     1     -37.883 -19.546   7.914 -0.08 +0.00    +0.038 C  
DOCKED: BRANCH  13  14
DOCKED: ATOM     14  C   UNL     1     -37.143 -18.919   6.735 -0.06 +0.00    +0.251 C  
DOCKED: BRANCH  14  15
DOCKED: ATOM     15  N   UNL     1     -35.775 -19.420   6.670 -0.05 +0.00    +0.141 N  
DOCKED: ATOM     16  C   UNL     1     -35.248 -19.307   5.309 -0.04 +0.00    +0.285 C  
DOCKED: ATOM     17  C   UNL     1     -34.916 -18.696   7.609 -0.01 +0.00    +0.285 C  
DOCKED: ENDBRANCH  14  15
DOCKED: ENDBRANCH  13  14
DOCKED: ENDBRANCH  12  13
DOCKED: ENDBRANCH   2  12
DOCKED: BRANCH   2  18
DOCKED: ATOM     18  C   UNL     1     -39.524 -21.454   9.713 -0.06 +0.00    +0.006 A  
DOCKED: ATOM     19  C   UNL     1     -40.584 -21.055  10.526 -0.03 +0.00    +0.001 A  
DOCKED: ATOM     20  C   UNL     1     -40.480 -21.170  11.913 -0.01 +0.00    +0.029 A  
DOCKED: ATOM     21  C   UNL     1     -39.317 -21.685  12.484 -0.01 +0.00    +0.140 A  
DOCKED: ATOM     22  C   UNL     1     -38.257 -22.085  11.670 -0.04 +0.00    +0.029 A  
DOCKED: ATOM     23  F   UNL     1     -39.218 -21.798  13.815 +0.00 -0.00    -0.204 F  
DOCKED: ATOM     24  C   UNL     1     -38.361 -21.969  10.283 -0.07 +0.00    +0.001 A  
DOCKED: ENDBRANCH   2  18
DOCKED: TORSDOF 5
DOCKED: TER
DOCKED: ENDMDL
________________________________________________________________________________


    FINAL DOCKED STATE:
    ________________________


Run:   62 / 512
Time taken for this run:   0.002s

DOCKED: MODEL        62
DOCKED: USER    Run = 62
DOCKED: USER
DOCKED: USER    Estimated Free Energy of Binding    =  -4.33 kcal/mol  [=(1)+(2)+(3)-(4)]
DOCKED: USER
DOCKED: USER    (1) Final Intermolecular Energy     =  -5.82 kcal/mol
DOCKED: USER        vdW + Hbond + desolv Energy     =  -5.82 kcal/mol
DOCKED: USER        Electrostatic Energy            =  +0.00 kcal/mol
DOCKED: USER        Moving Ligand-Fixed Receptor    =  -5.82 kcal/mol
DOCKED: USER        Moving Ligand-Moving Receptor   =  +0.00 kcal/mol
DOCKED: USER    (2) Final Total Internal Energy     =  -1.15 kcal/mol
DOCKED: USER    (3) Torsional Free Energy           =  +1.49 kcal/mol
DOCKED: USER    (4) Unbound System's Energy         =  -1.15 kcal/mol
DOCKED: USER
DOCKED: USER
DOCKED: REMARK  5 active torsions:
DOCKED: REMARK  status: ('A' for Active; 'I' for Inactive)
DOCKED: REMARK    1  A    between atoms: C_2  and  C_19 
DOCKED: REMARK    2  A    between atoms: C_2  and  C_11 
DOCKED: REMARK    3  A    between atoms: C_19  and  C_20 
DOCKED: REMARK    4  A    between atoms: C_20  and  C_21 
DOCKED: REMARK    5  A    between atoms: C_21  and  N_22 
DOCKED: USER                              x       y       z     vdW  Elec       q    Type
DOCKED: USER                           _______ _______ _______ _____ _____    ______ ____
DOCKED: ROOT
DOCKED: ATOM      1  O   UNL     1     -40.022 -15.655   1.776 -0.10 -0.00    -0.346 OA 
DOCKED: ATOM      2  C   UNL     1     -38.667 -15.552   1.231 -0.20 +0.00    +0.130 C  
DOCKED: ATOM      3  C   UNL     1     -38.875 -14.984  -0.143 -0.22 +0.00    +0.004 A  
DOCKED: ATOM      4  C   UNL     1     -40.218 -14.684  -0.326 -0.08 +0.00    +0.006 A  
DOCKED: ATOM      5  C   UNL     1     -40.978 -15.016   0.899 -0.05 +0.00    +0.169 C  
DOCKED: ATOM      6  C   UNL     1     -37.949 -14.741  -1.146 -0.22 -0.00    -0.001 A  
DOCKED: ATOM      7  C   UNL     1     -40.679 -14.138  -1.512 -0.04 +0.00    +0.008 A  
DOCKED: ATOM      8  C   UNL     1     -38.399 -14.195  -2.350 -0.30 +0.00    +0.010 A  
DOCKED: ATOM      9  C   UNL     1     -39.757 -13.895  -2.531 -0.34 +0.00    +0.068 A  
DOCKED: ATOM     10  N   UNL     1     -40.558 -12.877  -4.775 -2.36 -0.00    -0.191 NA 
DOCKED: ATOM     11  C   UNL     1     -40.199 -13.334  -3.769 -0.32 +0.00    +0.101 C  
DOCKED: ENDROOT
DOCKED: BRANCH   2  12
DOCKED: ATOM     12  C   UNL     1     -37.851 -14.637   2.135 -0.16 +0.00    +0.038 C  
DOCKED: BRANCH  12  13
DOCKED: ATOM     13  C   UNL     1     -38.540 -14.425   3.482 -0.18 +0.00    +0.038 C  
DOCKED: BRANCH  13  14
DOCKED: ATOM     14  C   UNL     1     -39.400 -13.163   3.466 -0.05 +0.00    +0.251 C  
DOCKED: BRANCH  14  15
DOCKED: ATOM     15  N   UNL     1     -40.412 -13.226   4.514 -0.12 +0.00    +0.141 N  
DOCKED: ATOM     16  C   UNL     1     -41.726 -12.853   3.986 -0.11 +0.00    +0.285 C  
DOCKED: ATOM     17  C   UNL     1     -40.463 -14.566   5.102 -0.04 +0.00    +0.285 C  
DOCKED: ENDBRANCH  14  15
DOCKED: ENDBRANCH  13  14
DOCKED: ENDBRANCH  12  13
DOCKED: ENDBRANCH   2  12
DOCKED: BRANCH   2  18
DOCKED: ATOM     18  C   UNL     1     -38.100 -16.933   1.209 -0.14 +0.00    +0.006 A  
DOCKED: ATOM     19  C   UNL     1     -38.195 -17.742   2.340 -0.12 +0.00    +0.001 A  
DOCKED: ATOM     20  C   UNL     1     -37.664 -19.033   2.319 -0.16 +0.00    +0.029 A  
DOCKED: ATOM     21  C   UNL     1     -37.040 -19.511   1.167 -0.15 +0.00    +0.140 A  
DOCKED: ATOM     22  C   UNL     1     -36.945 -18.700   0.037 -0.15 +0.00    +0.029 A  
DOCKED: ATOM     23  F   UNL     1     -36.531 -20.750   1.147 -0.06 -0.00    -0.204 F  
DOCKED: ATOM     24  C   UNL     1     -37.476 -17.409   0.057 -0.14 +0.00    +0.001 A  
DOCKED: ENDBRANCH   2  18
DOCKED: TORSDOF 5
DOCKED: TER
DOCKED: ENDMDL
________________________________________________________________________________


    FINAL DOCKED STATE:
    ________________________


Run:   63 / 512
Time taken for this run:   0.002s

DOCKED: MODEL        63
DOCKED: USER    Run = 63
DOCKED: USER
DOCKED: USER    Estimated Free Energy of Binding    =  -4.18 kcal/mol  [=(1)+(2)+(3)-(4)]
DOCKED: USER
DOCKED: USER    (1) Final Intermolecular Energy     =  -5.67 kcal/mol
DOCKED: USER        vdW + Hbond + desolv Energy     =  -5.67 kcal/mol
DOCKED: USER        Electrostatic Energy            =  +0.00 kcal/mol
DOCKED: USER        Moving Ligand-Fixed Receptor    =  -5.67 kcal/mol
DOCKED: USER        Moving Ligand-Moving Receptor   =  +0.00 kcal/mol
DOCKED: USER    (2) Final Total Internal Energy     =  -1.46 kcal/mol
DOCKED: USER    (3) Torsional Free Energy           =  +1.49 kcal/mol
DOCKED: USER    (4) Unbound System's Energy         =  -1.46 kcal/mol
DOCKED: USER
DOCKED: USER
DOCKED: REMARK  5 active torsions:
DOCKED: REMARK  status: ('A' for Active; 'I' for Inactive)
DOCKED: REMARK    1  A    between atoms: C_2  and  C_19 
DOCKED: REMARK    2  A    between atoms: C_2  and  C_11 
DOCKED: REMARK    3  A    between atoms: C_19  and  C_20 
DOCKED: REMARK    4  A    between atoms: C_20  and  C_21 
DOCKED: REMARK    5  A    between atoms: C_21  and  N_22 
DOCKED: USER                              x       y       z     vdW  Elec       q    Type
DOCKED: USER                           _______ _______ _______ _____ _____    ______ ____
DOCKED: ROOT
DOCKED: ATOM      1  O   UNL     1     -38.904 -21.132   8.289 -0.06 -0.00    -0.346 OA 
DOCKED: ATOM      2  C   UNL     1     -40.112 -20.430   7.852 -0.12 +0.00    +0.130 C  
DOCKED: ATOM      3  C   UNL     1     -40.951 -21.511   7.234 -0.22 +0.00    +0.004 A  
DOCKED: ATOM      4  C   UNL     1     -40.329 -22.740   7.402 -0.24 +0.00    +0.006 A  
DOCKED: ATOM      5  C   UNL     1     -39.060 -22.563   8.143 -0.14 +0.00    +0.169 C  
DOCKED: ATOM      6  C   UNL     1     -42.174 -21.415   6.585 -0.26 -0.00    -0.001 A  
DOCKED: ATOM      7  C   UNL     1     -40.900 -23.908   6.927 -0.33 +0.00    +0.008 A  
DOCKED: ATOM      8  C   UNL     1     -42.761 -22.583   6.096 -0.28 +0.00    +0.010 A  
DOCKED: ATOM      9  C   UNL     1     -42.127 -23.823   6.267 -0.30 +0.00    +0.068 A  
DOCKED: ATOM     10  N   UNL     1     -43.247 -25.973   5.351 -2.55 -0.00    -0.191 NA 
DOCKED: ATOM     11  C   UNL     1     -42.744 -25.009   5.761 -0.37 +0.00    +0.101 C  
DOCKED: ENDROOT
DOCKED: BRANCH   2  12
DOCKED: ATOM     12  C   UNL     1     -40.768 -19.793   9.071 -0.05 +0.00    +0.038 C  
DOCKED: BRANCH  12  13
DOCKED: ATOM     13  C   UNL     1     -39.913 -19.978  10.324 -0.02 +0.00    +0.038 C  
DOCKED: BRANCH  13  14
DOCKED: ATOM     14  C   UNL     1     -40.616 -20.876  11.341 -0.00 +0.00    +0.251 C  
DOCKED: BRANCH  14  15
DOCKED: ATOM     15  N   UNL     1     -41.047 -22.118  10.708 -0.03 +0.00    +0.141 N  
DOCKED: ATOM     16  C   UNL     1     -40.347 -23.263  11.291 -0.05 +0.00    +0.285 C  
DOCKED: ATOM     17  C   UNL     1     -42.495 -22.287  10.840 -0.01 +0.00    +0.285 C  
DOCKED: ENDBRANCH  14  15
DOCKED: ENDBRANCH  13  14
DOCKED: ENDBRANCH  12  13
DOCKED: ENDBRANCH   2  12
DOCKED: BRANCH   2  18
DOCKED: ATOM     18  C   UNL     1     -39.682 -19.394   6.869 -0.15 +0.00    +0.006 A  
DOCKED: ATOM     19  C   UNL     1     -40.085 -18.069   7.032 -0.09 +0.00    +0.001 A  
DOCKED: ATOM     20  C   UNL     1     -39.683 -17.100   6.112 -0.07 +0.00    +0.029 A  
DOCKED: ATOM     21  C   UNL     1     -38.878 -17.458   5.030 -0.07 +0.00    +0.140 A  
DOCKED: ATOM     22  C   UNL     1     -38.475 -18.783   4.868 -0.13 +0.00    +0.029 A  
DOCKED: ATOM     23  F   UNL     1     -38.490 -16.527   4.148 -0.01 -0.00    -0.204 F  
DOCKED: ATOM     24  C   UNL     1     -38.878 -19.752   5.788 -0.11 +0.00    +0.001 A  
DOCKED: ENDBRANCH   2  18
DOCKED: TORSDOF 5
DOCKED: TER
DOCKED: ENDMDL
________________________________________________________________________________


    FINAL DOCKED STATE:
    ________________________


Run:   64 / 512
Time taken for this run:   0.002s

DOCKED: MODEL        64
DOCKED: USER    Run = 64
DOCKED: USER
DOCKED: USER    Estimated Free Energy of Binding    =  -4.99 kcal/mol  [=(1)+(2)+(3)-(4)]
DOCKED: USER
DOCKED: USER    (1) Final Intermolecular Energy     =  -6.48 kcal/mol
DOCKED: USER        vdW + Hbond + desolv Energy     =  -6.48 kcal/mol
DOCKED: USER        Electrostatic Energy            =  +0.00 kcal/mol
DOCKED: USER        Moving Ligand-Fixed Receptor    =  -6.48 kcal/mol
DOCKED: USER        Moving Ligand-Moving Receptor   =  +0.00 kcal/mol
DOCKED: USER    (2) Final Total Internal Energy     =  -1.35 kcal/mol
DOCKED: USER    (3) Torsional Free Energy           =  +1.49 kcal/mol
DOCKED: USER    (4) Unbound System's Energy         =  -1.35 kcal/mol
DOCKED: USER
DOCKED: USER
DOCKED: REMARK  5 active torsions:
DOCKED: REMARK  status: ('A' for Active; 'I' for Inactive)
DOCKED: REMARK    1  A    between atoms: C_2  and  C_19 
DOCKED: REMARK    2  A    between atoms: C_2  and  C_11 
DOCKED: REMARK    3  A    between atoms: C_19  and  C_20 
DOCKED: REMARK    4  A    between atoms: C_20  and  C_21 
DOCKED: REMARK    5  A    between atoms: C_21  and  N_22 
DOCKED: USER                              x       y       z     vdW  Elec       q    Type
DOCKED: USER                           _______ _______ _______ _____ _____    ______ ____
DOCKED: ROOT
DOCKED: ATOM      1  O   UNL     1     -42.328 -21.883   8.410 -0.01 -0.00    -0.346 OA 
DOCKED: ATOM      2  C   UNL     1     -41.637 -23.173   8.454 -0.14 +0.00    +0.130 C  
DOCKED: ATOM      3  C   UNL     1     -41.885 -23.760   7.095 -0.28 +0.00    +0.004 A  
DOCKED: ATOM      4  C   UNL     1     -42.563 -22.842   6.306 -0.30 +0.00    +0.006 A  
DOCKED: ATOM      5  C   UNL     1     -42.796 -21.597   7.072 -0.18 +0.00    +0.169 C  
DOCKED: ATOM      6  C   UNL     1     -41.530 -25.004   6.594 -0.34 -0.00    -0.001 A  
DOCKED: ATOM      7  C   UNL     1     -42.911 -23.133   4.998 -0.15 +0.00    +0.008 A  
DOCKED: ATOM      8  C   UNL     1     -41.877 -25.314   5.278 -0.45 +0.00    +0.010 A  
DOCKED: ATOM      9  C   UNL     1     -42.564 -24.383   4.484 -0.43 +0.00    +0.068 A  
DOCKED: ATOM     10  N   UNL     1     -43.189 -24.990   2.044 -2.19 -0.00    -0.191 NA 
DOCKED: ATOM     11  C   UNL     1     -42.909 -24.718   3.139 -0.51 +0.00    +0.101 C  
DOCKED: ENDROOT
DOCKED: BRANCH   2  12
DOCKED: ATOM     12  C   UNL     1     -40.160 -22.920   8.731 -0.20 +0.00    +0.038 C  
DOCKED: BRANCH  12  13
DOCKED: ATOM     13  C   UNL     1     -39.505 -22.145   7.589 -0.14 +0.00    +0.038 C  
DOCKED: BRANCH  13  14
DOCKED: ATOM     14  C   UNL     1     -38.668 -20.984   8.123 -0.09 +0.00    +0.251 C  
DOCKED: BRANCH  14  15
DOCKED: ATOM     15  N   UNL     1     -39.271 -19.710   7.750 -0.08 +0.00    +0.141 N  
DOCKED: ATOM     16  C   UNL     1     -39.831 -19.780   6.399 -0.13 +0.00    +0.285 C  
DOCKED: ATOM     17  C   UNL     1     -40.308 -19.329   8.710 -0.02 +0.00    +0.285 C  
DOCKED: ENDBRANCH  14  15
DOCKED: ENDBRANCH  13  14
DOCKED: ENDBRANCH  12  13
DOCKED: ENDBRANCH   2  12
DOCKED: BRANCH   2  18
DOCKED: ATOM     18  C   UNL     1     -42.262 -23.965   9.554 -0.15 +0.00    +0.006 A  
DOCKED: ATOM     19  C   UNL     1     -43.649 -24.092   9.619 -0.13 +0.00    +0.001 A  
DOCKED: ATOM     20  C   UNL     1     -44.233 -24.833  10.648 -0.13 +0.00    +0.029 A  
DOCKED: ATOM     21  C   UNL     1     -43.429 -25.446  11.608 -0.04 +0.00    +0.140 A  
DOCKED: ATOM     22  C   UNL     1     -42.042 -25.319  11.541 -0.17 +0.00    +0.029 A  
DOCKED: ATOM     23  F   UNL     1     -43.989 -26.159  12.594 -0.05 -0.00    -0.204 F  
DOCKED: ATOM     24  C   UNL     1     -41.457 -24.578  10.513 -0.19 +0.00    +0.001 A  
DOCKED: ENDBRANCH   2  18
DOCKED: TORSDOF 5
DOCKED: TER
DOCKED: ENDMDL
________________________________________________________________________________


    FINAL DOCKED STATE:
    ________________________


Run:   65 / 512
Time taken for this run:   0.002s

DOCKED: MODEL        65
DOCKED: USER    Run = 65
DOCKED: USER
DOCKED: USER    Estimated Free Energy of Binding    =  -3.95 kcal/mol  [=(1)+(2)+(3)-(4)]
DOCKED: USER
DOCKED: USER    (1) Final Intermolecular Energy     =  -5.44 kcal/mol
DOCKED: USER        vdW + Hbond + desolv Energy     =  -5.44 kcal/mol
DOCKED: USER        Electrostatic Energy            =  +0.00 kcal/mol
DOCKED: USER        Moving Ligand-Fixed Receptor    =  -5.44 kcal/mol
DOCKED: USER        Moving Ligand-Moving Receptor   =  +0.00 kcal/mol
DOCKED: USER    (2) Final Total Internal Energy     =  -1.51 kcal/mol
DOCKED: USER    (3) Torsional Free Energy           =  +1.49 kcal/mol
DOCKED: USER    (4) Unbound System's Energy         =  -1.51 kcal/mol
DOCKED: USER
DOCKED: USER
DOCKED: REMARK  5 active torsions:
DOCKED: REMARK  status: ('A' for Active; 'I' for Inactive)
DOCKED: REMARK    1  A    between atoms: C_2  and  C_19 
DOCKED: REMARK    2  A    between atoms: C_2  and  C_11 
DOCKED: REMARK    3  A    between atoms: C_19  and  C_20 
DOCKED: REMARK    4  A    between atoms: C_20  and  C_21 
DOCKED: REMARK    5  A    between atoms: C_21  and  N_22 
DOCKED: USER                              x       y       z     vdW  Elec       q    Type
DOCKED: USER                           _______ _______ _______ _____ _____    ______ ____
DOCKED: ROOT
DOCKED: ATOM      1  O   UNL     1     -33.140 -20.976   0.209 +0.01 -0.00    -0.346 OA 
DOCKED: ATOM      2  C   UNL     1     -34.553 -20.698   0.468 -0.07 +0.00    +0.130 C  
DOCKED: ATOM      3  C   UNL     1     -35.028 -21.911   1.213 -0.15 +0.00    +0.004 A  
DOCKED: ATOM      4  C   UNL     1     -33.956 -22.759   1.457 -0.10 +0.00    +0.006 A  
DOCKED: ATOM      5  C   UNL     1     -32.714 -22.168   0.909 -0.02 +0.00    +0.169 C  
DOCKED: ATOM      6  C   UNL     1     -36.304 -22.235   1.651 -0.31 -0.00    -0.001 A  
DOCKED: ATOM      7  C   UNL     1     -34.121 -23.953   2.137 -0.16 +0.00    +0.008 A  
DOCKED: ATOM      8  C   UNL     1     -36.488 -23.437   2.335 -0.24 +0.00    +0.010 A  
DOCKED: ATOM      9  C   UNL     1     -35.402 -24.291   2.577 -0.30 +0.00    +0.068 A  
DOCKED: ATOM     10  N   UNL     1     -35.777 -26.514   3.855 -2.55 -0.00    -0.191 NA 
DOCKED: ATOM     11  C   UNL     1     -35.609 -25.518   3.281 -0.35 +0.00    +0.101 C  
DOCKED: ENDROOT
DOCKED: BRANCH   2  12
DOCKED: ATOM     12  C   UNL     1     -34.651 -19.419   1.292 -0.04 +0.00    +0.038 C  
DOCKED: BRANCH  12  13
DOCKED: ATOM     13  C   UNL     1     -33.273 -18.947   1.752 -0.01 +0.00    +0.038 C  
DOCKED: BRANCH  13  14
DOCKED: ATOM     14  C   UNL     1     -32.618 -18.056   0.699 -0.00 +0.00    +0.251 C  
DOCKED: BRANCH  14  15
DOCKED: ATOM     15  N   UNL     1     -33.495 -17.906  -0.456 -0.00 +0.00    +0.141 N  
DOCKED: ATOM     16  C   UNL     1     -33.964 -16.525  -0.572 -0.00 +0.00    +0.285 C  
DOCKED: ATOM     17  C   UNL     1     -32.808 -18.313  -1.683 +0.00 +0.00    +0.285 C  
DOCKED: ENDBRANCH  14  15
DOCKED: ENDBRANCH  13  14
DOCKED: ENDBRANCH  12  13
DOCKED: ENDBRANCH   2  12
DOCKED: BRANCH   2  18
DOCKED: ATOM     18  C   UNL     1     -35.216 -20.534  -0.859 -0.14 +0.00    +0.006 A  
DOCKED: ATOM     19  C   UNL     1     -36.286 -19.652  -0.999 -0.19 +0.00    +0.001 A  
DOCKED: ATOM     20  C   UNL     1     -36.905 -19.501  -2.241 -0.17 +0.00    +0.029 A  
DOCKED: ATOM     21  C   UNL     1     -36.453 -20.230  -3.339 -0.19 +0.00    +0.140 A  
DOCKED: ATOM     22  C   UNL     1     -35.381 -21.112  -3.199 -0.19 +0.00    +0.029 A  
DOCKED: ATOM     23  F   UNL     1     -37.046 -20.083  -4.531 -0.14 -0.00    -0.204 F  
DOCKED: ATOM     24  C   UNL     1     -34.762 -21.264  -1.957 -0.14 +0.00    +0.001 A  
DOCKED: ENDBRANCH   2  18
DOCKED: TORSDOF 5
DOCKED: TER
DOCKED: ENDMDL
________________________________________________________________________________


    FINAL DOCKED STATE:
    ________________________


Run:   66 / 512
Time taken for this run:   0.002s

DOCKED: MODEL        66
DOCKED: USER    Run = 66
DOCKED: USER
DOCKED: USER    Estimated Free Energy of Binding    =  -5.34 kcal/mol  [=(1)+(2)+(3)-(4)]
DOCKED: USER
DOCKED: USER    (1) Final Intermolecular Energy     =  -6.83 kcal/mol
DOCKED: USER        vdW + Hbond + desolv Energy     =  -6.83 kcal/mol
DOCKED: USER        Electrostatic Energy            =  +0.00 kcal/mol
DOCKED: USER        Moving Ligand-Fixed Receptor    =  -6.83 kcal/mol
DOCKED: USER        Moving Ligand-Moving Receptor   =  +0.00 kcal/mol
DOCKED: USER    (2) Final Total Internal Energy     =  -1.35 kcal/mol
DOCKED: USER    (3) Torsional Free Energy           =  +1.49 kcal/mol
DOCKED: USER    (4) Unbound System's Energy         =  -1.35 kcal/mol
DOCKED: USER
DOCKED: USER
DOCKED: REMARK  5 active torsions:
DOCKED: REMARK  status: ('A' for Active; 'I' for Inactive)
DOCKED: REMARK    1  A    between atoms: C_2  and  C_19 
DOCKED: REMARK    2  A    between atoms: C_2  and  C_11 
DOCKED: REMARK    3  A    between atoms: C_19  and  C_20 
DOCKED: REMARK    4  A    between atoms: C_20  and  C_21 
DOCKED: REMARK    5  A    between atoms: C_21  and  N_22 
DOCKED: USER                              x       y       z     vdW  Elec       q    Type
DOCKED: USER                           _______ _______ _______ _____ _____    ______ ____
DOCKED: ROOT
DOCKED: ATOM      1  O   UNL     1     -41.223 -23.194   7.893 -0.06 -0.00    -0.346 OA 
DOCKED: ATOM      2  C   UNL     1     -42.516 -23.874   7.982 -0.16 +0.00    +0.130 C  
DOCKED: ATOM      3  C   UNL     1     -42.904 -24.096   6.548 -0.28 +0.00    +0.004 A  
DOCKED: ATOM      4  C   UNL     1     -41.874 -23.681   5.716 -0.38 +0.00    +0.006 A  
DOCKED: ATOM      5  C   UNL     1     -40.745 -23.175   6.528 -0.20 +0.00    +0.169 C  
DOCKED: ATOM      6  C   UNL     1     -44.070 -24.634   6.024 -0.30 -0.00    -0.001 A  
DOCKED: ATOM      7  C   UNL     1     -41.975 -23.784   4.339 -0.20 +0.00    +0.008 A  
DOCKED: ATOM      8  C   UNL     1     -44.189 -24.740   4.637 -0.36 +0.00    +0.010 A  
DOCKED: ATOM      9  C   UNL     1     -43.146 -24.317   3.799 -0.40 +0.00    +0.068 A  
DOCKED: ATOM     10  N   UNL     1     -43.396 -24.533   1.229 -3.14 -0.00    -0.191 NA 
DOCKED: ATOM     11  C   UNL     1     -43.284 -24.436   2.382 -0.28 +0.00    +0.101 C  
DOCKED: ENDROOT
DOCKED: BRANCH   2  12
DOCKED: ATOM     12  C   UNL     1     -42.326 -25.174   8.754 -0.29 +0.00    +0.038 C  
DOCKED: BRANCH  12  13
DOCKED: ATOM     13  C   UNL     1     -41.626 -24.931  10.089 -0.25 +0.00    +0.038 C  
DOCKED: BRANCH  13  14
DOCKED: ATOM     14  C   UNL     1     -42.498 -25.387  11.258 -0.03 +0.00    +0.251 C  
DOCKED: BRANCH  14  15
DOCKED: ATOM     15  N   UNL     1     -43.181 -24.246  11.857 -0.07 +0.00    +0.141 N  
DOCKED: ATOM     16  C   UNL     1     -44.376 -24.682  12.581 -0.04 +0.00    +0.285 C  
DOCKED: ATOM     17  C   UNL     1     -42.280 -23.520  12.753 -0.01 +0.00    +0.285 C  
DOCKED: ENDBRANCH  14  15
DOCKED: ENDBRANCH  13  14
DOCKED: ENDBRANCH  12  13
DOCKED: ENDBRANCH   2  12
DOCKED: BRANCH   2  18
DOCKED: ATOM     18  C   UNL     1     -43.445 -22.952   8.699 -0.10 +0.00    +0.006 A  
DOCKED: ATOM     19  C   UNL     1     -42.938 -21.863   9.406 -0.05 +0.00    +0.001 A  
DOCKED: ATOM     20  C   UNL     1     -43.807 -21.002  10.077 -0.03 +0.00    +0.029 A  
DOCKED: ATOM     21  C   UNL     1     -45.182 -21.232  10.040 -0.01 +0.00    +0.140 A  
DOCKED: ATOM     22  C   UNL     1     -45.689 -22.322   9.332 -0.07 +0.00    +0.029 A  
DOCKED: ATOM     23  F   UNL     1     -46.017 -20.404  10.682 +0.01 -0.00    -0.204 F  
DOCKED: ATOM     24  C   UNL     1     -44.819 -23.183   8.661 -0.11 +0.00    +0.001 A  
DOCKED: ENDBRANCH   2  18
DOCKED: TORSDOF 5
DOCKED: TER
DOCKED: ENDMDL
________________________________________________________________________________


    FINAL DOCKED STATE:
    ________________________


Run:   67 / 512
Time taken for this run:   0.002s

DOCKED: MODEL        67
DOCKED: USER    Run = 67
DOCKED: USER
DOCKED: USER    Estimated Free Energy of Binding    =  -4.39 kcal/mol  [=(1)+(2)+(3)-(4)]
DOCKED: USER
DOCKED: USER    (1) Final Intermolecular Energy     =  -5.88 kcal/mol
DOCKED: USER        vdW + Hbond + desolv Energy     =  -5.88 kcal/mol
DOCKED: USER        Electrostatic Energy            =  +0.00 kcal/mol
DOCKED: USER        Moving Ligand-Fixed Receptor    =  -5.88 kcal/mol
DOCKED: USER        Moving Ligand-Moving Receptor   =  +0.00 kcal/mol
DOCKED: USER    (2) Final Total Internal Energy     =  -1.47 kcal/mol
DOCKED: USER    (3) Torsional Free Energy           =  +1.49 kcal/mol
DOCKED: USER    (4) Unbound System's Energy         =  -1.47 kcal/mol
DOCKED: USER
DOCKED: USER
DOCKED: REMARK  5 active torsions:
DOCKED: REMARK  status: ('A' for Active; 'I' for Inactive)
DOCKED: REMARK    1  A    between atoms: C_2  and  C_19 
DOCKED: REMARK    2  A    between atoms: C_2  and  C_11 
DOCKED: REMARK    3  A    between atoms: C_19  and  C_20 
DOCKED: REMARK    4  A    between atoms: C_20  and  C_21 
DOCKED: REMARK    5  A    between atoms: C_21  and  N_22 
DOCKED: USER                              x       y       z     vdW  Elec       q    Type
DOCKED: USER                           _______ _______ _______ _____ _____    ______ ____
DOCKED: ROOT
DOCKED: ATOM      1  O   UNL     1     -40.789 -19.628   7.060 -0.07 -0.00    -0.346 OA 
DOCKED: ATOM      2  C   UNL     1     -42.058 -19.840   7.758 -0.12 +0.00    +0.130 C  
DOCKED: ATOM      3  C   UNL     1     -42.488 -21.208   7.315 -0.20 +0.00    +0.004 A  
DOCKED: ATOM      4  C   UNL     1     -41.500 -21.774   6.522 -0.29 +0.00    +0.006 A  
DOCKED: ATOM      5  C   UNL     1     -40.359 -20.839   6.397 -0.15 +0.00    +0.169 C  
DOCKED: ATOM      6  C   UNL     1     -43.655 -21.901   7.601 -0.17 -0.00    -0.001 A  
DOCKED: ATOM      7  C   UNL     1     -41.645 -23.042   5.986 -0.34 +0.00    +0.008 A  
DOCKED: ATOM      8  C   UNL     1     -43.818 -23.179   7.064 -0.20 +0.00    +0.010 A  
DOCKED: ATOM      9  C   UNL     1     -42.818 -23.747   6.261 -0.26 +0.00    +0.068 A  
DOCKED: ATOM     10  N   UNL     1     -43.150 -26.124   5.285 -2.54 -0.00    -0.191 NA 
DOCKED: ATOM     11  C   UNL     1     -43.001 -25.058   5.722 -0.35 +0.00    +0.101 C  
DOCKED: ENDROOT
DOCKED: BRANCH   2  12
DOCKED: ATOM     12  C   UNL     1     -41.802 -19.755   9.258 -0.04 +0.00    +0.038 C  
DOCKED: BRANCH  12  13
DOCKED: ATOM     13  C   UNL     1     -40.799 -20.813   9.714 -0.04 +0.00    +0.038 C  
DOCKED: BRANCH  13  14
DOCKED: ATOM     14  C   UNL     1     -41.511 -22.021  10.319 -0.02 +0.00    +0.251 C  
DOCKED: BRANCH  14  15
DOCKED: ATOM     15  N   UNL     1     -40.719 -23.229  10.120 -0.08 +0.00    +0.141 N  
DOCKED: ATOM     16  C   UNL     1     -41.557 -24.320   9.622 -0.11 +0.00    +0.285 C  
DOCKED: ATOM     17  C   UNL     1     -39.614 -22.974   9.194 -0.10 +0.00    +0.285 C  
DOCKED: ENDBRANCH  14  15
DOCKED: ENDBRANCH  13  14
DOCKED: ENDBRANCH  12  13
DOCKED: ENDBRANCH   2  12
DOCKED: BRANCH   2  18
DOCKED: ATOM     18  C   UNL     1     -42.988 -18.763   7.309 -0.17 +0.00    +0.006 A  
DOCKED: ATOM     19  C   UNL     1     -42.672 -17.991   6.192 -0.18 +0.00    +0.001 A  
DOCKED: ATOM     20  C   UNL     1     -43.543 -16.984   5.773 -0.16 +0.00    +0.029 A  
DOCKED: ATOM     21  C   UNL     1     -44.728 -16.753   6.470 -0.11 +0.00    +0.140 A  
DOCKED: ATOM     22  C   UNL     1     -45.044 -17.526   7.586 -0.10 +0.00    +0.029 A  
DOCKED: ATOM     23  F   UNL     1     -45.565 -15.788   6.066 -0.01 -0.00    -0.204 F  
DOCKED: ATOM     24  C   UNL     1     -44.173 -18.533   8.007 -0.10 +0.00    +0.001 A  
DOCKED: ENDBRANCH   2  18
DOCKED: TORSDOF 5
DOCKED: TER
DOCKED: ENDMDL
________________________________________________________________________________


    FINAL DOCKED STATE:
    ________________________


Run:   68 / 512
Time taken for this run:   0.002s

DOCKED: MODEL        68
DOCKED: USER    Run = 68
DOCKED: USER
DOCKED: USER    Estimated Free Energy of Binding    =  -5.02 kcal/mol  [=(1)+(2)+(3)-(4)]
DOCKED: USER
DOCKED: USER    (1) Final Intermolecular Energy     =  -6.51 kcal/mol
DOCKED: USER        vdW + Hbond + desolv Energy     =  -6.51 kcal/mol
DOCKED: USER        Electrostatic Energy            =  +0.00 kcal/mol
DOCKED: USER        Moving Ligand-Fixed Receptor    =  -6.51 kcal/mol
DOCKED: USER        Moving Ligand-Moving Receptor   =  +0.00 kcal/mol
DOCKED: USER    (2) Final Total Internal Energy     =  -1.17 kcal/mol
DOCKED: USER    (3) Torsional Free Energy           =  +1.49 kcal/mol
DOCKED: USER    (4) Unbound System's Energy         =  -1.17 kcal/mol
DOCKED: USER
DOCKED: USER
DOCKED: REMARK  5 active torsions:
DOCKED: REMARK  status: ('A' for Active; 'I' for Inactive)
DOCKED: REMARK    1  A    between atoms: C_2  and  C_19 
DOCKED: REMARK    2  A    between atoms: C_2  and  C_11 
DOCKED: REMARK    3  A    between atoms: C_19  and  C_20 
DOCKED: REMARK    4  A    between atoms: C_20  and  C_21 
DOCKED: REMARK    5  A    between atoms: C_21  and  N_22 
DOCKED: USER                              x       y       z     vdW  Elec       q    Type
DOCKED: USER                           _______ _______ _______ _____ _____    ______ ____
DOCKED: ROOT
DOCKED: ATOM      1  O   UNL     1     -44.132 -22.272   8.442 -0.00 -0.00    -0.346 OA 
DOCKED: ATOM      2  C   UNL     1     -42.733 -22.675   8.300 -0.10 +0.00    +0.130 C  
DOCKED: ATOM      3  C   UNL     1     -42.662 -23.246   6.913 -0.24 +0.00    +0.004 A  
DOCKED: ATOM      4  C   UNL     1     -43.885 -23.082   6.278 -0.25 +0.00    +0.006 A  
DOCKED: ATOM      5  C   UNL     1     -44.832 -22.391   7.182 -0.16 +0.00    +0.169 C  
DOCKED: ATOM      6  C   UNL     1     -41.598 -23.851   6.261 -0.36 -0.00    -0.001 A  
DOCKED: ATOM      7  C   UNL     1     -44.088 -23.518   4.980 -0.12 +0.00    +0.008 A  
DOCKED: ATOM      8  C   UNL     1     -41.787 -24.300   4.953 -0.39 +0.00    +0.010 A  
DOCKED: ATOM      9  C   UNL     1     -43.026 -24.134   4.315 -0.39 +0.00    +0.068 A  
DOCKED: ATOM     10  N   UNL     1     -43.342 -24.974   1.885 -2.44 -0.00    -0.191 NA 
DOCKED: ATOM     11  C   UNL     1     -43.200 -24.598   2.975 -0.36 +0.00    +0.101 C  
DOCKED: ENDROOT
DOCKED: BRANCH   2  12
DOCKED: ATOM     12  C   UNL     1     -41.854 -21.443   8.480 -0.11 +0.00    +0.038 C  
DOCKED: BRANCH  12  13
DOCKED: ATOM     13  C   UNL     1     -42.613 -20.163   8.133 -0.12 +0.00    +0.038 C  
DOCKED: BRANCH  13  14
DOCKED: ATOM     14  C   UNL     1     -42.020 -19.491   6.896 -0.15 +0.00    +0.251 C  
DOCKED: BRANCH  14  15
DOCKED: ATOM     15  N   UNL     1     -43.067 -18.826   6.130 -0.19 +0.00    +0.141 N  
DOCKED: ATOM     16  C   UNL     1     -44.371 -19.015   6.766 -0.16 +0.00    +0.285 C  
DOCKED: ATOM     17  C   UNL     1     -42.774 -17.399   5.987 -0.12 +0.00    +0.285 C  
DOCKED: ENDBRANCH  14  15
DOCKED: ENDBRANCH  13  14
DOCKED: ENDBRANCH  12  13
DOCKED: ENDBRANCH   2  12
DOCKED: BRANCH   2  18
DOCKED: ATOM     18  C   UNL     1     -42.461 -23.690   9.360 -0.13 +0.00    +0.006 A  
DOCKED: ATOM     19  C   UNL     1     -41.267 -24.409   9.346 -0.21 +0.00    +0.001 A  
DOCKED: ATOM     20  C   UNL     1     -41.014 -25.358  10.338 -0.21 +0.00    +0.029 A  
DOCKED: ATOM     21  C   UNL     1     -41.954 -25.585  11.342 -0.02 +0.00    +0.140 A  
DOCKED: ATOM     22  C   UNL     1     -43.149 -24.865  11.355 -0.14 +0.00    +0.029 A  
DOCKED: ATOM     23  F   UNL     1     -41.711 -26.494  12.295 -0.05 -0.00    -0.204 F  
DOCKED: ATOM     24  C   UNL     1     -43.403 -23.916  10.363 -0.11 +0.00    +0.001 A  
DOCKED: ENDBRANCH   2  18
DOCKED: TORSDOF 5
DOCKED: TER
DOCKED: ENDMDL
________________________________________________________________________________


    FINAL DOCKED STATE:
    ________________________


Run:   69 / 512
Time taken for this run:   0.002s

DOCKED: MODEL        69
DOCKED: USER    Run = 69
DOCKED: USER
DOCKED: USER    Estimated Free Energy of Binding    =  -4.33 kcal/mol  [=(1)+(2)+(3)-(4)]
DOCKED: USER
DOCKED: USER    (1) Final Intermolecular Energy     =  -5.82 kcal/mol
DOCKED: USER        vdW + Hbond + desolv Energy     =  -5.82 kcal/mol
DOCKED: USER        Electrostatic Energy            =  +0.00 kcal/mol
DOCKED: USER        Moving Ligand-Fixed Receptor    =  -5.82 kcal/mol
DOCKED: USER        Moving Ligand-Moving Receptor   =  +0.00 kcal/mol
DOCKED: USER    (2) Final Total Internal Energy     =  -1.07 kcal/mol
DOCKED: USER    (3) Torsional Free Energy           =  +1.49 kcal/mol
DOCKED: USER    (4) Unbound System's Energy         =  -1.07 kcal/mol
DOCKED: USER
DOCKED: USER
DOCKED: REMARK  5 active torsions:
DOCKED: REMARK  status: ('A' for Active; 'I' for Inactive)
DOCKED: REMARK    1  A    between atoms: C_2  and  C_19 
DOCKED: REMARK    2  A    between atoms: C_2  and  C_11 
DOCKED: REMARK    3  A    between atoms: C_19  and  C_20 
DOCKED: REMARK    4  A    between atoms: C_20  and  C_21 
DOCKED: REMARK    5  A    between atoms: C_21  and  N_22 
DOCKED: USER                              x       y       z     vdW  Elec       q    Type
DOCKED: USER                           _______ _______ _______ _____ _____    ______ ____
DOCKED: ROOT
DOCKED: ATOM      1  O   UNL     1     -34.990 -13.320  -0.428 -0.06 -0.00    -0.346 OA 
DOCKED: ATOM      2  C   UNL     1     -35.858 -14.491  -0.294 -0.12 +0.00    +0.130 C  
DOCKED: ATOM      3  C   UNL     1     -36.946 -14.249  -1.301 -0.16 +0.00    +0.004 A  
DOCKED: ATOM      4  C   UNL     1     -36.665 -13.098  -2.023 -0.17 +0.00    +0.006 A  
DOCKED: ATOM      5  C   UNL     1     -35.386 -12.514  -1.561 -0.12 +0.00    +0.169 C  
DOCKED: ATOM      6  C   UNL     1     -38.086 -14.994  -1.563 -0.26 -0.00    -0.001 A  
DOCKED: ATOM      7  C   UNL     1     -37.511 -12.652  -3.024 -0.28 +0.00    +0.008 A  
DOCKED: ATOM      8  C   UNL     1     -38.951 -14.555  -2.567 -0.19 +0.00    +0.010 A  
DOCKED: ATOM      9  C   UNL     1     -38.665 -13.390  -3.293 -0.34 +0.00    +0.068 A  
DOCKED: ATOM     10  N   UNL     1     -40.290 -12.605  -5.153 -2.53 -0.00    -0.191 NA 
DOCKED: ATOM     11  C   UNL     1     -39.561 -12.956  -4.318 -0.44 +0.00    +0.101 C  
DOCKED: ENDROOT
DOCKED: BRANCH   2  12
DOCKED: ATOM     12  C   UNL     1     -35.036 -15.738  -0.597 -0.04 +0.00    +0.038 C  
DOCKED: BRANCH  12  13
DOCKED: ATOM     13  C   UNL     1     -34.823 -15.914  -2.099 -0.03 +0.00    +0.038 C  
DOCKED: BRANCH  13  14
DOCKED: ATOM     14  C   UNL     1     -34.844 -17.391  -2.489 -0.02 +0.00    +0.251 C  
DOCKED: BRANCH  14  15
DOCKED: ATOM     15  N   UNL     1     -35.910 -18.087  -1.779 -0.08 +0.00    +0.141 N  
DOCKED: ATOM     16  C   UNL     1     -37.170 -17.994  -2.518 -0.17 +0.00    +0.285 C  
DOCKED: ATOM     17  C   UNL     1     -35.553 -19.490  -1.560 -0.11 +0.00    +0.285 C  
DOCKED: ENDBRANCH  14  15
DOCKED: ENDBRANCH  13  14
DOCKED: ENDBRANCH  12  13
DOCKED: ENDBRANCH   2  12
DOCKED: BRANCH   2  18
DOCKED: ATOM     18  C   UNL     1     -36.359 -14.505   1.111 -0.13 +0.00    +0.006 A  
DOCKED: ATOM     19  C   UNL     1     -37.683 -14.853   1.376 -0.15 +0.00    +0.001 A  
DOCKED: ATOM     20  C   UNL     1     -38.150 -14.865   2.691 -0.17 +0.00    +0.029 A  
DOCKED: ATOM     21  C   UNL     1     -37.294 -14.530   3.738 -0.11 +0.00    +0.140 A  
DOCKED: ATOM     22  C   UNL     1     -35.969 -14.181   3.473 -0.07 +0.00    +0.029 A  
DOCKED: ATOM     23  F   UNL     1     -37.742 -14.543   5.000 -0.02 -0.00    -0.204 F  
DOCKED: ATOM     24  C   UNL     1     -35.501 -14.168   2.158 -0.08 +0.00    +0.001 A  
DOCKED: ENDBRANCH   2  18
DOCKED: TORSDOF 5
DOCKED: TER
DOCKED: ENDMDL
________________________________________________________________________________


    FINAL DOCKED STATE:
    ________________________


Run:   70 / 512
Time taken for this run:   0.002s

DOCKED: MODEL        70
DOCKED: USER    Run = 70
DOCKED: USER
DOCKED: USER    Estimated Free Energy of Binding    =  -4.26 kcal/mol  [=(1)+(2)+(3)-(4)]
DOCKED: USER
DOCKED: USER    (1) Final Intermolecular Energy     =  -5.75 kcal/mol
DOCKED: USER        vdW + Hbond + desolv Energy     =  -5.75 kcal/mol
DOCKED: USER        Electrostatic Energy            =  +0.00 kcal/mol
DOCKED: USER        Moving Ligand-Fixed Receptor    =  -5.75 kcal/mol
DOCKED: USER        Moving Ligand-Moving Receptor   =  +0.00 kcal/mol
DOCKED: USER    (2) Final Total Internal Energy     =  -1.13 kcal/mol
DOCKED: USER    (3) Torsional Free Energy           =  +1.49 kcal/mol
DOCKED: USER    (4) Unbound System's Energy         =  -1.13 kcal/mol
DOCKED: USER
DOCKED: USER
DOCKED: REMARK  5 active torsions:
DOCKED: REMARK  status: ('A' for Active; 'I' for Inactive)
DOCKED: REMARK    1  A    between atoms: C_2  and  C_19 
DOCKED: REMARK    2  A    between atoms: C_2  and  C_11 
DOCKED: REMARK    3  A    between atoms: C_19  and  C_20 
DOCKED: REMARK    4  A    between atoms: C_20  and  C_21 
DOCKED: REMARK    5  A    between atoms: C_21  and  N_22 
DOCKED: USER                              x       y       z     vdW  Elec       q    Type
DOCKED: USER                           _______ _______ _______ _____ _____    ______ ____
DOCKED: ROOT
DOCKED: ATOM      1  O   UNL     1     -39.648 -15.633   1.734 -0.09 -0.00    -0.346 OA 
DOCKED: ATOM      2  C   UNL     1     -38.345 -15.592   1.069 -0.18 +0.00    +0.130 C  
DOCKED: ATOM      3  C   UNL     1     -38.653 -15.033  -0.290 -0.23 +0.00    +0.004 A  
DOCKED: ATOM      4  C   UNL     1     -39.994 -14.682  -0.358 -0.11 +0.00    +0.006 A  
DOCKED: ATOM      5  C   UNL     1     -40.654 -14.967   0.936 -0.25 +0.00    +0.169 C  
DOCKED: ATOM      6  C   UNL     1     -37.811 -14.840  -1.375 -0.23 -0.00    -0.001 A  
DOCKED: ATOM      7  C   UNL     1     -40.537 -14.133  -1.507 -0.07 +0.00    +0.008 A  
DOCKED: ATOM      8  C   UNL     1     -38.345 -14.292  -2.542 -0.29 +0.00    +0.010 A  
DOCKED: ATOM      9  C   UNL     1     -39.701 -13.940  -2.607 -0.30 +0.00    +0.068 A  
DOCKED: ATOM     10  N   UNL     1     -40.660 -12.920  -4.788 -2.48 -0.00    -0.191 NA 
DOCKED: ATOM     11  C   UNL     1     -40.230 -13.378  -3.810 -0.31 +0.00    +0.101 C  
DOCKED: ENDROOT
DOCKED: BRANCH   2  12
DOCKED: ATOM     12  C   UNL     1     -37.417 -14.698   1.882 -0.15 +0.00    +0.038 C  
DOCKED: BRANCH  12  13
DOCKED: ATOM     13  C   UNL     1     -37.491 -15.026   3.372 -0.14 +0.00    +0.038 C  
DOCKED: BRANCH  13  14
DOCKED: ATOM     14  C   UNL     1     -36.136 -14.823   4.048 -0.06 +0.00    +0.251 C  
DOCKED: BRANCH  14  15
DOCKED: ATOM     15  N   UNL     1     -36.055 -15.615   5.270 -0.02 +0.00    +0.141 N  
DOCKED: ATOM     16  C   UNL     1     -37.387 -16.050   5.692 -0.01 +0.00    +0.285 C  
DOCKED: ATOM     17  C   UNL     1     -35.180 -16.772   5.077 -0.00 +0.00    +0.285 C  
DOCKED: ENDBRANCH  14  15
DOCKED: ENDBRANCH  13  14
DOCKED: ENDBRANCH  12  13
DOCKED: ENDBRANCH   2  12
DOCKED: BRANCH   2  18
DOCKED: ATOM     18  C   UNL     1     -37.836 -16.994   1.020 -0.13 +0.00    +0.006 A  
DOCKED: ATOM     19  C   UNL     1     -36.505 -17.263   1.333 -0.06 +0.00    +0.001 A  
DOCKED: ATOM     20  C   UNL     1     -36.030 -18.574   1.286 -0.06 +0.00    +0.029 A  
DOCKED: ATOM     21  C   UNL     1     -36.887 -19.614   0.927 -0.15 +0.00    +0.140 A  
DOCKED: ATOM     22  C   UNL     1     -38.219 -19.344   0.614 -0.15 +0.00    +0.029 A  
DOCKED: ATOM     23  F   UNL     1     -36.431 -20.873   0.884 -0.07 -0.00    -0.204 F  
DOCKED: ATOM     24  C   UNL     1     -38.694 -18.032   0.660 -0.22 +0.00    +0.001 A  
DOCKED: ENDBRANCH   2  18
DOCKED: TORSDOF 5
DOCKED: TER
DOCKED: ENDMDL
________________________________________________________________________________


    FINAL DOCKED STATE:
    ________________________


Run:   71 / 512
Time taken for this run:   0.002s

DOCKED: MODEL        71
DOCKED: USER    Run = 71
DOCKED: USER
DOCKED: USER    Estimated Free Energy of Binding    =  -4.73 kcal/mol  [=(1)+(2)+(3)-(4)]
DOCKED: USER
DOCKED: USER    (1) Final Intermolecular Energy     =  -6.22 kcal/mol
DOCKED: USER        vdW + Hbond + desolv Energy     =  -6.22 kcal/mol
DOCKED: USER        Electrostatic Energy            =  +0.00 kcal/mol
DOCKED: USER        Moving Ligand-Fixed Receptor    =  -6.22 kcal/mol
DOCKED: USER        Moving Ligand-Moving Receptor   =  +0.00 kcal/mol
DOCKED: USER    (2) Final Total Internal Energy     =  -1.35 kcal/mol
DOCKED: USER    (3) Torsional Free Energy           =  +1.49 kcal/mol
DOCKED: USER    (4) Unbound System's Energy         =  -1.35 kcal/mol
DOCKED: USER
DOCKED: USER
DOCKED: REMARK  5 active torsions:
DOCKED: REMARK  status: ('A' for Active; 'I' for Inactive)
DOCKED: REMARK    1  A    between atoms: C_2  and  C_19 
DOCKED: REMARK    2  A    between atoms: C_2  and  C_11 
DOCKED: REMARK    3  A    between atoms: C_19  and  C_20 
DOCKED: REMARK    4  A    between atoms: C_20  and  C_21 
DOCKED: REMARK    5  A    between atoms: C_21  and  N_22 
DOCKED: USER                              x       y       z     vdW  Elec       q    Type
DOCKED: USER                           _______ _______ _______ _____ _____    ______ ____
DOCKED: ROOT
DOCKED: ATOM      1  O   UNL     1     -42.320 -21.695   8.251 -0.02 -0.00    -0.346 OA 
DOCKED: ATOM      2  C   UNL     1     -41.358 -22.796   8.199 -0.15 +0.00    +0.130 C  
DOCKED: ATOM      3  C   UNL     1     -41.645 -23.464   6.885 -0.30 +0.00    +0.004 A  
DOCKED: ATOM      4  C   UNL     1     -42.610 -22.743   6.197 -0.30 +0.00    +0.006 A  
DOCKED: ATOM      5  C   UNL     1     -43.014 -21.559   6.988 -0.19 +0.00    +0.169 C  
DOCKED: ATOM      6  C   UNL     1     -41.089 -24.611   6.339 -0.40 -0.00    -0.001 A  
DOCKED: ATOM      7  C   UNL     1     -43.054 -23.143   4.948 -0.00 +0.00    +0.008 A  
DOCKED: ATOM      8  C   UNL     1     -41.528 -25.029   5.082 -0.35 +0.00    +0.010 A  
DOCKED: ATOM      9  C   UNL     1     -42.506 -24.299   4.390 -0.43 +0.00    +0.068 A  
DOCKED: ATOM     10  N   UNL     1     -43.296 -25.101   2.056 -2.16 -0.00    -0.191 NA 
DOCKED: ATOM     11  C   UNL     1     -42.942 -24.741   3.103 -0.50 +0.00    +0.101 C  
DOCKED: ENDROOT
DOCKED: BRANCH   2  12
DOCKED: ATOM     12  C   UNL     1     -39.952 -22.212   8.273 -0.19 +0.00    +0.038 C  
DOCKED: BRANCH  12  13
DOCKED: ATOM     13  C   UNL     1     -39.948 -20.857   8.979 -0.08 +0.00    +0.038 C  
DOCKED: BRANCH  13  14
DOCKED: ATOM     14  C   UNL     1     -39.919 -19.711   7.969 -0.07 +0.00    +0.251 C  
DOCKED: BRANCH  14  15
DOCKED: ATOM     15  N   UNL     1     -41.253 -19.147   7.805 -0.07 +0.00    +0.141 N  
DOCKED: ATOM     16  C   UNL     1     -41.636 -18.374   8.988 -0.01 +0.00    +0.285 C  
DOCKED: ATOM     17  C   UNL     1     -41.314 -18.305   6.608 -0.10 +0.00    +0.285 C  
DOCKED: ENDBRANCH  14  15
DOCKED: ENDBRANCH  13  14
DOCKED: ENDBRANCH  12  13
DOCKED: ENDBRANCH   2  12
DOCKED: BRANCH   2  18
DOCKED: ATOM     18  C   UNL     1     -41.637 -23.675   9.372 -0.14 +0.00    +0.006 A  
DOCKED: ATOM     19  C   UNL     1     -42.874 -23.610  10.013 -0.10 +0.00    +0.001 A  
DOCKED: ATOM     20  C   UNL     1     -43.134 -24.432  11.109 -0.12 +0.00    +0.029 A  
DOCKED: ATOM     21  C   UNL     1     -42.158 -25.319  11.563 -0.12 +0.00    +0.140 A  
DOCKED: ATOM     22  C   UNL     1     -40.922 -25.384  10.921 -0.22 +0.00    +0.029 A  
DOCKED: ATOM     23  F   UNL     1     -42.409 -26.110  12.615 -0.04 -0.00    -0.204 F  
DOCKED: ATOM     24  C   UNL     1     -40.660 -24.561   9.825 -0.15 +0.00    +0.001 A  
DOCKED: ENDBRANCH   2  18
DOCKED: TORSDOF 5
DOCKED: TER
DOCKED: ENDMDL
________________________________________________________________________________


    FINAL DOCKED STATE:
    ________________________


Run:   72 / 512
Time taken for this run:   0.002s

DOCKED: MODEL        72
DOCKED: USER    Run = 72
DOCKED: USER
DOCKED: USER    Estimated Free Energy of Binding    =  -6.21 kcal/mol  [=(1)+(2)+(3)-(4)]
DOCKED: USER
DOCKED: USER    (1) Final Intermolecular Energy     =  -7.70 kcal/mol
DOCKED: USER        vdW + Hbond + desolv Energy     =  -7.70 kcal/mol
DOCKED: USER        Electrostatic Energy            =  +0.00 kcal/mol
DOCKED: USER        Moving Ligand-Fixed Receptor    =  -7.70 kcal/mol
DOCKED: USER        Moving Ligand-Moving Receptor   =  +0.00 kcal/mol
DOCKED: USER    (2) Final Total Internal Energy     =  -1.24 kcal/mol
DOCKED: USER    (3) Torsional Free Energy           =  +1.49 kcal/mol
DOCKED: USER    (4) Unbound System's Energy         =  -1.24 kcal/mol
DOCKED: USER
DOCKED: USER
DOCKED: REMARK  5 active torsions:
DOCKED: REMARK  status: ('A' for Active; 'I' for Inactive)
DOCKED: REMARK    1  A    between atoms: C_2  and  C_19 
DOCKED: REMARK    2  A    between atoms: C_2  and  C_11 
DOCKED: REMARK    3  A    between atoms: C_19  and  C_20 
DOCKED: REMARK    4  A    between atoms: C_20  and  C_21 
DOCKED: REMARK    5  A    between atoms: C_21  and  N_22 
DOCKED: USER                              x       y       z     vdW  Elec       q    Type
DOCKED: USER                           _______ _______ _______ _____ _____    ______ ____
DOCKED: ROOT
DOCKED: ATOM      1  O   UNL     1     -40.728 -25.256   7.763 -0.43 -0.00    -0.346 OA 
DOCKED: ATOM      2  C   UNL     1     -42.072 -24.694   7.907 -0.24 +0.00    +0.130 C  
DOCKED: ATOM      3  C   UNL     1     -42.565 -24.574   6.494 -0.32 +0.00    +0.004 A  
DOCKED: ATOM      4  C   UNL     1     -41.631 -25.122   5.626 -0.42 +0.00    +0.006 A  
DOCKED: ATOM      5  C   UNL     1     -40.479 -25.646   6.392 -0.26 +0.00    +0.169 C  
DOCKED: ATOM      6  C   UNL     1     -43.750 -24.034   6.016 -0.30 -0.00    -0.001 A  
DOCKED: ATOM      7  C   UNL     1     -41.846 -25.145   4.258 -0.39 +0.00    +0.008 A  
DOCKED: ATOM      8  C   UNL     1     -43.979 -24.046   4.639 -0.32 +0.00    +0.010 A  
DOCKED: ATOM      9  C   UNL     1     -43.032 -24.599   3.765 -0.43 +0.00    +0.068 A  
DOCKED: ATOM     10  N   UNL     1     -43.490 -24.609   1.215 -3.20 -0.00    -0.191 NA 
DOCKED: ATOM     11  C   UNL     1     -43.284 -24.604   2.359 -0.29 +0.00    +0.101 C  
DOCKED: ENDROOT
DOCKED: BRANCH   2  12
DOCKED: ATOM     12  C   UNL     1     -42.908 -25.652   8.748 -0.20 +0.00    +0.038 C  
DOCKED: BRANCH  12  13
DOCKED: ATOM     13  C   UNL     1     -44.366 -25.202   8.820 -0.24 +0.00    +0.038 C  
DOCKED: BRANCH  13  14
DOCKED: ATOM     14  C   UNL     1     -44.817 -25.029  10.269 -0.08 +0.00    +0.251 C  
DOCKED: BRANCH  14  15
DOCKED: ATOM     15  N   UNL     1     -44.556 -23.667  10.722 -0.04 +0.00    +0.141 N  
DOCKED: ATOM     16  C   UNL     1     -45.793 -22.886  10.746 -0.00 +0.00    +0.285 C  
DOCKED: ATOM     17  C   UNL     1     -43.935 -23.675  12.047 -0.02 +0.00    +0.285 C  
DOCKED: ENDBRANCH  14  15
DOCKED: ENDBRANCH  13  14
DOCKED: ENDBRANCH  12  13
DOCKED: ENDBRANCH   2  12
DOCKED: BRANCH   2  18
DOCKED: ATOM     18  C   UNL     1     -41.922 -23.373   8.585 -0.15 +0.00    +0.006 A  
DOCKED: ATOM     19  C   UNL     1     -41.296 -23.295   9.828 -0.11 +0.00    +0.001 A  
DOCKED: ATOM     20  C   UNL     1     -41.157 -22.059  10.461 -0.04 +0.00    +0.029 A  
DOCKED: ATOM     21  C   UNL     1     -41.643 -20.904   9.850 -0.02 +0.00    +0.140 A  
DOCKED: ATOM     22  C   UNL     1     -42.268 -20.983   8.606 -0.07 +0.00    +0.029 A  
DOCKED: ATOM     23  F   UNL     1     -41.507 -19.718  10.457 +0.00 -0.00    -0.204 F  
DOCKED: ATOM     24  C   UNL     1     -42.409 -22.219   7.972 -0.14 +0.00    +0.001 A  
DOCKED: ENDBRANCH   2  18
DOCKED: TORSDOF 5
DOCKED: TER
DOCKED: ENDMDL
________________________________________________________________________________


    FINAL DOCKED STATE:
    ________________________


Run:   73 / 512
Time taken for this run:   0.002s

DOCKED: MODEL        73
DOCKED: USER    Run = 73
DOCKED: USER
DOCKED: USER    Estimated Free Energy of Binding    =  -4.03 kcal/mol  [=(1)+(2)+(3)-(4)]
DOCKED: USER
DOCKED: USER    (1) Final Intermolecular Energy     =  -5.52 kcal/mol
DOCKED: USER        vdW + Hbond + desolv Energy     =  -5.52 kcal/mol
DOCKED: USER        Electrostatic Energy            =  +0.00 kcal/mol
DOCKED: USER        Moving Ligand-Fixed Receptor    =  -5.52 kcal/mol
DOCKED: USER        Moving Ligand-Moving Receptor   =  +0.00 kcal/mol
DOCKED: USER    (2) Final Total Internal Energy     =  -1.19 kcal/mol
DOCKED: USER    (3) Torsional Free Energy           =  +1.49 kcal/mol
DOCKED: USER    (4) Unbound System's Energy         =  -1.19 kcal/mol
DOCKED: USER
DOCKED: USER
DOCKED: REMARK  5 active torsions:
DOCKED: REMARK  status: ('A' for Active; 'I' for Inactive)
DOCKED: REMARK    1  A    between atoms: C_2  and  C_19 
DOCKED: REMARK    2  A    between atoms: C_2  and  C_11 
DOCKED: REMARK    3  A    between atoms: C_19  and  C_20 
DOCKED: REMARK    4  A    between atoms: C_20  and  C_21 
DOCKED: REMARK    5  A    between atoms: C_21  and  N_22 
DOCKED: USER                              x       y       z     vdW  Elec       q    Type
DOCKED: USER                           _______ _______ _______ _____ _____    ______ ____
DOCKED: ROOT
DOCKED: ATOM      1  O   UNL     1     -34.475 -15.032  -2.856 +0.01 -0.00    -0.346 OA 
DOCKED: ATOM      2  C   UNL     1     -35.385 -14.811  -1.731 -0.05 +0.00    +0.130 C  
DOCKED: ATOM      3  C   UNL     1     -36.633 -14.282  -2.376 -0.15 +0.00    +0.004 A  
DOCKED: ATOM      4  C   UNL     1     -36.490 -14.302  -3.757 -0.14 +0.00    +0.006 A  
DOCKED: ATOM      5  C   UNL     1     -35.163 -14.850  -4.116 -0.04 +0.00    +0.169 C  
DOCKED: ATOM      6  C   UNL     1     -37.806 -13.830  -1.789 -0.15 -0.00    -0.001 A  
DOCKED: ATOM      7  C   UNL     1     -37.505 -13.870  -4.593 -0.24 +0.00    +0.008 A  
DOCKED: ATOM      8  C   UNL     1     -38.837 -13.386  -2.619 -0.32 +0.00    +0.010 A  
DOCKED: ATOM      9  C   UNL     1     -38.688 -13.407  -4.013 -0.32 +0.00    +0.068 A  
DOCKED: ATOM     10  N   UNL     1     -40.624 -12.582  -5.524 -2.54 -0.00    -0.191 NA 
DOCKED: ATOM     11  C   UNL     1     -39.755 -12.951  -4.847 -0.23 +0.00    +0.101 C  
DOCKED: ENDROOT
DOCKED: BRANCH   2  12
DOCKED: ATOM     12  C   UNL     1     -35.603 -16.141  -1.019 -0.05 +0.00    +0.038 C  
DOCKED: BRANCH  12  13
DOCKED: ATOM     13  C   UNL     1     -36.736 -16.939  -1.663 -0.15 +0.00    +0.038 C  
DOCKED: BRANCH  13  14
DOCKED: ATOM     14  C   UNL     1     -36.211 -18.225  -2.298 -0.12 +0.00    +0.251 C  
DOCKED: BRANCH  14  15
DOCKED: ATOM     15  N   UNL     1     -36.848 -18.450  -3.590 -0.21 +0.00    +0.141 N  
DOCKED: ATOM     16  C   UNL     1     -36.147 -17.719  -4.646 -0.10 +0.00    +0.285 C  
DOCKED: ATOM     17  C   UNL     1     -36.888 -19.880  -3.903 -0.20 +0.00    +0.285 C  
DOCKED: ENDBRANCH  14  15
DOCKED: ENDBRANCH  13  14
DOCKED: ENDBRANCH  12  13
DOCKED: ENDBRANCH   2  12
DOCKED: BRANCH   2  18
DOCKED: ATOM     18  C   UNL     1     -34.731 -13.819  -0.829 -0.08 +0.00    +0.006 A  
DOCKED: ATOM     19  C   UNL     1     -34.265 -14.217   0.423 -0.07 +0.00    +0.001 A  
DOCKED: ATOM     20  C   UNL     1     -33.653 -13.288   1.266 -0.07 +0.00    +0.029 A  
DOCKED: ATOM     21  C   UNL     1     -33.509 -11.963   0.855 -0.07 +0.00    +0.140 A  
DOCKED: ATOM     22  C   UNL     1     -33.976 -11.566  -0.397 -0.09 +0.00    +0.029 A  
DOCKED: ATOM     23  F   UNL     1     -32.921 -11.072   1.664 -0.02 -0.00    -0.204 F  
DOCKED: ATOM     24  C   UNL     1     -34.588 -12.495  -1.241 -0.10 +0.00    +0.001 A  
DOCKED: ENDBRANCH   2  18
DOCKED: TORSDOF 5
DOCKED: TER
DOCKED: ENDMDL
________________________________________________________________________________


    FINAL DOCKED STATE:
    ________________________


Run:   74 / 512
Time taken for this run:   0.002s

DOCKED: MODEL        74
DOCKED: USER    Run = 74
DOCKED: USER
DOCKED: USER    Estimated Free Energy of Binding    =  -5.41 kcal/mol  [=(1)+(2)+(3)-(4)]
DOCKED: USER
DOCKED: USER    (1) Final Intermolecular Energy     =  -6.91 kcal/mol
DOCKED: USER        vdW + Hbond + desolv Energy     =  -6.91 kcal/mol
DOCKED: USER        Electrostatic Energy            =  +0.00 kcal/mol
DOCKED: USER        Moving Ligand-Fixed Receptor    =  -6.91 kcal/mol
DOCKED: USER        Moving Ligand-Moving Receptor   =  +0.00 kcal/mol
DOCKED: USER    (2) Final Total Internal Energy     =  -1.62 kcal/mol
DOCKED: USER    (3) Torsional Free Energy           =  +1.49 kcal/mol
DOCKED: USER    (4) Unbound System's Energy         =  -1.62 kcal/mol
DOCKED: USER
DOCKED: USER
DOCKED: REMARK  5 active torsions:
DOCKED: REMARK  status: ('A' for Active; 'I' for Inactive)
DOCKED: REMARK    1  A    between atoms: C_2  and  C_19 
DOCKED: REMARK    2  A    between atoms: C_2  and  C_11 
DOCKED: REMARK    3  A    between atoms: C_19  and  C_20 
DOCKED: REMARK    4  A    between atoms: C_20  and  C_21 
DOCKED: REMARK    5  A    between atoms: C_21  and  N_22 
DOCKED: USER                              x       y       z     vdW  Elec       q    Type
DOCKED: USER                           _______ _______ _______ _____ _____    ______ ____
DOCKED: ROOT
DOCKED: ATOM      1  O   UNL     1     -40.734 -21.694   7.777 -0.07 -0.00    -0.346 OA 
DOCKED: ATOM      2  C   UNL     1     -40.526 -23.139   7.873 -0.22 +0.00    +0.130 C  
DOCKED: ATOM      3  C   UNL     1     -41.133 -23.674   6.608 -0.33 +0.00    +0.004 A  
DOCKED: ATOM      4  C   UNL     1     -41.552 -22.620   5.809 -0.31 +0.00    +0.006 A  
DOCKED: ATOM      5  C   UNL     1     -41.244 -21.333   6.472 -0.23 +0.00    +0.169 C  
DOCKED: ATOM      6  C   UNL     1     -41.292 -24.989   6.194 -0.42 -0.00    -0.001 A  
DOCKED: ATOM      7  C   UNL     1     -42.143 -22.841   4.577 -0.07 +0.00    +0.008 A  
DOCKED: ATOM      8  C   UNL     1     -41.891 -25.228   4.956 -0.47 +0.00    +0.010 A  
DOCKED: ATOM      9  C   UNL     1     -42.314 -24.159   4.151 -0.40 +0.00    +0.068 A  
DOCKED: ATOM     10  N   UNL     1     -43.417 -24.639   1.856 -2.69 -0.00    -0.191 NA 
DOCKED: ATOM     11  C   UNL     1     -42.923 -24.424   2.886 -0.47 +0.00    +0.101 C  
DOCKED: ENDROOT
DOCKED: BRANCH   2  12
DOCKED: ATOM     12  C   UNL     1     -39.029 -23.406   7.972 -0.18 +0.00    +0.038 C  
DOCKED: BRANCH  12  13
DOCKED: ATOM     13  C   UNL     1     -38.261 -22.139   8.345 -0.17 +0.00    +0.038 C  
DOCKED: BRANCH  13  14
DOCKED: ATOM     14  C   UNL     1     -38.171 -21.978   9.861 -0.06 +0.00    +0.251 C  
DOCKED: BRANCH  14  15
DOCKED: ATOM     15  N   UNL     1     -39.388 -21.364  10.379 -0.03 +0.00    +0.141 N  
DOCKED: ATOM     16  C   UNL     1     -39.503 -21.584  11.822 -0.01 +0.00    +0.285 C  
DOCKED: ATOM     17  C   UNL     1     -39.411 -19.932  10.081 -0.01 +0.00    +0.285 C  
DOCKED: ENDBRANCH  14  15
DOCKED: ENDBRANCH  13  14
DOCKED: ENDBRANCH  12  13
DOCKED: ENDBRANCH   2  12
DOCKED: BRANCH   2  18
DOCKED: ATOM     18  C   UNL     1     -41.238 -23.602   9.101 -0.16 +0.00    +0.006 A  
DOCKED: ATOM     19  C   UNL     1     -40.742 -24.683   9.827 -0.14 +0.00    +0.001 A  
DOCKED: ATOM     20  C   UNL     1     -41.409 -25.115  10.975 -0.22 +0.00    +0.029 A  
DOCKED: ATOM     21  C   UNL     1     -42.569 -24.465  11.394 -0.09 +0.00    +0.140 A  
DOCKED: ATOM     22  C   UNL     1     -43.063 -23.382  10.667 -0.07 +0.00    +0.029 A  
DOCKED: ATOM     23  F   UNL     1     -43.207 -24.878  12.496 -0.01 -0.00    -0.204 F  
DOCKED: ATOM     24  C   UNL     1     -42.398 -22.950   9.518 -0.08 +0.00    +0.001 A  
DOCKED: ENDBRANCH   2  18
DOCKED: TORSDOF 5
DOCKED: TER
DOCKED: ENDMDL
________________________________________________________________________________


    FINAL DOCKED STATE:
    ________________________


Run:   75 / 512
Time taken for this run:   0.002s

DOCKED: MODEL        75
DOCKED: USER    Run = 75
DOCKED: USER
DOCKED: USER    Estimated Free Energy of Binding    =  -4.19 kcal/mol  [=(1)+(2)+(3)-(4)]
DOCKED: USER
DOCKED: USER    (1) Final Intermolecular Energy     =  -5.69 kcal/mol
DOCKED: USER        vdW + Hbond + desolv Energy     =  -5.69 kcal/mol
DOCKED: USER        Electrostatic Energy            =  +0.00 kcal/mol
DOCKED: USER        Moving Ligand-Fixed Receptor    =  -5.69 kcal/mol
DOCKED: USER        Moving Ligand-Moving Receptor   =  +0.00 kcal/mol
DOCKED: USER    (2) Final Total Internal Energy     =  -1.13 kcal/mol
DOCKED: USER    (3) Torsional Free Energy           =  +1.49 kcal/mol
DOCKED: USER    (4) Unbound System's Energy         =  -1.13 kcal/mol
DOCKED: USER
DOCKED: USER
DOCKED: REMARK  5 active torsions:
DOCKED: REMARK  status: ('A' for Active; 'I' for Inactive)
DOCKED: REMARK    1  A    between atoms: C_2  and  C_19 
DOCKED: REMARK    2  A    between atoms: C_2  and  C_11 
DOCKED: REMARK    3  A    between atoms: C_19  and  C_20 
DOCKED: REMARK    4  A    between atoms: C_20  and  C_21 
DOCKED: REMARK    5  A    between atoms: C_21  and  N_22 
DOCKED: USER                              x       y       z     vdW  Elec       q    Type
DOCKED: USER                           _______ _______ _______ _____ _____    ______ ____
DOCKED: ROOT
DOCKED: ATOM      1  O   UNL     1     -40.358 -19.658   7.330 -0.05 -0.00    -0.346 OA 
DOCKED: ATOM      2  C   UNL     1     -39.508 -20.730   7.850 -0.13 +0.00    +0.130 C  
DOCKED: ATOM      3  C   UNL     1     -40.202 -21.986   7.407 -0.20 +0.00    +0.004 A  
DOCKED: ATOM      4  C   UNL     1     -41.291 -21.661   6.611 -0.27 +0.00    +0.006 A  
DOCKED: ATOM      5  C   UNL     1     -41.385 -20.191   6.463 -0.16 +0.00    +0.169 C  
DOCKED: ATOM      6  C   UNL     1     -39.888 -23.309   7.678 -0.25 -0.00    -0.001 A  
DOCKED: ATOM      7  C   UNL     1     -42.102 -22.641   6.065 -0.32 +0.00    +0.008 A  
DOCKED: ATOM      8  C   UNL     1     -40.699 -24.309   7.138 -0.35 +0.00    +0.010 A  
DOCKED: ATOM      9  C   UNL     1     -41.800 -23.977   6.335 -0.31 +0.00    +0.068 A  
DOCKED: ATOM     10  N   UNL     1     -43.281 -25.857   5.345 -2.56 -0.00    -0.191 NA 
DOCKED: ATOM     11  C   UNL     1     -42.617 -25.014   5.789 -0.36 +0.00    +0.101 C  
DOCKED: ENDROOT
DOCKED: BRANCH   2  12
DOCKED: ATOM     12  C   UNL     1     -38.116 -20.578   7.248 -0.08 +0.00    +0.038 C  
DOCKED: BRANCH  12  13
DOCKED: ATOM     13  C   UNL     1     -38.002 -19.296   6.426 -0.13 +0.00    +0.038 C  
DOCKED: BRANCH  13  14
DOCKED: ATOM     14  C   UNL     1     -37.117 -19.506   5.199 -0.09 +0.00    +0.251 C  
DOCKED: BRANCH  14  15
DOCKED: ATOM     15  N   UNL     1     -37.513 -18.602   4.126 -0.10 +0.00    +0.141 N  
DOCKED: ATOM     16  C   UNL     1     -37.762 -19.344   2.890 -0.12 +0.00    +0.285 C  
DOCKED: ATOM     17  C   UNL     1     -38.703 -17.839   4.508 -0.06 +0.00    +0.285 C  
DOCKED: ENDBRANCH  14  15
DOCKED: ENDBRANCH  13  14
DOCKED: ENDBRANCH  12  13
DOCKED: ENDBRANCH   2  12
DOCKED: BRANCH   2  18
DOCKED: ATOM     18  C   UNL     1     -39.472 -20.578   9.334 -0.05 +0.00    +0.006 A  
DOCKED: ATOM     19  C   UNL     1     -38.327 -20.939  10.044 -0.04 +0.00    +0.001 A  
DOCKED: ATOM     20  C   UNL     1     -38.295 -20.796  11.432 -0.01 +0.00    +0.029 A  
DOCKED: ATOM     21  C   UNL     1     -39.406 -20.293  12.107 -0.00 +0.00    +0.140 A  
DOCKED: ATOM     22  C   UNL     1     -40.550 -19.932  11.396 -0.00 +0.00    +0.029 A  
DOCKED: ATOM     23  F   UNL     1     -39.374 -20.154  13.439 +0.00 -0.00    -0.204 F  
DOCKED: ATOM     24  C   UNL     1     -40.584 -20.075  10.008 -0.02 +0.00    +0.001 A  
DOCKED: ENDBRANCH   2  18
DOCKED: TORSDOF 5
DOCKED: TER
DOCKED: ENDMDL
________________________________________________________________________________


    FINAL DOCKED STATE:
    ________________________


Run:   76 / 512
Time taken for this run:   0.002s

DOCKED: MODEL        76
DOCKED: USER    Run = 76
DOCKED: USER
DOCKED: USER    Estimated Free Energy of Binding    =  -4.83 kcal/mol  [=(1)+(2)+(3)-(4)]
DOCKED: USER
DOCKED: USER    (1) Final Intermolecular Energy     =  -6.32 kcal/mol
DOCKED: USER        vdW + Hbond + desolv Energy     =  -6.32 kcal/mol
DOCKED: USER        Electrostatic Energy            =  +0.00 kcal/mol
DOCKED: USER        Moving Ligand-Fixed Receptor    =  -6.32 kcal/mol
DOCKED: USER        Moving Ligand-Moving Receptor   =  +0.00 kcal/mol
DOCKED: USER    (2) Final Total Internal Energy     =  -1.60 kcal/mol
DOCKED: USER    (3) Torsional Free Energy           =  +1.49 kcal/mol
DOCKED: USER    (4) Unbound System's Energy         =  -1.60 kcal/mol
DOCKED: USER
DOCKED: USER
DOCKED: REMARK  5 active torsions:
DOCKED: REMARK  status: ('A' for Active; 'I' for Inactive)
DOCKED: REMARK    1  A    between atoms: C_2  and  C_19 
DOCKED: REMARK    2  A    between atoms: C_2  and  C_11 
DOCKED: REMARK    3  A    between atoms: C_19  and  C_20 
DOCKED: REMARK    4  A    between atoms: C_20  and  C_21 
DOCKED: REMARK    5  A    between atoms: C_21  and  N_22 
DOCKED: USER                              x       y       z     vdW  Elec       q    Type
DOCKED: USER                           _______ _______ _______ _____ _____    ______ ____
DOCKED: ROOT
DOCKED: ATOM      1  O   UNL     1     -44.615 -23.107   8.388 -0.00 -0.00    -0.346 OA 
DOCKED: ATOM      2  C   UNL     1     -43.251 -22.671   8.089 -0.11 +0.00    +0.130 C  
DOCKED: ATOM      3  C   UNL     1     -43.060 -23.048   6.649 -0.25 +0.00    +0.004 A  
DOCKED: ATOM      4  C   UNL     1     -44.247 -23.555   6.138 -0.27 +0.00    +0.006 A  
DOCKED: ATOM      5  C   UNL     1     -45.293 -23.536   7.184 -0.16 +0.00    +0.169 C  
DOCKED: ATOM      6  C   UNL     1     -41.930 -22.942   5.851 -0.35 -0.00    -0.001 A  
DOCKED: ATOM      7  C   UNL     1     -44.344 -23.974   4.822 -0.29 +0.00    +0.008 A  
DOCKED: ATOM      8  C   UNL     1     -42.011 -23.364   4.523 -0.22 +0.00    +0.010 A  
DOCKED: ATOM      9  C   UNL     1     -43.212 -23.877   4.011 -0.32 +0.00    +0.068 A  
DOCKED: ATOM     10  N   UNL     1     -43.329 -24.647   1.540 -2.98 -0.00    -0.191 NA 
DOCKED: ATOM     11  C   UNL     1     -43.277 -24.302   2.649 -0.26 +0.00    +0.101 C  
DOCKED: ENDROOT
DOCKED: BRANCH   2  12
DOCKED: ATOM     12  C   UNL     1     -43.162 -21.168   8.325 -0.11 +0.00    +0.038 C  
DOCKED: BRANCH  12  13
DOCKED: ATOM     13  C   UNL     1     -44.432 -20.631   8.983 -0.07 +0.00    +0.038 C  
DOCKED: BRANCH  13  14
DOCKED: ATOM     14  C   UNL     1     -44.318 -20.665  10.506 -0.00 +0.00    +0.251 C  
DOCKED: BRANCH  14  15
DOCKED: ATOM     15  N   UNL     1     -44.569 -22.013  11.004 -0.01 +0.00    +0.141 N  
DOCKED: ATOM     16  C   UNL     1     -43.925 -22.211  12.303 +0.00 +0.00    +0.285 C  
DOCKED: ATOM     17  C   UNL     1     -46.007 -22.265  11.106 +0.00 +0.00    +0.285 C  
DOCKED: ENDBRANCH  14  15
DOCKED: ENDBRANCH  13  14
DOCKED: ENDBRANCH  12  13
DOCKED: ENDBRANCH   2  12
DOCKED: BRANCH   2  18
DOCKED: ATOM     18  C   UNL     1     -42.343 -23.415   9.011 -0.12 +0.00    +0.006 A  
DOCKED: ATOM     19  C   UNL     1     -41.145 -22.835   9.426 -0.11 +0.00    +0.001 A  
DOCKED: ATOM     20  C   UNL     1     -40.297 -23.532  10.288 -0.12 +0.00    +0.029 A  
DOCKED: ATOM     21  C   UNL     1     -40.647 -24.806  10.732 -0.13 +0.00    +0.140 A  
DOCKED: ATOM     22  C   UNL     1     -41.846 -25.385  10.316 -0.17 +0.00    +0.029 A  
DOCKED: ATOM     23  F   UNL     1     -39.834 -25.474  11.560 -0.06 -0.00    -0.204 F  
DOCKED: ATOM     24  C   UNL     1     -42.695 -24.689   9.454 -0.20 +0.00    +0.001 A  
DOCKED: ENDBRANCH   2  18
DOCKED: TORSDOF 5
DOCKED: TER
DOCKED: ENDMDL
________________________________________________________________________________


    FINAL DOCKED STATE:
    ________________________


Run:   77 / 512
Time taken for this run:   0.002s

DOCKED: MODEL        77
DOCKED: USER    Run = 77
DOCKED: USER
DOCKED: USER    Estimated Free Energy of Binding    =  -3.94 kcal/mol  [=(1)+(2)+(3)-(4)]
DOCKED: USER
DOCKED: USER    (1) Final Intermolecular Energy     =  -5.43 kcal/mol
DOCKED: USER        vdW + Hbond + desolv Energy     =  -5.43 kcal/mol
DOCKED: USER        Electrostatic Energy            =  +0.00 kcal/mol
DOCKED: USER        Moving Ligand-Fixed Receptor    =  -5.43 kcal/mol
DOCKED: USER        Moving Ligand-Moving Receptor   =  +0.00 kcal/mol
DOCKED: USER    (2) Final Total Internal Energy     =  -0.94 kcal/mol
DOCKED: USER    (3) Torsional Free Energy           =  +1.49 kcal/mol
DOCKED: USER    (4) Unbound System's Energy         =  -0.94 kcal/mol
DOCKED: USER
DOCKED: USER
DOCKED: REMARK  5 active torsions:
DOCKED: REMARK  status: ('A' for Active; 'I' for Inactive)
DOCKED: REMARK    1  A    between atoms: C_2  and  C_19 
DOCKED: REMARK    2  A    between atoms: C_2  and  C_11 
DOCKED: REMARK    3  A    between atoms: C_19  and  C_20 
DOCKED: REMARK    4  A    between atoms: C_20  and  C_21 
DOCKED: REMARK    5  A    between atoms: C_21  and  N_22 
DOCKED: USER                              x       y       z     vdW  Elec       q    Type
DOCKED: USER                           _______ _______ _______ _____ _____    ______ ____
DOCKED: ROOT
DOCKED: ATOM      1  O   UNL     1     -40.872 -20.983   9.597 -0.00 -0.00    -0.346 OA 
DOCKED: ATOM      2  C   UNL     1     -41.263 -20.340   8.342 -0.08 +0.00    +0.130 C  
DOCKED: ATOM      3  C   UNL     1     -41.655 -21.487   7.456 -0.19 +0.00    +0.004 A  
DOCKED: ATOM      4  C   UNL     1     -41.599 -22.672   8.176 -0.15 +0.00    +0.006 A  
DOCKED: ATOM      5  C   UNL     1     -41.186 -22.395   9.569 -0.06 +0.00    +0.169 C  
DOCKED: ATOM      6  C   UNL     1     -42.041 -21.481   6.124 -0.23 -0.00    -0.001 A  
DOCKED: ATOM      7  C   UNL     1     -41.921 -23.886   7.591 -0.24 +0.00    +0.008 A  
DOCKED: ATOM      8  C   UNL     1     -42.364 -22.697   5.519 -0.28 +0.00    +0.010 A  
DOCKED: ATOM      9  C   UNL     1     -42.305 -23.893   6.250 -0.29 +0.00    +0.068 A  
DOCKED: ATOM     10  N   UNL     1     -42.916 -26.132   5.098 -2.46 -0.00    -0.191 NA 
DOCKED: ATOM     11  C   UNL     1     -42.641 -25.128   5.615 -0.35 +0.00    +0.101 C  
DOCKED: ENDROOT
DOCKED: BRANCH   2  12
DOCKED: ATOM     12  C   UNL     1     -42.419 -19.388   8.627 -0.06 +0.00    +0.038 C  
DOCKED: BRANCH  12  13
DOCKED: ATOM     13  C   UNL     1     -42.434 -18.220   7.644 -0.11 +0.00    +0.038 C  
DOCKED: BRANCH  13  14
DOCKED: ATOM     14  C   UNL     1     -43.582 -18.356   6.645 -0.16 +0.00    +0.251 C  
DOCKED: BRANCH  14  15
DOCKED: ATOM     15  N   UNL     1     -44.251 -17.073   6.463 -0.13 +0.00    +0.141 N  
DOCKED: ATOM     16  C   UNL     1     -44.161 -16.266   7.681 -0.02 +0.00    +0.285 C  
DOCKED: ATOM     17  C   UNL     1     -43.674 -16.348   5.330 -0.10 +0.00    +0.285 C  
DOCKED: ENDBRANCH  14  15
DOCKED: ENDBRANCH  13  14
DOCKED: ENDBRANCH  12  13
DOCKED: ENDBRANCH   2  12
DOCKED: BRANCH   2  18
DOCKED: ATOM     18  C   UNL     1     -40.068 -19.600   7.840 -0.10 +0.00    +0.006 A  
DOCKED: ATOM     19  C   UNL     1     -39.258 -18.899   8.732 -0.03 +0.00    +0.001 A  
DOCKED: ATOM     20  C   UNL     1     -38.141 -18.207   8.262 -0.02 +0.00    +0.029 A  
DOCKED: ATOM     21  C   UNL     1     -37.836 -18.217   6.902 -0.04 +0.00    +0.140 A  
DOCKED: ATOM     22  C   UNL     1     -38.647 -18.919   6.010 -0.13 +0.00    +0.029 A  
DOCKED: ATOM     23  F   UNL     1     -36.763 -17.555   6.451 -0.00 -0.00    -0.204 F  
DOCKED: ATOM     24  C   UNL     1     -39.765 -19.611   6.479 -0.18 +0.00    +0.001 A  
DOCKED: ENDBRANCH   2  18
DOCKED: TORSDOF 5
DOCKED: TER
DOCKED: ENDMDL
________________________________________________________________________________


    FINAL DOCKED STATE:
    ________________________


Run:   78 / 512
Time taken for this run:   0.002s

DOCKED: MODEL        78
DOCKED: USER    Run = 78
DOCKED: USER
DOCKED: USER    Estimated Free Energy of Binding    =  -4.30 kcal/mol  [=(1)+(2)+(3)-(4)]
DOCKED: USER
DOCKED: USER    (1) Final Intermolecular Energy     =  -5.79 kcal/mol
DOCKED: USER        vdW + Hbond + desolv Energy     =  -5.79 kcal/mol
DOCKED: USER        Electrostatic Energy            =  +0.00 kcal/mol
DOCKED: USER        Moving Ligand-Fixed Receptor    =  -5.79 kcal/mol
DOCKED: USER        Moving Ligand-Moving Receptor   =  +0.00 kcal/mol
DOCKED: USER    (2) Final Total Internal Energy     =  -1.41 kcal/mol
DOCKED: USER    (3) Torsional Free Energy           =  +1.49 kcal/mol
DOCKED: USER    (4) Unbound System's Energy         =  -1.41 kcal/mol
DOCKED: USER
DOCKED: USER
DOCKED: REMARK  5 active torsions:
DOCKED: REMARK  status: ('A' for Active; 'I' for Inactive)
DOCKED: REMARK    1  A    between atoms: C_2  and  C_19 
DOCKED: REMARK    2  A    between atoms: C_2  and  C_11 
DOCKED: REMARK    3  A    between atoms: C_19  and  C_20 
DOCKED: REMARK    4  A    between atoms: C_20  and  C_21 
DOCKED: REMARK    5  A    between atoms: C_21  and  N_22 
DOCKED: USER                              x       y       z     vdW  Elec       q    Type
DOCKED: USER                           _______ _______ _______ _____ _____    ______ ____
DOCKED: ROOT
DOCKED: ATOM      1  O   UNL     1     -38.954 -20.991   8.139 -0.06 -0.00    -0.346 OA 
DOCKED: ATOM      2  C   UNL     1     -40.208 -20.371   7.708 -0.13 +0.00    +0.130 C  
DOCKED: ATOM      3  C   UNL     1     -40.988 -21.510   7.118 -0.23 +0.00    +0.004 A  
DOCKED: ATOM      4  C   UNL     1     -40.290 -22.696   7.296 -0.24 +0.00    +0.006 A  
DOCKED: ATOM      5  C   UNL     1     -39.025 -22.431   8.016 -0.12 +0.00    +0.169 C  
DOCKED: ATOM      6  C   UNL     1     -42.222 -21.498   6.484 -0.27 -0.00    -0.001 A  
DOCKED: ATOM      7  C   UNL     1     -40.796 -23.904   6.846 -0.33 +0.00    +0.008 A  
DOCKED: ATOM      8  C   UNL     1     -42.743 -22.707   6.021 -0.28 +0.00    +0.010 A  
DOCKED: ATOM      9  C   UNL     1     -42.034 -23.904   6.202 -0.31 +0.00    +0.068 A  
DOCKED: ATOM     10  N   UNL     1     -43.032 -26.132   5.335 -2.59 -0.00    -0.191 NA 
DOCKED: ATOM     11  C   UNL     1     -42.584 -25.133   5.723 -0.31 +0.00    +0.101 C  
DOCKED: ENDROOT
DOCKED: BRANCH   2  12
DOCKED: ATOM     12  C   UNL     1     -40.886 -19.755   8.926 -0.05 +0.00    +0.038 C  
DOCKED: BRANCH  12  13
DOCKED: ATOM     13  C   UNL     1     -41.550 -20.823   9.793 -0.04 +0.00    +0.038 C  
DOCKED: BRANCH  13  14
DOCKED: ATOM     14  C   UNL     1     -43.072 -20.742   9.694 -0.01 +0.00    +0.251 C  
DOCKED: BRANCH  14  15
DOCKED: ATOM     15  N   UNL     1     -43.638 -22.071   9.490 -0.03 +0.00    +0.141 N  
DOCKED: ATOM     16  C   UNL     1     -42.756 -23.098  10.045 -0.02 +0.00    +0.285 C  
DOCKED: ATOM     17  C   UNL     1     -44.968 -22.163  10.094 -0.00 +0.00    +0.285 C  
DOCKED: ENDBRANCH  14  15
DOCKED: ENDBRANCH  13  14
DOCKED: ENDBRANCH  12  13
DOCKED: ENDBRANCH   2  12
DOCKED: BRANCH   2  18
DOCKED: ATOM     18  C   UNL     1     -39.854 -19.326   6.703 -0.16 +0.00    +0.006 A  
DOCKED: ATOM     19  C   UNL     1     -40.651 -18.190   6.569 -0.13 +0.00    +0.001 A  
DOCKED: ATOM     20  C   UNL     1     -40.319 -17.214   5.629 -0.10 +0.00    +0.029 A  
DOCKED: ATOM     21  C   UNL     1     -39.192 -17.374   4.825 -0.07 +0.00    +0.140 A  
DOCKED: ATOM     22  C   UNL     1     -38.395 -18.511   4.960 -0.13 +0.00    +0.029 A  
DOCKED: ATOM     23  F   UNL     1     -38.872 -16.436   3.924 -0.01 -0.00    -0.204 F  
DOCKED: ATOM     24  C   UNL     1     -38.726 -19.488   5.900 -0.15 +0.00    +0.001 A  
DOCKED: ENDBRANCH   2  18
DOCKED: TORSDOF 5
DOCKED: TER
DOCKED: ENDMDL
________________________________________________________________________________


    FINAL DOCKED STATE:
    ________________________


Run:   79 / 512
Time taken for this run:   0.002s

DOCKED: MODEL        79
DOCKED: USER    Run = 79
DOCKED: USER
DOCKED: USER    Estimated Free Energy of Binding    =  -4.01 kcal/mol  [=(1)+(2)+(3)-(4)]
DOCKED: USER
DOCKED: USER    (1) Final Intermolecular Energy     =  -5.50 kcal/mol
DOCKED: USER        vdW + Hbond + desolv Energy     =  -5.50 kcal/mol
DOCKED: USER        Electrostatic Energy            =  +0.00 kcal/mol
DOCKED: USER        Moving Ligand-Fixed Receptor    =  -5.50 kcal/mol
DOCKED: USER        Moving Ligand-Moving Receptor   =  +0.00 kcal/mol
DOCKED: USER    (2) Final Total Internal Energy     =  -1.01 kcal/mol
DOCKED: USER    (3) Torsional Free Energy           =  +1.49 kcal/mol
DOCKED: USER    (4) Unbound System's Energy         =  -1.01 kcal/mol
DOCKED: USER
DOCKED: USER
DOCKED: REMARK  5 active torsions:
DOCKED: REMARK  status: ('A' for Active; 'I' for Inactive)
DOCKED: REMARK    1  A    between atoms: C_2  and  C_19 
DOCKED: REMARK    2  A    between atoms: C_2  and  C_11 
DOCKED: REMARK    3  A    between atoms: C_19  and  C_20 
DOCKED: REMARK    4  A    between atoms: C_20  and  C_21 
DOCKED: REMARK    5  A    between atoms: C_21  and  N_22 
DOCKED: USER                              x       y       z     vdW  Elec       q    Type
DOCKED: USER                           _______ _______ _______ _____ _____    ______ ____
DOCKED: ROOT
DOCKED: ATOM      1  O   UNL     1     -38.487 -21.768   8.719 -0.07 -0.00    -0.346 OA 
DOCKED: ATOM      2  C   UNL     1     -39.620 -20.915   8.357 -0.11 +0.00    +0.130 C  
DOCKED: ATOM      3  C   UNL     1     -40.556 -21.847   7.641 -0.20 +0.00    +0.004 A  
DOCKED: ATOM      4  C   UNL     1     -40.054 -23.140   7.688 -0.25 +0.00    +0.006 A  
DOCKED: ATOM      5  C   UNL     1     -38.777 -23.156   8.437 -0.17 +0.00    +0.169 C  
DOCKED: ATOM      6  C   UNL     1     -41.760 -21.573   7.010 -0.24 -0.00    -0.001 A  
DOCKED: ATOM      7  C   UNL     1     -40.732 -24.197   7.105 -0.34 +0.00    +0.008 A  
DOCKED: ATOM      8  C   UNL     1     -42.454 -22.628   6.414 -0.29 +0.00    +0.010 A  
DOCKED: ATOM      9  C   UNL     1     -41.942 -23.933   6.462 -0.29 +0.00    +0.068 A  
DOCKED: ATOM     10  N   UNL     1     -43.256 -25.869   5.350 -2.55 -0.00    -0.191 NA 
DOCKED: ATOM     11  C   UNL     1     -42.666 -25.001   5.848 -0.35 +0.00    +0.101 C  
DOCKED: ENDROOT
DOCKED: BRANCH   2  12
DOCKED: ATOM     12  C   UNL     1     -40.218 -20.338   9.634 -0.04 +0.00    +0.038 C  
DOCKED: BRANCH  12  13
DOCKED: ATOM     13  C   UNL     1     -41.265 -21.276  10.232 -0.04 +0.00    +0.038 C  
DOCKED: BRANCH  13  14
DOCKED: ATOM     14  C   UNL     1     -41.345 -21.115  11.749 -0.00 +0.00    +0.251 C  
DOCKED: BRANCH  14  15
DOCKED: ATOM     15  N   UNL     1     -41.580 -22.406  12.384 -0.01 +0.00    +0.141 N  
DOCKED: ATOM     16  C   UNL     1     -40.312 -23.037  12.755 -0.02 +0.00    +0.285 C  
DOCKED: ATOM     17  C   UNL     1     -42.435 -22.253  13.563 +0.00 +0.00    +0.285 C  
DOCKED: ENDBRANCH  14  15
DOCKED: ENDBRANCH  13  14
DOCKED: ENDBRANCH  12  13
DOCKED: ENDBRANCH   2  12
DOCKED: BRANCH   2  18
DOCKED: ATOM     18  C   UNL     1     -39.088 -19.835   7.475 -0.12 +0.00    +0.006 A  
DOCKED: ATOM     19  C   UNL     1     -38.388 -18.765   8.030 -0.05 +0.00    +0.001 A  
DOCKED: ATOM     20  C   UNL     1     -37.892 -17.755   7.205 -0.03 +0.00    +0.029 A  
DOCKED: ATOM     21  C   UNL     1     -38.096 -17.817   5.827 -0.06 +0.00    +0.140 A  
DOCKED: ATOM     22  C   UNL     1     -38.797 -18.888   5.273 -0.13 +0.00    +0.029 A  
DOCKED: ATOM     23  F   UNL     1     -37.618 -16.848   5.035 -0.00 -0.00    -0.204 F  
DOCKED: ATOM     24  C   UNL     1     -39.294 -19.898   6.097 -0.14 +0.00    +0.001 A  
DOCKED: ENDBRANCH   2  18
DOCKED: TORSDOF 5
DOCKED: TER
DOCKED: ENDMDL
________________________________________________________________________________


    FINAL DOCKED STATE:
    ________________________


Run:   80 / 512
Time taken for this run:   0.002s

DOCKED: MODEL        80
DOCKED: USER    Run = 80
DOCKED: USER
DOCKED: USER    Estimated Free Energy of Binding    =  -3.95 kcal/mol  [=(1)+(2)+(3)-(4)]
DOCKED: USER
DOCKED: USER    (1) Final Intermolecular Energy     =  -5.44 kcal/mol
DOCKED: USER        vdW + Hbond + desolv Energy     =  -5.44 kcal/mol
DOCKED: USER        Electrostatic Energy            =  +0.00 kcal/mol
DOCKED: USER        Moving Ligand-Fixed Receptor    =  -5.44 kcal/mol
DOCKED: USER        Moving Ligand-Moving Receptor   =  +0.00 kcal/mol
DOCKED: USER    (2) Final Total Internal Energy     =  -1.31 kcal/mol
DOCKED: USER    (3) Torsional Free Energy           =  +1.49 kcal/mol
DOCKED: USER    (4) Unbound System's Energy         =  -1.31 kcal/mol
DOCKED: USER
DOCKED: USER
DOCKED: REMARK  5 active torsions:
DOCKED: REMARK  status: ('A' for Active; 'I' for Inactive)
DOCKED: REMARK    1  A    between atoms: C_2  and  C_19 
DOCKED: REMARK    2  A    between atoms: C_2  and  C_11 
DOCKED: REMARK    3  A    between atoms: C_19  and  C_20 
DOCKED: REMARK    4  A    between atoms: C_20  and  C_21 
DOCKED: REMARK    5  A    between atoms: C_21  and  N_22 
DOCKED: USER                              x       y       z     vdW  Elec       q    Type
DOCKED: USER                           _______ _______ _______ _____ _____    ______ ____
DOCKED: ROOT
DOCKED: ATOM      1  O   UNL     1     -34.723 -11.195  -1.279 -0.04 -0.00    -0.346 OA 
DOCKED: ATOM      2  C   UNL     1     -34.459 -11.018  -2.708 -0.08 +0.00    +0.130 C  
DOCKED: ATOM      3  C   UNL     1     -35.741 -11.438  -3.366 -0.14 +0.00    +0.004 A  
DOCKED: ATOM      4  C   UNL     1     -36.692 -11.724  -2.396 -0.24 +0.00    +0.006 A  
DOCKED: ATOM      5  C   UNL     1     -36.118 -11.504  -1.050 -0.05 +0.00    +0.169 C  
DOCKED: ATOM      6  C   UNL     1     -36.045 -11.547  -4.715 -0.15 -0.00    -0.001 A  
DOCKED: ATOM      7  C   UNL     1     -37.970 -12.131  -2.738 -0.27 +0.00    +0.008 A  
DOCKED: ATOM      8  C   UNL     1     -37.329 -11.960  -5.076 -0.28 +0.00    +0.010 A  
DOCKED: ATOM      9  C   UNL     1     -38.286 -12.250  -4.092 -0.36 +0.00    +0.068 A  
DOCKED: ATOM     10  N   UNL     1     -40.661 -13.010  -4.796 -2.52 -0.00    -0.191 NA 
DOCKED: ATOM     11  C   UNL     1     -39.596 -12.670  -4.480 -0.41 +0.00    +0.101 C  
DOCKED: ENDROOT
DOCKED: BRANCH   2  12
DOCKED: ATOM     12  C   UNL     1     -34.115  -9.554  -2.957 -0.11 +0.00    +0.038 C  
DOCKED: BRANCH  12  13
DOCKED: ATOM     13  C   UNL     1     -34.833  -8.637  -1.968 -0.14 +0.00    +0.038 C  
DOCKED: BRANCH  13  14
DOCKED: ATOM     14  C   UNL     1     -36.144  -8.116  -2.553 -0.10 +0.00    +0.251 C  
DOCKED: BRANCH  14  15
DOCKED: ATOM     15  N   UNL     1     -37.006  -7.607  -1.493 -0.19 +0.00    +0.141 N  
DOCKED: ATOM     16  C   UNL     1     -37.880  -8.666  -0.985 -0.23 +0.00    +0.285 C  
DOCKED: ATOM     17  C   UNL     1     -36.206  -7.043  -0.404 -0.06 +0.00    +0.285 C  
DOCKED: ENDBRANCH  14  15
DOCKED: ENDBRANCH  13  14
DOCKED: ENDBRANCH  12  13
DOCKED: ENDBRANCH   2  12
DOCKED: BRANCH   2  18
DOCKED: ATOM     18  C   UNL     1     -33.310 -11.906  -3.052 -0.03 +0.00    +0.006 A  
DOCKED: ATOM     19  C   UNL     1     -32.124 -11.355  -3.537 -0.02 +0.00    +0.001 A  
DOCKED: ATOM     20  C   UNL     1     -31.051 -12.187  -3.859 -0.00 +0.00    +0.029 A  
DOCKED: ATOM     21  C   UNL     1     -31.165 -13.567  -3.695 +0.00 +0.00    +0.140 A  
DOCKED: ATOM     22  C   UNL     1     -32.351 -14.117  -3.210 -0.00 +0.00    +0.029 A  
DOCKED: ATOM     23  F   UNL     1     -30.134 -14.365  -4.003 +0.00 -0.00    -0.204 F  
DOCKED: ATOM     24  C   UNL     1     -33.425 -13.286  -2.888 -0.02 +0.00    +0.001 A  
DOCKED: ENDBRANCH   2  18
DOCKED: TORSDOF 5
DOCKED: TER
DOCKED: ENDMDL
________________________________________________________________________________


    FINAL DOCKED STATE:
    ________________________


Run:   81 / 512
Time taken for this run:   0.002s

DOCKED: MODEL        81
DOCKED: USER    Run = 81
DOCKED: USER
DOCKED: USER    Estimated Free Energy of Binding    =  -5.27 kcal/mol  [=(1)+(2)+(3)-(4)]
DOCKED: USER
DOCKED: USER    (1) Final Intermolecular Energy     =  -6.76 kcal/mol
DOCKED: USER        vdW + Hbond + desolv Energy     =  -6.76 kcal/mol
DOCKED: USER        Electrostatic Energy            =  +0.00 kcal/mol
DOCKED: USER        Moving Ligand-Fixed Receptor    =  -6.76 kcal/mol
DOCKED: USER        Moving Ligand-Moving Receptor   =  +0.00 kcal/mol
DOCKED: USER    (2) Final Total Internal Energy     =  -1.01 kcal/mol
DOCKED: USER    (3) Torsional Free Energy           =  +1.49 kcal/mol
DOCKED: USER    (4) Unbound System's Energy         =  -1.01 kcal/mol
DOCKED: USER
DOCKED: USER
DOCKED: REMARK  5 active torsions:
DOCKED: REMARK  status: ('A' for Active; 'I' for Inactive)
DOCKED: REMARK    1  A    between atoms: C_2  and  C_19 
DOCKED: REMARK    2  A    between atoms: C_2  and  C_11 
DOCKED: REMARK    3  A    between atoms: C_19  and  C_20 
DOCKED: REMARK    4  A    between atoms: C_20  and  C_21 
DOCKED: REMARK    5  A    between atoms: C_21  and  N_22 
DOCKED: USER                              x       y       z     vdW  Elec       q    Type
DOCKED: USER                           _______ _______ _______ _____ _____    ______ ____
DOCKED: ROOT
DOCKED: ATOM      1  O   UNL     1     -44.835 -24.070   8.258 -0.04 -0.00    -0.346 OA 
DOCKED: ATOM      2  C   UNL     1     -43.698 -23.187   7.993 -0.12 +0.00    +0.130 C  
DOCKED: ATOM      3  C   UNL     1     -43.421 -23.388   6.531 -0.25 +0.00    +0.004 A  
DOCKED: ATOM      4  C   UNL     1     -44.382 -24.226   5.984 -0.31 +0.00    +0.006 A  
DOCKED: ATOM      5  C   UNL     1     -45.355 -24.622   7.027 -0.16 +0.00    +0.169 C  
DOCKED: ATOM      6  C   UNL     1     -42.405 -22.862   5.746 -0.33 -0.00    -0.001 A  
DOCKED: ATOM      7  C   UNL     1     -44.359 -24.570   4.643 -0.31 +0.00    +0.008 A  
DOCKED: ATOM      8  C   UNL     1     -42.366 -23.202   4.393 -0.23 +0.00    +0.010 A  
DOCKED: ATOM      9  C   UNL     1     -43.339 -24.051   3.844 -0.30 +0.00    +0.068 A  
DOCKED: ATOM     10  N   UNL     1     -43.241 -24.659   1.327 -2.92 -0.00    -0.191 NA 
DOCKED: ATOM     11  C   UNL     1     -43.285 -24.387   2.456 -0.27 +0.00    +0.101 C  
DOCKED: ENDROOT
DOCKED: BRANCH   2  12
DOCKED: ATOM     12  C   UNL     1     -44.109 -21.758   8.328 -0.12 +0.00    +0.038 C  
DOCKED: BRANCH  12  13
DOCKED: ATOM     13  C   UNL     1     -43.415 -20.750   7.413 -0.21 +0.00    +0.038 C  
DOCKED: BRANCH  13  14
DOCKED: ATOM     14  C   UNL     1     -42.702 -19.670   8.226 -0.06 +0.00    +0.251 C  
DOCKED: BRANCH  14  15
DOCKED: ATOM     15  N   UNL     1     -41.260 -19.757   8.031 -0.06 +0.00    +0.141 N  
DOCKED: ATOM     16  C   UNL     1     -40.929 -19.718   6.606 -0.13 +0.00    +0.285 C  
DOCKED: ATOM     17  C   UNL     1     -40.578 -18.674   8.741 -0.02 +0.00    +0.285 C  
DOCKED: ENDBRANCH  14  15
DOCKED: ENDBRANCH  13  14
DOCKED: ENDBRANCH  12  13
DOCKED: ENDBRANCH   2  12
DOCKED: BRANCH   2  18
DOCKED: ATOM     18  C   UNL     1     -42.578 -23.644   8.866 -0.13 +0.00    +0.006 A  
DOCKED: ATOM     19  C   UNL     1     -41.324 -23.041   8.763 -0.14 +0.00    +0.001 A  
DOCKED: ATOM     20  C   UNL     1     -40.277 -23.470   9.580 -0.14 +0.00    +0.029 A  
DOCKED: ATOM     21  C   UNL     1     -40.485 -24.498  10.498 -0.09 +0.00    +0.140 A  
DOCKED: ATOM     22  C   UNL     1     -41.739 -25.100  10.600 -0.20 +0.00    +0.029 A  
DOCKED: ATOM     23  F   UNL     1     -39.480 -24.908  11.283 -0.02 -0.00    -0.204 F  
DOCKED: ATOM     24  C   UNL     1     -42.787 -24.673   9.783 -0.19 +0.00    +0.001 A  
DOCKED: ENDBRANCH   2  18
DOCKED: TORSDOF 5
DOCKED: TER
DOCKED: ENDMDL
________________________________________________________________________________


    FINAL DOCKED STATE:
    ________________________


Run:   82 / 512
Time taken for this run:   0.002s

DOCKED: MODEL        82
DOCKED: USER    Run = 82
DOCKED: USER
DOCKED: USER    Estimated Free Energy of Binding    =  -5.81 kcal/mol  [=(1)+(2)+(3)-(4)]
DOCKED: USER
DOCKED: USER    (1) Final Intermolecular Energy     =  -7.30 kcal/mol
DOCKED: USER        vdW + Hbond + desolv Energy     =  -7.30 kcal/mol
DOCKED: USER        Electrostatic Energy            =  +0.00 kcal/mol
DOCKED: USER        Moving Ligand-Fixed Receptor    =  -7.30 kcal/mol
DOCKED: USER        Moving Ligand-Moving Receptor   =  +0.00 kcal/mol
DOCKED: USER    (2) Final Total Internal Energy     =  -1.56 kcal/mol
DOCKED: USER    (3) Torsional Free Energy           =  +1.49 kcal/mol
DOCKED: USER    (4) Unbound System's Energy         =  -1.56 kcal/mol
DOCKED: USER
DOCKED: USER
DOCKED: REMARK  5 active torsions:
DOCKED: REMARK  status: ('A' for Active; 'I' for Inactive)
DOCKED: REMARK    1  A    between atoms: C_2  and  C_19 
DOCKED: REMARK    2  A    between atoms: C_2  and  C_11 
DOCKED: REMARK    3  A    between atoms: C_19  and  C_20 
DOCKED: REMARK    4  A    between atoms: C_20  and  C_21 
DOCKED: REMARK    5  A    between atoms: C_21  and  N_22 
DOCKED: USER                              x       y       z     vdW  Elec       q    Type
DOCKED: USER                           _______ _______ _______ _____ _____    ______ ____
DOCKED: ROOT
DOCKED: ATOM      1  O   UNL     1     -40.929 -21.981   7.826 -0.06 -0.00    -0.346 OA 
DOCKED: ATOM      2  C   UNL     1     -40.707 -23.427   7.824 -0.24 +0.00    +0.130 C  
DOCKED: ATOM      3  C   UNL     1     -41.261 -23.875   6.503 -0.35 +0.00    +0.004 A  
DOCKED: ATOM      4  C   UNL     1     -41.664 -22.770   5.767 -0.33 +0.00    +0.006 A  
DOCKED: ATOM      5  C   UNL     1     -41.396 -21.532   6.532 -0.24 +0.00    +0.169 C  
DOCKED: ATOM      6  C   UNL     1     -41.388 -25.157   5.989 -0.37 -0.00    -0.001 A  
DOCKED: ATOM      7  C   UNL     1     -42.208 -22.906   4.501 -0.03 +0.00    +0.008 A  
DOCKED: ATOM      8  C   UNL     1     -41.940 -25.312   4.716 -0.46 +0.00    +0.010 A  
DOCKED: ATOM      9  C   UNL     1     -42.347 -24.192   3.976 -0.41 +0.00    +0.068 A  
DOCKED: ATOM     10  N   UNL     1     -43.362 -24.514   1.614 -3.02 -0.00    -0.191 NA 
DOCKED: ATOM     11  C   UNL     1     -42.907 -24.369   2.673 -0.41 +0.00    +0.101 C  
DOCKED: ENDROOT
DOCKED: BRANCH   2  12
DOCKED: ATOM     12  C   UNL     1     -39.211 -23.686   7.958 -0.17 +0.00    +0.038 C  
DOCKED: BRANCH  12  13
DOCKED: ATOM     13  C   UNL     1     -38.464 -22.426   8.393 -0.19 +0.00    +0.038 C  
DOCKED: BRANCH  13  14
DOCKED: ATOM     14  C   UNL     1     -38.598 -22.199   9.897 -0.06 +0.00    +0.251 C  
DOCKED: BRANCH  14  15
DOCKED: ATOM     15  N   UNL     1     -39.164 -20.882  10.164 -0.02 +0.00    +0.141 N  
DOCKED: ATOM     16  C   UNL     1     -39.041 -20.020   8.987 -0.03 +0.00    +0.285 C  
DOCKED: ATOM     17  C   UNL     1     -40.567 -20.996  10.566 -0.01 +0.00    +0.285 C  
DOCKED: ENDBRANCH  14  15
DOCKED: ENDBRANCH  13  14
DOCKED: ENDBRANCH  12  13
DOCKED: ENDBRANCH   2  12
DOCKED: BRANCH   2  18
DOCKED: ATOM     18  C   UNL     1     -41.456 -23.985   8.988 -0.19 +0.00    +0.006 A  
DOCKED: ATOM     19  C   UNL     1     -42.784 -23.619   9.202 -0.12 +0.00    +0.001 A  
DOCKED: ATOM     20  C   UNL     1     -43.483 -24.141  10.291 -0.11 +0.00    +0.029 A  
DOCKED: ATOM     21  C   UNL     1     -42.854 -25.027  11.164 -0.10 +0.00    +0.140 A  
DOCKED: ATOM     22  C   UNL     1     -41.525 -25.393  10.950 -0.21 +0.00    +0.029 A  
DOCKED: ATOM     23  F   UNL     1     -43.526 -25.529  12.208 -0.03 -0.00    -0.204 F  
DOCKED: ATOM     24  C   UNL     1     -40.825 -24.871   9.861 -0.13 +0.00    +0.001 A  
DOCKED: ENDBRANCH   2  18
DOCKED: TORSDOF 5
DOCKED: TER
DOCKED: ENDMDL
________________________________________________________________________________


    FINAL DOCKED STATE:
    ________________________


Run:   83 / 512
Time taken for this run:   0.002s

DOCKED: MODEL        83
DOCKED: USER    Run = 83
DOCKED: USER
DOCKED: USER    Estimated Free Energy of Binding    =  -4.93 kcal/mol  [=(1)+(2)+(3)-(4)]
DOCKED: USER
DOCKED: USER    (1) Final Intermolecular Energy     =  -6.43 kcal/mol
DOCKED: USER        vdW + Hbond + desolv Energy     =  -6.43 kcal/mol
DOCKED: USER        Electrostatic Energy            =  +0.00 kcal/mol
DOCKED: USER        Moving Ligand-Fixed Receptor    =  -6.43 kcal/mol
DOCKED: USER        Moving Ligand-Moving Receptor   =  +0.00 kcal/mol
DOCKED: USER    (2) Final Total Internal Energy     =  -1.29 kcal/mol
DOCKED: USER    (3) Torsional Free Energy           =  +1.49 kcal/mol
DOCKED: USER    (4) Unbound System's Energy         =  -1.29 kcal/mol
DOCKED: USER
DOCKED: USER
DOCKED: REMARK  5 active torsions:
DOCKED: REMARK  status: ('A' for Active; 'I' for Inactive)
DOCKED: REMARK    1  A    between atoms: C_2  and  C_19 
DOCKED: REMARK    2  A    between atoms: C_2  and  C_11 
DOCKED: REMARK    3  A    between atoms: C_19  and  C_20 
DOCKED: REMARK    4  A    between atoms: C_20  and  C_21 
DOCKED: REMARK    5  A    between atoms: C_21  and  N_22 
DOCKED: USER                              x       y       z     vdW  Elec       q    Type
DOCKED: USER                           _______ _______ _______ _____ _____    ______ ____
DOCKED: ROOT
DOCKED: ATOM      1  O   UNL     1     -41.167 -21.700   8.127 -0.04 -0.00    -0.346 OA 
DOCKED: ATOM      2  C   UNL     1     -40.983 -23.147   8.241 -0.18 +0.00    +0.130 C  
DOCKED: ATOM      3  C   UNL     1     -41.466 -23.677   6.922 -0.31 +0.00    +0.004 A  
DOCKED: ATOM      4  C   UNL     1     -41.793 -22.619   6.086 -0.33 +0.00    +0.006 A  
DOCKED: ATOM      5  C   UNL     1     -41.541 -21.335   6.778 -0.22 +0.00    +0.169 C  
DOCKED: ATOM      6  C   UNL     1     -41.595 -24.989   6.492 -0.33 -0.00    -0.001 A  
DOCKED: ATOM      7  C   UNL     1     -42.261 -22.834   4.801 -0.11 +0.00    +0.008 A  
DOCKED: ATOM      8  C   UNL     1     -42.070 -25.223   5.201 -0.46 +0.00    +0.010 A  
DOCKED: ATOM      9  C   UNL     1     -42.401 -24.150   4.359 -0.41 +0.00    +0.068 A  
DOCKED: ATOM     10  N   UNL     1     -43.275 -24.618   1.966 -2.56 -0.00    -0.191 NA 
DOCKED: ATOM     11  C   UNL     1     -42.884 -24.408   3.039 -0.50 +0.00    +0.101 C  
DOCKED: ENDROOT
DOCKED: BRANCH   2  12
DOCKED: ATOM     12  C   UNL     1     -39.506 -23.428   8.488 -0.23 +0.00    +0.038 C  
DOCKED: BRANCH  12  13
DOCKED: ATOM     13  C   UNL     1     -39.202 -23.541   9.981 -0.09 +0.00    +0.038 C  
DOCKED: BRANCH  13  14
DOCKED: ATOM     14  C   UNL     1     -38.662 -22.223  10.533 -0.05 +0.00    +0.251 C  
DOCKED: BRANCH  14  15
DOCKED: ATOM     15  N   UNL     1     -39.675 -21.562  11.348 -0.02 +0.00    +0.141 N  
DOCKED: ATOM     16  C   UNL     1     -39.146 -21.251  12.677 -0.00 +0.00    +0.285 C  
DOCKED: ATOM     17  C   UNL     1     -40.149 -20.342  10.692 -0.00 +0.00    +0.285 C  
DOCKED: ENDBRANCH  14  15
DOCKED: ENDBRANCH  13  14
DOCKED: ENDBRANCH  12  13
DOCKED: ENDBRANCH   2  12
DOCKED: BRANCH   2  18
DOCKED: ATOM     18  C   UNL     1     -41.817 -23.603   9.391 -0.13 +0.00    +0.006 A  
DOCKED: ATOM     19  C   UNL     1     -41.791 -24.941   9.785 -0.24 +0.00    +0.001 A  
DOCKED: ATOM     20  C   UNL     1     -42.572 -25.366  10.860 -0.05 +0.00    +0.029 A  
DOCKED: ATOM     21  C   UNL     1     -43.377 -24.454  11.541 -0.07 +0.00    +0.140 A  
DOCKED: ATOM     22  C   UNL     1     -43.403 -23.116  11.147 -0.04 +0.00    +0.029 A  
DOCKED: ATOM     23  F   UNL     1     -44.125 -24.862  12.574 -0.00 -0.00    -0.204 F  
DOCKED: ATOM     24  C   UNL     1     -42.622 -22.690  10.071 -0.06 +0.00    +0.001 A  
DOCKED: ENDBRANCH   2  18
DOCKED: TORSDOF 5
DOCKED: TER
DOCKED: ENDMDL
________________________________________________________________________________


    FINAL DOCKED STATE:
    ________________________


Run:   84 / 512
Time taken for this run:   0.002s

DOCKED: MODEL        84
DOCKED: USER    Run = 84
DOCKED: USER
DOCKED: USER    Estimated Free Energy of Binding    =  -4.21 kcal/mol  [=(1)+(2)+(3)-(4)]
DOCKED: USER
DOCKED: USER    (1) Final Intermolecular Energy     =  -5.70 kcal/mol
DOCKED: USER        vdW + Hbond + desolv Energy     =  -5.70 kcal/mol
DOCKED: USER        Electrostatic Energy            =  +0.00 kcal/mol
DOCKED: USER        Moving Ligand-Fixed Receptor    =  -5.70 kcal/mol
DOCKED: USER        Moving Ligand-Moving Receptor   =  +0.00 kcal/mol
DOCKED: USER    (2) Final Total Internal Energy     =  -1.34 kcal/mol
DOCKED: USER    (3) Torsional Free Energy           =  +1.49 kcal/mol
DOCKED: USER    (4) Unbound System's Energy         =  -1.34 kcal/mol
DOCKED: USER
DOCKED: USER
DOCKED: REMARK  5 active torsions:
DOCKED: REMARK  status: ('A' for Active; 'I' for Inactive)
DOCKED: REMARK    1  A    between atoms: C_2  and  C_19 
DOCKED: REMARK    2  A    between atoms: C_2  and  C_11 
DOCKED: REMARK    3  A    between atoms: C_19  and  C_20 
DOCKED: REMARK    4  A    between atoms: C_20  and  C_21 
DOCKED: REMARK    5  A    between atoms: C_21  and  N_22 
DOCKED: USER                              x       y       z     vdW  Elec       q    Type
DOCKED: USER                           _______ _______ _______ _____ _____    ______ ____
DOCKED: ROOT
DOCKED: ATOM      1  O   UNL     1     -38.154 -22.116   8.458 -0.09 -0.00    -0.346 OA 
DOCKED: ATOM      2  C   UNL     1     -39.180 -21.160   8.037 -0.13 +0.00    +0.130 C  
DOCKED: ATOM      3  C   UNL     1     -40.223 -22.019   7.381 -0.21 +0.00    +0.004 A  
DOCKED: ATOM      4  C   UNL     1     -39.878 -23.356   7.513 -0.21 +0.00    +0.006 A  
DOCKED: ATOM      5  C   UNL     1     -38.609 -23.475   8.266 -0.08 +0.00    +0.169 C  
DOCKED: ATOM      6  C   UNL     1     -41.390 -21.646   6.730 -0.27 -0.00    -0.001 A  
DOCKED: ATOM      7  C   UNL     1     -40.679 -24.361   6.999 -0.36 +0.00    +0.008 A  
DOCKED: ATOM      8  C   UNL     1     -42.206 -22.648   6.202 -0.31 +0.00    +0.010 A  
DOCKED: ATOM      9  C   UNL     1     -41.852 -23.998   6.336 -0.31 +0.00    +0.068 A  
DOCKED: ATOM     10  N   UNL     1     -43.392 -25.833   5.349 -2.49 -0.00    -0.191 NA 
DOCKED: ATOM     11  C   UNL     1     -42.701 -25.010   5.791 -0.36 +0.00    +0.101 C  
DOCKED: ENDROOT
DOCKED: BRANCH   2  12
DOCKED: ATOM     12  C   UNL     1     -39.700 -20.435   9.272 -0.05 +0.00    +0.038 C  
DOCKED: BRANCH  12  13
DOCKED: ATOM     13  C   UNL     1     -39.165 -21.067  10.556 -0.03 +0.00    +0.038 C  
DOCKED: BRANCH  13  14
DOCKED: ATOM     14  C   UNL     1     -40.016 -22.264  10.974 -0.03 +0.00    +0.251 C  
DOCKED: BRANCH  14  15
DOCKED: ATOM     15  N   UNL     1     -41.370 -22.133  10.449 -0.03 +0.00    +0.141 N  
DOCKED: ATOM     16  C   UNL     1     -42.017 -23.442  10.356 -0.04 +0.00    +0.285 C  
DOCKED: ATOM     17  C   UNL     1     -42.163 -21.233  11.288 -0.00 +0.00    +0.285 C  
DOCKED: ENDBRANCH  14  15
DOCKED: ENDBRANCH  13  14
DOCKED: ENDBRANCH  12  13
DOCKED: ENDBRANCH   2  12
DOCKED: BRANCH   2  18
DOCKED: ATOM     18  C   UNL     1     -38.529 -20.210   7.089 -0.12 +0.00    +0.006 A  
DOCKED: ATOM     19  C   UNL     1     -37.140 -20.089   7.068 -0.11 +0.00    +0.001 A  
DOCKED: ATOM     20  C   UNL     1     -36.532 -19.200   6.180 -0.08 +0.00    +0.029 A  
DOCKED: ATOM     21  C   UNL     1     -37.313 -18.434   5.316 -0.07 +0.00    +0.140 A  
DOCKED: ATOM     22  C   UNL     1     -38.702 -18.556   5.338 -0.13 +0.00    +0.029 A  
DOCKED: ATOM     23  F   UNL     1     -36.729 -17.582   4.464 -0.00 -0.00    -0.204 F  
DOCKED: ATOM     24  C   UNL     1     -39.311 -19.445   6.225 -0.17 +0.00    +0.001 A  
DOCKED: ENDBRANCH   2  18
DOCKED: TORSDOF 5
DOCKED: TER
DOCKED: ENDMDL
________________________________________________________________________________


    FINAL DOCKED STATE:
    ________________________


Run:   85 / 512
Time taken for this run:   0.002s

DOCKED: MODEL        85
DOCKED: USER    Run = 85
DOCKED: USER
DOCKED: USER    Estimated Free Energy of Binding    =  -3.97 kcal/mol  [=(1)+(2)+(3)-(4)]
DOCKED: USER
DOCKED: USER    (1) Final Intermolecular Energy     =  -5.47 kcal/mol
DOCKED: USER        vdW + Hbond + desolv Energy     =  -5.47 kcal/mol
DOCKED: USER        Electrostatic Energy            =  +0.00 kcal/mol
DOCKED: USER        Moving Ligand-Fixed Receptor    =  -5.47 kcal/mol
DOCKED: USER        Moving Ligand-Moving Receptor   =  +0.00 kcal/mol
DOCKED: USER    (2) Final Total Internal Energy     =  -1.09 kcal/mol
DOCKED: USER    (3) Torsional Free Energy           =  +1.49 kcal/mol
DOCKED: USER    (4) Unbound System's Energy         =  -1.09 kcal/mol
DOCKED: USER
DOCKED: USER
DOCKED: REMARK  5 active torsions:
DOCKED: REMARK  status: ('A' for Active; 'I' for Inactive)
DOCKED: REMARK    1  A    between atoms: C_2  and  C_19 
DOCKED: REMARK    2  A    between atoms: C_2  and  C_11 
DOCKED: REMARK    3  A    between atoms: C_19  and  C_20 
DOCKED: REMARK    4  A    between atoms: C_20  and  C_21 
DOCKED: REMARK    5  A    between atoms: C_21  and  N_22 
DOCKED: USER                              x       y       z     vdW  Elec       q    Type
DOCKED: USER                           _______ _______ _______ _____ _____    ______ ____
DOCKED: ROOT
DOCKED: ATOM      1  O   UNL     1     -39.604 -22.418   9.843 -0.03 -0.00    -0.346 OA 
DOCKED: ATOM      2  C   UNL     1     -39.744 -21.569   8.659 -0.11 +0.00    +0.130 C  
DOCKED: ATOM      3  C   UNL     1     -40.503 -22.427   7.689 -0.22 +0.00    +0.004 A  
DOCKED: ATOM      4  C   UNL     1     -40.862 -23.620   8.302 -0.22 +0.00    +0.006 A  
DOCKED: ATOM      5  C   UNL     1     -40.384 -23.628   9.702 -0.12 +0.00    +0.169 C  
DOCKED: ATOM      6  C   UNL     1     -40.858 -22.169   6.373 -0.19 -0.00    -0.001 A  
DOCKED: ATOM      7  C   UNL     1     -41.579 -24.591   7.624 -0.30 +0.00    +0.008 A  
DOCKED: ATOM      8  C   UNL     1     -41.577 -23.140   5.675 -0.32 +0.00    +0.010 A  
DOCKED: ATOM      9  C   UNL     1     -41.936 -24.345   6.298 -0.32 +0.00    +0.068 A  
DOCKED: ATOM     10  N   UNL     1     -43.276 -26.125   4.974 -2.36 -0.00    -0.191 NA 
DOCKED: ATOM     11  C   UNL     1     -42.674 -25.327   5.568 -0.30 +0.00    +0.101 C  
DOCKED: ENDROOT
DOCKED: BRANCH   2  12
DOCKED: ATOM     12  C   UNL     1     -40.503 -20.309   9.056 -0.06 +0.00    +0.038 C  
DOCKED: BRANCH  12  13
DOCKED: ATOM     13  C   UNL     1     -41.797 -20.647   9.794 -0.04 +0.00    +0.038 C  
DOCKED: BRANCH  13  14
DOCKED: ATOM     14  C   UNL     1     -42.932 -20.930   8.812 -0.03 +0.00    +0.251 C  
DOCKED: BRANCH  14  15
DOCKED: ATOM     15  N   UNL     1     -43.893 -19.833   8.817 -0.04 +0.00    +0.141 N  
DOCKED: ATOM     16  C   UNL     1     -43.411 -18.730   9.650 -0.01 +0.00    +0.285 C  
DOCKED: ATOM     17  C   UNL     1     -44.148 -19.365   7.454 -0.13 +0.00    +0.285 C  
DOCKED: ENDBRANCH  14  15
DOCKED: ENDBRANCH  13  14
DOCKED: ENDBRANCH  12  13
DOCKED: ENDBRANCH   2  12
DOCKED: BRANCH   2  18
DOCKED: ATOM     18  C   UNL     1     -38.365 -21.242   8.191 -0.13 +0.00    +0.006 A  
DOCKED: ATOM     19  C   UNL     1     -38.143 -20.100   7.422 -0.12 +0.00    +0.001 A  
DOCKED: ATOM     20  C   UNL     1     -36.854 -19.795   6.985 -0.09 +0.00    +0.029 A  
DOCKED: ATOM     21  C   UNL     1     -35.789 -20.632   7.317 -0.07 +0.00    +0.140 A  
DOCKED: ATOM     22  C   UNL     1     -36.012 -21.774   8.086 -0.11 +0.00    +0.029 A  
DOCKED: ATOM     23  F   UNL     1     -34.551 -20.338   6.898 -0.01 -0.00    -0.204 F  
DOCKED: ATOM     24  C   UNL     1     -37.302 -22.080   8.523 -0.14 +0.00    +0.001 A  
DOCKED: ENDBRANCH   2  18
DOCKED: TORSDOF 5
DOCKED: TER
DOCKED: ENDMDL
________________________________________________________________________________


    FINAL DOCKED STATE:
    ________________________


Run:   86 / 512
Time taken for this run:   0.002s

DOCKED: MODEL        86
DOCKED: USER    Run = 86
DOCKED: USER
DOCKED: USER    Estimated Free Energy of Binding    =  -4.45 kcal/mol  [=(1)+(2)+(3)-(4)]
DOCKED: USER
DOCKED: USER    (1) Final Intermolecular Energy     =  -5.94 kcal/mol
DOCKED: USER        vdW + Hbond + desolv Energy     =  -5.94 kcal/mol
DOCKED: USER        Electrostatic Energy            =  +0.00 kcal/mol
DOCKED: USER        Moving Ligand-Fixed Receptor    =  -5.94 kcal/mol
DOCKED: USER        Moving Ligand-Moving Receptor   =  +0.00 kcal/mol
DOCKED: USER    (2) Final Total Internal Energy     =  -1.22 kcal/mol
DOCKED: USER    (3) Torsional Free Energy           =  +1.49 kcal/mol
DOCKED: USER    (4) Unbound System's Energy         =  -1.22 kcal/mol
DOCKED: USER
DOCKED: USER
DOCKED: REMARK  5 active torsions:
DOCKED: REMARK  status: ('A' for Active; 'I' for Inactive)
DOCKED: REMARK    1  A    between atoms: C_2  and  C_19 
DOCKED: REMARK    2  A    between atoms: C_2  and  C_11 
DOCKED: REMARK    3  A    between atoms: C_19  and  C_20 
DOCKED: REMARK    4  A    between atoms: C_20  and  C_21 
DOCKED: REMARK    5  A    between atoms: C_21  and  N_22 
DOCKED: USER                              x       y       z     vdW  Elec       q    Type
DOCKED: USER                           _______ _______ _______ _____ _____    ______ ____
DOCKED: ROOT
DOCKED: ATOM      1  O   UNL     1     -38.290 -21.976   8.632 -0.08 -0.00    -0.346 OA 
DOCKED: ATOM      2  C   UNL     1     -39.332 -21.054   8.177 -0.12 +0.00    +0.130 C  
DOCKED: ATOM      3  C   UNL     1     -40.321 -21.946   7.483 -0.21 +0.00    +0.004 A  
DOCKED: ATOM      4  C   UNL     1     -39.936 -23.271   7.626 -0.25 +0.00    +0.006 A  
DOCKED: ATOM      5  C   UNL     1     -38.691 -23.349   8.422 -0.13 +0.00    +0.169 C  
DOCKED: ATOM      6  C   UNL     1     -41.476 -21.611   6.792 -0.27 -0.00    -0.001 A  
DOCKED: ATOM      7  C   UNL     1     -40.684 -24.301   7.082 -0.35 +0.00    +0.008 A  
DOCKED: ATOM      8  C   UNL     1     -42.239 -22.638   6.234 -0.31 +0.00    +0.010 A  
DOCKED: ATOM      9  C   UNL     1     -41.845 -23.976   6.379 -0.31 +0.00    +0.068 A  
DOCKED: ATOM     10  N   UNL     1     -43.286 -25.859   5.335 -2.55 -0.00    -0.191 NA 
DOCKED: ATOM     11  C   UNL     1     -42.639 -25.015   5.802 -0.36 +0.00    +0.101 C  
DOCKED: ENDROOT
DOCKED: BRANCH   2  12
DOCKED: ATOM     12  C   UNL     1     -39.919 -20.350   9.394 -0.05 +0.00    +0.038 C  
DOCKED: BRANCH  12  13
DOCKED: ATOM     13  C   UNL     1     -40.594 -19.036   9.005 -0.04 +0.00    +0.038 C  
DOCKED: BRANCH  13  14
DOCKED: ATOM     14  C   UNL     1     -42.115 -19.178   9.007 -0.02 +0.00    +0.251 C  
DOCKED: BRANCH  14  15
DOCKED: ATOM     15  N   UNL     1     -42.703 -18.341   7.968 -0.06 +0.00    +0.141 N  
DOCKED: ATOM     16  C   UNL     1     -41.668 -17.835   7.065 -0.08 +0.00    +0.285 C  
DOCKED: ATOM     17  C   UNL     1     -43.713 -19.087   7.215 -0.15 +0.00    +0.285 C  
DOCKED: ENDBRANCH  14  15
DOCKED: ENDBRANCH  13  14
DOCKED: ENDBRANCH  12  13
DOCKED: ENDBRANCH   2  12
DOCKED: BRANCH   2  18
DOCKED: ATOM     18  C   UNL     1     -38.680 -20.080   7.253 -0.13 +0.00    +0.006 A  
DOCKED: ATOM     19  C   UNL     1     -39.273 -19.777   6.028 -0.15 +0.00    +0.001 A  
DOCKED: ATOM     20  C   UNL     1     -38.662 -18.866   5.166 -0.13 +0.00    +0.029 A  
DOCKED: ATOM     21  C   UNL     1     -37.460 -18.260   5.529 -0.07 +0.00    +0.140 A  
DOCKED: ATOM     22  C   UNL     1     -36.868 -18.563   6.755 -0.05 +0.00    +0.029 A  
DOCKED: ATOM     23  F   UNL     1     -36.875 -17.384   4.702 -0.00 -0.00    -0.204 F  
DOCKED: ATOM     24  C   UNL     1     -37.478 -19.475   7.618 -0.08 +0.00    +0.001 A  
DOCKED: ENDBRANCH   2  18
DOCKED: TORSDOF 5
DOCKED: TER
DOCKED: ENDMDL
________________________________________________________________________________


    FINAL DOCKED STATE:
    ________________________


Run:   87 / 512
Time taken for this run:   0.002s

DOCKED: MODEL        87
DOCKED: USER    Run = 87
DOCKED: USER
DOCKED: USER    Estimated Free Energy of Binding    =  -4.42 kcal/mol  [=(1)+(2)+(3)-(4)]
DOCKED: USER
DOCKED: USER    (1) Final Intermolecular Energy     =  -5.92 kcal/mol
DOCKED: USER        vdW + Hbond + desolv Energy     =  -5.92 kcal/mol
DOCKED: USER        Electrostatic Energy            =  +0.00 kcal/mol
DOCKED: USER        Moving Ligand-Fixed Receptor    =  -5.92 kcal/mol
DOCKED: USER        Moving Ligand-Moving Receptor   =  +0.00 kcal/mol
DOCKED: USER    (2) Final Total Internal Energy     =  -0.86 kcal/mol
DOCKED: USER    (3) Torsional Free Energy           =  +1.49 kcal/mol
DOCKED: USER    (4) Unbound System's Energy         =  -0.86 kcal/mol
DOCKED: USER
DOCKED: USER
DOCKED: REMARK  5 active torsions:
DOCKED: REMARK  status: ('A' for Active; 'I' for Inactive)
DOCKED: REMARK    1  A    between atoms: C_2  and  C_19 
DOCKED: REMARK    2  A    between atoms: C_2  and  C_11 
DOCKED: REMARK    3  A    between atoms: C_19  and  C_20 
DOCKED: REMARK    4  A    between atoms: C_20  and  C_21 
DOCKED: REMARK    5  A    between atoms: C_21  and  N_22 
DOCKED: USER                              x       y       z     vdW  Elec       q    Type
DOCKED: USER                           _______ _______ _______ _____ _____    ______ ____
DOCKED: ROOT
DOCKED: ATOM      1  O   UNL     1     -41.331 -21.674   7.734 -0.05 -0.00    -0.346 OA 
DOCKED: ATOM      2  C   UNL     1     -42.749 -22.011   7.875 -0.12 +0.00    +0.130 C  
DOCKED: ATOM      3  C   UNL     1     -43.088 -22.689   6.579 -0.25 +0.00    +0.004 A  
DOCKED: ATOM      4  C   UNL     1     -41.940 -22.827   5.811 -0.35 +0.00    +0.006 A  
DOCKED: ATOM      5  C   UNL     1     -40.778 -22.271   6.538 -0.18 +0.00    +0.169 C  
DOCKED: ATOM      6  C   UNL     1     -44.311 -23.156   6.122 -0.26 -0.00    -0.001 A  
DOCKED: ATOM      7  C   UNL     1     -41.976 -23.429   4.565 -0.23 +0.00    +0.008 A  
DOCKED: ATOM      8  C   UNL     1     -44.365 -23.762   4.866 -0.20 +0.00    +0.010 A  
DOCKED: ATOM      9  C   UNL     1     -43.203 -23.898   4.091 -0.33 +0.00    +0.068 A  
DOCKED: ATOM     10  N   UNL     1     -43.336 -25.032   1.766 -2.48 -0.00    -0.191 NA 
DOCKED: ATOM     11  C   UNL     1     -43.276 -24.523   2.808 -0.29 +0.00    +0.101 C  
DOCKED: ENDROOT
DOCKED: BRANCH   2  12
DOCKED: ATOM     12  C   UNL     1     -42.910 -22.926   9.084 -0.10 +0.00    +0.038 C  
DOCKED: BRANCH  12  13
DOCKED: ATOM     13  C   UNL     1     -41.953 -22.536  10.209 -0.06 +0.00    +0.038 C  
DOCKED: BRANCH  13  14
DOCKED: ATOM     14  C   UNL     1     -41.005 -23.685  10.547 -0.08 +0.00    +0.251 C  
DOCKED: BRANCH  14  15
DOCKED: ATOM     15  N   UNL     1     -41.756 -24.919  10.748 -0.16 +0.00    +0.141 N  
DOCKED: ATOM     16  C   UNL     1     -40.854 -26.024  11.075 -0.06 +0.00    +0.285 C  
DOCKED: ATOM     17  C   UNL     1     -42.755 -24.749  11.805 -0.07 +0.00    +0.285 C  
DOCKED: ENDBRANCH  14  15
DOCKED: ENDBRANCH  13  14
DOCKED: ENDBRANCH  12  13
DOCKED: ENDBRANCH   2  12
DOCKED: BRANCH   2  18
DOCKED: ATOM     18  C   UNL     1     -43.485 -20.727   8.070 -0.12 +0.00    +0.006 A  
DOCKED: ATOM     19  C   UNL     1     -43.301 -19.989   9.238 -0.04 +0.00    +0.001 A  
DOCKED: ATOM     20  C   UNL     1     -43.990 -18.789   9.419 -0.03 +0.00    +0.029 A  
DOCKED: ATOM     21  C   UNL     1     -44.860 -18.329   8.432 -0.04 +0.00    +0.140 A  
DOCKED: ATOM     22  C   UNL     1     -45.044 -19.068   7.264 -0.19 +0.00    +0.029 A  
DOCKED: ATOM     23  F   UNL     1     -45.520 -17.177   8.606 +0.01 -0.00    -0.204 F  
DOCKED: ATOM     24  C   UNL     1     -44.355 -20.269   7.082 -0.23 +0.00    +0.001 A  
DOCKED: ENDBRANCH   2  18
DOCKED: TORSDOF 5
DOCKED: TER
DOCKED: ENDMDL
________________________________________________________________________________


    FINAL DOCKED STATE:
    ________________________


Run:   88 / 512
Time taken for this run:   0.002s

DOCKED: MODEL        88
DOCKED: USER    Run = 88
DOCKED: USER
DOCKED: USER    Estimated Free Energy of Binding    =  -6.35 kcal/mol  [=(1)+(2)+(3)-(4)]
DOCKED: USER
DOCKED: USER    (1) Final Intermolecular Energy     =  -7.84 kcal/mol
DOCKED: USER        vdW + Hbond + desolv Energy     =  -7.84 kcal/mol
DOCKED: USER        Electrostatic Energy            =  +0.00 kcal/mol
DOCKED: USER        Moving Ligand-Fixed Receptor    =  -7.84 kcal/mol
DOCKED: USER        Moving Ligand-Moving Receptor   =  +0.00 kcal/mol
DOCKED: USER    (2) Final Total Internal Energy     =  -1.11 kcal/mol
DOCKED: USER    (3) Torsional Free Energy           =  +1.49 kcal/mol
DOCKED: USER    (4) Unbound System's Energy         =  -1.11 kcal/mol
DOCKED: USER
DOCKED: USER
DOCKED: REMARK  5 active torsions:
DOCKED: REMARK  status: ('A' for Active; 'I' for Inactive)
DOCKED: REMARK    1  A    between atoms: C_2  and  C_19 
DOCKED: REMARK    2  A    between atoms: C_2  and  C_11 
DOCKED: REMARK    3  A    between atoms: C_19  and  C_20 
DOCKED: REMARK    4  A    between atoms: C_20  and  C_21 
DOCKED: REMARK    5  A    between atoms: C_21  and  N_22 
DOCKED: USER                              x       y       z     vdW  Elec       q    Type
DOCKED: USER                           _______ _______ _______ _____ _____    ______ ____
DOCKED: ROOT
DOCKED: ATOM      1  O   UNL     1     -40.440 -25.163   7.604 -0.33 -0.00    -0.346 OA 
DOCKED: ATOM      2  C   UNL     1     -41.597 -24.277   7.743 -0.24 +0.00    +0.130 C  
DOCKED: ATOM      3  C   UNL     1     -42.183 -24.231   6.362 -0.35 +0.00    +0.004 A  
DOCKED: ATOM      4  C   UNL     1     -41.490 -25.101   5.532 -0.42 +0.00    +0.006 A  
DOCKED: ATOM      5  C   UNL     1     -40.421 -25.782   6.297 -0.21 +0.00    +0.169 C  
DOCKED: ATOM      6  C   UNL     1     -43.251 -23.488   5.881 -0.31 -0.00    -0.001 A  
DOCKED: ATOM      7  C   UNL     1     -41.835 -25.254   4.200 -0.38 +0.00    +0.008 A  
DOCKED: ATOM      8  C   UNL     1     -43.608 -23.628   4.539 -0.09 +0.00    +0.010 A  
DOCKED: ATOM      9  C   UNL     1     -42.904 -24.507   3.703 -0.45 +0.00    +0.068 A  
DOCKED: ATOM     10  N   UNL     1     -43.597 -24.747   1.218 -3.18 -0.00    -0.191 NA 
DOCKED: ATOM     11  C   UNL     1     -43.286 -24.639   2.332 -0.29 +0.00    +0.101 C  
DOCKED: ENDROOT
DOCKED: BRANCH   2  12
DOCKED: ATOM     12  C   UNL     1     -42.546 -24.880   8.771 -0.26 +0.00    +0.038 C  
DOCKED: BRANCH  12  13
DOCKED: ATOM     13  C   UNL     1     -41.791 -25.387   9.998 -0.24 +0.00    +0.038 C  
DOCKED: BRANCH  13  14
DOCKED: ATOM     14  C   UNL     1     -41.686 -24.300  11.067 -0.10 +0.00    +0.251 C  
DOCKED: BRANCH  14  15
DOCKED: ATOM     15  N   UNL     1     -41.605 -24.900  12.393 -0.11 +0.00    +0.141 N  
DOCKED: ATOM     16  C   UNL     1     -40.721 -26.067  12.379 -0.18 +0.00    +0.285 C  
DOCKED: ATOM     17  C   UNL     1     -41.136 -23.920  13.374 -0.02 +0.00    +0.285 C  
DOCKED: ENDBRANCH  14  15
DOCKED: ENDBRANCH  13  14
DOCKED: ENDBRANCH  12  13
DOCKED: ENDBRANCH   2  12
DOCKED: BRANCH   2  18
DOCKED: ATOM     18  C   UNL     1     -41.080 -22.953   8.200 -0.18 +0.00    +0.006 A  
DOCKED: ATOM     19  C   UNL     1     -39.707 -22.707   8.210 -0.21 +0.00    +0.001 A  
DOCKED: ATOM     20  C   UNL     1     -39.225 -21.469   8.637 -0.12 +0.00    +0.029 A  
DOCKED: ATOM     21  C   UNL     1     -40.115 -20.480   9.053 -0.04 +0.00    +0.140 A  
DOCKED: ATOM     22  C   UNL     1     -41.488 -20.727   9.042 -0.05 +0.00    +0.029 A  
DOCKED: ATOM     23  F   UNL     1     -39.652 -19.292   9.461 +0.00 -0.00    -0.204 F  
DOCKED: ATOM     24  C   UNL     1     -41.971 -21.965   8.615 -0.10 +0.00    +0.001 A  
DOCKED: ENDBRANCH   2  18
DOCKED: TORSDOF 5
DOCKED: TER
DOCKED: ENDMDL
________________________________________________________________________________


    FINAL DOCKED STATE:
    ________________________


Run:   89 / 512
Time taken for this run:   0.002s

DOCKED: MODEL        89
DOCKED: USER    Run = 89
DOCKED: USER
DOCKED: USER    Estimated Free Energy of Binding    =  -4.22 kcal/mol  [=(1)+(2)+(3)-(4)]
DOCKED: USER
DOCKED: USER    (1) Final Intermolecular Energy     =  -5.71 kcal/mol
DOCKED: USER        vdW + Hbond + desolv Energy     =  -5.71 kcal/mol
DOCKED: USER        Electrostatic Energy            =  +0.00 kcal/mol
DOCKED: USER        Moving Ligand-Fixed Receptor    =  -5.71 kcal/mol
DOCKED: USER        Moving Ligand-Moving Receptor   =  +0.00 kcal/mol
DOCKED: USER    (2) Final Total Internal Energy     =  -1.25 kcal/mol
DOCKED: USER    (3) Torsional Free Energy           =  +1.49 kcal/mol
DOCKED: USER    (4) Unbound System's Energy         =  -1.25 kcal/mol
DOCKED: USER
DOCKED: USER
DOCKED: REMARK  5 active torsions:
DOCKED: REMARK  status: ('A' for Active; 'I' for Inactive)
DOCKED: REMARK    1  A    between atoms: C_2  and  C_19 
DOCKED: REMARK    2  A    between atoms: C_2  and  C_11 
DOCKED: REMARK    3  A    between atoms: C_19  and  C_20 
DOCKED: REMARK    4  A    between atoms: C_20  and  C_21 
DOCKED: REMARK    5  A    between atoms: C_21  and  N_22 
DOCKED: USER                              x       y       z     vdW  Elec       q    Type
DOCKED: USER                           _______ _______ _______ _____ _____    ______ ____
DOCKED: ROOT
DOCKED: ATOM      1  O   UNL     1     -38.462 -22.112   8.387 -0.09 -0.00    -0.346 OA 
DOCKED: ATOM      2  C   UNL     1     -39.633 -21.272   8.133 -0.13 +0.00    +0.130 C  
DOCKED: ATOM      3  C   UNL     1     -40.579 -22.184   7.406 -0.23 +0.00    +0.004 A  
DOCKED: ATOM      4  C   UNL     1     -40.042 -23.462   7.347 -0.22 +0.00    +0.006 A  
DOCKED: ATOM      5  C   UNL     1     -38.730 -23.488   8.032 -0.04 +0.00    +0.169 C  
DOCKED: ATOM      6  C   UNL     1     -41.820 -21.907   6.851 -0.27 -0.00    -0.001 A  
DOCKED: ATOM      7  C   UNL     1     -40.720 -24.501   6.732 -0.37 +0.00    +0.008 A  
DOCKED: ATOM      8  C   UNL     1     -42.514 -22.942   6.224 -0.31 +0.00    +0.010 A  
DOCKED: ATOM      9  C   UNL     1     -41.967 -24.233   6.165 -0.32 +0.00    +0.068 A  
DOCKED: ATOM     10  N   UNL     1     -43.284 -26.134   4.997 -2.37 -0.00    -0.191 NA 
DOCKED: ATOM     11  C   UNL     1     -42.693 -25.281   5.520 -0.33 +0.00    +0.101 C  
DOCKED: ENDROOT
DOCKED: BRANCH   2  12
DOCKED: ATOM     12  C   UNL     1     -40.183 -20.792   9.471 -0.05 +0.00    +0.038 C  
DOCKED: BRANCH  12  13
DOCKED: ATOM     13  C   UNL     1     -39.311 -21.265  10.633 -0.04 +0.00    +0.038 C  
DOCKED: BRANCH  13  14
DOCKED: ATOM     14  C   UNL     1     -39.738 -22.651  11.112 -0.04 +0.00    +0.251 C  
DOCKED: BRANCH  14  15
DOCKED: ATOM     15  N   UNL     1     -38.579 -23.528  11.226 -0.08 +0.00    +0.141 N  
DOCKED: ATOM     16  C   UNL     1     -37.342 -22.746  11.265 -0.04 +0.00    +0.285 C  
DOCKED: ATOM     17  C   UNL     1     -38.685 -24.371  12.418 -0.09 +0.00    +0.285 C  
DOCKED: ENDBRANCH  14  15
DOCKED: ENDBRANCH  13  14
DOCKED: ENDBRANCH  12  13
DOCKED: ENDBRANCH   2  12
DOCKED: BRANCH   2  18
DOCKED: ATOM     18  C   UNL     1     -39.174 -20.124   7.297 -0.14 +0.00    +0.006 A  
DOCKED: ATOM     19  C   UNL     1     -37.810 -19.898   7.113 -0.11 +0.00    +0.001 A  
DOCKED: ATOM     20  C   UNL     1     -37.382 -18.825   6.332 -0.09 +0.00    +0.029 A  
DOCKED: ATOM     21  C   UNL     1     -38.317 -17.980   5.735 -0.07 +0.00    +0.140 A  
DOCKED: ATOM     22  C   UNL     1     -39.680 -18.207   5.919 -0.11 +0.00    +0.029 A  
DOCKED: ATOM     23  F   UNL     1     -37.905 -16.950   4.983 -0.01 -0.00    -0.204 F  
DOCKED: ATOM     24  C   UNL     1     -40.110 -19.280   6.701 -0.16 +0.00    +0.001 A  
DOCKED: ENDBRANCH   2  18
DOCKED: TORSDOF 5
DOCKED: TER
DOCKED: ENDMDL
________________________________________________________________________________


    FINAL DOCKED STATE:
    ________________________


Run:   90 / 512
Time taken for this run:   0.002s

DOCKED: MODEL        90
DOCKED: USER    Run = 90
DOCKED: USER
DOCKED: USER    Estimated Free Energy of Binding    =  -4.06 kcal/mol  [=(1)+(2)+(3)-(4)]
DOCKED: USER
DOCKED: USER    (1) Final Intermolecular Energy     =  -5.55 kcal/mol
DOCKED: USER        vdW + Hbond + desolv Energy     =  -5.55 kcal/mol
DOCKED: USER        Electrostatic Energy            =  +0.00 kcal/mol
DOCKED: USER        Moving Ligand-Fixed Receptor    =  -5.55 kcal/mol
DOCKED: USER        Moving Ligand-Moving Receptor   =  +0.00 kcal/mol
DOCKED: USER    (2) Final Total Internal Energy     =  -0.90 kcal/mol
DOCKED: USER    (3) Torsional Free Energy           =  +1.49 kcal/mol
DOCKED: USER    (4) Unbound System's Energy         =  -0.90 kcal/mol
DOCKED: USER
DOCKED: USER
DOCKED: REMARK  5 active torsions:
DOCKED: REMARK  status: ('A' for Active; 'I' for Inactive)
DOCKED: REMARK    1  A    between atoms: C_2  and  C_19 
DOCKED: REMARK    2  A    between atoms: C_2  and  C_11 
DOCKED: REMARK    3  A    between atoms: C_19  and  C_20 
DOCKED: REMARK    4  A    between atoms: C_20  and  C_21 
DOCKED: REMARK    5  A    between atoms: C_21  and  N_22 
DOCKED: USER                              x       y       z     vdW  Elec       q    Type
DOCKED: USER                           _______ _______ _______ _____ _____    ______ ____
DOCKED: ROOT
DOCKED: ATOM      1  O   UNL     1     -35.780 -14.231   0.280 -0.07 -0.00    -0.346 OA 
DOCKED: ATOM      2  C   UNL     1     -36.932 -15.088   0.564 -0.14 +0.00    +0.130 C  
DOCKED: ATOM      3  C   UNL     1     -37.907 -14.753  -0.528 -0.11 +0.00    +0.004 A  
DOCKED: ATOM      4  C   UNL     1     -37.323 -13.865  -1.420 -0.06 +0.00    +0.006 A  
DOCKED: ATOM      5  C   UNL     1     -35.937 -13.566  -0.995 -0.12 +0.00    +0.169 C  
DOCKED: ATOM      6  C   UNL     1     -39.204 -15.206  -0.721 -0.29 -0.00    -0.001 A  
DOCKED: ATOM      7  C   UNL     1     -38.010 -13.399  -2.527 -0.28 +0.00    +0.008 A  
DOCKED: ATOM      8  C   UNL     1     -39.912 -14.741  -1.831 +0.03 +0.00    +0.010 A  
DOCKED: ATOM      9  C   UNL     1     -39.318 -13.843  -2.730 -0.32 +0.00    +0.068 A  
DOCKED: ATOM     10  N   UNL     1     -40.658 -13.005  -4.782 -2.52 -0.00    -0.191 NA 
DOCKED: ATOM     11  C   UNL     1     -40.057 -13.380  -3.861 -0.32 +0.00    +0.101 C  
DOCKED: ENDROOT
DOCKED: BRANCH   2  12
DOCKED: ATOM     12  C   UNL     1     -36.474 -16.541   0.524 -0.08 +0.00    +0.038 C  
DOCKED: BRANCH  12  13
DOCKED: ATOM     13  C   UNL     1     -37.662 -17.501   0.561 -0.15 +0.00    +0.038 C  
DOCKED: BRANCH  13  14
DOCKED: ATOM     14  C   UNL     1     -37.703 -18.275   1.878 -0.09 +0.00    +0.251 C  
DOCKED: BRANCH  14  15
DOCKED: ATOM     15  N   UNL     1     -37.057 -19.573   1.723 -0.13 +0.00    +0.141 N  
DOCKED: ATOM     16  C   UNL     1     -36.818 -20.189   3.029 -0.09 +0.00    +0.285 C  
DOCKED: ATOM     17  C   UNL     1     -37.871 -20.457   0.886 -0.21 +0.00    +0.285 C  
DOCKED: ENDBRANCH  14  15
DOCKED: ENDBRANCH  13  14
DOCKED: ENDBRANCH  12  13
DOCKED: ENDBRANCH   2  12
DOCKED: BRANCH   2  18
DOCKED: ATOM     18  C   UNL     1     -37.428 -14.717   1.921 -0.14 +0.00    +0.006 A  
DOCKED: ATOM     19  C   UNL     1     -38.724 -14.228   2.080 +0.09 +0.00    +0.001 A  
DOCKED: ATOM     20  C   UNL     1     -39.187 -13.880   3.350 -0.20 +0.00    +0.029 A  
DOCKED: ATOM     21  C   UNL     1     -38.353 -14.022   4.458 -0.11 +0.00    +0.140 A  
DOCKED: ATOM     22  C   UNL     1     -37.057 -14.512   4.299 -0.10 +0.00    +0.029 A  
DOCKED: ATOM     23  F   UNL     1     -38.798 -13.691   5.677 -0.02 -0.00    -0.204 F  
DOCKED: ATOM     24  C   UNL     1     -36.594 -14.859   3.029 -0.12 +0.00    +0.001 A  
DOCKED: ENDBRANCH   2  18
DOCKED: TORSDOF 5
DOCKED: TER
DOCKED: ENDMDL
________________________________________________________________________________


    FINAL DOCKED STATE:
    ________________________


Run:   91 / 512
Time taken for this run:   0.002s

DOCKED: MODEL        91
DOCKED: USER    Run = 91
DOCKED: USER
DOCKED: USER    Estimated Free Energy of Binding    =  -4.02 kcal/mol  [=(1)+(2)+(3)-(4)]
DOCKED: USER
DOCKED: USER    (1) Final Intermolecular Energy     =  -5.51 kcal/mol
DOCKED: USER        vdW + Hbond + desolv Energy     =  -5.51 kcal/mol
DOCKED: USER        Electrostatic Energy            =  +0.00 kcal/mol
DOCKED: USER        Moving Ligand-Fixed Receptor    =  -5.51 kcal/mol
DOCKED: USER        Moving Ligand-Moving Receptor   =  +0.00 kcal/mol
DOCKED: USER    (2) Final Total Internal Energy     =  -1.25 kcal/mol
DOCKED: USER    (3) Torsional Free Energy           =  +1.49 kcal/mol
DOCKED: USER    (4) Unbound System's Energy         =  -1.25 kcal/mol
DOCKED: USER
DOCKED: USER
DOCKED: REMARK  5 active torsions:
DOCKED: REMARK  status: ('A' for Active; 'I' for Inactive)
DOCKED: REMARK    1  A    between atoms: C_2  and  C_19 
DOCKED: REMARK    2  A    between atoms: C_2  and  C_11 
DOCKED: REMARK    3  A    between atoms: C_19  and  C_20 
DOCKED: REMARK    4  A    between atoms: C_20  and  C_21 
DOCKED: REMARK    5  A    between atoms: C_21  and  N_22 
DOCKED: USER                              x       y       z     vdW  Elec       q    Type
DOCKED: USER                           _______ _______ _______ _____ _____    ______ ____
DOCKED: ROOT
DOCKED: ATOM      1  O   UNL     1     -42.282 -19.307   7.304 -0.07 -0.00    -0.346 OA 
DOCKED: ATOM      2  C   UNL     1     -40.994 -19.956   7.550 -0.13 +0.00    +0.130 C  
DOCKED: ATOM      3  C   UNL     1     -41.222 -21.379   7.130 -0.23 +0.00    +0.004 A  
DOCKED: ATOM      4  C   UNL     1     -42.492 -21.508   6.587 -0.25 +0.00    +0.006 A  
DOCKED: ATOM      5  C   UNL     1     -43.179 -20.197   6.598 -0.17 +0.00    +0.169 C  
DOCKED: ATOM      6  C   UNL     1     -40.368 -22.470   7.211 -0.23 -0.00    -0.001 A  
DOCKED: ATOM      7  C   UNL     1     -42.953 -22.725   6.113 -0.28 +0.00    +0.008 A  
DOCKED: ATOM      8  C   UNL     1     -40.820 -23.705   6.741 -0.31 +0.00    +0.010 A  
DOCKED: ATOM      9  C   UNL     1     -42.106 -23.831   6.195 -0.30 +0.00    +0.068 A  
DOCKED: ATOM     10  N   UNL     1     -42.912 -26.135   5.327 -2.61 -0.00    -0.191 NA 
DOCKED: ATOM     11  C   UNL     1     -42.551 -25.102   5.717 -0.33 +0.00    +0.101 C  
DOCKED: ENDROOT
DOCKED: BRANCH   2  12
DOCKED: ATOM     12  C   UNL     1     -39.931 -19.253   6.714 -0.16 +0.00    +0.038 C  
DOCKED: BRANCH  12  13
DOCKED: ATOM     13  C   UNL     1     -38.612 -20.022   6.729 -0.14 +0.00    +0.038 C  
DOCKED: BRANCH  13  14
DOCKED: ATOM     14  C   UNL     1     -37.474 -19.152   7.258 -0.06 +0.00    +0.251 C  
DOCKED: BRANCH  14  15
DOCKED: ATOM     15  N   UNL     1     -36.755 -19.847   8.319 -0.04 +0.00    +0.141 N  
DOCKED: ATOM     16  C   UNL     1     -37.201 -19.383   9.634 -0.01 +0.00    +0.285 C  
DOCKED: ATOM     17  C   UNL     1     -36.937 -21.294   8.203 -0.07 +0.00    +0.285 C  
DOCKED: ENDBRANCH  14  15
DOCKED: ENDBRANCH  13  14
DOCKED: ENDBRANCH  12  13
DOCKED: ENDBRANCH   2  12
DOCKED: BRANCH   2  18
DOCKED: ATOM     18  C   UNL     1     -40.709 -19.819   9.009 -0.04 +0.00    +0.006 A  
DOCKED: ATOM     19  C   UNL     1     -40.475 -20.955   9.783 -0.04 +0.00    +0.001 A  
DOCKED: ATOM     20  C   UNL     1     -40.209 -20.826  11.146 -0.01 +0.00    +0.029 A  
DOCKED: ATOM     21  C   UNL     1     -40.176 -19.562  11.734 -0.00 +0.00    +0.140 A  
DOCKED: ATOM     22  C   UNL     1     -40.409 -18.426  10.959 -0.00 +0.00    +0.029 A  
DOCKED: ATOM     23  F   UNL     1     -39.919 -19.438  13.042 +0.00 -0.00    -0.204 F  
DOCKED: ATOM     24  C   UNL     1     -40.676 -18.554   9.595 -0.02 +0.00    +0.001 A  
DOCKED: ENDBRANCH   2  18
DOCKED: TORSDOF 5
DOCKED: TER
DOCKED: ENDMDL
________________________________________________________________________________


    FINAL DOCKED STATE:
    ________________________


Run:   92 / 512
Time taken for this run:   0.002s

DOCKED: MODEL        92
DOCKED: USER    Run = 92
DOCKED: USER
DOCKED: USER    Estimated Free Energy of Binding    =  -4.18 kcal/mol  [=(1)+(2)+(3)-(4)]
DOCKED: USER
DOCKED: USER    (1) Final Intermolecular Energy     =  -5.67 kcal/mol
DOCKED: USER        vdW + Hbond + desolv Energy     =  -5.67 kcal/mol
DOCKED: USER        Electrostatic Energy            =  +0.00 kcal/mol
DOCKED: USER        Moving Ligand-Fixed Receptor    =  -5.67 kcal/mol
DOCKED: USER        Moving Ligand-Moving Receptor   =  +0.00 kcal/mol
DOCKED: USER    (2) Final Total Internal Energy     =  -1.60 kcal/mol
DOCKED: USER    (3) Torsional Free Energy           =  +1.49 kcal/mol
DOCKED: USER    (4) Unbound System's Energy         =  -1.60 kcal/mol
DOCKED: USER
DOCKED: USER
DOCKED: REMARK  5 active torsions:
DOCKED: REMARK  status: ('A' for Active; 'I' for Inactive)
DOCKED: REMARK    1  A    between atoms: C_2  and  C_19 
DOCKED: REMARK    2  A    between atoms: C_2  and  C_11 
DOCKED: REMARK    3  A    between atoms: C_19  and  C_20 
DOCKED: REMARK    4  A    between atoms: C_20  and  C_21 
DOCKED: REMARK    5  A    between atoms: C_21  and  N_22 
DOCKED: USER                              x       y       z     vdW  Elec       q    Type
DOCKED: USER                           _______ _______ _______ _____ _____    ______ ____
DOCKED: ROOT
DOCKED: ATOM      1  O   UNL     1     -39.154 -20.836   8.150 -0.06 -0.00    -0.346 OA 
DOCKED: ATOM      2  C   UNL     1     -40.462 -20.281   7.797 -0.12 +0.00    +0.130 C  
DOCKED: ATOM      3  C   UNL     1     -41.196 -21.444   7.197 -0.22 +0.00    +0.004 A  
DOCKED: ATOM      4  C   UNL     1     -40.419 -22.590   7.298 -0.24 +0.00    +0.006 A  
DOCKED: ATOM      5  C   UNL     1     -39.141 -22.271   7.974 -0.13 +0.00    +0.169 C  
DOCKED: ATOM      6  C   UNL     1     -42.455 -21.488   6.617 -0.25 -0.00    -0.001 A  
DOCKED: ATOM      7  C   UNL     1     -40.868 -23.810   6.823 -0.33 +0.00    +0.008 A  
DOCKED: ATOM      8  C   UNL     1     -42.921 -22.711   6.130 -0.28 +0.00    +0.010 A  
DOCKED: ATOM      9  C   UNL     1     -42.131 -23.865   6.233 -0.30 +0.00    +0.068 A  
DOCKED: ATOM     10  N   UNL     1     -43.028 -26.119   5.322 -2.58 -0.00    -0.191 NA 
DOCKED: ATOM     11  C   UNL     1     -42.626 -25.108   5.730 -0.32 +0.00    +0.101 C  
DOCKED: ENDROOT
DOCKED: BRANCH   2  12
DOCKED: ATOM     12  C   UNL     1     -41.121 -19.754   9.067 -0.05 +0.00    +0.038 C  
DOCKED: BRANCH  12  13
DOCKED: ATOM     13  C   UNL     1     -40.117 -19.649  10.213 -0.02 +0.00    +0.038 C  
DOCKED: BRANCH  13  14
DOCKED: ATOM     14  C   UNL     1     -39.377 -18.313  10.174 -0.00 +0.00    +0.251 C  
DOCKED: BRANCH  14  15
DOCKED: ATOM     15  N   UNL     1     -38.234 -18.393   9.273 -0.01 +0.00    +0.141 N  
DOCKED: ATOM     16  C   UNL     1     -37.784 -17.054   8.890 -0.00 +0.00    +0.285 C  
DOCKED: ATOM     17  C   UNL     1     -37.138 -19.138   9.895 -0.01 +0.00    +0.285 C  
DOCKED: ENDBRANCH  14  15
DOCKED: ENDBRANCH  13  14
DOCKED: ENDBRANCH  12  13
DOCKED: ENDBRANCH   2  12
DOCKED: BRANCH   2  18
DOCKED: ATOM     18  C   UNL     1     -40.219 -19.179   6.820 -0.15 +0.00    +0.006 A  
DOCKED: ATOM     19  C   UNL     1     -41.207 -18.223   6.589 -0.14 +0.00    +0.001 A  
DOCKED: ATOM     20  C   UNL     1     -40.978 -17.194   5.675 -0.11 +0.00    +0.029 A  
DOCKED: ATOM     21  C   UNL     1     -39.764 -17.122   4.994 -0.07 +0.00    +0.140 A  
DOCKED: ATOM     22  C   UNL     1     -38.776 -18.079   5.227 -0.11 +0.00    +0.029 A  
DOCKED: ATOM     23  F   UNL     1     -39.544 -16.133   4.118 -0.02 -0.00    -0.204 F  
DOCKED: ATOM     24  C   UNL     1     -39.003 -19.109   6.141 -0.15 +0.00    +0.001 A  
DOCKED: ENDBRANCH   2  18
DOCKED: TORSDOF 5
DOCKED: TER
DOCKED: ENDMDL
________________________________________________________________________________


    FINAL DOCKED STATE:
    ________________________


Run:   93 / 512
Time taken for this run:   0.002s

DOCKED: MODEL        93
DOCKED: USER    Run = 93
DOCKED: USER
DOCKED: USER    Estimated Free Energy of Binding    =  -3.69 kcal/mol  [=(1)+(2)+(3)-(4)]
DOCKED: USER
DOCKED: USER    (1) Final Intermolecular Energy     =  -5.18 kcal/mol
DOCKED: USER        vdW + Hbond + desolv Energy     =  -5.18 kcal/mol
DOCKED: USER        Electrostatic Energy            =  +0.00 kcal/mol
DOCKED: USER        Moving Ligand-Fixed Receptor    =  -5.18 kcal/mol
DOCKED: USER        Moving Ligand-Moving Receptor   =  +0.00 kcal/mol
DOCKED: USER    (2) Final Total Internal Energy     =  -1.00 kcal/mol
DOCKED: USER    (3) Torsional Free Energy           =  +1.49 kcal/mol
DOCKED: USER    (4) Unbound System's Energy         =  -1.00 kcal/mol
DOCKED: USER
DOCKED: USER
DOCKED: REMARK  5 active torsions:
DOCKED: REMARK  status: ('A' for Active; 'I' for Inactive)
DOCKED: REMARK    1  A    between atoms: C_2  and  C_19 
DOCKED: REMARK    2  A    between atoms: C_2  and  C_11 
DOCKED: REMARK    3  A    between atoms: C_19  and  C_20 
DOCKED: REMARK    4  A    between atoms: C_20  and  C_21 
DOCKED: REMARK    5  A    between atoms: C_21  and  N_22 
DOCKED: USER                              x       y       z     vdW  Elec       q    Type
DOCKED: USER                           _______ _______ _______ _____ _____    ______ ____
DOCKED: ROOT
DOCKED: ATOM      1  O   UNL     1     -33.773 -12.964  -3.462 +0.01 -0.00    -0.346 OA 
DOCKED: ATOM      2  C   UNL     1     -34.541 -13.693  -2.452 -0.03 +0.00    +0.130 C  
DOCKED: ATOM      3  C   UNL     1     -35.963 -13.556  -2.914 -0.11 +0.00    +0.004 A  
DOCKED: ATOM      4  C   UNL     1     -35.995 -12.902  -4.138 -0.12 +0.00    +0.006 A  
DOCKED: ATOM      5  C   UNL     1     -34.618 -12.578  -4.571 -0.04 +0.00    +0.169 C  
DOCKED: ATOM      6  C   UNL     1     -37.133 -13.985  -2.306 -0.20 -0.00    -0.001 A  
DOCKED: ATOM      7  C   UNL     1     -37.191 -12.653  -4.790 -0.27 +0.00    +0.008 A  
DOCKED: ATOM      8  C   UNL     1     -38.347 -13.737  -2.949 -0.32 +0.00    +0.010 A  
DOCKED: ATOM      9  C   UNL     1     -38.375 -13.075  -4.185 -0.34 +0.00    +0.068 A  
DOCKED: ATOM     10  N   UNL     1     -40.645 -12.635  -5.354 -2.57 -0.00    -0.191 NA 
DOCKED: ATOM     11  C   UNL     1     -39.627 -12.832  -4.830 -0.34 +0.00    +0.101 C  
DOCKED: ENDROOT
DOCKED: BRANCH   2  12
DOCKED: ATOM     12  C   UNL     1     -34.061 -15.139  -2.430 -0.02 +0.00    +0.038 C  
DOCKED: BRANCH  12  13
DOCKED: ATOM     13  C   UNL     1     -35.091 -16.077  -3.055 -0.05 +0.00    +0.038 C  
DOCKED: BRANCH  13  14
DOCKED: ATOM     14  C   UNL     1     -35.060 -15.991  -4.579 -0.04 +0.00    +0.251 C  
DOCKED: BRANCH  14  15
DOCKED: ATOM     15  N   UNL     1     -34.990 -17.326  -5.162 -0.05 +0.00    +0.141 N  
DOCKED: ATOM     16  C   UNL     1     -35.892 -18.242  -4.462 -0.10 +0.00    +0.285 C  
DOCKED: ATOM     17  C   UNL     1     -35.315 -17.284  -6.588 -0.08 +0.00    +0.285 C  
DOCKED: ENDBRANCH  14  15
DOCKED: ENDBRANCH  13  14
DOCKED: ENDBRANCH  12  13
DOCKED: ENDBRANCH   2  12
DOCKED: BRANCH   2  18
DOCKED: ATOM     18  C   UNL     1     -34.288 -13.022  -1.143 -0.07 +0.00    +0.006 A  
DOCKED: ATOM     19  C   UNL     1     -33.806 -13.760  -0.063 -0.06 +0.00    +0.001 A  
DOCKED: ATOM     20  C   UNL     1     -33.570 -13.132   1.160 -0.07 +0.00    +0.029 A  
DOCKED: ATOM     21  C   UNL     1     -33.815 -11.767   1.302 -0.05 +0.00    +0.140 A  
DOCKED: ATOM     22  C   UNL     1     -34.297 -11.029   0.221 -0.11 +0.00    +0.029 A  
DOCKED: ATOM     23  F   UNL     1     -33.587 -11.164   2.475 -0.03 -0.00    -0.204 F  
DOCKED: ATOM     24  C   UNL     1     -34.534 -11.657  -1.003 -0.12 +0.00    +0.001 A  
DOCKED: ENDBRANCH   2  18
DOCKED: TORSDOF 5
DOCKED: TER
DOCKED: ENDMDL
________________________________________________________________________________


    FINAL DOCKED STATE:
    ________________________


Run:   94 / 512
Time taken for this run:   0.002s

DOCKED: MODEL        94
DOCKED: USER    Run = 94
DOCKED: USER
DOCKED: USER    Estimated Free Energy of Binding    =  -3.55 kcal/mol  [=(1)+(2)+(3)-(4)]
DOCKED: USER
DOCKED: USER    (1) Final Intermolecular Energy     =  -5.04 kcal/mol
DOCKED: USER        vdW + Hbond + desolv Energy     =  -5.04 kcal/mol
DOCKED: USER        Electrostatic Energy            =  +0.00 kcal/mol
DOCKED: USER        Moving Ligand-Fixed Receptor    =  -5.04 kcal/mol
DOCKED: USER        Moving Ligand-Moving Receptor   =  +0.00 kcal/mol
DOCKED: USER    (2) Final Total Internal Energy     =  -1.50 kcal/mol
DOCKED: USER    (3) Torsional Free Energy           =  +1.49 kcal/mol
DOCKED: USER    (4) Unbound System's Energy         =  -1.50 kcal/mol
DOCKED: USER
DOCKED: USER
DOCKED: REMARK  5 active torsions:
DOCKED: REMARK  status: ('A' for Active; 'I' for Inactive)
DOCKED: REMARK    1  A    between atoms: C_2  and  C_19 
DOCKED: REMARK    2  A    between atoms: C_2  and  C_11 
DOCKED: REMARK    3  A    between atoms: C_19  and  C_20 
DOCKED: REMARK    4  A    between atoms: C_20  and  C_21 
DOCKED: REMARK    5  A    between atoms: C_21  and  N_22 
DOCKED: USER                              x       y       z     vdW  Elec       q    Type
DOCKED: USER                           _______ _______ _______ _____ _____    ______ ____
DOCKED: ROOT
DOCKED: ATOM      1  O   UNL     1     -39.388 -23.319  10.589 -0.05 -0.00    -0.346 OA 
DOCKED: ATOM      2  C   UNL     1     -39.225 -22.420   9.446 -0.11 +0.00    +0.130 C  
DOCKED: ATOM      3  C   UNL     1     -40.108 -23.018   8.390 -0.21 +0.00    +0.004 A  
DOCKED: ATOM      4  C   UNL     1     -40.801 -24.099   8.917 -0.21 +0.00    +0.006 A  
DOCKED: ATOM      5  C   UNL     1     -40.439 -24.281  10.340 -0.11 +0.00    +0.169 C  
DOCKED: ATOM      6  C   UNL     1     -40.293 -22.629   7.071 -0.19 -0.00    -0.001 A  
DOCKED: ATOM      7  C   UNL     1     -41.693 -24.827   8.148 -0.28 +0.00    +0.008 A  
DOCKED: ATOM      8  C   UNL     1     -41.186 -23.356   6.282 -0.32 +0.00    +0.010 A  
DOCKED: ATOM      9  C   UNL     1     -41.882 -24.449   6.818 -0.28 +0.00    +0.068 A  
DOCKED: ATOM     10  N   UNL     1     -43.537 -25.774   5.328 -2.38 -0.00    -0.191 NA 
DOCKED: ATOM     11  C   UNL     1     -42.794 -25.180   5.996 -0.14 +0.00    +0.101 C  
DOCKED: ENDROOT
DOCKED: BRANCH   2  12
DOCKED: ATOM     12  C   UNL     1     -39.663 -21.022   9.865 -0.05 +0.00    +0.038 C  
DOCKED: BRANCH  12  13
DOCKED: ATOM     13  C   UNL     1     -39.963 -20.957  11.361 -0.02 +0.00    +0.038 C  
DOCKED: BRANCH  13  14
DOCKED: ATOM     14  C   UNL     1     -38.736 -20.499  12.148 -0.00 +0.00    +0.251 C  
DOCKED: BRANCH  14  15
DOCKED: ATOM     15  N   UNL     1     -38.407 -21.469  13.185 -0.00 +0.00    +0.141 N  
DOCKED: ATOM     16  C   UNL     1     -39.552 -22.338  13.460 -0.00 +0.00    +0.285 C  
DOCKED: ATOM     17  C   UNL     1     -37.245 -22.268  12.794 -0.01 +0.00    +0.285 C  
DOCKED: ENDBRANCH  14  15
DOCKED: ENDBRANCH  13  14
DOCKED: ENDBRANCH  12  13
DOCKED: ENDBRANCH   2  12
DOCKED: BRANCH   2  18
DOCKED: ATOM     18  C   UNL     1     -37.779 -22.443   9.076 -0.15 +0.00    +0.006 A  
DOCKED: ATOM     19  C   UNL     1     -36.946 -21.392   9.459 -0.07 +0.00    +0.001 A  
DOCKED: ATOM     20  C   UNL     1     -35.594 -21.415   9.112 -0.05 +0.00    +0.029 A  
DOCKED: ATOM     21  C   UNL     1     -35.078 -22.486   8.385 -0.08 +0.00    +0.140 A  
DOCKED: ATOM     22  C   UNL     1     -35.912 -23.537   8.003 -0.19 +0.00    +0.029 A  
DOCKED: ATOM     23  F   UNL     1     -33.781 -22.508   8.054 +0.00 -0.00    -0.204 F  
DOCKED: ATOM     24  C   UNL     1     -37.265 -23.515   8.349 -0.14 +0.00    +0.001 A  
DOCKED: ENDBRANCH   2  18
DOCKED: TORSDOF 5
DOCKED: TER
DOCKED: ENDMDL
________________________________________________________________________________


    FINAL DOCKED STATE:
    ________________________


Run:   95 / 512
Time taken for this run:   0.002s

DOCKED: MODEL        95
DOCKED: USER    Run = 95
DOCKED: USER
DOCKED: USER    Estimated Free Energy of Binding    =  -3.65 kcal/mol  [=(1)+(2)+(3)-(4)]
DOCKED: USER
DOCKED: USER    (1) Final Intermolecular Energy     =  -5.14 kcal/mol
DOCKED: USER        vdW + Hbond + desolv Energy     =  -5.14 kcal/mol
DOCKED: USER        Electrostatic Energy            =  +0.00 kcal/mol
DOCKED: USER        Moving Ligand-Fixed Receptor    =  -5.14 kcal/mol
DOCKED: USER        Moving Ligand-Moving Receptor   =  +0.00 kcal/mol
DOCKED: USER    (2) Final Total Internal Energy     =  -1.53 kcal/mol
DOCKED: USER    (3) Torsional Free Energy           =  +1.49 kcal/mol
DOCKED: USER    (4) Unbound System's Energy         =  -1.53 kcal/mol
DOCKED: USER
DOCKED: USER
DOCKED: REMARK  5 active torsions:
DOCKED: REMARK  status: ('A' for Active; 'I' for Inactive)
DOCKED: REMARK    1  A    between atoms: C_2  and  C_19 
DOCKED: REMARK    2  A    between atoms: C_2  and  C_11 
DOCKED: REMARK    3  A    between atoms: C_19  and  C_20 
DOCKED: REMARK    4  A    between atoms: C_20  and  C_21 
DOCKED: REMARK    5  A    between atoms: C_21  and  N_22 
DOCKED: USER                              x       y       z     vdW  Elec       q    Type
DOCKED: USER                           _______ _______ _______ _____ _____    ______ ____
DOCKED: ROOT
DOCKED: ATOM      1  O   UNL     1     -44.388 -20.033   8.763 -0.01 -0.00    -0.346 OA 
DOCKED: ATOM      2  C   UNL     1     -43.401 -19.727   7.727 -0.14 +0.00    +0.130 C  
DOCKED: ATOM      3  C   UNL     1     -43.136 -21.056   7.080 -0.22 +0.00    +0.004 A  
DOCKED: ATOM      4  C   UNL     1     -43.978 -22.016   7.623 -0.16 +0.00    +0.006 A  
DOCKED: ATOM      5  C   UNL     1     -44.854 -21.397   8.642 -0.06 +0.00    +0.169 C  
DOCKED: ATOM      6  C   UNL     1     -42.230 -21.386   6.083 -0.17 -0.00    -0.001 A  
DOCKED: ATOM      7  C   UNL     1     -43.941 -23.332   7.194 -0.20 +0.00    +0.008 A  
DOCKED: ATOM      8  C   UNL     1     -42.178 -22.710   5.643 -0.33 +0.00    +0.010 A  
DOCKED: ATOM      9  C   UNL     1     -43.030 -23.677   6.196 -0.25 +0.00    +0.068 A  
DOCKED: ATOM     10  N   UNL     1     -42.911 -26.125   5.353 -2.61 -0.00    -0.191 NA 
DOCKED: ATOM     11  C   UNL     1     -42.964 -25.027   5.731 -0.36 +0.00    +0.101 C  
DOCKED: ENDROOT
DOCKED: BRANCH   2  12
DOCKED: ATOM     12  C   UNL     1     -44.007 -18.710   6.767 -0.24 +0.00    +0.038 C  
DOCKED: BRANCH  12  13
DOCKED: ATOM     13  C   UNL     1     -45.068 -17.856   7.459 -0.15 +0.00    +0.038 C  
DOCKED: BRANCH  13  14
DOCKED: ATOM     14  C   UNL     1     -44.497 -16.501   7.874 -0.03 +0.00    +0.251 C  
DOCKED: BRANCH  14  15
DOCKED: ATOM     15  N   UNL     1     -43.987 -16.563   9.239 -0.01 +0.00    +0.141 N  
DOCKED: ATOM     16  C   UNL     1     -43.415 -15.275   9.634 -0.00 +0.00    +0.285 C  
DOCKED: ATOM     17  C   UNL     1     -45.049 -16.953  10.168 -0.00 +0.00    +0.285 C  
DOCKED: ENDBRANCH  14  15
DOCKED: ENDBRANCH  13  14
DOCKED: ENDBRANCH  12  13
DOCKED: ENDBRANCH   2  12
DOCKED: BRANCH   2  18
DOCKED: ATOM     18  C   UNL     1     -42.202 -19.167   8.418 -0.06 +0.00    +0.006 A  
DOCKED: ATOM     19  C   UNL     1     -42.119 -19.207   9.809 -0.02 +0.00    +0.001 A  
DOCKED: ATOM     20  C   UNL     1     -40.998 -18.683  10.454 -0.01 +0.00    +0.029 A  
DOCKED: ATOM     21  C   UNL     1     -39.963 -18.121   9.708 -0.00 +0.00    +0.140 A  
DOCKED: ATOM     22  C   UNL     1     -40.047 -18.082   8.316 -0.03 +0.00    +0.029 A  
DOCKED: ATOM     23  F   UNL     1     -38.886 -17.620  10.327 +0.00 -0.00    -0.204 F  
DOCKED: ATOM     24  C   UNL     1     -41.168 -18.606   7.670 -0.09 +0.00    +0.001 A  
DOCKED: ENDBRANCH   2  18
DOCKED: TORSDOF 5
DOCKED: TER
DOCKED: ENDMDL
________________________________________________________________________________


    FINAL DOCKED STATE:
    ________________________


Run:   96 / 512
Time taken for this run:   0.002s

DOCKED: MODEL        96
DOCKED: USER    Run = 96
DOCKED: USER
DOCKED: USER    Estimated Free Energy of Binding    =  -4.20 kcal/mol  [=(1)+(2)+(3)-(4)]
DOCKED: USER
DOCKED: USER    (1) Final Intermolecular Energy     =  -5.69 kcal/mol
DOCKED: USER        vdW + Hbond + desolv Energy     =  -5.69 kcal/mol
DOCKED: USER        Electrostatic Energy            =  +0.00 kcal/mol
DOCKED: USER        Moving Ligand-Fixed Receptor    =  -5.69 kcal/mol
DOCKED: USER        Moving Ligand-Moving Receptor   =  +0.00 kcal/mol
DOCKED: USER    (2) Final Total Internal Energy     =  -1.43 kcal/mol
DOCKED: USER    (3) Torsional Free Energy           =  +1.49 kcal/mol
DOCKED: USER    (4) Unbound System's Energy         =  -1.43 kcal/mol
DOCKED: USER
DOCKED: USER
DOCKED: REMARK  5 active torsions:
DOCKED: REMARK  status: ('A' for Active; 'I' for Inactive)
DOCKED: REMARK    1  A    between atoms: C_2  and  C_19 
DOCKED: REMARK    2  A    between atoms: C_2  and  C_11 
DOCKED: REMARK    3  A    between atoms: C_19  and  C_20 
DOCKED: REMARK    4  A    between atoms: C_20  and  C_21 
DOCKED: REMARK    5  A    between atoms: C_21  and  N_22 
DOCKED: USER                              x       y       z     vdW  Elec       q    Type
DOCKED: USER                           _______ _______ _______ _____ _____    ______ ____
DOCKED: ROOT
DOCKED: ATOM      1  O   UNL     1     -39.733 -20.506   8.258 -0.04 -0.00    -0.346 OA 
DOCKED: ATOM      2  C   UNL     1     -41.083 -20.093   7.872 -0.11 +0.00    +0.130 C  
DOCKED: ATOM      3  C   UNL     1     -41.665 -21.319   7.231 -0.22 +0.00    +0.004 A  
DOCKED: ATOM      4  C   UNL     1     -40.769 -22.373   7.339 -0.24 +0.00    +0.006 A  
DOCKED: ATOM      5  C   UNL     1     -39.555 -21.928   8.060 -0.15 +0.00    +0.169 C  
DOCKED: ATOM      6  C   UNL     1     -42.894 -21.491   6.611 -0.24 -0.00    -0.001 A  
DOCKED: ATOM      7  C   UNL     1     -41.066 -23.626   6.831 -0.32 +0.00    +0.008 A  
DOCKED: ATOM      8  C   UNL     1     -43.207 -22.747   6.090 -0.25 +0.00    +0.010 A  
DOCKED: ATOM      9  C   UNL     1     -42.297 -23.810   6.200 -0.29 +0.00    +0.068 A  
DOCKED: ATOM     10  N   UNL     1     -42.910 -26.131   5.226 -2.54 -0.00    -0.191 NA 
DOCKED: ATOM     11  C   UNL     1     -42.635 -25.090   5.663 -0.35 +0.00    +0.101 C  
DOCKED: ENDROOT
DOCKED: BRANCH   2  12
DOCKED: ATOM     12  C   UNL     1     -41.835 -19.666   9.128 -0.04 +0.00    +0.038 C  
DOCKED: BRANCH  12  13
DOCKED: ATOM     13  C   UNL     1     -41.548 -20.608  10.296 -0.02 +0.00    +0.038 C  
DOCKED: BRANCH  13  14
DOCKED: ATOM     14  C   UNL     1     -42.822 -21.308  10.763 -0.00 +0.00    +0.251 C  
DOCKED: BRANCH  14  15
DOCKED: ATOM     15  N   UNL     1     -42.600 -22.744  10.877 -0.03 +0.00    +0.141 N  
DOCKED: ATOM     16  C   UNL     1     -43.061 -23.435   9.672 -0.03 +0.00    +0.285 C  
DOCKED: ATOM     17  C   UNL     1     -41.185 -23.030  11.116 -0.03 +0.00    +0.285 C  
DOCKED: ENDBRANCH  14  15
DOCKED: ENDBRANCH  13  14
DOCKED: ENDBRANCH  12  13
DOCKED: ENDBRANCH   2  12
DOCKED: BRANCH   2  18
DOCKED: ATOM     18  C   UNL     1     -40.935 -18.953   6.921 -0.15 +0.00    +0.006 A  
DOCKED: ATOM     19  C   UNL     1     -39.696 -18.688   6.339 -0.14 +0.00    +0.001 A  
DOCKED: ATOM     20  C   UNL     1     -39.559 -17.621   5.449 -0.10 +0.00    +0.029 A  
DOCKED: ATOM     21  C   UNL     1     -40.659 -16.823   5.143 -0.08 +0.00    +0.140 A  
DOCKED: ATOM     22  C   UNL     1     -41.898 -17.089   5.725 -0.15 +0.00    +0.029 A  
DOCKED: ATOM     23  F   UNL     1     -40.528 -15.801   4.287 -0.02 -0.00    -0.204 F  
DOCKED: ATOM     24  C   UNL     1     -42.037 -18.155   6.615 -0.16 +0.00    +0.001 A  
DOCKED: ENDBRANCH   2  18
DOCKED: TORSDOF 5
DOCKED: TER
DOCKED: ENDMDL
________________________________________________________________________________


    FINAL DOCKED STATE:
    ________________________


Run:   97 / 512
Time taken for this run:   0.002s

DOCKED: MODEL        97
DOCKED: USER    Run = 97
DOCKED: USER
DOCKED: USER    Estimated Free Energy of Binding    =  -4.16 kcal/mol  [=(1)+(2)+(3)-(4)]
DOCKED: USER
DOCKED: USER    (1) Final Intermolecular Energy     =  -5.65 kcal/mol
DOCKED: USER        vdW + Hbond + desolv Energy     =  -5.65 kcal/mol
DOCKED: USER        Electrostatic Energy            =  +0.00 kcal/mol
DOCKED: USER        Moving Ligand-Fixed Receptor    =  -5.65 kcal/mol
DOCKED: USER        Moving Ligand-Moving Receptor   =  +0.00 kcal/mol
DOCKED: USER    (2) Final Total Internal Energy     =  -1.42 kcal/mol
DOCKED: USER    (3) Torsional Free Energy           =  +1.49 kcal/mol
DOCKED: USER    (4) Unbound System's Energy         =  -1.42 kcal/mol
DOCKED: USER
DOCKED: USER
DOCKED: REMARK  5 active torsions:
DOCKED: REMARK  status: ('A' for Active; 'I' for Inactive)
DOCKED: REMARK    1  A    between atoms: C_2  and  C_19 
DOCKED: REMARK    2  A    between atoms: C_2  and  C_11 
DOCKED: REMARK    3  A    between atoms: C_19  and  C_20 
DOCKED: REMARK    4  A    between atoms: C_20  and  C_21 
DOCKED: REMARK    5  A    between atoms: C_21  and  N_22 
DOCKED: USER                              x       y       z     vdW  Elec       q    Type
DOCKED: USER                           _______ _______ _______ _____ _____    ______ ____
DOCKED: ROOT
DOCKED: ATOM      1  O   UNL     1     -39.300 -20.644   8.093 -0.05 -0.00    -0.346 OA 
DOCKED: ATOM      2  C   UNL     1     -40.665 -20.183   7.833 -0.11 +0.00    +0.130 C  
DOCKED: ATOM      3  C   UNL     1     -41.342 -21.384   7.239 -0.22 +0.00    +0.004 A  
DOCKED: ATOM      4  C   UNL     1     -40.475 -22.468   7.260 -0.24 +0.00    +0.006 A  
DOCKED: ATOM      5  C   UNL     1     -39.188 -22.069   7.872 -0.09 +0.00    +0.169 C  
DOCKED: ATOM      6  C   UNL     1     -42.627 -21.511   6.731 -0.24 -0.00    -0.001 A  
DOCKED: ATOM      7  C   UNL     1     -40.858 -23.706   6.774 -0.32 +0.00    +0.008 A  
DOCKED: ATOM      8  C   UNL     1     -43.026 -22.752   6.233 -0.27 +0.00    +0.010 A  
DOCKED: ATOM      9  C   UNL     1     -42.146 -23.844   6.255 -0.30 +0.00    +0.068 A  
DOCKED: ATOM     10  N   UNL     1     -42.920 -26.136   5.327 -2.60 -0.00    -0.191 NA 
DOCKED: ATOM     11  C   UNL     1     -42.573 -25.108   5.742 -0.32 +0.00    +0.101 C  
DOCKED: ENDROOT
DOCKED: BRANCH   2  12
DOCKED: ATOM     12  C   UNL     1     -41.286 -19.744   9.153 -0.04 +0.00    +0.038 C  
DOCKED: BRANCH  12  13
DOCKED: ATOM     13  C   UNL     1     -41.069 -20.788  10.246 -0.03 +0.00    +0.038 C  
DOCKED: BRANCH  13  14
DOCKED: ATOM     14  C   UNL     1     -42.391 -21.180  10.902 -0.00 +0.00    +0.251 C  
DOCKED: BRANCH  14  15
DOCKED: ATOM     15  N   UNL     1     -43.200 -21.970   9.982 -0.02 +0.00    +0.141 N  
DOCKED: ATOM     16  C   UNL     1     -43.464 -23.299  10.537 -0.02 +0.00    +0.285 C  
DOCKED: ATOM     17  C   UNL     1     -44.459 -21.286   9.683 -0.00 +0.00    +0.285 C  
DOCKED: ENDBRANCH  14  15
DOCKED: ENDBRANCH  13  14
DOCKED: ENDBRANCH  12  13
DOCKED: ENDBRANCH   2  12
DOCKED: BRANCH   2  18
DOCKED: ATOM     18  C   UNL     1     -40.565 -19.041   6.878 -0.14 +0.00    +0.006 A  
DOCKED: ATOM     19  C   UNL     1     -41.662 -18.205   6.674 -0.15 +0.00    +0.001 A  
DOCKED: ATOM     20  C   UNL     1     -41.567 -17.137   5.781 -0.13 +0.00    +0.029 A  
DOCKED: ATOM     21  C   UNL     1     -40.376 -16.906   5.094 -0.07 +0.00    +0.140 A  
DOCKED: ATOM     22  C   UNL     1     -39.279 -17.742   5.299 -0.10 +0.00    +0.029 A  
DOCKED: ATOM     23  F   UNL     1     -40.285 -15.880   4.238 -0.02 -0.00    -0.204 F  
DOCKED: ATOM     24  C   UNL     1     -39.373 -18.811   6.192 -0.14 +0.00    +0.001 A  
DOCKED: ENDBRANCH   2  18
DOCKED: TORSDOF 5
DOCKED: TER
DOCKED: ENDMDL
________________________________________________________________________________


    FINAL DOCKED STATE:
    ________________________


Run:   98 / 512
Time taken for this run:   0.002s

DOCKED: MODEL        98
DOCKED: USER    Run = 98
DOCKED: USER
DOCKED: USER    Estimated Free Energy of Binding    =  -4.19 kcal/mol  [=(1)+(2)+(3)-(4)]
DOCKED: USER
DOCKED: USER    (1) Final Intermolecular Energy     =  -5.68 kcal/mol
DOCKED: USER        vdW + Hbond + desolv Energy     =  -5.68 kcal/mol
DOCKED: USER        Electrostatic Energy            =  +0.00 kcal/mol
DOCKED: USER        Moving Ligand-Fixed Receptor    =  -5.68 kcal/mol
DOCKED: USER        Moving Ligand-Moving Receptor   =  +0.00 kcal/mol
DOCKED: USER    (2) Final Total Internal Energy     =  -1.38 kcal/mol
DOCKED: USER    (3) Torsional Free Energy           =  +1.49 kcal/mol
DOCKED: USER    (4) Unbound System's Energy         =  -1.38 kcal/mol
DOCKED: USER
DOCKED: USER
DOCKED: REMARK  5 active torsions:
DOCKED: REMARK  status: ('A' for Active; 'I' for Inactive)
DOCKED: REMARK    1  A    between atoms: C_2  and  C_19 
DOCKED: REMARK    2  A    between atoms: C_2  and  C_11 
DOCKED: REMARK    3  A    between atoms: C_19  and  C_20 
DOCKED: REMARK    4  A    between atoms: C_20  and  C_21 
DOCKED: REMARK    5  A    between atoms: C_21  and  N_22 
DOCKED: USER                              x       y       z     vdW  Elec       q    Type
DOCKED: USER                           _______ _______ _______ _____ _____    ______ ____
DOCKED: ROOT
DOCKED: ATOM      1  O   UNL     1     -38.655 -22.247   9.478 -0.05 -0.00    -0.346 OA 
DOCKED: ATOM      2  C   UNL     1     -39.133 -21.310   8.460 -0.12 +0.00    +0.130 C  
DOCKED: ATOM      3  C   UNL     1     -40.078 -22.131   7.631 -0.20 +0.00    +0.004 A  
DOCKED: ATOM      4  C   UNL     1     -40.214 -23.393   8.190 -0.24 +0.00    +0.006 A  
DOCKED: ATOM      5  C   UNL     1     -39.391 -23.491   9.417 -0.09 +0.00    +0.169 C  
DOCKED: ATOM      6  C   UNL     1     -40.771 -21.784   6.480 -0.23 -0.00    -0.001 A  
DOCKED: ATOM      7  C   UNL     1     -41.038 -24.349   7.621 -0.32 +0.00    +0.008 A  
DOCKED: ATOM      8  C   UNL     1     -41.602 -22.738   5.891 -0.32 +0.00    +0.010 A  
DOCKED: ATOM      9  C   UNL     1     -41.735 -24.014   6.459 -0.31 +0.00    +0.068 A  
DOCKED: ATOM     10  N   UNL     1     -43.291 -25.760   5.344 -2.56 -0.00    -0.191 NA 
DOCKED: ATOM     11  C   UNL     1     -42.593 -24.977   5.844 -0.35 +0.00    +0.101 C  
DOCKED: ENDROOT
DOCKED: BRANCH   2  12
DOCKED: ATOM     12  C   UNL     1     -39.819 -20.144   9.162 -0.05 +0.00    +0.038 C  
DOCKED: BRANCH  12  13
DOCKED: ATOM     13  C   UNL     1     -41.231 -20.517   9.611 -0.04 +0.00    +0.038 C  
DOCKED: BRANCH  13  14
DOCKED: ATOM     14  C   UNL     1     -42.280 -19.939   8.663 -0.04 +0.00    +0.251 C  
DOCKED: BRANCH  14  15
DOCKED: ATOM     15  N   UNL     1     -43.556 -20.621   8.842 -0.04 +0.00    +0.141 N  
DOCKED: ATOM     16  C   UNL     1     -44.207 -20.847   7.551 -0.11 +0.00    +0.285 C  
DOCKED: ATOM     17  C   UNL     1     -43.368 -21.891   9.545 -0.01 +0.00    +0.285 C  
DOCKED: ENDBRANCH  14  15
DOCKED: ENDBRANCH  13  14
DOCKED: ENDBRANCH  12  13
DOCKED: ENDBRANCH   2  12
DOCKED: BRANCH   2  18
DOCKED: ATOM     18  C   UNL     1     -37.938 -20.849   7.695 -0.10 +0.00    +0.006 A  
DOCKED: ATOM     19  C   UNL     1     -36.674 -21.345   8.013 -0.12 +0.00    +0.001 A  
DOCKED: ATOM     20  C   UNL     1     -35.557 -20.913   7.297 -0.09 +0.00    +0.029 A  
DOCKED: ATOM     21  C   UNL     1     -35.705 -19.988   6.265 -0.07 +0.00    +0.140 A  
DOCKED: ATOM     22  C   UNL     1     -36.969 -19.494   5.947 -0.11 +0.00    +0.029 A  
DOCKED: ATOM     23  F   UNL     1     -34.632 -19.575   5.576 -0.01 -0.00    -0.204 F  
DOCKED: ATOM     24  C   UNL     1     -38.087 -19.924   6.663 -0.11 +0.00    +0.001 A  
DOCKED: ENDBRANCH   2  18
DOCKED: TORSDOF 5
DOCKED: TER
DOCKED: ENDMDL
________________________________________________________________________________


    FINAL DOCKED STATE:
    ________________________


Run:   99 / 512
Time taken for this run:   0.002s

DOCKED: MODEL        99
DOCKED: USER    Run = 99
DOCKED: USER
DOCKED: USER    Estimated Free Energy of Binding    =  -4.42 kcal/mol  [=(1)+(2)+(3)-(4)]
DOCKED: USER
DOCKED: USER    (1) Final Intermolecular Energy     =  -5.91 kcal/mol
DOCKED: USER        vdW + Hbond + desolv Energy     =  -5.91 kcal/mol
DOCKED: USER        Electrostatic Energy            =  +0.00 kcal/mol
DOCKED: USER        Moving Ligand-Fixed Receptor    =  -5.91 kcal/mol
DOCKED: USER        Moving Ligand-Moving Receptor   =  +0.00 kcal/mol
DOCKED: USER    (2) Final Total Internal Energy     =  -1.20 kcal/mol
DOCKED: USER    (3) Torsional Free Energy           =  +1.49 kcal/mol
DOCKED: USER    (4) Unbound System's Energy         =  -1.20 kcal/mol
DOCKED: USER
DOCKED: USER
DOCKED: REMARK  5 active torsions:
DOCKED: REMARK  status: ('A' for Active; 'I' for Inactive)
DOCKED: REMARK    1  A    between atoms: C_2  and  C_19 
DOCKED: REMARK    2  A    between atoms: C_2  and  C_11 
DOCKED: REMARK    3  A    between atoms: C_19  and  C_20 
DOCKED: REMARK    4  A    between atoms: C_20  and  C_21 
DOCKED: REMARK    5  A    between atoms: C_21  and  N_22 
DOCKED: USER                              x       y       z     vdW  Elec       q    Type
DOCKED: USER                           _______ _______ _______ _____ _____    ______ ____
DOCKED: ROOT
DOCKED: ATOM      1  O   UNL     1     -42.527 -24.396   8.576 -0.08 -0.00    -0.346 OA 
DOCKED: ATOM      2  C   UNL     1     -42.192 -23.136   7.910 -0.15 +0.00    +0.130 C  
DOCKED: ATOM      3  C   UNL     1     -42.408 -23.430   6.454 -0.30 +0.00    +0.004 A  
DOCKED: ATOM      4  C   UNL     1     -42.928 -24.708   6.308 -0.31 +0.00    +0.006 A  
DOCKED: ATOM      5  C   UNL     1     -43.101 -25.335   7.637 -0.03 +0.00    +0.169 C  
DOCKED: ATOM      6  C   UNL     1     -42.175 -22.626   5.348 -0.28 -0.00    -0.001 A  
DOCKED: ATOM      7  C   UNL     1     -43.227 -25.227   5.059 -0.42 +0.00    +0.008 A  
DOCKED: ATOM      8  C   UNL     1     -42.467 -23.136   4.081 -0.08 +0.00    +0.010 A  
DOCKED: ATOM      9  C   UNL     1     -42.991 -24.429   3.938 -0.43 +0.00    +0.068 A  
DOCKED: ATOM     10  N   UNL     1     -43.526 -25.343   1.574 -2.35 -0.00    -0.191 NA 
DOCKED: ATOM     11  C   UNL     1     -43.285 -24.934   2.634 -0.34 +0.00    +0.101 C  
DOCKED: ENDROOT
DOCKED: BRANCH   2  12
DOCKED: ATOM     12  C   UNL     1     -43.118 -22.048   8.440 -0.11 +0.00    +0.038 C  
DOCKED: BRANCH  12  13
DOCKED: ATOM     13  C   UNL     1     -43.323 -22.177   9.948 -0.05 +0.00    +0.038 C  
DOCKED: BRANCH  13  14
DOCKED: ATOM     14  C   UNL     1     -44.553 -23.026  10.265 -0.02 +0.00    +0.251 C  
DOCKED: BRANCH  14  15
DOCKED: ATOM     15  N   UNL     1     -44.276 -23.925  11.379 -0.05 +0.00    +0.141 N  
DOCKED: ATOM     16  C   UNL     1     -42.952 -24.532  11.234 -0.07 +0.00    +0.285 C  
DOCKED: ATOM     17  C   UNL     1     -44.370 -23.212  12.653 -0.00 +0.00    +0.285 C  
DOCKED: ENDBRANCH  14  15
DOCKED: ENDBRANCH  13  14
DOCKED: ENDBRANCH  12  13
DOCKED: ENDBRANCH   2  12
DOCKED: BRANCH   2  18
DOCKED: ATOM     18  C   UNL     1     -40.767 -22.836   8.237 -0.19 +0.00    +0.006 A  
DOCKED: ATOM     19  C   UNL     1     -39.784 -23.802   8.021 -0.25 +0.00    +0.001 A  
DOCKED: ATOM     20  C   UNL     1     -38.452 -23.520   8.327 -0.08 +0.00    +0.029 A  
DOCKED: ATOM     21  C   UNL     1     -38.105 -22.275   8.849 -0.12 +0.00    +0.140 A  
DOCKED: ATOM     22  C   UNL     1     -39.088 -21.310   9.065 -0.09 +0.00    +0.029 A  
DOCKED: ATOM     23  F   UNL     1     -36.826 -22.004   9.141 -0.02 -0.00    -0.204 F  
DOCKED: ATOM     24  C   UNL     1     -40.421 -21.590   8.759 -0.11 +0.00    +0.001 A  
DOCKED: ENDBRANCH   2  18
DOCKED: TORSDOF 5
DOCKED: TER
DOCKED: ENDMDL
________________________________________________________________________________


    FINAL DOCKED STATE:
    ________________________


Run:   100 / 512
Time taken for this run:   0.002s

DOCKED: MODEL        100
DOCKED: USER    Run = 100
DOCKED: USER
DOCKED: USER    Estimated Free Energy of Binding    =  -4.21 kcal/mol  [=(1)+(2)+(3)-(4)]
DOCKED: USER
DOCKED: USER    (1) Final Intermolecular Energy     =  -5.70 kcal/mol
DOCKED: USER        vdW + Hbond + desolv Energy     =  -5.70 kcal/mol
DOCKED: USER        Electrostatic Energy            =  +0.00 kcal/mol
DOCKED: USER        Moving Ligand-Fixed Receptor    =  -5.70 kcal/mol
DOCKED: USER        Moving Ligand-Moving Receptor   =  +0.00 kcal/mol
DOCKED: USER    (2) Final Total Internal Energy     =  -1.31 kcal/mol
DOCKED: USER    (3) Torsional Free Energy           =  +1.49 kcal/mol
DOCKED: USER    (4) Unbound System's Energy         =  -1.31 kcal/mol
DOCKED: USER
DOCKED: USER
DOCKED: REMARK  5 active torsions:
DOCKED: REMARK  status: ('A' for Active; 'I' for Inactive)
DOCKED: REMARK    1  A    between atoms: C_2  and  C_19 
DOCKED: REMARK    2  A    between atoms: C_2  and  C_11 
DOCKED: REMARK    3  A    between atoms: C_19  and  C_20 
DOCKED: REMARK    4  A    between atoms: C_20  and  C_21 
DOCKED: REMARK    5  A    between atoms: C_21  and  N_22 
DOCKED: USER                              x       y       z     vdW  Elec       q    Type
DOCKED: USER                           _______ _______ _______ _____ _____    ______ ____
DOCKED: ROOT
DOCKED: ATOM      1  O   UNL     1     -42.052 -21.697   9.089 -0.00 -0.00    -0.346 OA 
DOCKED: ATOM      2  C   UNL     1     -40.976 -22.675   8.920 -0.11 +0.00    +0.130 C  
DOCKED: ATOM      3  C   UNL     1     -41.246 -23.276   7.571 -0.25 +0.00    +0.004 A  
DOCKED: ATOM      4  C   UNL     1     -42.315 -22.624   6.974 -0.24 +0.00    +0.006 A  
DOCKED: ATOM      5  C   UNL     1     -42.812 -21.552   7.867 -0.11 +0.00    +0.169 C  
DOCKED: ATOM      6  C   UNL     1     -40.590 -24.311   6.920 -0.35 -0.00    -0.001 A  
DOCKED: ATOM      7  C   UNL     1     -42.767 -22.982   5.716 -0.30 +0.00    +0.008 A  
DOCKED: ATOM      8  C   UNL     1     -41.036 -24.687   5.652 -0.23 +0.00    +0.010 A  
DOCKED: ATOM      9  C   UNL     1     -42.119 -24.026   5.053 -0.37 +0.00    +0.068 A  
DOCKED: ATOM     10  N   UNL     1     -42.918 -24.746   2.696 -1.88 -0.00    -0.191 NA 
DOCKED: ATOM     11  C   UNL     1     -42.560 -24.423   3.753 -0.52 +0.00    +0.101 C  
DOCKED: ENDROOT
DOCKED: BRANCH   2  12
DOCKED: ATOM     12  C   UNL     1     -39.642 -21.941   8.986 -0.13 +0.00    +0.038 C  
DOCKED: BRANCH  12  13
DOCKED: ATOM     13  C   UNL     1     -39.437 -21.047   7.765 -0.16 +0.00    +0.038 C  
DOCKED: BRANCH  13  14
DOCKED: ATOM     14  C   UNL     1     -40.144 -19.704   7.942 -0.07 +0.00    +0.251 C  
DOCKED: BRANCH  14  15
DOCKED: ATOM     15  N   UNL     1     -39.896 -19.173   9.278 -0.02 +0.00    +0.141 N  
DOCKED: ATOM     16  C   UNL     1     -39.062 -17.972   9.210 -0.00 +0.00    +0.285 C  
DOCKED: ATOM     17  C   UNL     1     -41.159 -18.876   9.956 -0.00 +0.00    +0.285 C  
DOCKED: ENDBRANCH  14  15
DOCKED: ENDBRANCH  13  14
DOCKED: ENDBRANCH  12  13
DOCKED: ENDBRANCH   2  12
DOCKED: BRANCH   2  18
DOCKED: ATOM     18  C   UNL     1     -41.104 -23.661  10.033 -0.13 +0.00    +0.006 A  
DOCKED: ATOM     19  C   UNL     1     -40.075 -23.798  10.963 -0.13 +0.00    +0.001 A  
DOCKED: ATOM     20  C   UNL     1     -40.195 -24.721  12.003 -0.16 +0.00    +0.029 A  
DOCKED: ATOM     21  C   UNL     1     -41.344 -25.504  12.111 -0.17 +0.00    +0.140 A  
DOCKED: ATOM     22  C   UNL     1     -42.373 -25.365  11.180 -0.11 +0.00    +0.029 A  
DOCKED: ATOM     23  F   UNL     1     -41.460 -26.388  13.110 -0.05 -0.00    -0.204 F  
DOCKED: ATOM     24  C   UNL     1     -42.253 -24.443  10.139 -0.17 +0.00    +0.001 A  
DOCKED: ENDBRANCH   2  18
DOCKED: TORSDOF 5
DOCKED: TER
DOCKED: ENDMDL
________________________________________________________________________________


    FINAL DOCKED STATE:
    ________________________


Run:   101 / 512
Time taken for this run:   0.002s

DOCKED: MODEL        101
DOCKED: USER    Run = 101
DOCKED: USER
DOCKED: USER    Estimated Free Energy of Binding    =  -5.50 kcal/mol  [=(1)+(2)+(3)-(4)]
DOCKED: USER
DOCKED: USER    (1) Final Intermolecular Energy     =  -6.99 kcal/mol
DOCKED: USER        vdW + Hbond + desolv Energy     =  -6.99 kcal/mol
DOCKED: USER        Electrostatic Energy            =  +0.00 kcal/mol
DOCKED: USER        Moving Ligand-Fixed Receptor    =  -6.99 kcal/mol
DOCKED: USER        Moving Ligand-Moving Receptor   =  +0.00 kcal/mol
DOCKED: USER    (2) Final Total Internal Energy     =  -1.08 kcal/mol
DOCKED: USER    (3) Torsional Free Energy           =  +1.49 kcal/mol
DOCKED: USER    (4) Unbound System's Energy         =  -1.08 kcal/mol
DOCKED: USER
DOCKED: USER
DOCKED: REMARK  5 active torsions:
DOCKED: REMARK  status: ('A' for Active; 'I' for Inactive)
DOCKED: REMARK    1  A    between atoms: C_2  and  C_19 
DOCKED: REMARK    2  A    between atoms: C_2  and  C_11 
DOCKED: REMARK    3  A    between atoms: C_19  and  C_20 
DOCKED: REMARK    4  A    between atoms: C_20  and  C_21 
DOCKED: REMARK    5  A    between atoms: C_21  and  N_22 
DOCKED: USER                              x       y       z     vdW  Elec       q    Type
DOCKED: USER                           _______ _______ _______ _____ _____    ______ ____
DOCKED: ROOT
DOCKED: ATOM      1  O   UNL     1     -42.707 -24.518   8.711 -0.08 -0.00    -0.346 OA 
DOCKED: ATOM      2  C   UNL     1     -42.161 -23.258   8.205 -0.13 +0.00    +0.130 C  
DOCKED: ATOM      3  C   UNL     1     -42.304 -23.377   6.715 -0.28 +0.00    +0.004 A  
DOCKED: ATOM      4  C   UNL     1     -42.974 -24.552   6.403 -0.31 +0.00    +0.006 A  
DOCKED: ATOM      5  C   UNL     1     -43.327 -25.275   7.645 -0.13 +0.00    +0.169 C  
DOCKED: ATOM      6  C   UNL     1     -41.886 -22.510   5.717 -0.33 -0.00    -0.001 A  
DOCKED: ATOM      7  C   UNL     1     -43.244 -24.900   5.090 -0.43 +0.00    +0.008 A  
DOCKED: ATOM      8  C   UNL     1     -42.146 -22.849   4.388 +0.07 +0.00    +0.010 A  
DOCKED: ATOM      9  C   UNL     1     -42.822 -24.039   4.077 -0.40 +0.00    +0.068 A  
DOCKED: ATOM     10  N   UNL     1     -43.294 -24.637   1.600 -2.96 -0.00    -0.191 NA 
DOCKED: ATOM     11  C   UNL     1     -43.082 -24.369   2.711 -0.36 +0.00    +0.101 C  
DOCKED: ENDROOT
DOCKED: BRANCH   2  12
DOCKED: ATOM     12  C   UNL     1     -42.974 -22.110   8.789 -0.09 +0.00    +0.038 C  
DOCKED: BRANCH  12  13
DOCKED: ATOM     13  C   UNL     1     -44.156 -21.750   7.890 -0.16 +0.00    +0.038 C  
DOCKED: BRANCH  13  14
DOCKED: ATOM     14  C   UNL     1     -43.933 -20.404   7.203 -0.16 +0.00    +0.251 C  
DOCKED: BRANCH  14  15
DOCKED: ATOM     15  N   UNL     1     -45.146 -19.978   6.516 -0.20 +0.00    +0.141 N  
DOCKED: ATOM     16  C   UNL     1     -46.284 -20.808   6.916 -0.15 +0.00    +0.285 C  
DOCKED: ATOM     17  C   UNL     1     -45.426 -18.567   6.790 -0.13 +0.00    +0.285 C  
DOCKED: ENDBRANCH  14  15
DOCKED: ENDBRANCH  13  14
DOCKED: ENDBRANCH  12  13
DOCKED: ENDBRANCH   2  12
DOCKED: BRANCH   2  18
DOCKED: ATOM     18  C   UNL     1     -40.738 -23.190   8.648 -0.18 +0.00    +0.006 A  
DOCKED: ATOM     19  C   UNL     1     -39.718 -23.573   7.778 -0.24 +0.00    +0.001 A  
DOCKED: ATOM     20  C   UNL     1     -38.387 -23.509   8.194 -0.03 +0.00    +0.029 A  
DOCKED: ATOM     21  C   UNL     1     -38.079 -23.063   9.478 -0.10 +0.00    +0.140 A  
DOCKED: ATOM     22  C   UNL     1     -39.100 -22.679  10.348 -0.09 +0.00    +0.029 A  
DOCKED: ATOM     23  F   UNL     1     -36.802 -23.000   9.877 -0.02 -0.00    -0.204 F  
DOCKED: ATOM     24  C   UNL     1     -40.431 -22.743   9.933 -0.10 +0.00    +0.001 A  
DOCKED: ENDBRANCH   2  18
DOCKED: TORSDOF 5
DOCKED: TER
DOCKED: ENDMDL
________________________________________________________________________________


    FINAL DOCKED STATE:
    ________________________


Run:   102 / 512
Time taken for this run:   0.002s

DOCKED: MODEL        102
DOCKED: USER    Run = 102
DOCKED: USER
DOCKED: USER    Estimated Free Energy of Binding    =  -4.21 kcal/mol  [=(1)+(2)+(3)-(4)]
DOCKED: USER
DOCKED: USER    (1) Final Intermolecular Energy     =  -5.70 kcal/mol
DOCKED: USER        vdW + Hbond + desolv Energy     =  -5.70 kcal/mol
DOCKED: USER        Electrostatic Energy            =  +0.00 kcal/mol
DOCKED: USER        Moving Ligand-Fixed Receptor    =  -5.70 kcal/mol
DOCKED: USER        Moving Ligand-Moving Receptor   =  +0.00 kcal/mol
DOCKED: USER    (2) Final Total Internal Energy     =  -1.43 kcal/mol
DOCKED: USER    (3) Torsional Free Energy           =  +1.49 kcal/mol
DOCKED: USER    (4) Unbound System's Energy         =  -1.43 kcal/mol
DOCKED: USER
DOCKED: USER
DOCKED: REMARK  5 active torsions:
DOCKED: REMARK  status: ('A' for Active; 'I' for Inactive)
DOCKED: REMARK    1  A    between atoms: C_2  and  C_19 
DOCKED: REMARK    2  A    between atoms: C_2  and  C_11 
DOCKED: REMARK    3  A    between atoms: C_19  and  C_20 
DOCKED: REMARK    4  A    between atoms: C_20  and  C_21 
DOCKED: REMARK    5  A    between atoms: C_21  and  N_22 
DOCKED: USER                              x       y       z     vdW  Elec       q    Type
DOCKED: USER                           _______ _______ _______ _____ _____    ______ ____
DOCKED: ROOT
DOCKED: ATOM      1  O   UNL     1     -41.305 -19.972   8.358 -0.02 -0.00    -0.346 OA 
DOCKED: ATOM      2  C   UNL     1     -42.742 -19.964   8.080 -0.10 +0.00    +0.130 C  
DOCKED: ATOM      3  C   UNL     1     -42.982 -21.275   7.389 -0.19 +0.00    +0.004 A  
DOCKED: ATOM      4  C   UNL     1     -41.808 -22.016   7.371 -0.21 +0.00    +0.006 A  
DOCKED: ATOM      5  C   UNL     1     -40.730 -21.264   8.051 -0.12 +0.00    +0.169 C  
DOCKED: ATOM      6  C   UNL     1     -44.148 -21.777   6.830 -0.22 -0.00    -0.001 A  
DOCKED: ATOM      7  C   UNL     1     -41.758 -23.273   6.795 -0.30 +0.00    +0.008 A  
DOCKED: ATOM      8  C   UNL     1     -44.112 -23.042   6.241 -0.24 +0.00    +0.010 A  
DOCKED: ATOM      9  C   UNL     1     -42.923 -23.787   6.224 -0.25 +0.00    +0.068 A  
DOCKED: ATOM     10  N   UNL     1     -42.893 -26.134   5.127 -2.47 -0.00    -0.191 NA 
DOCKED: ATOM     11  C   UNL     1     -42.906 -25.081   5.619 -0.36 +0.00    +0.101 C  
DOCKED: ENDROOT
DOCKED: BRANCH   2  12
DOCKED: ATOM     12  C   UNL     1     -43.489 -19.846   9.403 -0.04 +0.00    +0.038 C  
DOCKED: BRANCH  12  13
DOCKED: ATOM     13  C   UNL     1     -43.141 -20.999  10.344 -0.03 +0.00    +0.038 C  
DOCKED: BRANCH  13  14
DOCKED: ATOM     14  C   UNL     1     -44.235 -22.065  10.334 -0.01 +0.00    +0.251 C  
DOCKED: BRANCH  14  15
DOCKED: ATOM     15  N   UNL     1     -43.660 -23.379  10.073 -0.05 +0.00    +0.141 N  
DOCKED: ATOM     16  C   UNL     1     -43.206 -24.000  11.319 -0.04 +0.00    +0.285 C  
DOCKED: ATOM     17  C   UNL     1     -44.632 -24.243   9.401 -0.05 +0.00    +0.285 C  
DOCKED: ENDBRANCH  14  15
DOCKED: ENDBRANCH  13  14
DOCKED: ENDBRANCH  12  13
DOCKED: ENDBRANCH   2  12
DOCKED: BRANCH   2  18
DOCKED: ATOM     18  C   UNL     1     -43.010 -18.787   7.203 -0.18 +0.00    +0.006 A  
DOCKED: ATOM     19  C   UNL     1     -44.313 -18.315   7.050 -0.19 +0.00    +0.001 A  
DOCKED: ATOM     20  C   UNL     1     -44.563 -17.214   6.230 -0.17 +0.00    +0.029 A  
DOCKED: ATOM     21  C   UNL     1     -43.510 -16.587   5.565 -0.12 +0.00    +0.140 A  
DOCKED: ATOM     22  C   UNL     1     -42.207 -17.059   5.719 -0.16 +0.00    +0.029 A  
DOCKED: ATOM     23  F   UNL     1     -43.750 -15.529   4.779 -0.03 -0.00    -0.204 F  
DOCKED: ATOM     24  C   UNL     1     -41.957 -18.161   6.539 -0.16 +0.00    +0.001 A  
DOCKED: ENDBRANCH   2  18
DOCKED: TORSDOF 5
DOCKED: TER
DOCKED: ENDMDL
________________________________________________________________________________


    FINAL DOCKED STATE:
    ________________________


Run:   103 / 512
Time taken for this run:   0.002s

DOCKED: MODEL        103
DOCKED: USER    Run = 103
DOCKED: USER
DOCKED: USER    Estimated Free Energy of Binding    =  -3.77 kcal/mol  [=(1)+(2)+(3)-(4)]
DOCKED: USER
DOCKED: USER    (1) Final Intermolecular Energy     =  -5.27 kcal/mol
DOCKED: USER        vdW + Hbond + desolv Energy     =  -5.27 kcal/mol
DOCKED: USER        Electrostatic Energy            =  +0.00 kcal/mol
DOCKED: USER        Moving Ligand-Fixed Receptor    =  -5.27 kcal/mol
DOCKED: USER        Moving Ligand-Moving Receptor   =  +0.00 kcal/mol
DOCKED: USER    (2) Final Total Internal Energy     =  -1.08 kcal/mol
DOCKED: USER    (3) Torsional Free Energy           =  +1.49 kcal/mol
DOCKED: USER    (4) Unbound System's Energy         =  -1.08 kcal/mol
DOCKED: USER
DOCKED: USER
DOCKED: REMARK  5 active torsions:
DOCKED: REMARK  status: ('A' for Active; 'I' for Inactive)
DOCKED: REMARK    1  A    between atoms: C_2  and  C_19 
DOCKED: REMARK    2  A    between atoms: C_2  and  C_11 
DOCKED: REMARK    3  A    between atoms: C_19  and  C_20 
DOCKED: REMARK    4  A    between atoms: C_20  and  C_21 
DOCKED: REMARK    5  A    between atoms: C_21  and  N_22 
DOCKED: USER                              x       y       z     vdW  Elec       q    Type
DOCKED: USER                           _______ _______ _______ _____ _____    ______ ____
DOCKED: ROOT
DOCKED: ATOM      1  O   UNL     1     -32.494 -22.061  -0.116 +0.01 -0.00    -0.346 OA 
DOCKED: ATOM      2  C   UNL     1     -33.322 -22.960  -0.921 -0.08 +0.00    +0.130 C  
DOCKED: ATOM      3  C   UNL     1     -33.961 -23.865   0.092 -0.13 +0.00    +0.004 A  
DOCKED: ATOM      4  C   UNL     1     -33.617 -23.450   1.371 -0.09 +0.00    +0.006 A  
DOCKED: ATOM      5  C   UNL     1     -32.750 -22.253   1.295 -0.02 +0.00    +0.169 C  
DOCKED: ATOM      6  C   UNL     1     -34.790 -24.960  -0.102 -0.13 -0.00    -0.001 A  
DOCKED: ATOM      7  C   UNL     1     -34.083 -24.114   2.493 -0.18 +0.00    +0.008 A  
DOCKED: ATOM      8  C   UNL     1     -35.264 -25.643   1.019 -0.31 +0.00    +0.010 A  
DOCKED: ATOM      9  C   UNL     1     -34.913 -25.221   2.310 -0.31 +0.00    +0.068 A  
DOCKED: ATOM     10  N   UNL     1     -35.815 -26.507   4.371 -2.65 -0.00    -0.191 NA 
DOCKED: ATOM     11  C   UNL     1     -35.410 -25.931   3.447 -0.40 +0.00    +0.101 C  
DOCKED: ENDROOT
DOCKED: BRANCH   2  12
DOCKED: ATOM     12  C   UNL     1     -34.335 -22.122  -1.692 -0.12 +0.00    +0.038 C  
DOCKED: BRANCH  12  13
DOCKED: ATOM     13  C   UNL     1     -33.649 -21.020  -2.496 -0.07 +0.00    +0.038 C  
DOCKED: BRANCH  13  14
DOCKED: ATOM     14  C   UNL     1     -33.888 -21.202  -3.994 -0.07 +0.00    +0.251 C  
DOCKED: BRANCH  14  15
DOCKED: ATOM     15  N   UNL     1     -35.260 -21.632  -4.240 -0.20 +0.00    +0.141 N  
DOCKED: ATOM     16  C   UNL     1     -36.174 -20.490  -4.198 -0.21 +0.00    +0.285 C  
DOCKED: ATOM     17  C   UNL     1     -35.362 -22.317  -5.530 -0.12 +0.00    +0.285 C  
DOCKED: ENDBRANCH  14  15
DOCKED: ENDBRANCH  13  14
DOCKED: ENDBRANCH  12  13
DOCKED: ENDBRANCH   2  12
DOCKED: BRANCH   2  18
DOCKED: ATOM     18  C   UNL     1     -32.404 -23.684  -1.850 -0.05 +0.00    +0.006 A  
DOCKED: ATOM     19  C   UNL     1     -32.827 -24.857  -2.473 -0.08 +0.00    +0.001 A  
DOCKED: ATOM     20  C   UNL     1     -31.968 -25.533  -3.341 -0.04 +0.00    +0.029 A  
DOCKED: ATOM     21  C   UNL     1     -30.689 -25.034  -3.584 -0.00 +0.00    +0.140 A  
DOCKED: ATOM     22  C   UNL     1     -30.267 -23.860  -2.960 -0.00 +0.00    +0.029 A  
DOCKED: ATOM     23  F   UNL     1     -29.865 -25.682  -4.418 -0.00 -0.00    -0.204 F  
DOCKED: ATOM     24  C   UNL     1     -31.125 -23.184  -2.092 -0.01 +0.00    +0.001 A  
DOCKED: ENDBRANCH   2  18
DOCKED: TORSDOF 5
DOCKED: TER
DOCKED: ENDMDL
________________________________________________________________________________


    FINAL DOCKED STATE:
    ________________________


Run:   104 / 512
Time taken for this run:   0.002s

DOCKED: MODEL        104
DOCKED: USER    Run = 104
DOCKED: USER
DOCKED: USER    Estimated Free Energy of Binding    =  -4.29 kcal/mol  [=(1)+(2)+(3)-(4)]
DOCKED: USER
DOCKED: USER    (1) Final Intermolecular Energy     =  -5.79 kcal/mol
DOCKED: USER        vdW + Hbond + desolv Energy     =  -5.79 kcal/mol
DOCKED: USER        Electrostatic Energy            =  +0.00 kcal/mol
DOCKED: USER        Moving Ligand-Fixed Receptor    =  -5.79 kcal/mol
DOCKED: USER        Moving Ligand-Moving Receptor   =  +0.00 kcal/mol
DOCKED: USER    (2) Final Total Internal Energy     =  -1.36 kcal/mol
DOCKED: USER    (3) Torsional Free Energy           =  +1.49 kcal/mol
DOCKED: USER    (4) Unbound System's Energy         =  -1.36 kcal/mol
DOCKED: USER
DOCKED: USER
DOCKED: REMARK  5 active torsions:
DOCKED: REMARK  status: ('A' for Active; 'I' for Inactive)
DOCKED: REMARK    1  A    between atoms: C_2  and  C_19 
DOCKED: REMARK    2  A    between atoms: C_2  and  C_11 
DOCKED: REMARK    3  A    between atoms: C_19  and  C_20 
DOCKED: REMARK    4  A    between atoms: C_20  and  C_21 
DOCKED: REMARK    5  A    between atoms: C_21  and  N_22 
DOCKED: USER                              x       y       z     vdW  Elec       q    Type
DOCKED: USER                           _______ _______ _______ _____ _____    ______ ____
DOCKED: ROOT
DOCKED: ATOM      1  O   UNL     1     -40.401 -19.801   7.499 -0.05 -0.00    -0.346 OA 
DOCKED: ATOM      2  C   UNL     1     -41.852 -19.681   7.643 -0.13 +0.00    +0.130 C  
DOCKED: ATOM      3  C   UNL     1     -42.373 -21.000   7.152 -0.21 +0.00    +0.004 A  
DOCKED: ATOM      4  C   UNL     1     -41.310 -21.842   6.858 -0.27 +0.00    +0.006 A  
DOCKED: ATOM      5  C   UNL     1     -40.031 -21.153   7.142 -0.16 +0.00    +0.169 C  
DOCKED: ATOM      6  C   UNL     1     -43.683 -21.426   6.990 -0.22 -0.00    -0.001 A  
DOCKED: ATOM      7  C   UNL     1     -41.517 -23.128   6.390 -0.33 +0.00    +0.008 A  
DOCKED: ATOM      8  C   UNL     1     -43.909 -22.719   6.515 -0.23 +0.00    +0.010 A  
DOCKED: ATOM      9  C   UNL     1     -42.830 -23.566   6.217 -0.26 +0.00    +0.068 A  
DOCKED: ATOM     10  N   UNL     1     -43.284 -25.962   5.342 -2.55 -0.00    -0.191 NA 
DOCKED: ATOM     11  C   UNL     1     -43.080 -24.887   5.734 -0.36 +0.00    +0.101 C  
DOCKED: ENDROOT
DOCKED: BRANCH   2  12
DOCKED: ATOM     12  C   UNL     1     -42.172 -19.425   9.111 -0.04 +0.00    +0.038 C  
DOCKED: BRANCH  12  13
DOCKED: ATOM     13  C   UNL     1     -41.556 -18.114   9.596 -0.02 +0.00    +0.038 C  
DOCKED: BRANCH  13  14
DOCKED: ATOM     14  C   UNL     1     -40.265 -18.368  10.371 -0.00 +0.00    +0.251 C  
DOCKED: BRANCH  14  15
DOCKED: ATOM     15  N   UNL     1     -39.124 -17.811   9.653 -0.00 +0.00    +0.141 N  
DOCKED: ATOM     16  C   UNL     1     -39.564 -16.796   8.693 -0.00 +0.00    +0.285 C  
DOCKED: ATOM     17  C   UNL     1     -38.155 -17.238  10.589 -0.00 +0.00    +0.285 C  
DOCKED: ENDBRANCH  14  15
DOCKED: ENDBRANCH  13  14
DOCKED: ENDBRANCH  12  13
DOCKED: ENDBRANCH   2  12
DOCKED: BRANCH   2  18
DOCKED: ATOM     18  C   UNL     1     -42.281 -18.533   6.791 -0.17 +0.00    +0.006 A  
DOCKED: ATOM     19  C   UNL     1     -43.631 -18.195   6.706 -0.21 +0.00    +0.001 A  
DOCKED: ATOM     20  C   UNL     1     -44.031 -17.122   5.909 -0.15 +0.00    +0.029 A  
DOCKED: ATOM     21  C   UNL     1     -43.081 -16.388   5.199 -0.12 +0.00    +0.140 A  
DOCKED: ATOM     22  C   UNL     1     -41.731 -16.727   5.285 -0.14 +0.00    +0.029 A  
DOCKED: ATOM     23  F   UNL     1     -43.465 -15.357   4.436 -0.03 -0.00    -0.204 F  
DOCKED: ATOM     24  C   UNL     1     -41.330 -17.800   6.082 -0.13 +0.00    +0.001 A  
DOCKED: ENDBRANCH   2  18
DOCKED: TORSDOF 5
DOCKED: TER
DOCKED: ENDMDL
________________________________________________________________________________


    FINAL DOCKED STATE:
    ________________________


Run:   105 / 512
Time taken for this run:   0.002s

DOCKED: MODEL        105
DOCKED: USER    Run = 105
DOCKED: USER
DOCKED: USER    Estimated Free Energy of Binding    =  -5.34 kcal/mol  [=(1)+(2)+(3)-(4)]
DOCKED: USER
DOCKED: USER    (1) Final Intermolecular Energy     =  -6.83 kcal/mol
DOCKED: USER        vdW + Hbond + desolv Energy     =  -6.83 kcal/mol
DOCKED: USER        Electrostatic Energy            =  +0.00 kcal/mol
DOCKED: USER        Moving Ligand-Fixed Receptor    =  -6.83 kcal/mol
DOCKED: USER        Moving Ligand-Moving Receptor   =  +0.00 kcal/mol
DOCKED: USER    (2) Final Total Internal Energy     =  -1.27 kcal/mol
DOCKED: USER    (3) Torsional Free Energy           =  +1.49 kcal/mol
DOCKED: USER    (4) Unbound System's Energy         =  -1.27 kcal/mol
DOCKED: USER
DOCKED: USER
DOCKED: REMARK  5 active torsions:
DOCKED: REMARK  status: ('A' for Active; 'I' for Inactive)
DOCKED: REMARK    1  A    between atoms: C_2  and  C_19 
DOCKED: REMARK    2  A    between atoms: C_2  and  C_11 
DOCKED: REMARK    3  A    between atoms: C_19  and  C_20 
DOCKED: REMARK    4  A    between atoms: C_20  and  C_21 
DOCKED: REMARK    5  A    between atoms: C_21  and  N_22 
DOCKED: USER                              x       y       z     vdW  Elec       q    Type
DOCKED: USER                           _______ _______ _______ _____ _____    ______ ____
DOCKED: ROOT
DOCKED: ATOM      1  O   UNL     1     -41.810 -21.828   8.197 -0.02 -0.00    -0.346 OA 
DOCKED: ATOM      2  C   UNL     1     -41.103 -23.109   8.181 -0.18 +0.00    +0.130 C  
DOCKED: ATOM      3  C   UNL     1     -41.483 -23.712   6.859 -0.32 +0.00    +0.004 A  
DOCKED: ATOM      4  C   UNL     1     -42.249 -22.808   6.136 -0.32 +0.00    +0.006 A  
DOCKED: ATOM      5  C   UNL     1     -42.416 -21.559   6.912 -0.20 +0.00    +0.169 C  
DOCKED: ATOM      6  C   UNL     1     -41.166 -24.956   6.334 -0.42 -0.00    -0.001 A  
DOCKED: ATOM      7  C   UNL     1     -42.726 -23.116   4.873 -0.14 +0.00    +0.008 A  
DOCKED: ATOM      8  C   UNL     1     -41.643 -25.283   5.063 -0.41 +0.00    +0.010 A  
DOCKED: ATOM      9  C   UNL     1     -42.418 -24.367   4.337 -0.43 +0.00    +0.068 A  
DOCKED: ATOM     10  N   UNL     1     -43.284 -25.003   1.979 -2.34 -0.00    -0.191 NA 
DOCKED: ATOM     11  C   UNL     1     -42.896 -24.718   3.037 -0.49 +0.00    +0.101 C  
DOCKED: ENDROOT
DOCKED: BRANCH   2  12
DOCKED: ATOM     12  C   UNL     1     -39.609 -22.837   8.301 -0.23 +0.00    +0.038 C  
DOCKED: BRANCH  12  13
DOCKED: ATOM     13  C   UNL     1     -39.328 -21.350   8.506 -0.14 +0.00    +0.038 C  
DOCKED: BRANCH  13  14
DOCKED: ATOM     14  C   UNL     1     -38.488 -20.787   7.361 -0.02 +0.00    +0.251 C  
DOCKED: BRANCH  14  15
DOCKED: ATOM     15  N   UNL     1     -39.269 -19.836   6.578 -0.14 +0.00    +0.141 N  
DOCKED: ATOM     16  C   UNL     1     -40.107 -19.015   7.452 -0.07 +0.00    +0.285 C  
DOCKED: ATOM     17  C   UNL     1     -38.390 -18.987   5.773 -0.10 +0.00    +0.285 C  
DOCKED: ENDBRANCH  14  15
DOCKED: ENDBRANCH  13  14
DOCKED: ENDBRANCH  12  13
DOCKED: ENDBRANCH   2  12
DOCKED: BRANCH   2  18
DOCKED: ATOM     18  C   UNL     1     -41.603 -23.898   9.345 -0.16 +0.00    +0.006 A  
DOCKED: ATOM     19  C   UNL     1     -42.913 -23.728   9.790 -0.11 +0.00    +0.001 A  
DOCKED: ATOM     20  C   UNL     1     -43.379 -24.466  10.879 -0.12 +0.00    +0.029 A  
DOCKED: ATOM     21  C   UNL     1     -42.535 -25.373  11.520 -0.08 +0.00    +0.140 A  
DOCKED: ATOM     22  C   UNL     1     -41.225 -25.542  11.073 -0.22 +0.00    +0.029 A  
DOCKED: ATOM     23  F   UNL     1     -42.983 -26.082  12.563 -0.04 -0.00    -0.204 F  
DOCKED: ATOM     24  C   UNL     1     -40.758 -24.804   9.984 -0.13 +0.00    +0.001 A  
DOCKED: ENDBRANCH   2  18
DOCKED: TORSDOF 5
DOCKED: TER
DOCKED: ENDMDL
________________________________________________________________________________


    FINAL DOCKED STATE:
    ________________________


Run:   106 / 512
Time taken for this run:   0.002s

DOCKED: MODEL        106
DOCKED: USER    Run = 106
DOCKED: USER
DOCKED: USER    Estimated Free Energy of Binding    =  -4.36 kcal/mol  [=(1)+(2)+(3)-(4)]
DOCKED: USER
DOCKED: USER    (1) Final Intermolecular Energy     =  -5.85 kcal/mol
DOCKED: USER        vdW + Hbond + desolv Energy     =  -5.85 kcal/mol
DOCKED: USER        Electrostatic Energy            =  +0.00 kcal/mol
DOCKED: USER        Moving Ligand-Fixed Receptor    =  -5.85 kcal/mol
DOCKED: USER        Moving Ligand-Moving Receptor   =  +0.00 kcal/mol
DOCKED: USER    (2) Final Total Internal Energy     =  -1.28 kcal/mol
DOCKED: USER    (3) Torsional Free Energy           =  +1.49 kcal/mol
DOCKED: USER    (4) Unbound System's Energy         =  -1.28 kcal/mol
DOCKED: USER
DOCKED: USER
DOCKED: REMARK  5 active torsions:
DOCKED: REMARK  status: ('A' for Active; 'I' for Inactive)
DOCKED: REMARK    1  A    between atoms: C_2  and  C_19 
DOCKED: REMARK    2  A    between atoms: C_2  and  C_11 
DOCKED: REMARK    3  A    between atoms: C_19  and  C_20 
DOCKED: REMARK    4  A    between atoms: C_20  and  C_21 
DOCKED: REMARK    5  A    between atoms: C_21  and  N_22 
DOCKED: USER                              x       y       z     vdW  Elec       q    Type
DOCKED: USER                           _______ _______ _______ _____ _____    ______ ____
DOCKED: ROOT
DOCKED: ATOM      1  O   UNL     1     -38.098 -22.118   8.585 -0.09 -0.00    -0.346 OA 
DOCKED: ATOM      2  C   UNL     1     -39.134 -21.165   8.186 -0.12 +0.00    +0.130 C  
DOCKED: ATOM      3  C   UNL     1     -40.162 -22.018   7.500 -0.20 +0.00    +0.004 A  
DOCKED: ATOM      4  C   UNL     1     -39.800 -23.354   7.596 -0.22 +0.00    +0.006 A  
DOCKED: ATOM      5  C   UNL     1     -38.533 -23.478   8.351 -0.10 +0.00    +0.169 C  
DOCKED: ATOM      6  C   UNL     1     -41.331 -21.642   6.853 -0.26 -0.00    -0.001 A  
DOCKED: ATOM      7  C   UNL     1     -40.585 -24.354   7.048 -0.35 +0.00    +0.008 A  
DOCKED: ATOM      8  C   UNL     1     -42.131 -22.638   6.292 -0.31 +0.00    +0.010 A  
DOCKED: ATOM      9  C   UNL     1     -41.760 -23.988   6.390 -0.31 +0.00    +0.068 A  
DOCKED: ATOM     10  N   UNL     1     -43.270 -25.813   5.341 -2.55 -0.00    -0.191 NA 
DOCKED: ATOM     11  C   UNL     1     -42.592 -24.995   5.811 -0.36 +0.00    +0.101 C  
DOCKED: ENDROOT
DOCKED: BRANCH   2  12
DOCKED: ATOM     12  C   UNL     1     -39.670 -20.482   9.438 -0.05 +0.00    +0.038 C  
DOCKED: BRANCH  12  13
DOCKED: ATOM     13  C   UNL     1     -39.465 -21.351  10.678 -0.04 +0.00    +0.038 C  
DOCKED: BRANCH  13  14
DOCKED: ATOM     14  C   UNL     1     -40.649 -22.293  10.890 -0.03 +0.00    +0.251 C  
DOCKED: BRANCH  14  15
DOCKED: ATOM     15  N   UNL     1     -40.298 -23.344  11.837 -0.05 +0.00    +0.141 N  
DOCKED: ATOM     16  C   UNL     1     -41.020 -24.579  11.528 -0.11 +0.00    +0.285 C  
DOCKED: ATOM     17  C   UNL     1     -38.854 -23.585  11.827 -0.06 +0.00    +0.285 C  
DOCKED: ENDBRANCH  14  15
DOCKED: ENDBRANCH  13  14
DOCKED: ENDBRANCH  12  13
DOCKED: ENDBRANCH   2  12
DOCKED: BRANCH   2  18
DOCKED: ATOM     18  C   UNL     1     -38.491 -20.179   7.269 -0.13 +0.00    +0.006 A  
DOCKED: ATOM     19  C   UNL     1     -37.112 -20.214   7.066 -0.10 +0.00    +0.001 A  
DOCKED: ATOM     20  C   UNL     1     -36.511 -19.292   6.208 -0.09 +0.00    +0.029 A  
DOCKED: ATOM     21  C   UNL     1     -37.289 -18.337   5.555 -0.06 +0.00    +0.140 A  
DOCKED: ATOM     22  C   UNL     1     -38.669 -18.304   5.758 -0.11 +0.00    +0.029 A  
DOCKED: ATOM     23  F   UNL     1     -36.713 -17.453   4.730 -0.00 -0.00    -0.204 F  
DOCKED: ATOM     24  C   UNL     1     -39.270 -19.226   6.616 -0.15 +0.00    +0.001 A  
DOCKED: ENDBRANCH   2  18
DOCKED: TORSDOF 5
DOCKED: TER
DOCKED: ENDMDL
________________________________________________________________________________


    FINAL DOCKED STATE:
    ________________________


Run:   107 / 512
Time taken for this run:   0.002s

DOCKED: MODEL        107
DOCKED: USER    Run = 107
DOCKED: USER
DOCKED: USER    Estimated Free Energy of Binding    =  -3.70 kcal/mol  [=(1)+(2)+(3)-(4)]
DOCKED: USER
DOCKED: USER    (1) Final Intermolecular Energy     =  -5.19 kcal/mol
DOCKED: USER        vdW + Hbond + desolv Energy     =  -5.19 kcal/mol
DOCKED: USER        Electrostatic Energy            =  +0.00 kcal/mol
DOCKED: USER        Moving Ligand-Fixed Receptor    =  -5.19 kcal/mol
DOCKED: USER        Moving Ligand-Moving Receptor   =  +0.00 kcal/mol
DOCKED: USER    (2) Final Total Internal Energy     =  -1.31 kcal/mol
DOCKED: USER    (3) Torsional Free Energy           =  +1.49 kcal/mol
DOCKED: USER    (4) Unbound System's Energy         =  -1.31 kcal/mol
DOCKED: USER
DOCKED: USER
DOCKED: REMARK  5 active torsions:
DOCKED: REMARK  status: ('A' for Active; 'I' for Inactive)
DOCKED: REMARK    1  A    between atoms: C_2  and  C_19 
DOCKED: REMARK    2  A    between atoms: C_2  and  C_11 
DOCKED: REMARK    3  A    between atoms: C_19  and  C_20 
DOCKED: REMARK    4  A    between atoms: C_20  and  C_21 
DOCKED: REMARK    5  A    between atoms: C_21  and  N_22 
DOCKED: USER                              x       y       z     vdW  Elec       q    Type
DOCKED: USER                           _______ _______ _______ _____ _____    ______ ____
DOCKED: ROOT
DOCKED: ATOM      1  O   UNL     1     -33.660 -13.246  -3.101 +0.01 -0.00    -0.346 OA 
DOCKED: ATOM      2  C   UNL     1     -34.497 -13.675  -1.979 -0.04 +0.00    +0.130 C  
DOCKED: ATOM      3  C   UNL     1     -35.899 -13.498  -2.488 -0.11 +0.00    +0.004 A  
DOCKED: ATOM      4  C   UNL     1     -35.866 -13.107  -3.819 -0.11 +0.00    +0.006 A  
DOCKED: ATOM      5  C   UNL     1     -34.463 -13.014  -4.281 -0.03 +0.00    +0.169 C  
DOCKED: ATOM      6  C   UNL     1     -37.106 -13.678  -1.828 -0.17 -0.00    -0.001 A  
DOCKED: ATOM      7  C   UNL     1     -37.031 -12.881  -4.532 -0.23 +0.00    +0.008 A  
DOCKED: ATOM      8  C   UNL     1     -38.289 -13.449  -2.532 -0.29 +0.00    +0.010 A  
DOCKED: ATOM      9  C   UNL     1     -38.252 -13.053  -3.878 -0.32 +0.00    +0.068 A  
DOCKED: ATOM     10  N   UNL     1     -40.467 -12.642  -5.157 -2.55 -0.00    -0.191 NA 
DOCKED: ATOM     11  C   UNL     1     -39.473 -12.826  -4.583 -0.42 +0.00    +0.101 C  
DOCKED: ENDROOT
DOCKED: BRANCH   2  12
DOCKED: ATOM     12  C   UNL     1     -34.163 -15.127  -1.655 -0.02 +0.00    +0.038 C  
DOCKED: BRANCH  12  13
DOCKED: ATOM     13  C   UNL     1     -34.397 -16.035  -2.861 -0.02 +0.00    +0.038 C  
DOCKED: BRANCH  13  14
DOCKED: ATOM     14  C   UNL     1     -35.315 -17.201  -2.501 -0.03 +0.00    +0.251 C  
DOCKED: BRANCH  14  15
DOCKED: ATOM     15  N   UNL     1     -36.067 -17.635  -3.672 -0.12 +0.00    +0.141 N  
DOCKED: ATOM     16  C   UNL     1     -37.200 -18.474  -3.276 -0.12 +0.00    +0.285 C  
DOCKED: ATOM     17  C   UNL     1     -36.536 -16.481  -4.441 -0.09 +0.00    +0.285 C  
DOCKED: ENDBRANCH  14  15
DOCKED: ENDBRANCH  13  14
DOCKED: ENDBRANCH  12  13
DOCKED: ENDBRANCH   2  12
DOCKED: BRANCH   2  18
DOCKED: ATOM     18  C   UNL     1     -34.178 -12.780  -0.829 -0.08 +0.00    +0.006 A  
DOCKED: ATOM     19  C   UNL     1     -33.682 -13.319   0.357 -0.07 +0.00    +0.001 A  
DOCKED: ATOM     20  C   UNL     1     -33.384 -12.481   1.432 -0.07 +0.00    +0.029 A  
DOCKED: ATOM     21  C   UNL     1     -33.582 -11.106   1.320 -0.06 +0.00    +0.140 A  
DOCKED: ATOM     22  C   UNL     1     -34.078 -10.567   0.133 -0.10 +0.00    +0.029 A  
DOCKED: ATOM     23  F   UNL     1     -33.295 -10.301   2.351 -0.03 -0.00    -0.204 F  
DOCKED: ATOM     24  C   UNL     1     -34.377 -11.405  -0.943 -0.11 +0.00    +0.001 A  
DOCKED: ENDBRANCH   2  18
DOCKED: TORSDOF 5
DOCKED: TER
DOCKED: ENDMDL
________________________________________________________________________________


    FINAL DOCKED STATE:
    ________________________


Run:   108 / 512
Time taken for this run:   0.002s

DOCKED: MODEL        108
DOCKED: USER    Run = 108
DOCKED: USER
DOCKED: USER    Estimated Free Energy of Binding    =  -3.83 kcal/mol  [=(1)+(2)+(3)-(4)]
DOCKED: USER
DOCKED: USER    (1) Final Intermolecular Energy     =  -5.32 kcal/mol
DOCKED: USER        vdW + Hbond + desolv Energy     =  -5.32 kcal/mol
DOCKED: USER        Electrostatic Energy            =  +0.00 kcal/mol
DOCKED: USER        Moving Ligand-Fixed Receptor    =  -5.32 kcal/mol
DOCKED: USER        Moving Ligand-Moving Receptor   =  +0.00 kcal/mol
DOCKED: USER    (2) Final Total Internal Energy     =  -1.46 kcal/mol
DOCKED: USER    (3) Torsional Free Energy           =  +1.49 kcal/mol
DOCKED: USER    (4) Unbound System's Energy         =  -1.46 kcal/mol
DOCKED: USER
DOCKED: USER
DOCKED: REMARK  5 active torsions:
DOCKED: REMARK  status: ('A' for Active; 'I' for Inactive)
DOCKED: REMARK    1  A    between atoms: C_2  and  C_19 
DOCKED: REMARK    2  A    between atoms: C_2  and  C_11 
DOCKED: REMARK    3  A    between atoms: C_19  and  C_20 
DOCKED: REMARK    4  A    between atoms: C_20  and  C_21 
DOCKED: REMARK    5  A    between atoms: C_21  and  N_22 
DOCKED: USER                              x       y       z     vdW  Elec       q    Type
DOCKED: USER                           _______ _______ _______ _____ _____    ______ ____
DOCKED: ROOT
DOCKED: ATOM      1  O   UNL     1     -34.061 -11.111  -3.574 -0.02 -0.00    -0.346 OA 
DOCKED: ATOM      2  C   UNL     1     -34.497 -11.926  -2.439 -0.06 +0.00    +0.130 C  
DOCKED: ATOM      3  C   UNL     1     -35.924 -12.261  -2.764 -0.16 +0.00    +0.004 A  
DOCKED: ATOM      4  C   UNL     1     -36.243 -11.774  -4.024 -0.11 +0.00    +0.006 A  
DOCKED: ATOM      5  C   UNL     1     -35.063 -11.105  -4.617 -0.11 +0.00    +0.169 C  
DOCKED: ATOM      6  C   UNL     1     -36.861 -12.951  -2.010 -0.16 -0.00    -0.001 A  
DOCKED: ATOM      7  C   UNL     1     -37.502 -11.955  -4.569 -0.27 +0.00    +0.008 A  
DOCKED: ATOM      8  C   UNL     1     -38.138 -13.138  -2.543 -0.27 +0.00    +0.010 A  
DOCKED: ATOM      9  C   UNL     1     -38.456 -12.642  -3.817 -0.36 +0.00    +0.068 A  
DOCKED: ATOM     10  N   UNL     1     -40.833 -13.010  -4.780 -2.49 -0.00    -0.191 NA 
DOCKED: ATOM     11  C   UNL     1     -39.767 -12.845  -4.347 -0.37 +0.00    +0.101 C  
DOCKED: ENDROOT
DOCKED: BRANCH   2  12
DOCKED: ATOM     12  C   UNL     1     -33.602 -13.157  -2.358 -0.03 +0.00    +0.038 C  
DOCKED: BRANCH  12  13
DOCKED: ATOM     13  C   UNL     1     -33.937 -14.163  -3.458 -0.02 +0.00    +0.038 C  
DOCKED: BRANCH  13  14
DOCKED: ATOM     14  C   UNL     1     -34.605 -15.408  -2.879 -0.01 +0.00    +0.251 C  
DOCKED: BRANCH  14  15
DOCKED: ATOM     15  N   UNL     1     -35.533 -15.983  -3.847 -0.06 +0.00    +0.141 N  
DOCKED: ATOM     16  C   UNL     1     -36.847 -16.194  -3.239 -0.11 +0.00    +0.285 C  
DOCKED: ATOM     17  C   UNL     1     -35.650 -15.120  -5.024 -0.06 +0.00    +0.285 C  
DOCKED: ENDBRANCH  14  15
DOCKED: ENDBRANCH  13  14
DOCKED: ENDBRANCH  12  13
DOCKED: ENDBRANCH   2  12
DOCKED: BRANCH   2  18
DOCKED: ATOM     18  C   UNL     1     -34.361 -11.081  -1.217 -0.11 +0.00    +0.006 A  
DOCKED: ATOM     19  C   UNL     1     -35.155  -9.945  -1.064 -0.17 +0.00    +0.001 A  
DOCKED: ATOM     20  C   UNL     1     -35.028  -9.155   0.079 -0.14 +0.00    +0.029 A  
DOCKED: ATOM     21  C   UNL     1     -34.107  -9.502   1.067 -0.06 +0.00    +0.140 A  
DOCKED: ATOM     22  C   UNL     1     -33.313 -10.638   0.913 -0.07 +0.00    +0.029 A  
DOCKED: ATOM     23  F   UNL     1     -33.986  -8.745   2.165 -0.03 -0.00    -0.204 F  
DOCKED: ATOM     24  C   UNL     1     -33.440 -11.429  -0.230 -0.07 +0.00    +0.001 A  
DOCKED: ENDBRANCH   2  18
DOCKED: TORSDOF 5
DOCKED: TER
DOCKED: ENDMDL
________________________________________________________________________________


    FINAL DOCKED STATE:
    ________________________


Run:   109 / 512
Time taken for this run:   0.002s

DOCKED: MODEL        109
DOCKED: USER    Run = 109
DOCKED: USER
DOCKED: USER    Estimated Free Energy of Binding    =  -4.20 kcal/mol  [=(1)+(2)+(3)-(4)]
DOCKED: USER
DOCKED: USER    (1) Final Intermolecular Energy     =  -5.69 kcal/mol
DOCKED: USER        vdW + Hbond + desolv Energy     =  -5.69 kcal/mol
DOCKED: USER        Electrostatic Energy            =  +0.00 kcal/mol
DOCKED: USER        Moving Ligand-Fixed Receptor    =  -5.69 kcal/mol
DOCKED: USER        Moving Ligand-Moving Receptor   =  +0.00 kcal/mol
DOCKED: USER    (2) Final Total Internal Energy     =  -1.31 kcal/mol
DOCKED: USER    (3) Torsional Free Energy           =  +1.49 kcal/mol
DOCKED: USER    (4) Unbound System's Energy         =  -1.31 kcal/mol
DOCKED: USER
DOCKED: USER
DOCKED: REMARK  5 active torsions:
DOCKED: REMARK  status: ('A' for Active; 'I' for Inactive)
DOCKED: REMARK    1  A    between atoms: C_2  and  C_19 
DOCKED: REMARK    2  A    between atoms: C_2  and  C_11 
DOCKED: REMARK    3  A    between atoms: C_19  and  C_20 
DOCKED: REMARK    4  A    between atoms: C_20  and  C_21 
DOCKED: REMARK    5  A    between atoms: C_21  and  N_22 
DOCKED: USER                              x       y       z     vdW  Elec       q    Type
DOCKED: USER                           _______ _______ _______ _____ _____    ______ ____
DOCKED: ROOT
DOCKED: ATOM      1  O   UNL     1     -43.142 -22.026   8.745 -0.00 -0.00    -0.346 OA 
DOCKED: ATOM      2  C   UNL     1     -41.900 -22.785   8.584 -0.10 +0.00    +0.130 C  
DOCKED: ATOM      3  C   UNL     1     -42.024 -23.389   7.215 -0.24 +0.00    +0.004 A  
DOCKED: ATOM      4  C   UNL     1     -43.181 -22.928   6.604 -0.25 +0.00    +0.006 A  
DOCKED: ATOM      5  C   UNL     1     -43.887 -21.991   7.506 -0.14 +0.00    +0.169 C  
DOCKED: ATOM      6  C   UNL     1     -41.174 -24.268   6.559 -0.37 -0.00    -0.001 A  
DOCKED: ATOM      7  C   UNL     1     -43.529 -23.330   5.325 -0.17 +0.00    +0.008 A  
DOCKED: ATOM      8  C   UNL     1     -41.513 -24.686   5.272 -0.35 +0.00    +0.010 A  
DOCKED: ATOM      9  C   UNL     1     -42.685 -24.219   4.658 -0.40 +0.00    +0.068 A  
DOCKED: ATOM     10  N   UNL     1     -43.284 -25.010   2.264 -2.08 -0.00    -0.191 NA 
DOCKED: ATOM     11  C   UNL     1     -43.016 -24.655   3.338 -0.48 +0.00    +0.101 C  
DOCKED: ENDROOT
DOCKED: BRANCH   2  12
DOCKED: ATOM     12  C   UNL     1     -40.726 -21.820   8.703 -0.12 +0.00    +0.038 C  
DOCKED: BRANCH  12  13
DOCKED: ATOM     13  C   UNL     1     -41.138 -20.526   9.403 -0.05 +0.00    +0.038 C  
DOCKED: BRANCH  13  14
DOCKED: ATOM     14  C   UNL     1     -41.497 -20.783  10.865 -0.00 +0.00    +0.251 C  
DOCKED: BRANCH  14  15
DOCKED: ATOM     15  N   UNL     1     -40.318 -20.636  11.710 -0.00 +0.00    +0.141 N  
DOCKED: ATOM     16  C   UNL     1     -40.469 -19.494  12.613 +0.00 +0.00    +0.285 C  
DOCKED: ATOM     17  C   UNL     1     -40.077 -21.860  12.476 -0.01 +0.00    +0.285 C  
DOCKED: ENDBRANCH  14  15
DOCKED: ENDBRANCH  13  14
DOCKED: ENDBRANCH  12  13
DOCKED: ENDBRANCH   2  12
DOCKED: BRANCH   2  18
DOCKED: ATOM     18  C   UNL     1     -41.869 -23.807   9.671 -0.14 +0.00    +0.006 A  
DOCKED: ATOM     19  C   UNL     1     -43.053 -24.192  10.299 -0.13 +0.00    +0.001 A  
DOCKED: ATOM     20  C   UNL     1     -43.023 -25.147  11.315 -0.12 +0.00    +0.029 A  
DOCKED: ATOM     21  C   UNL     1     -41.810 -25.717  11.701 -0.10 +0.00    +0.140 A  
DOCKED: ATOM     22  C   UNL     1     -40.627 -25.332  11.071 -0.19 +0.00    +0.029 A  
DOCKED: ATOM     23  F   UNL     1     -41.782 -26.636  12.675 -0.06 -0.00    -0.204 F  
DOCKED: ATOM     24  C   UNL     1     -40.656 -24.376  10.055 -0.17 +0.00    +0.001 A  
DOCKED: ENDBRANCH   2  18
DOCKED: TORSDOF 5
DOCKED: TER
DOCKED: ENDMDL
________________________________________________________________________________


    FINAL DOCKED STATE:
    ________________________


Run:   110 / 512
Time taken for this run:   0.002s

DOCKED: MODEL        110
DOCKED: USER    Run = 110
DOCKED: USER
DOCKED: USER    Estimated Free Energy of Binding    =  -3.91 kcal/mol  [=(1)+(2)+(3)-(4)]
DOCKED: USER
DOCKED: USER    (1) Final Intermolecular Energy     =  -5.41 kcal/mol
DOCKED: USER        vdW + Hbond + desolv Energy     =  -5.41 kcal/mol
DOCKED: USER        Electrostatic Energy            =  +0.00 kcal/mol
DOCKED: USER        Moving Ligand-Fixed Receptor    =  -5.41 kcal/mol
DOCKED: USER        Moving Ligand-Moving Receptor   =  +0.00 kcal/mol
DOCKED: USER    (2) Final Total Internal Energy     =  -1.29 kcal/mol
DOCKED: USER    (3) Torsional Free Energy           =  +1.49 kcal/mol
DOCKED: USER    (4) Unbound System's Energy         =  -1.29 kcal/mol
DOCKED: USER
DOCKED: USER
DOCKED: REMARK  5 active torsions:
DOCKED: REMARK  status: ('A' for Active; 'I' for Inactive)
DOCKED: REMARK    1  A    between atoms: C_2  and  C_19 
DOCKED: REMARK    2  A    between atoms: C_2  and  C_11 
DOCKED: REMARK    3  A    between atoms: C_19  and  C_20 
DOCKED: REMARK    4  A    between atoms: C_20  and  C_21 
DOCKED: REMARK    5  A    between atoms: C_21  and  N_22 
DOCKED: USER                              x       y       z     vdW  Elec       q    Type
DOCKED: USER                           _______ _______ _______ _____ _____    ______ ____
DOCKED: ROOT
DOCKED: ATOM      1  O   UNL     1     -42.615 -20.391   9.540 -0.00 -0.00    -0.346 OA 
DOCKED: ATOM      2  C   UNL     1     -41.913 -20.060   8.299 -0.08 +0.00    +0.130 C  
DOCKED: ATOM      3  C   UNL     1     -42.008 -21.319   7.486 -0.18 +0.00    +0.004 A  
DOCKED: ATOM      4  C   UNL     1     -42.789 -22.250   8.156 -0.12 +0.00    +0.006 A  
DOCKED: ATOM      5  C   UNL     1     -43.270 -21.676   9.433 -0.03 +0.00    +0.169 C  
DOCKED: ATOM      6  C   UNL     1     -41.456 -21.613   6.248 -0.28 -0.00    -0.001 A  
DOCKED: ATOM      7  C   UNL     1     -43.041 -23.500   7.617 -0.17 +0.00    +0.008 A  
DOCKED: ATOM      8  C   UNL     1     -41.697 -22.871   5.693 -0.33 +0.00    +0.010 A  
DOCKED: ATOM      9  C   UNL     1     -42.486 -23.810   6.375 -0.27 +0.00    +0.068 A  
DOCKED: ATOM     10  N   UNL     1     -42.919 -26.134   5.315 -2.60 -0.00    -0.191 NA 
DOCKED: ATOM     11  C   UNL     1     -42.725 -25.092   5.791 -0.31 +0.00    +0.101 C  
DOCKED: ENDROOT
DOCKED: BRANCH   2  12
DOCKED: ATOM     12  C   UNL     1     -42.618 -18.878   7.645 -0.14 +0.00    +0.038 C  
DOCKED: BRANCH  12  13
DOCKED: ATOM     13  C   UNL     1     -43.480 -19.326   6.466 -0.23 +0.00    +0.038 C  
DOCKED: BRANCH  13  14
DOCKED: ATOM     14  C   UNL     1     -44.836 -18.622   6.478 -0.15 +0.00    +0.251 C  
DOCKED: BRANCH  14  15
DOCKED: ATOM     15  N   UNL     1     -45.793 -19.377   7.278 -0.16 +0.00    +0.141 N  
DOCKED: ATOM     16  C   UNL     1     -45.704 -20.806   6.975 -0.13 +0.00    +0.285 C  
DOCKED: ATOM     17  C   UNL     1     -45.566 -19.146   8.706 -0.02 +0.00    +0.285 C  
DOCKED: ENDBRANCH  14  15
DOCKED: ENDBRANCH  13  14
DOCKED: ENDBRANCH  12  13
DOCKED: ENDBRANCH   2  12
DOCKED: BRANCH   2  18
DOCKED: ATOM     18  C   UNL     1     -40.510 -19.712   8.670 -0.05 +0.00    +0.006 A  
DOCKED: ATOM     19  C   UNL     1     -39.753 -20.597   9.437 -0.05 +0.00    +0.001 A  
DOCKED: ATOM     20  C   UNL     1     -38.441 -20.269   9.784 -0.03 +0.00    +0.029 A  
DOCKED: ATOM     21  C   UNL     1     -37.890 -19.060   9.364 -0.01 +0.00    +0.140 A  
DOCKED: ATOM     22  C   UNL     1     -38.648 -18.176   8.596 -0.02 +0.00    +0.029 A  
DOCKED: ATOM     23  F   UNL     1     -36.630 -18.747   9.695 -0.00 -0.00    -0.204 F  
DOCKED: ATOM     24  C   UNL     1     -39.960 -18.502   8.249 -0.05 +0.00    +0.001 A  
DOCKED: ENDBRANCH   2  18
DOCKED: TORSDOF 5
DOCKED: TER
DOCKED: ENDMDL
________________________________________________________________________________


    FINAL DOCKED STATE:
    ________________________


Run:   111 / 512
Time taken for this run:   0.002s

DOCKED: MODEL        111
DOCKED: USER    Run = 111
DOCKED: USER
DOCKED: USER    Estimated Free Energy of Binding    =  -3.72 kcal/mol  [=(1)+(2)+(3)-(4)]
DOCKED: USER
DOCKED: USER    (1) Final Intermolecular Energy     =  -5.21 kcal/mol
DOCKED: USER        vdW + Hbond + desolv Energy     =  -5.21 kcal/mol
DOCKED: USER        Electrostatic Energy            =  +0.00 kcal/mol
DOCKED: USER        Moving Ligand-Fixed Receptor    =  -5.21 kcal/mol
DOCKED: USER        Moving Ligand-Moving Receptor   =  +0.00 kcal/mol
DOCKED: USER    (2) Final Total Internal Energy     =  -0.97 kcal/mol
DOCKED: USER    (3) Torsional Free Energy           =  +1.49 kcal/mol
DOCKED: USER    (4) Unbound System's Energy         =  -0.97 kcal/mol
DOCKED: USER
DOCKED: USER
DOCKED: REMARK  5 active torsions:
DOCKED: REMARK  status: ('A' for Active; 'I' for Inactive)
DOCKED: REMARK    1  A    between atoms: C_2  and  C_19 
DOCKED: REMARK    2  A    between atoms: C_2  and  C_11 
DOCKED: REMARK    3  A    between atoms: C_19  and  C_20 
DOCKED: REMARK    4  A    between atoms: C_20  and  C_21 
DOCKED: REMARK    5  A    between atoms: C_21  and  N_22 
DOCKED: USER                              x       y       z     vdW  Elec       q    Type
DOCKED: USER                           _______ _______ _______ _____ _____    ______ ____
DOCKED: ROOT
DOCKED: ATOM      1  O   UNL     1     -40.199 -19.643   7.392 -0.05 -0.00    -0.346 OA 
DOCKED: ATOM      2  C   UNL     1     -40.132 -20.546   8.541 -0.08 +0.00    +0.130 C  
DOCKED: ATOM      3  C   UNL     1     -40.742 -21.821   8.033 -0.16 +0.00    +0.004 A  
DOCKED: ATOM      4  C   UNL     1     -41.030 -21.694   6.682 -0.27 +0.00    +0.006 A  
DOCKED: ATOM      5  C   UNL     1     -40.626 -20.352   6.205 -0.12 +0.00    +0.169 C  
DOCKED: ATOM      6  C   UNL     1     -41.008 -23.001   8.711 -0.15 -0.00    -0.001 A  
DOCKED: ATOM      7  C   UNL     1     -41.596 -22.735   5.966 -0.33 +0.00    +0.008 A  
DOCKED: ATOM      8  C   UNL     1     -41.583 -24.059   8.003 -0.24 +0.00    +0.010 A  
DOCKED: ATOM      9  C   UNL     1     -41.875 -23.926   6.637 -0.28 +0.00    +0.068 A  
DOCKED: ATOM     10  N   UNL     1     -42.936 -25.910   5.353 -2.50 -0.00    -0.191 NA 
DOCKED: ATOM     11  C   UNL     1     -42.461 -25.020   5.929 -0.32 +0.00    +0.101 C  
DOCKED: ENDROOT
DOCKED: BRANCH   2  12
DOCKED: ATOM     12  C   UNL     1     -38.671 -20.706   8.944 -0.08 +0.00    +0.038 C  
DOCKED: BRANCH  12  13
DOCKED: ATOM     13  C   UNL     1     -38.155 -22.107   8.622 -0.17 +0.00    +0.038 C  
DOCKED: BRANCH  13  14
DOCKED: ATOM     14  C   UNL     1     -36.744 -22.052   8.040 -0.08 +0.00    +0.251 C  
DOCKED: BRANCH  14  15
DOCKED: ATOM     15  N   UNL     1     -35.892 -23.047   8.680 -0.12 +0.00    +0.141 N  
DOCKED: ATOM     16  C   UNL     1     -36.411 -23.397  10.003 -0.07 +0.00    +0.285 C  
DOCKED: ATOM     17  C   UNL     1     -35.780 -24.244   7.846 -0.13 +0.00    +0.285 C  
DOCKED: ENDBRANCH  14  15
DOCKED: ENDBRANCH  13  14
DOCKED: ENDBRANCH  12  13
DOCKED: ENDBRANCH   2  12
DOCKED: BRANCH   2  18
DOCKED: ATOM     18  C   UNL     1     -40.927 -19.917   9.637 -0.03 +0.00    +0.006 A  
DOCKED: ATOM     19  C   UNL     1     -42.299 -19.726   9.481 -0.03 +0.00    +0.001 A  
DOCKED: ATOM     20  C   UNL     1     -43.041 -19.138  10.506 -0.01 +0.00    +0.029 A  
DOCKED: ATOM     21  C   UNL     1     -42.411 -18.743  11.684 +0.00 +0.00    +0.140 A  
DOCKED: ATOM     22  C   UNL     1     -41.038 -18.934  11.840 +0.00 +0.00    +0.029 A  
DOCKED: ATOM     23  F   UNL     1     -43.124 -18.180  12.669 +0.00 -0.00    -0.204 F  
DOCKED: ATOM     24  C   UNL     1     -40.295 -19.522  10.815 -0.01 +0.00    +0.001 A  
DOCKED: ENDBRANCH   2  18
DOCKED: TORSDOF 5
DOCKED: TER
DOCKED: ENDMDL
________________________________________________________________________________


    FINAL DOCKED STATE:
    ________________________


Run:   112 / 512
Time taken for this run:   0.002s

DOCKED: MODEL        112
DOCKED: USER    Run = 112
DOCKED: USER
DOCKED: USER    Estimated Free Energy of Binding    =  -5.90 kcal/mol  [=(1)+(2)+(3)-(4)]
DOCKED: USER
DOCKED: USER    (1) Final Intermolecular Energy     =  -7.39 kcal/mol
DOCKED: USER        vdW + Hbond + desolv Energy     =  -7.39 kcal/mol
DOCKED: USER        Electrostatic Energy            =  +0.00 kcal/mol
DOCKED: USER        Moving Ligand-Fixed Receptor    =  -7.39 kcal/mol
DOCKED: USER        Moving Ligand-Moving Receptor   =  +0.00 kcal/mol
DOCKED: USER    (2) Final Total Internal Energy     =  -0.90 kcal/mol
DOCKED: USER    (3) Torsional Free Energy           =  +1.49 kcal/mol
DOCKED: USER    (4) Unbound System's Energy         =  -0.90 kcal/mol
DOCKED: USER
DOCKED: USER
DOCKED: REMARK  5 active torsions:
DOCKED: REMARK  status: ('A' for Active; 'I' for Inactive)
DOCKED: REMARK    1  A    between atoms: C_2  and  C_19 
DOCKED: REMARK    2  A    between atoms: C_2  and  C_11 
DOCKED: REMARK    3  A    between atoms: C_19  and  C_20 
DOCKED: REMARK    4  A    between atoms: C_20  and  C_21 
DOCKED: REMARK    5  A    between atoms: C_21  and  N_22 
DOCKED: USER                              x       y       z     vdW  Elec       q    Type
DOCKED: USER                           _______ _______ _______ _____ _____    ______ ____
DOCKED: ROOT
DOCKED: ATOM      1  O   UNL     1     -40.355 -25.519   7.971 -0.30 -0.00    -0.346 OA 
DOCKED: ATOM      2  C   UNL     1     -41.286 -24.401   8.129 -0.24 +0.00    +0.130 C  
DOCKED: ATOM      3  C   UNL     1     -41.837 -24.194   6.749 -0.33 +0.00    +0.004 A  
DOCKED: ATOM      4  C   UNL     1     -41.350 -25.177   5.899 -0.38 +0.00    +0.006 A  
DOCKED: ATOM      5  C   UNL     1     -40.465 -26.096   6.649 -0.07 +0.00    +0.169 C  
DOCKED: ATOM      6  C   UNL     1     -42.710 -23.221   6.284 -0.30 -0.00    -0.001 A  
DOCKED: ATOM      7  C   UNL     1     -41.712 -25.219   4.563 -0.32 +0.00    +0.008 A  
DOCKED: ATOM      8  C   UNL     1     -43.081 -23.247   4.939 -0.06 +0.00    +0.010 A  
DOCKED: ATOM      9  C   UNL     1     -42.584 -24.242   4.083 -0.44 +0.00    +0.068 A  
DOCKED: ATOM     10  N   UNL     1     -43.297 -24.265   1.592 -3.18 -0.00    -0.191 NA 
DOCKED: ATOM     11  C   UNL     1     -42.977 -24.254   2.709 -0.41 +0.00    +0.101 C  
DOCKED: ENDROOT
DOCKED: BRANCH   2  12
DOCKED: ATOM     12  C   UNL     1     -42.353 -24.801   9.141 -0.25 +0.00    +0.038 C  
DOCKED: BRANCH  12  13
DOCKED: ATOM     13  C   UNL     1     -43.525 -23.822   9.131 -0.14 +0.00    +0.038 C  
DOCKED: BRANCH  13  14
DOCKED: ATOM     14  C   UNL     1     -44.817 -24.507   9.570 -0.07 +0.00    +0.251 C  
DOCKED: BRANCH  14  15
DOCKED: ATOM     15  N   UNL     1     -44.622 -25.189  10.844 -0.11 +0.00    +0.141 N  
DOCKED: ATOM     16  C   UNL     1     -44.173 -24.247  11.870 -0.03 +0.00    +0.285 C  
DOCKED: ATOM     17  C   UNL     1     -45.857 -25.851  11.269 -0.08 +0.00    +0.285 C  
DOCKED: ENDBRANCH  14  15
DOCKED: ENDBRANCH  13  14
DOCKED: ENDBRANCH  12  13
DOCKED: ENDBRANCH   2  12
DOCKED: BRANCH   2  18
DOCKED: ATOM     18  C   UNL     1     -40.490 -23.236   8.618 -0.19 +0.00    +0.006 A  
DOCKED: ATOM     19  C   UNL     1     -39.496 -22.684   7.811 -0.16 +0.00    +0.001 A  
DOCKED: ATOM     20  C   UNL     1     -38.752 -21.596   8.269 -0.14 +0.00    +0.029 A  
DOCKED: ATOM     21  C   UNL     1     -39.004 -21.061   9.532 -0.04 +0.00    +0.140 A  
DOCKED: ATOM     22  C   UNL     1     -39.999 -21.613  10.338 -0.04 +0.00    +0.029 A  
DOCKED: ATOM     23  F   UNL     1     -38.292 -20.015   9.970 -0.00 -0.00    -0.204 F  
DOCKED: ATOM     24  C   UNL     1     -40.743 -22.702   9.881 -0.09 +0.00    +0.001 A  
DOCKED: ENDBRANCH   2  18
DOCKED: TORSDOF 5
DOCKED: TER
DOCKED: ENDMDL
________________________________________________________________________________


    FINAL DOCKED STATE:
    ________________________


Run:   113 / 512
Time taken for this run:   0.002s

DOCKED: MODEL        113
DOCKED: USER    Run = 113
DOCKED: USER
DOCKED: USER    Estimated Free Energy of Binding    =  -3.52 kcal/mol  [=(1)+(2)+(3)-(4)]
DOCKED: USER
DOCKED: USER    (1) Final Intermolecular Energy     =  -5.01 kcal/mol
DOCKED: USER        vdW + Hbond + desolv Energy     =  -5.01 kcal/mol
DOCKED: USER        Electrostatic Energy            =  +0.00 kcal/mol
DOCKED: USER        Moving Ligand-Fixed Receptor    =  -5.01 kcal/mol
DOCKED: USER        Moving Ligand-Moving Receptor   =  +0.00 kcal/mol
DOCKED: USER    (2) Final Total Internal Energy     =  -1.54 kcal/mol
DOCKED: USER    (3) Torsional Free Energy           =  +1.49 kcal/mol
DOCKED: USER    (4) Unbound System's Energy         =  -1.54 kcal/mol
DOCKED: USER
DOCKED: USER
DOCKED: REMARK  5 active torsions:
DOCKED: REMARK  status: ('A' for Active; 'I' for Inactive)
DOCKED: REMARK    1  A    between atoms: C_2  and  C_19 
DOCKED: REMARK    2  A    between atoms: C_2  and  C_11 
DOCKED: REMARK    3  A    between atoms: C_19  and  C_20 
DOCKED: REMARK    4  A    between atoms: C_20  and  C_21 
DOCKED: REMARK    5  A    between atoms: C_21  and  N_22 
DOCKED: USER                              x       y       z     vdW  Elec       q    Type
DOCKED: USER                           _______ _______ _______ _____ _____    ______ ____
DOCKED: ROOT
DOCKED: ATOM      1  O   UNL     1     -40.032 -19.811   7.248 -0.06 -0.00    -0.346 OA 
DOCKED: ATOM      2  C   UNL     1     -39.862 -20.765   8.344 -0.10 +0.00    +0.130 C  
DOCKED: ATOM      3  C   UNL     1     -40.592 -21.989   7.872 -0.19 +0.00    +0.004 A  
DOCKED: ATOM      4  C   UNL     1     -41.044 -21.792   6.575 -0.28 +0.00    +0.006 A  
DOCKED: ATOM      5  C   UNL     1     -40.640 -20.449   6.101 -0.10 +0.00    +0.169 C  
DOCKED: ATOM      6  C   UNL     1     -40.826 -23.186   8.533 -0.18 -0.00    -0.001 A  
DOCKED: ATOM      7  C   UNL     1     -41.746 -22.776   5.899 -0.34 +0.00    +0.008 A  
DOCKED: ATOM      8  C   UNL     1     -41.536 -24.186   7.867 -0.26 +0.00    +0.010 A  
DOCKED: ATOM      9  C   UNL     1     -41.993 -23.982   6.556 -0.28 +0.00    +0.068 A  
DOCKED: ATOM     10  N   UNL     1     -43.304 -25.861   5.346 -2.55 -0.00    -0.191 NA 
DOCKED: ATOM     11  C   UNL     1     -42.717 -25.018   5.889 -0.33 +0.00    +0.101 C  
DOCKED: ENDROOT
DOCKED: BRANCH   2  12
DOCKED: ATOM     12  C   UNL     1     -38.371 -21.005   8.549 -0.12 +0.00    +0.038 C  
DOCKED: BRANCH  12  13
DOCKED: ATOM     13  C   UNL     1     -37.533 -20.126   7.622 -0.11 +0.00    +0.038 C  
DOCKED: BRANCH  13  14
DOCKED: ATOM     14  C   UNL     1     -36.913 -18.957   8.385 -0.02 +0.00    +0.251 C  
DOCKED: BRANCH  14  15
DOCKED: ATOM     15  N   UNL     1     -37.956 -18.115   8.958 -0.01 +0.00    +0.141 N  
DOCKED: ATOM     16  C   UNL     1     -37.452 -17.393  10.127 -0.00 +0.00    +0.285 C  
DOCKED: ATOM     17  C   UNL     1     -38.465 -17.173   7.960 -0.01 +0.00    +0.285 C  
DOCKED: ENDBRANCH  14  15
DOCKED: ENDBRANCH  13  14
DOCKED: ENDBRANCH  12  13
DOCKED: ENDBRANCH   2  12
DOCKED: BRANCH   2  18
DOCKED: ATOM     18  C   UNL     1     -40.480 -20.151   9.556 -0.03 +0.00    +0.006 A  
DOCKED: ATOM     19  C   UNL     1     -40.318 -20.755  10.802 -0.02 +0.00    +0.001 A  
DOCKED: ATOM     20  C   UNL     1     -40.897 -20.180  11.935 -0.00 +0.00    +0.029 A  
DOCKED: ATOM     21  C   UNL     1     -41.634 -19.003  11.820 +0.00 +0.00    +0.140 A  
DOCKED: ATOM     22  C   UNL     1     -41.795 -18.399  10.573 -0.00 +0.00    +0.029 A  
DOCKED: ATOM     23  F   UNL     1     -42.188 -18.451  12.907 +0.00 -0.00    -0.204 F  
DOCKED: ATOM     24  C   UNL     1     -41.218 -18.974   9.439 -0.02 +0.00    +0.001 A  
DOCKED: ENDBRANCH   2  18
DOCKED: TORSDOF 5
DOCKED: TER
DOCKED: ENDMDL
________________________________________________________________________________


    FINAL DOCKED STATE:
    ________________________


Run:   114 / 512
Time taken for this run:   0.002s

DOCKED: MODEL        114
DOCKED: USER    Run = 114
DOCKED: USER
DOCKED: USER    Estimated Free Energy of Binding    =  -3.88 kcal/mol  [=(1)+(2)+(3)-(4)]
DOCKED: USER
DOCKED: USER    (1) Final Intermolecular Energy     =  -5.37 kcal/mol
DOCKED: USER        vdW + Hbond + desolv Energy     =  -5.37 kcal/mol
DOCKED: USER        Electrostatic Energy            =  +0.00 kcal/mol
DOCKED: USER        Moving Ligand-Fixed Receptor    =  -5.37 kcal/mol
DOCKED: USER        Moving Ligand-Moving Receptor   =  +0.00 kcal/mol
DOCKED: USER    (2) Final Total Internal Energy     =  -1.03 kcal/mol
DOCKED: USER    (3) Torsional Free Energy           =  +1.49 kcal/mol
DOCKED: USER    (4) Unbound System's Energy         =  -1.03 kcal/mol
DOCKED: USER
DOCKED: USER
DOCKED: REMARK  5 active torsions:
DOCKED: REMARK  status: ('A' for Active; 'I' for Inactive)
DOCKED: REMARK    1  A    between atoms: C_2  and  C_19 
DOCKED: REMARK    2  A    between atoms: C_2  and  C_11 
DOCKED: REMARK    3  A    between atoms: C_19  and  C_20 
DOCKED: REMARK    4  A    between atoms: C_20  and  C_21 
DOCKED: REMARK    5  A    between atoms: C_21  and  N_22 
DOCKED: USER                              x       y       z     vdW  Elec       q    Type
DOCKED: USER                           _______ _______ _______ _____ _____    ______ ____
DOCKED: ROOT
DOCKED: ATOM      1  O   UNL     1     -40.057 -24.201   7.371 -0.18 -0.00    -0.346 OA 
DOCKED: ATOM      2  C   UNL     1     -41.063 -23.274   7.892 -0.21 +0.00    +0.130 C  
DOCKED: ATOM      3  C   UNL     1     -42.296 -23.598   7.100 -0.25 +0.00    +0.004 A  
DOCKED: ATOM      4  C   UNL     1     -42.049 -24.688   6.277 -0.36 +0.00    +0.006 A  
DOCKED: ATOM      5  C   UNL     1     -40.661 -25.161   6.474 -0.35 +0.00    +0.169 C  
DOCKED: ATOM      6  C   UNL     1     -43.540 -22.985   7.114 -0.20 -0.00    -0.001 A  
DOCKED: ATOM      7  C   UNL     1     -43.029 -25.197   5.442 -0.38 +0.00    +0.008 A  
DOCKED: ATOM      8  C   UNL     1     -44.538 -23.484   6.275 -0.26 +0.00    +0.010 A  
DOCKED: ATOM      9  C   UNL     1     -44.283 -24.585   5.444 -0.29 +0.00    +0.068 A  
DOCKED: ATOM     10  N   UNL     1     -46.159 -25.489   3.902 -0.95 -0.00    -0.191 NA 
DOCKED: ATOM     11  C   UNL     1     -45.317 -25.083   4.593 -0.23 +0.00    +0.101 C  
DOCKED: ENDROOT
DOCKED: BRANCH   2  12
DOCKED: ATOM     12  C   UNL     1     -41.231 -23.533   9.385 -0.16 +0.00    +0.038 C  
DOCKED: BRANCH  12  13
DOCKED: ATOM     13  C   UNL     1     -41.577 -24.995   9.660 -0.27 +0.00    +0.038 C  
DOCKED: BRANCH  13  14
DOCKED: ATOM     14  C   UNL     1     -42.652 -25.112  10.738 -0.06 +0.00    +0.251 C  
DOCKED: BRANCH  14  15
DOCKED: ATOM     15  N   UNL     1     -42.062 -25.543  12.000 -0.15 +0.00    +0.141 N  
DOCKED: ATOM     16  C   UNL     1     -40.638 -25.835  11.830 -0.17 +0.00    +0.285 C  
DOCKED: ATOM     17  C   UNL     1     -42.251 -24.524  13.033 -0.04 +0.00    +0.285 C  
DOCKED: ENDBRANCH  14  15
DOCKED: ENDBRANCH  13  14
DOCKED: ENDBRANCH  12  13
DOCKED: ENDBRANCH   2  12
DOCKED: BRANCH   2  18
DOCKED: ATOM     18  C   UNL     1     -40.556 -21.893   7.640 -0.20 +0.00    +0.006 A  
DOCKED: ATOM     19  C   UNL     1     -39.820 -21.230   8.621 -0.11 +0.00    +0.001 A  
DOCKED: ATOM     20  C   UNL     1     -39.347 -19.939   8.384 -0.07 +0.00    +0.029 A  
DOCKED: ATOM     21  C   UNL     1     -39.609 -19.313   7.166 -0.10 +0.00    +0.140 A  
DOCKED: ATOM     22  C   UNL     1     -40.345 -19.977   6.185 -0.14 +0.00    +0.029 A  
DOCKED: ATOM     23  F   UNL     1     -39.153 -18.075   6.938 -0.01 -0.00    -0.204 F  
DOCKED: ATOM     24  C   UNL     1     -40.819 -21.268   6.421 -0.24 +0.00    +0.001 A  
DOCKED: ENDBRANCH   2  18
DOCKED: TORSDOF 5
DOCKED: TER
DOCKED: ENDMDL
________________________________________________________________________________


    FINAL DOCKED STATE:
    ________________________


Run:   115 / 512
Time taken for this run:   0.002s

DOCKED: MODEL        115
DOCKED: USER    Run = 115
DOCKED: USER
DOCKED: USER    Estimated Free Energy of Binding    =  -4.32 kcal/mol  [=(1)+(2)+(3)-(4)]
DOCKED: USER
DOCKED: USER    (1) Final Intermolecular Energy     =  -5.81 kcal/mol
DOCKED: USER        vdW + Hbond + desolv Energy     =  -5.81 kcal/mol
DOCKED: USER        Electrostatic Energy            =  +0.00 kcal/mol
DOCKED: USER        Moving Ligand-Fixed Receptor    =  -5.81 kcal/mol
DOCKED: USER        Moving Ligand-Moving Receptor   =  +0.00 kcal/mol
DOCKED: USER    (2) Final Total Internal Energy     =  -1.06 kcal/mol
DOCKED: USER    (3) Torsional Free Energy           =  +1.49 kcal/mol
DOCKED: USER    (4) Unbound System's Energy         =  -1.06 kcal/mol
DOCKED: USER
DOCKED: USER
DOCKED: REMARK  5 active torsions:
DOCKED: REMARK  status: ('A' for Active; 'I' for Inactive)
DOCKED: REMARK    1  A    between atoms: C_2  and  C_19 
DOCKED: REMARK    2  A    between atoms: C_2  and  C_11 
DOCKED: REMARK    3  A    between atoms: C_19  and  C_20 
DOCKED: REMARK    4  A    between atoms: C_20  and  C_21 
DOCKED: REMARK    5  A    between atoms: C_21  and  N_22 
DOCKED: USER                              x       y       z     vdW  Elec       q    Type
DOCKED: USER                           _______ _______ _______ _____ _____    ______ ____
DOCKED: ROOT
DOCKED: ATOM      1  O   UNL     1     -42.039 -24.529   9.207 -0.07 -0.00    -0.346 OA 
DOCKED: ATOM      2  C   UNL     1     -41.786 -23.186   8.684 -0.12 +0.00    +0.130 C  
DOCKED: ATOM      3  C   UNL     1     -42.032 -23.322   7.209 -0.24 +0.00    +0.004 A  
DOCKED: ATOM      4  C   UNL     1     -42.491 -24.601   6.929 -0.28 +0.00    +0.006 A  
DOCKED: ATOM      5  C   UNL     1     -42.593 -25.384   8.181 -0.14 +0.00    +0.169 C  
DOCKED: ATOM      6  C   UNL     1     -41.872 -22.386   6.198 -0.32 -0.00    -0.001 A  
DOCKED: ATOM      7  C   UNL     1     -42.801 -24.988   5.636 -0.39 +0.00    +0.008 A  
DOCKED: ATOM      8  C   UNL     1     -42.176 -22.762   4.889 -0.18 +0.00    +0.010 A  
DOCKED: ATOM      9  C   UNL     1     -42.638 -24.057   4.610 -0.39 +0.00    +0.068 A  
DOCKED: ATOM     10  N   UNL     1     -43.198 -24.721   2.169 -2.22 -0.00    -0.191 NA 
DOCKED: ATOM     11  C   UNL     1     -42.946 -24.424   3.263 -0.50 +0.00    +0.101 C  
DOCKED: ENDROOT
DOCKED: BRANCH   2  12
DOCKED: ATOM     12  C   UNL     1     -42.750 -22.216   9.359 -0.07 +0.00    +0.038 C  
DOCKED: BRANCH  12  13
DOCKED: ATOM     13  C   UNL     1     -42.564 -20.793   8.836 -0.07 +0.00    +0.038 C  
DOCKED: BRANCH  13  14
DOCKED: ATOM     14  C   UNL     1     -41.988 -19.881   9.918 -0.01 +0.00    +0.251 C  
DOCKED: BRANCH  14  15
DOCKED: ATOM     15  N   UNL     1     -41.877 -18.514   9.423 -0.01 +0.00    +0.141 N  
DOCKED: ATOM     16  C   UNL     1     -42.076 -18.473   7.973 -0.05 +0.00    +0.285 C  
DOCKED: ATOM     17  C   UNL     1     -42.843 -17.642  10.093 -0.00 +0.00    +0.285 C  
DOCKED: ENDBRANCH  14  15
DOCKED: ENDBRANCH  13  14
DOCKED: ENDBRANCH  12  13
DOCKED: ENDBRANCH   2  12
DOCKED: BRANCH   2  18
DOCKED: ATOM     18  C   UNL     1     -40.369 -22.850   9.009 -0.15 +0.00    +0.006 A  
DOCKED: ATOM     19  C   UNL     1     -39.402 -22.865   8.006 -0.21 +0.00    +0.001 A  
DOCKED: ATOM     20  C   UNL     1     -38.077 -22.552   8.311 -0.14 +0.00    +0.029 A  
DOCKED: ATOM     21  C   UNL     1     -37.722 -22.223   9.619 -0.08 +0.00    +0.140 A  
DOCKED: ATOM     22  C   UNL     1     -38.690 -22.208  10.622 -0.06 +0.00    +0.029 A  
DOCKED: ATOM     23  F   UNL     1     -36.450 -21.920   9.911 -0.01 -0.00    -0.204 F  
DOCKED: ATOM     24  C   UNL     1     -40.016 -22.522  10.318 -0.08 +0.00    +0.001 A  
DOCKED: ENDBRANCH   2  18
DOCKED: TORSDOF 5
DOCKED: TER
DOCKED: ENDMDL
________________________________________________________________________________


    FINAL DOCKED STATE:
    ________________________


Run:   116 / 512
Time taken for this run:   0.002s

DOCKED: MODEL        116
DOCKED: USER    Run = 116
DOCKED: USER
DOCKED: USER    Estimated Free Energy of Binding    =  -4.74 kcal/mol  [=(1)+(2)+(3)-(4)]
DOCKED: USER
DOCKED: USER    (1) Final Intermolecular Energy     =  -6.23 kcal/mol
DOCKED: USER        vdW + Hbond + desolv Energy     =  -6.23 kcal/mol
DOCKED: USER        Electrostatic Energy            =  +0.00 kcal/mol
DOCKED: USER        Moving Ligand-Fixed Receptor    =  -6.23 kcal/mol
DOCKED: USER        Moving Ligand-Moving Receptor   =  +0.00 kcal/mol
DOCKED: USER    (2) Final Total Internal Energy     =  -1.02 kcal/mol
DOCKED: USER    (3) Torsional Free Energy           =  +1.49 kcal/mol
DOCKED: USER    (4) Unbound System's Energy         =  -1.02 kcal/mol
DOCKED: USER
DOCKED: USER
DOCKED: REMARK  5 active torsions:
DOCKED: REMARK  status: ('A' for Active; 'I' for Inactive)
DOCKED: REMARK    1  A    between atoms: C_2  and  C_19 
DOCKED: REMARK    2  A    between atoms: C_2  and  C_11 
DOCKED: REMARK    3  A    between atoms: C_19  and  C_20 
DOCKED: REMARK    4  A    between atoms: C_20  and  C_21 
DOCKED: REMARK    5  A    between atoms: C_21  and  N_22 
DOCKED: USER                              x       y       z     vdW  Elec       q    Type
DOCKED: USER                           _______ _______ _______ _____ _____    ______ ____
DOCKED: ROOT
DOCKED: ATOM      1  O   UNL     1     -42.017 -24.166   8.904 -0.05 -0.00    -0.346 OA 
DOCKED: ATOM      2  C   UNL     1     -41.637 -22.905   8.264 -0.14 +0.00    +0.130 C  
DOCKED: ATOM      3  C   UNL     1     -41.929 -23.138   6.810 -0.29 +0.00    +0.004 A  
DOCKED: ATOM      4  C   UNL     1     -42.526 -24.380   6.646 -0.30 +0.00    +0.006 A  
DOCKED: ATOM      5  C   UNL     1     -42.681 -25.040   7.962 -0.19 +0.00    +0.169 C  
DOCKED: ATOM      6  C   UNL     1     -41.695 -22.312   5.720 -0.30 -0.00    -0.001 A  
DOCKED: ATOM      7  C   UNL     1     -42.904 -24.839   5.396 -0.42 +0.00    +0.008 A  
DOCKED: ATOM      8  C   UNL     1     -42.066 -22.762   4.452 +0.13 +0.00    +0.010 A  
DOCKED: ATOM      9  C   UNL     1     -42.668 -24.019   4.291 -0.40 +0.00    +0.068 A  
DOCKED: ATOM     10  N   UNL     1     -43.350 -24.822   1.924 -2.50 -0.00    -0.191 NA 
DOCKED: ATOM     11  C   UNL     1     -43.044 -24.462   2.986 -0.43 +0.00    +0.101 C  
DOCKED: ENDROOT
DOCKED: BRANCH   2  12
DOCKED: ATOM     12  C   UNL     1     -42.478 -21.786   8.866 -0.09 +0.00    +0.038 C  
DOCKED: BRANCH  12  13
DOCKED: ATOM     13  C   UNL     1     -43.458 -21.214   7.844 -0.16 +0.00    +0.038 C  
DOCKED: BRANCH  13  14
DOCKED: ATOM     14  C   UNL     1     -43.096 -19.776   7.479 -0.13 +0.00    +0.251 C  
DOCKED: BRANCH  14  15
DOCKED: ATOM     15  N   UNL     1     -44.284 -19.046   7.053 -0.18 +0.00    +0.141 N  
DOCKED: ATOM     16  C   UNL     1     -43.930 -18.001   6.092 -0.08 +0.00    +0.285 C  
DOCKED: ATOM     17  C   UNL     1     -45.269 -19.959   6.470 -0.02 +0.00    +0.285 C  
DOCKED: ENDBRANCH  14  15
DOCKED: ENDBRANCH  13  14
DOCKED: ENDBRANCH  12  13
DOCKED: ENDBRANCH   2  12
DOCKED: BRANCH   2  18
DOCKED: ATOM     18  C   UNL     1     -40.185 -22.696   8.540 -0.18 +0.00    +0.006 A  
DOCKED: ATOM     19  C   UNL     1     -39.258 -23.666   8.162 -0.15 +0.00    +0.001 A  
DOCKED: ATOM     20  C   UNL     1     -37.901 -23.470   8.421 -0.09 +0.00    +0.029 A  
DOCKED: ATOM     21  C   UNL     1     -37.473 -22.305   9.056 -0.11 +0.00    +0.140 A  
DOCKED: ATOM     22  C   UNL     1     -38.402 -21.335   9.433 -0.07 +0.00    +0.029 A  
DOCKED: ATOM     23  F   UNL     1     -36.170 -22.116   9.302 -0.01 -0.00    -0.204 F  
DOCKED: ATOM     24  C   UNL     1     -39.760 -21.531   9.175 -0.09 +0.00    +0.001 A  
DOCKED: ENDBRANCH   2  18
DOCKED: TORSDOF 5
DOCKED: TER
DOCKED: ENDMDL
________________________________________________________________________________


    FINAL DOCKED STATE:
    ________________________


Run:   117 / 512
Time taken for this run:   0.002s

DOCKED: MODEL        117
DOCKED: USER    Run = 117
DOCKED: USER
DOCKED: USER    Estimated Free Energy of Binding    =  -5.63 kcal/mol  [=(1)+(2)+(3)-(4)]
DOCKED: USER
DOCKED: USER    (1) Final Intermolecular Energy     =  -7.12 kcal/mol
DOCKED: USER        vdW + Hbond + desolv Energy     =  -7.12 kcal/mol
DOCKED: USER        Electrostatic Energy            =  +0.00 kcal/mol
DOCKED: USER        Moving Ligand-Fixed Receptor    =  -7.12 kcal/mol
DOCKED: USER        Moving Ligand-Moving Receptor   =  +0.00 kcal/mol
DOCKED: USER    (2) Final Total Internal Energy     =  -1.05 kcal/mol
DOCKED: USER    (3) Torsional Free Energy           =  +1.49 kcal/mol
DOCKED: USER    (4) Unbound System's Energy         =  -1.05 kcal/mol
DOCKED: USER
DOCKED: USER
DOCKED: REMARK  5 active torsions:
DOCKED: REMARK  status: ('A' for Active; 'I' for Inactive)
DOCKED: REMARK    1  A    between atoms: C_2  and  C_19 
DOCKED: REMARK    2  A    between atoms: C_2  and  C_11 
DOCKED: REMARK    3  A    between atoms: C_19  and  C_20 
DOCKED: REMARK    4  A    between atoms: C_20  and  C_21 
DOCKED: REMARK    5  A    between atoms: C_21  and  N_22 
DOCKED: USER                              x       y       z     vdW  Elec       q    Type
DOCKED: USER                           _______ _______ _______ _____ _____    ______ ____
DOCKED: ROOT
DOCKED: ATOM      1  O   UNL     1     -41.624 -21.919   7.876 -0.04 -0.00    -0.346 OA 
DOCKED: ATOM      2  C   UNL     1     -41.062 -23.270   7.881 -0.21 +0.00    +0.130 C  
DOCKED: ATOM      3  C   UNL     1     -41.484 -23.841   6.558 -0.34 +0.00    +0.004 A  
DOCKED: ATOM      4  C   UNL     1     -42.135 -22.865   5.816 -0.35 +0.00    +0.006 A  
DOCKED: ATOM      5  C   UNL     1     -42.177 -21.598   6.579 -0.23 +0.00    +0.169 C  
DOCKED: ATOM      6  C   UNL     1     -41.298 -25.117   6.048 -0.38 -0.00    -0.001 A  
DOCKED: ATOM      7  C   UNL     1     -42.623 -23.131   4.548 -0.10 +0.00    +0.008 A  
DOCKED: ATOM      8  C   UNL     1     -41.788 -25.402   4.772 -0.43 +0.00    +0.010 A  
DOCKED: ATOM      9  C   UNL     1     -42.447 -24.413   4.026 -0.44 +0.00    +0.068 A  
DOCKED: ATOM     10  N   UNL     1     -43.339 -24.974   1.659 -2.62 -0.00    -0.191 NA 
DOCKED: ATOM     11  C   UNL     1     -42.940 -24.722   2.721 -0.40 +0.00    +0.101 C  
DOCKED: ENDROOT
DOCKED: BRANCH   2  12
DOCKED: ATOM     12  C   UNL     1     -39.548 -23.163   8.025 -0.26 +0.00    +0.038 C  
DOCKED: BRANCH  12  13
DOCKED: ATOM     13  C   UNL     1     -39.127 -21.756   8.444 -0.16 +0.00    +0.038 C  
DOCKED: BRANCH  13  14
DOCKED: ATOM     14  C   UNL     1     -39.058 -20.821   7.238 -0.07 +0.00    +0.251 C  
DOCKED: BRANCH  14  15
DOCKED: ATOM     15  N   UNL     1     -37.699 -20.325   7.059 -0.09 +0.00    +0.141 N  
DOCKED: ATOM     16  C   UNL     1     -37.657 -18.869   7.208 -0.05 +0.00    +0.285 C  
DOCKED: ATOM     17  C   UNL     1     -36.788 -20.959   8.013 -0.07 +0.00    +0.285 C  
DOCKED: ENDBRANCH  14  15
DOCKED: ENDBRANCH  13  14
DOCKED: ENDBRANCH  12  13
DOCKED: ENDBRANCH   2  12
DOCKED: BRANCH   2  18
DOCKED: ATOM     18  C   UNL     1     -41.663 -23.989   9.043 -0.18 +0.00    +0.006 A  
DOCKED: ATOM     19  C   UNL     1     -43.027 -23.871   9.305 -0.13 +0.00    +0.001 A  
DOCKED: ATOM     20  C   UNL     1     -43.588 -24.543  10.392 -0.13 +0.00    +0.029 A  
DOCKED: ATOM     21  C   UNL     1     -42.785 -25.331  11.214 -0.03 +0.00    +0.140 A  
DOCKED: ATOM     22  C   UNL     1     -41.421 -25.449  10.951 -0.21 +0.00    +0.029 A  
DOCKED: ATOM     23  F   UNL     1     -43.324 -25.977  12.256 -0.03 -0.00    -0.204 F  
DOCKED: ATOM     24  C   UNL     1     -40.858 -24.777   9.865 -0.16 +0.00    +0.001 A  
DOCKED: ENDBRANCH   2  18
DOCKED: TORSDOF 5
DOCKED: TER
DOCKED: ENDMDL
________________________________________________________________________________


    FINAL DOCKED STATE:
    ________________________


Run:   118 / 512
Time taken for this run:   0.002s

DOCKED: MODEL        118
DOCKED: USER    Run = 118
DOCKED: USER
DOCKED: USER    Estimated Free Energy of Binding    =  -4.12 kcal/mol  [=(1)+(2)+(3)-(4)]
DOCKED: USER
DOCKED: USER    (1) Final Intermolecular Energy     =  -5.61 kcal/mol
DOCKED: USER        vdW + Hbond + desolv Energy     =  -5.61 kcal/mol
DOCKED: USER        Electrostatic Energy            =  +0.00 kcal/mol
DOCKED: USER        Moving Ligand-Fixed Receptor    =  -5.61 kcal/mol
DOCKED: USER        Moving Ligand-Moving Receptor   =  +0.00 kcal/mol
DOCKED: USER    (2) Final Total Internal Energy     =  -1.40 kcal/mol
DOCKED: USER    (3) Torsional Free Energy           =  +1.49 kcal/mol
DOCKED: USER    (4) Unbound System's Energy         =  -1.40 kcal/mol
DOCKED: USER
DOCKED: USER
DOCKED: REMARK  5 active torsions:
DOCKED: REMARK  status: ('A' for Active; 'I' for Inactive)
DOCKED: REMARK    1  A    between atoms: C_2  and  C_19 
DOCKED: REMARK    2  A    between atoms: C_2  and  C_11 
DOCKED: REMARK    3  A    between atoms: C_19  and  C_20 
DOCKED: REMARK    4  A    between atoms: C_20  and  C_21 
DOCKED: REMARK    5  A    between atoms: C_21  and  N_22 
DOCKED: USER                              x       y       z     vdW  Elec       q    Type
DOCKED: USER                           _______ _______ _______ _____ _____    ______ ____
DOCKED: ROOT
DOCKED: ATOM      1  O   UNL     1     -39.344 -22.268   9.603 -0.04 -0.00    -0.346 OA 
DOCKED: ATOM      2  C   UNL     1     -39.845 -21.353   8.577 -0.11 +0.00    +0.130 C  
DOCKED: ATOM      3  C   UNL     1     -40.611 -22.245   7.643 -0.21 +0.00    +0.004 A  
DOCKED: ATOM      4  C   UNL     1     -40.640 -23.536   8.149 -0.24 +0.00    +0.006 A  
DOCKED: ATOM      5  C   UNL     1     -39.917 -23.586   9.440 -0.11 +0.00    +0.169 C  
DOCKED: ATOM      6  C   UNL     1     -41.242 -21.935   6.447 -0.29 -0.00    -0.001 A  
DOCKED: ATOM      7  C   UNL     1     -41.292 -24.558   7.480 -0.33 +0.00    +0.008 A  
DOCKED: ATOM      8  C   UNL     1     -41.900 -22.955   5.758 -0.35 +0.00    +0.010 A  
DOCKED: ATOM      9  C   UNL     1     -41.925 -24.260   6.273 -0.32 +0.00    +0.068 A  
DOCKED: ATOM     10  N   UNL     1     -43.160 -26.130   4.972 -2.36 -0.00    -0.191 NA 
DOCKED: ATOM     11  C   UNL     1     -42.606 -25.292   5.555 -0.31 +0.00    +0.101 C  
DOCKED: ENDROOT
DOCKED: BRANCH   2  12
DOCKED: ATOM     12  C   UNL     1     -40.723 -20.305   9.251 -0.05 +0.00    +0.038 C  
DOCKED: BRANCH  12  13
DOCKED: ATOM     13  C   UNL     1     -42.032 -20.914   9.751 -0.04 +0.00    +0.038 C  
DOCKED: BRANCH  13  14
DOCKED: ATOM     14  C   UNL     1     -43.237 -20.212   9.129 -0.02 +0.00    +0.251 C  
DOCKED: BRANCH  14  15
DOCKED: ATOM     15  N   UNL     1     -44.184 -21.192   8.611 -0.05 +0.00    +0.141 N  
DOCKED: ATOM     16  C   UNL     1     -44.372 -21.017   7.170 -0.13 +0.00    +0.285 C  
DOCKED: ATOM     17  C   UNL     1     -43.728 -22.553   8.902 -0.02 +0.00    +0.285 C  
DOCKED: ENDBRANCH  14  15
DOCKED: ENDBRANCH  13  14
DOCKED: ENDBRANCH  12  13
DOCKED: ENDBRANCH   2  12
DOCKED: BRANCH   2  18
DOCKED: ATOM     18  C   UNL     1     -38.654 -20.724   7.934 -0.12 +0.00    +0.006 A  
DOCKED: ATOM     19  C   UNL     1     -38.789 -19.519   7.245 -0.12 +0.00    +0.001 A  
DOCKED: ATOM     20  C   UNL     1     -37.675 -18.932   6.644 -0.09 +0.00    +0.029 A  
DOCKED: ATOM     21  C   UNL     1     -36.428 -19.550   6.733 -0.07 +0.00    +0.140 A  
DOCKED: ATOM     22  C   UNL     1     -36.294 -20.755   7.423 -0.10 +0.00    +0.029 A  
DOCKED: ATOM     23  F   UNL     1     -35.358 -18.986   6.158 -0.01 -0.00    -0.204 F  
DOCKED: ATOM     24  C   UNL     1     -37.408 -21.343   8.024 -0.11 +0.00    +0.001 A  
DOCKED: ENDBRANCH   2  18
DOCKED: TORSDOF 5
DOCKED: TER
DOCKED: ENDMDL
________________________________________________________________________________


    FINAL DOCKED STATE:
    ________________________


Run:   119 / 512
Time taken for this run:   0.002s

DOCKED: MODEL        119
DOCKED: USER    Run = 119
DOCKED: USER
DOCKED: USER    Estimated Free Energy of Binding    =  -4.03 kcal/mol  [=(1)+(2)+(3)-(4)]
DOCKED: USER
DOCKED: USER    (1) Final Intermolecular Energy     =  -5.52 kcal/mol
DOCKED: USER        vdW + Hbond + desolv Energy     =  -5.52 kcal/mol
DOCKED: USER        Electrostatic Energy            =  +0.00 kcal/mol
DOCKED: USER        Moving Ligand-Fixed Receptor    =  -5.52 kcal/mol
DOCKED: USER        Moving Ligand-Moving Receptor   =  +0.00 kcal/mol
DOCKED: USER    (2) Final Total Internal Energy     =  -1.41 kcal/mol
DOCKED: USER    (3) Torsional Free Energy           =  +1.49 kcal/mol
DOCKED: USER    (4) Unbound System's Energy         =  -1.41 kcal/mol
DOCKED: USER
DOCKED: USER
DOCKED: REMARK  5 active torsions:
DOCKED: REMARK  status: ('A' for Active; 'I' for Inactive)
DOCKED: REMARK    1  A    between atoms: C_2  and  C_19 
DOCKED: REMARK    2  A    between atoms: C_2  and  C_11 
DOCKED: REMARK    3  A    between atoms: C_19  and  C_20 
DOCKED: REMARK    4  A    between atoms: C_20  and  C_21 
DOCKED: REMARK    5  A    between atoms: C_21  and  N_22 
DOCKED: USER                              x       y       z     vdW  Elec       q    Type
DOCKED: USER                           _______ _______ _______ _____ _____    ______ ____
DOCKED: ROOT
DOCKED: ATOM      1  O   UNL     1     -39.821 -20.750   9.191 -0.01 -0.00    -0.346 OA 
DOCKED: ATOM      2  C   UNL     1     -40.083 -20.268   7.834 -0.12 +0.00    +0.130 C  
DOCKED: ATOM      3  C   UNL     1     -40.784 -21.420   7.173 -0.22 +0.00    +0.004 A  
DOCKED: ATOM      4  C   UNL     1     -41.002 -22.428   8.101 -0.17 +0.00    +0.006 A  
DOCKED: ATOM      5  C   UNL     1     -40.481 -22.016   9.423 -0.07 +0.00    +0.169 C  
DOCKED: ATOM      6  C   UNL     1     -41.204 -21.559   5.858 -0.09 -0.00    -0.001 A  
DOCKED: ATOM      7  C   UNL     1     -41.641 -23.605   7.749 -0.22 +0.00    +0.008 A  
DOCKED: ATOM      8  C   UNL     1     -41.846 -22.742   5.487 -0.33 +0.00    +0.010 A  
DOCKED: ATOM      9  C   UNL     1     -42.063 -23.760   6.428 -0.29 +0.00    +0.068 A  
DOCKED: ATOM     10  N   UNL     1     -43.261 -25.941   5.706 -2.47 -0.00    -0.191 NA 
DOCKED: ATOM     11  C   UNL     1     -42.723 -24.963   6.030 -0.32 +0.00    +0.101 C  
DOCKED: ENDROOT
DOCKED: BRANCH   2  12
DOCKED: ATOM     12  C   UNL     1     -40.951 -19.019   7.924 -0.09 +0.00    +0.038 C  
DOCKED: BRANCH  12  13
DOCKED: ATOM     13  C   UNL     1     -42.370 -19.358   8.374 -0.08 +0.00    +0.038 C  
DOCKED: BRANCH  13  14
DOCKED: ATOM     14  C   UNL     1     -43.356 -19.247   7.213 -0.16 +0.00    +0.251 C  
DOCKED: BRANCH  14  15
DOCKED: ATOM     15  N   UNL     1     -44.202 -20.433   7.151 -0.18 +0.00    +0.141 N  
DOCKED: ATOM     16  C   UNL     1     -44.142 -21.177   8.410 -0.04 +0.00    +0.285 C  
DOCKED: ATOM     17  C   UNL     1     -45.586 -20.065   6.845 -0.14 +0.00    +0.285 C  
DOCKED: ENDBRANCH  14  15
DOCKED: ENDBRANCH  13  14
DOCKED: ENDBRANCH  12  13
DOCKED: ENDBRANCH   2  12
DOCKED: BRANCH   2  18
DOCKED: ATOM     18  C   UNL     1     -38.759 -19.961   7.217 -0.13 +0.00    +0.006 A  
DOCKED: ATOM     19  C   UNL     1     -37.682 -20.825   7.413 -0.03 +0.00    +0.001 A  
DOCKED: ATOM     20  C   UNL     1     -36.445 -20.536   6.835 -0.09 +0.00    +0.029 A  
DOCKED: ATOM     21  C   UNL     1     -36.287 -19.386   6.063 -0.07 +0.00    +0.140 A  
DOCKED: ATOM     22  C   UNL     1     -37.365 -18.523   5.868 -0.08 +0.00    +0.029 A  
DOCKED: ATOM     23  F   UNL     1     -35.100 -19.110   5.508 -0.01 -0.00    -0.204 F  
DOCKED: ATOM     24  C   UNL     1     -38.603 -18.811   6.445 -0.12 +0.00    +0.001 A  
DOCKED: ENDBRANCH   2  18
DOCKED: TORSDOF 5
DOCKED: TER
DOCKED: ENDMDL
________________________________________________________________________________


    FINAL DOCKED STATE:
    ________________________


Run:   120 / 512
Time taken for this run:   0.002s

DOCKED: MODEL        120
DOCKED: USER    Run = 120
DOCKED: USER
DOCKED: USER    Estimated Free Energy of Binding    =  -3.86 kcal/mol  [=(1)+(2)+(3)-(4)]
DOCKED: USER
DOCKED: USER    (1) Final Intermolecular Energy     =  -5.35 kcal/mol
DOCKED: USER        vdW + Hbond + desolv Energy     =  -5.35 kcal/mol
DOCKED: USER        Electrostatic Energy            =  +0.00 kcal/mol
DOCKED: USER        Moving Ligand-Fixed Receptor    =  -5.35 kcal/mol
DOCKED: USER        Moving Ligand-Moving Receptor   =  +0.00 kcal/mol
DOCKED: USER    (2) Final Total Internal Energy     =  -1.58 kcal/mol
DOCKED: USER    (3) Torsional Free Energy           =  +1.49 kcal/mol
DOCKED: USER    (4) Unbound System's Energy         =  -1.58 kcal/mol
DOCKED: USER
DOCKED: USER
DOCKED: REMARK  5 active torsions:
DOCKED: REMARK  status: ('A' for Active; 'I' for Inactive)
DOCKED: REMARK    1  A    between atoms: C_2  and  C_19 
DOCKED: REMARK    2  A    between atoms: C_2  and  C_11 
DOCKED: REMARK    3  A    between atoms: C_19  and  C_20 
DOCKED: REMARK    4  A    between atoms: C_20  and  C_21 
DOCKED: REMARK    5  A    between atoms: C_21  and  N_22 
DOCKED: USER                              x       y       z     vdW  Elec       q    Type
DOCKED: USER                           _______ _______ _______ _____ _____    ______ ____
DOCKED: ROOT
DOCKED: ATOM      1  O   UNL     1     -41.711 -19.387   7.131 -0.07 -0.00    -0.346 OA 
DOCKED: ATOM      2  C   UNL     1     -40.517 -20.200   7.366 -0.15 +0.00    +0.130 C  
DOCKED: ATOM      3  C   UNL     1     -40.950 -21.590   6.998 -0.24 +0.00    +0.004 A  
DOCKED: ATOM      4  C   UNL     1     -42.241 -21.558   6.492 -0.27 +0.00    +0.006 A  
DOCKED: ATOM      5  C   UNL     1     -42.741 -20.165   6.478 -0.17 +0.00    +0.169 C  
DOCKED: ATOM      6  C   UNL     1     -40.252 -22.785   7.093 -0.17 -0.00    -0.001 A  
DOCKED: ATOM      7  C   UNL     1     -42.878 -22.712   6.070 -0.28 +0.00    +0.008 A  
DOCKED: ATOM      8  C   UNL     1     -40.882 -23.958   6.676 -0.33 +0.00    +0.010 A  
DOCKED: ATOM      9  C   UNL     1     -42.188 -23.922   6.166 -0.31 +0.00    +0.068 A  
DOCKED: ATOM     10  N   UNL     1     -43.327 -26.118   5.395 -2.51 -0.00    -0.191 NA 
DOCKED: ATOM     11  C   UNL     1     -42.817 -25.133   5.742 -0.31 +0.00    +0.101 C  
DOCKED: ENDROOT
DOCKED: BRANCH   2  12
DOCKED: ATOM     12  C   UNL     1     -39.393 -19.674   6.481 -0.18 +0.00    +0.038 C  
DOCKED: BRANCH  12  13
DOCKED: ATOM     13  C   UNL     1     -39.641 -18.225   6.068 -0.13 +0.00    +0.038 C  
DOCKED: BRANCH  13  14
DOCKED: ATOM     14  C   UNL     1     -39.326 -17.265   7.215 -0.03 +0.00    +0.251 C  
DOCKED: BRANCH  14  15
DOCKED: ATOM     15  N   UNL     1     -40.546 -16.910   7.929 -0.02 +0.00    +0.141 N  
DOCKED: ATOM     16  C   UNL     1     -40.272 -15.889   8.941 -0.00 +0.00    +0.285 C  
DOCKED: ATOM     17  C   UNL     1     -41.571 -16.439   6.996 -0.04 +0.00    +0.285 C  
DOCKED: ENDBRANCH  14  15
DOCKED: ENDBRANCH  13  14
DOCKED: ENDBRANCH  12  13
DOCKED: ENDBRANCH   2  12
DOCKED: BRANCH   2  18
DOCKED: ATOM     18  C   UNL     1     -40.173 -20.061   8.812 -0.06 +0.00    +0.006 A  
DOCKED: ATOM     19  C   UNL     1     -38.847 -20.181   9.227 -0.05 +0.00    +0.001 A  
DOCKED: ATOM     20  C   UNL     1     -38.527 -20.052  10.579 -0.01 +0.00    +0.029 A  
DOCKED: ATOM     21  C   UNL     1     -39.532 -19.802  11.513 -0.00 +0.00    +0.140 A  
DOCKED: ATOM     22  C   UNL     1     -40.857 -19.682  11.097 -0.00 +0.00    +0.029 A  
DOCKED: ATOM     23  F   UNL     1     -39.224 -19.677  12.810 -0.00 -0.00    -0.204 F  
DOCKED: ATOM     24  C   UNL     1     -41.179 -19.812   9.745 -0.02 +0.00    +0.001 A  
DOCKED: ENDBRANCH   2  18
DOCKED: TORSDOF 5
DOCKED: TER
DOCKED: ENDMDL
________________________________________________________________________________


    FINAL DOCKED STATE:
    ________________________


Run:   121 / 512
Time taken for this run:   0.002s

DOCKED: MODEL        121
DOCKED: USER    Run = 121
DOCKED: USER
DOCKED: USER    Estimated Free Energy of Binding    =  -4.15 kcal/mol  [=(1)+(2)+(3)-(4)]
DOCKED: USER
DOCKED: USER    (1) Final Intermolecular Energy     =  -5.64 kcal/mol
DOCKED: USER        vdW + Hbond + desolv Energy     =  -5.64 kcal/mol
DOCKED: USER        Electrostatic Energy            =  +0.00 kcal/mol
DOCKED: USER        Moving Ligand-Fixed Receptor    =  -5.64 kcal/mol
DOCKED: USER        Moving Ligand-Moving Receptor   =  +0.00 kcal/mol
DOCKED: USER    (2) Final Total Internal Energy     =  -1.29 kcal/mol
DOCKED: USER    (3) Torsional Free Energy           =  +1.49 kcal/mol
DOCKED: USER    (4) Unbound System's Energy         =  -1.29 kcal/mol
DOCKED: USER
DOCKED: USER
DOCKED: REMARK  5 active torsions:
DOCKED: REMARK  status: ('A' for Active; 'I' for Inactive)
DOCKED: REMARK    1  A    between atoms: C_2  and  C_19 
DOCKED: REMARK    2  A    between atoms: C_2  and  C_11 
DOCKED: REMARK    3  A    between atoms: C_19  and  C_20 
DOCKED: REMARK    4  A    between atoms: C_20  and  C_21 
DOCKED: REMARK    5  A    between atoms: C_21  and  N_22 
DOCKED: USER                              x       y       z     vdW  Elec       q    Type
DOCKED: USER                           _______ _______ _______ _____ _____    ______ ____
DOCKED: ROOT
DOCKED: ATOM      1  O   UNL     1     -38.585 -22.136   8.771 -0.08 -0.00    -0.346 OA 
DOCKED: ATOM      2  C   UNL     1     -39.815 -21.361   8.602 -0.11 +0.00    +0.130 C  
DOCKED: ATOM      3  C   UNL     1     -40.697 -22.261   7.786 -0.20 +0.00    +0.004 A  
DOCKED: ATOM      4  C   UNL     1     -40.070 -23.485   7.599 -0.27 +0.00    +0.006 A  
DOCKED: ATOM      5  C   UNL     1     -38.756 -23.485   8.279 -0.10 +0.00    +0.169 C  
DOCKED: ATOM      6  C   UNL     1     -41.958 -22.020   7.260 -0.22 -0.00    -0.001 A  
DOCKED: ATOM      7  C   UNL     1     -40.676 -24.503   6.881 -0.38 +0.00    +0.008 A  
DOCKED: ATOM      8  C   UNL     1     -42.580 -23.035   6.530 -0.28 +0.00    +0.010 A  
DOCKED: ATOM      9  C   UNL     1     -41.942 -24.270   6.342 -0.31 +0.00    +0.068 A  
DOCKED: ATOM     10  N   UNL     1     -43.126 -26.133   4.987 -2.38 -0.00    -0.191 NA 
DOCKED: ATOM     11  C   UNL     1     -42.595 -25.297   5.594 -0.29 +0.00    +0.101 C  
DOCKED: ENDROOT
DOCKED: BRANCH   2  12
DOCKED: ATOM     12  C   UNL     1     -40.390 -21.060   9.981 -0.04 +0.00    +0.038 C  
DOCKED: BRANCH  12  13
DOCKED: ATOM     13  C   UNL     1     -39.775 -21.961  11.050 -0.05 +0.00    +0.038 C  
DOCKED: BRANCH  13  14
DOCKED: ATOM     14  C   UNL     1     -40.617 -23.218  11.260 -0.05 +0.00    +0.251 C  
DOCKED: BRANCH  14  15
DOCKED: ATOM     15  N   UNL     1     -39.763 -24.397  11.322 -0.12 +0.00    +0.141 N  
DOCKED: ATOM     16  C   UNL     1     -38.399 -24.027  11.702 -0.07 +0.00    +0.285 C  
DOCKED: ATOM     17  C   UNL     1     -40.304 -25.378  12.264 -0.15 +0.00    +0.285 C  
DOCKED: ENDBRANCH  14  15
DOCKED: ENDBRANCH  13  14
DOCKED: ENDBRANCH  12  13
DOCKED: ENDBRANCH   2  12
DOCKED: BRANCH   2  18
DOCKED: ATOM     18  C   UNL     1     -39.445 -20.105   7.887 -0.11 +0.00    +0.006 A  
DOCKED: ATOM     19  C   UNL     1     -39.476 -20.062   6.493 -0.18 +0.00    +0.001 A  
DOCKED: ATOM     20  C   UNL     1     -39.129 -18.887   5.826 -0.14 +0.00    +0.029 A  
DOCKED: ATOM     21  C   UNL     1     -38.753 -17.757   6.551 -0.05 +0.00    +0.140 A  
DOCKED: ATOM     22  C   UNL     1     -38.722 -17.801   7.945 -0.03 +0.00    +0.029 A  
DOCKED: ATOM     23  F   UNL     1     -38.421 -16.629   5.910 -0.00 -0.00    -0.204 F  
DOCKED: ATOM     24  C   UNL     1     -39.068 -18.977   8.614 -0.04 +0.00    +0.001 A  
DOCKED: ENDBRANCH   2  18
DOCKED: TORSDOF 5
DOCKED: TER
DOCKED: ENDMDL
________________________________________________________________________________


    FINAL DOCKED STATE:
    ________________________


Run:   122 / 512
Time taken for this run:   0.002s

DOCKED: MODEL        122
DOCKED: USER    Run = 122
DOCKED: USER
DOCKED: USER    Estimated Free Energy of Binding    =  -4.97 kcal/mol  [=(1)+(2)+(3)-(4)]
DOCKED: USER
DOCKED: USER    (1) Final Intermolecular Energy     =  -6.46 kcal/mol
DOCKED: USER        vdW + Hbond + desolv Energy     =  -6.46 kcal/mol
DOCKED: USER        Electrostatic Energy            =  +0.00 kcal/mol
DOCKED: USER        Moving Ligand-Fixed Receptor    =  -6.46 kcal/mol
DOCKED: USER        Moving Ligand-Moving Receptor   =  +0.00 kcal/mol
DOCKED: USER    (2) Final Total Internal Energy     =  -1.04 kcal/mol
DOCKED: USER    (3) Torsional Free Energy           =  +1.49 kcal/mol
DOCKED: USER    (4) Unbound System's Energy         =  -1.04 kcal/mol
DOCKED: USER
DOCKED: USER
DOCKED: REMARK  5 active torsions:
DOCKED: REMARK  status: ('A' for Active; 'I' for Inactive)
DOCKED: REMARK    1  A    between atoms: C_2  and  C_19 
DOCKED: REMARK    2  A    between atoms: C_2  and  C_11 
DOCKED: REMARK    3  A    between atoms: C_19  and  C_20 
DOCKED: REMARK    4  A    between atoms: C_20  and  C_21 
DOCKED: REMARK    5  A    between atoms: C_21  and  N_22 
DOCKED: USER                              x       y       z     vdW  Elec       q    Type
DOCKED: USER                           _______ _______ _______ _____ _____    ______ ____
DOCKED: ROOT
DOCKED: ATOM      1  O   UNL     1     -44.299 -22.430   8.308 -0.00 -0.00    -0.346 OA 
DOCKED: ATOM      2  C   UNL     1     -42.868 -22.669   8.118 -0.11 +0.00    +0.130 C  
DOCKED: ATOM      3  C   UNL     1     -42.777 -23.224   6.726 -0.25 +0.00    +0.004 A  
DOCKED: ATOM      4  C   UNL     1     -44.031 -23.202   6.132 -0.26 +0.00    +0.006 A  
DOCKED: ATOM      5  C   UNL     1     -45.021 -22.627   7.070 -0.17 +0.00    +0.169 C  
DOCKED: ATOM      6  C   UNL     1     -41.672 -23.700   6.037 -0.37 -0.00    -0.001 A  
DOCKED: ATOM      7  C   UNL     1     -44.224 -23.656   4.838 -0.12 +0.00    +0.008 A  
DOCKED: ATOM      8  C   UNL     1     -41.850 -24.166   4.733 -0.33 +0.00    +0.010 A  
DOCKED: ATOM      9  C   UNL     1     -43.120 -24.143   4.136 -0.38 +0.00    +0.068 A  
DOCKED: ATOM     10  N   UNL     1     -43.416 -25.009   1.713 -2.59 -0.00    -0.191 NA 
DOCKED: ATOM     11  C   UNL     1     -43.283 -24.621   2.800 -0.30 +0.00    +0.101 C  
DOCKED: ENDROOT
DOCKED: BRANCH   2  12
DOCKED: ATOM     12  C   UNL     1     -42.133 -21.343   8.277 -0.12 +0.00    +0.038 C  
DOCKED: BRANCH  12  13
DOCKED: ATOM     13  C   UNL     1     -42.202 -20.511   6.998 -0.23 +0.00    +0.038 C  
DOCKED: BRANCH  13  14
DOCKED: ATOM     14  C   UNL     1     -40.845 -20.466   6.298 -0.11 +0.00    +0.251 C  
DOCKED: BRANCH  14  15
DOCKED: ATOM     15  N   UNL     1     -39.809 -20.030   7.227 -0.13 +0.00    +0.141 N  
DOCKED: ATOM     16  C   UNL     1     -38.600 -19.634   6.503 -0.11 +0.00    +0.285 C  
DOCKED: ATOM     17  C   UNL     1     -40.291 -18.922   8.054 -0.04 +0.00    +0.285 C  
DOCKED: ENDBRANCH  14  15
DOCKED: ENDBRANCH  13  14
DOCKED: ENDBRANCH  12  13
DOCKED: ENDBRANCH   2  12
DOCKED: BRANCH   2  18
DOCKED: ATOM     18  C   UNL     1     -42.446 -23.647   9.163 -0.13 +0.00    +0.006 A  
DOCKED: ATOM     19  C   UNL     1     -43.407 -24.369   9.869 -0.15 +0.00    +0.001 A  
DOCKED: ATOM     20  C   UNL     1     -43.011 -25.283  10.847 -0.05 +0.00    +0.029 A  
DOCKED: ATOM     21  C   UNL     1     -41.657 -25.474  11.115 -0.11 +0.00    +0.140 A  
DOCKED: ATOM     22  C   UNL     1     -40.696 -24.752  10.408 -0.16 +0.00    +0.029 A  
DOCKED: ATOM     23  F   UNL     1     -41.277 -26.353  12.052 -0.08 -0.00    -0.204 F  
DOCKED: ATOM     24  C   UNL     1     -41.091 -23.837   9.431 -0.17 +0.00    +0.001 A  
DOCKED: ENDBRANCH   2  18
DOCKED: TORSDOF 5
DOCKED: TER
DOCKED: ENDMDL
________________________________________________________________________________


    FINAL DOCKED STATE:
    ________________________


Run:   123 / 512
Time taken for this run:   0.002s

DOCKED: MODEL        123
DOCKED: USER    Run = 123
DOCKED: USER
DOCKED: USER    Estimated Free Energy of Binding    =  -4.58 kcal/mol  [=(1)+(2)+(3)-(4)]
DOCKED: USER
DOCKED: USER    (1) Final Intermolecular Energy     =  -6.07 kcal/mol
DOCKED: USER        vdW + Hbond + desolv Energy     =  -6.07 kcal/mol
DOCKED: USER        Electrostatic Energy            =  +0.00 kcal/mol
DOCKED: USER        Moving Ligand-Fixed Receptor    =  -6.07 kcal/mol
DOCKED: USER        Moving Ligand-Moving Receptor   =  +0.00 kcal/mol
DOCKED: USER    (2) Final Total Internal Energy     =  -1.26 kcal/mol
DOCKED: USER    (3) Torsional Free Energy           =  +1.49 kcal/mol
DOCKED: USER    (4) Unbound System's Energy         =  -1.26 kcal/mol
DOCKED: USER
DOCKED: USER
DOCKED: REMARK  5 active torsions:
DOCKED: REMARK  status: ('A' for Active; 'I' for Inactive)
DOCKED: REMARK    1  A    between atoms: C_2  and  C_19 
DOCKED: REMARK    2  A    between atoms: C_2  and  C_11 
DOCKED: REMARK    3  A    between atoms: C_19  and  C_20 
DOCKED: REMARK    4  A    between atoms: C_20  and  C_21 
DOCKED: REMARK    5  A    between atoms: C_21  and  N_22 
DOCKED: USER                              x       y       z     vdW  Elec       q    Type
DOCKED: USER                           _______ _______ _______ _____ _____    ______ ____
DOCKED: ROOT
DOCKED: ATOM      1  O   UNL     1     -40.755 -19.618   7.029 -0.07 -0.00    -0.346 OA 
DOCKED: ATOM      2  C   UNL     1     -42.120 -19.742   7.542 -0.14 +0.00    +0.130 C  
DOCKED: ATOM      3  C   UNL     1     -42.538 -21.121   7.122 -0.21 +0.00    +0.004 A  
DOCKED: ATOM      4  C   UNL     1     -41.470 -21.769   6.519 -0.29 +0.00    +0.006 A  
DOCKED: ATOM      5  C   UNL     1     -40.284 -20.883   6.510 -0.17 +0.00    +0.169 C  
DOCKED: ATOM      6  C   UNL     1     -43.763 -21.755   7.271 -0.20 -0.00    -0.001 A  
DOCKED: ATOM      7  C   UNL     1     -41.588 -23.064   6.043 -0.34 +0.00    +0.008 A  
DOCKED: ATOM      8  C   UNL     1     -43.899 -23.059   6.792 -0.22 +0.00    +0.010 A  
DOCKED: ATOM      9  C   UNL     1     -42.817 -23.710   6.182 -0.26 +0.00    +0.068 A  
DOCKED: ATOM     10  N   UNL     1     -43.103 -26.133   5.309 -2.56 -0.00    -0.191 NA 
DOCKED: ATOM     11  C   UNL     1     -42.975 -25.046   5.700 -0.36 +0.00    +0.101 C  
DOCKED: ENDROOT
DOCKED: BRANCH   2  12
DOCKED: ATOM     12  C   UNL     1     -42.084 -19.569   9.056 -0.05 +0.00    +0.038 C  
DOCKED: BRANCH  12  13
DOCKED: ATOM     13  C   UNL     1     -40.701 -19.132   9.534 -0.03 +0.00    +0.038 C  
DOCKED: BRANCH  13  14
DOCKED: ATOM     14  C   UNL     1     -39.894 -20.325  10.044 -0.01 +0.00    +0.251 C  
DOCKED: BRANCH  14  15
DOCKED: ATOM     15  N   UNL     1     -38.821 -20.647   9.111 -0.04 +0.00    +0.141 N  
DOCKED: ATOM     16  C   UNL     1     -37.592 -19.939   9.474 -0.02 +0.00    +0.285 C  
DOCKED: ATOM     17  C   UNL     1     -38.583 -22.091   9.078 -0.09 +0.00    +0.285 C  
DOCKED: ENDBRANCH  14  15
DOCKED: ENDBRANCH  13  14
DOCKED: ENDBRANCH  12  13
DOCKED: ENDBRANCH   2  12
DOCKED: BRANCH   2  18
DOCKED: ATOM     18  C   UNL     1     -42.928 -18.667   6.896 -0.19 +0.00    +0.006 A  
DOCKED: ATOM     19  C   UNL     1     -42.310 -17.737   6.061 -0.16 +0.00    +0.001 A  
DOCKED: ATOM     20  C   UNL     1     -43.068 -16.732   5.458 -0.15 +0.00    +0.029 A  
DOCKED: ATOM     21  C   UNL     1     -44.440 -16.658   5.690 -0.11 +0.00    +0.140 A  
DOCKED: ATOM     22  C   UNL     1     -45.057 -17.588   6.526 -0.18 +0.00    +0.029 A  
DOCKED: ATOM     23  F   UNL     1     -45.167 -15.694   5.110 -0.02 -0.00    -0.204 F  
DOCKED: ATOM     24  C   UNL     1     -44.301 -18.594   7.130 -0.20 +0.00    +0.001 A  
DOCKED: ENDBRANCH   2  18
DOCKED: TORSDOF 5
DOCKED: TER
DOCKED: ENDMDL
________________________________________________________________________________


    FINAL DOCKED STATE:
    ________________________


Run:   124 / 512
Time taken for this run:   0.002s

DOCKED: MODEL        124
DOCKED: USER    Run = 124
DOCKED: USER
DOCKED: USER    Estimated Free Energy of Binding    =  -4.02 kcal/mol  [=(1)+(2)+(3)-(4)]
DOCKED: USER
DOCKED: USER    (1) Final Intermolecular Energy     =  -5.51 kcal/mol
DOCKED: USER        vdW + Hbond + desolv Energy     =  -5.51 kcal/mol
DOCKED: USER        Electrostatic Energy            =  +0.00 kcal/mol
DOCKED: USER        Moving Ligand-Fixed Receptor    =  -5.51 kcal/mol
DOCKED: USER        Moving Ligand-Moving Receptor   =  +0.00 kcal/mol
DOCKED: USER    (2) Final Total Internal Energy     =  -1.17 kcal/mol
DOCKED: USER    (3) Torsional Free Energy           =  +1.49 kcal/mol
DOCKED: USER    (4) Unbound System's Energy         =  -1.17 kcal/mol
DOCKED: USER
DOCKED: USER
DOCKED: REMARK  5 active torsions:
DOCKED: REMARK  status: ('A' for Active; 'I' for Inactive)
DOCKED: REMARK    1  A    between atoms: C_2  and  C_19 
DOCKED: REMARK    2  A    between atoms: C_2  and  C_11 
DOCKED: REMARK    3  A    between atoms: C_19  and  C_20 
DOCKED: REMARK    4  A    between atoms: C_20  and  C_21 
DOCKED: REMARK    5  A    between atoms: C_21  and  N_22 
DOCKED: USER                              x       y       z     vdW  Elec       q    Type
DOCKED: USER                           _______ _______ _______ _____ _____    ______ ____
DOCKED: ROOT
DOCKED: ATOM      1  O   UNL     1     -37.329 -15.713   0.786 -0.05 -0.00    -0.346 OA 
DOCKED: ATOM      2  C   UNL     1     -38.691 -15.803   0.258 -0.23 +0.00    +0.130 C  
DOCKED: ATOM      3  C   UNL     1     -38.679 -14.878  -0.924 -0.27 +0.00    +0.004 A  
DOCKED: ATOM      4  C   UNL     1     -37.396 -14.388  -1.122 -0.14 +0.00    +0.006 A  
DOCKED: ATOM      5  C   UNL     1     -36.480 -14.956  -0.107 -0.12 +0.00    +0.169 C  
DOCKED: ATOM      6  C   UNL     1     -39.719 -14.508  -1.764 -0.32 -0.00    -0.001 A  
DOCKED: ATOM      7  C   UNL     1     -37.110 -13.514  -2.156 -0.19 +0.00    +0.008 A  
DOCKED: ATOM      8  C   UNL     1     -39.448 -13.624  -2.810 -0.39 +0.00    +0.010 A  
DOCKED: ATOM      9  C   UNL     1     -38.149 -13.130  -3.005 -0.28 +0.00    +0.068 A  
DOCKED: ATOM     10  N   UNL     1     -37.678 -11.495  -4.959 -0.80 -0.00    -0.191 NA 
DOCKED: ATOM     11  C   UNL     1     -37.890 -12.228  -4.082 -0.35 +0.00    +0.101 C  
DOCKED: ENDROOT
DOCKED: BRANCH   2  12
DOCKED: ATOM     12  C   UNL     1     -38.965 -17.252  -0.125 -0.19 +0.00    +0.038 C  
DOCKED: BRANCH  12  13
DOCKED: ATOM     13  C   UNL     1     -37.730 -17.911  -0.736 -0.20 +0.00    +0.038 C  
DOCKED: BRANCH  13  14
DOCKED: ATOM     14  C   UNL     1     -37.633 -17.615  -2.232 -0.17 +0.00    +0.251 C  
DOCKED: BRANCH  14  15
DOCKED: ATOM     15  N   UNL     1     -36.464 -18.273  -2.804 -0.16 +0.00    +0.141 N  
DOCKED: ATOM     16  C   UNL     1     -35.653 -18.889  -1.753 -0.09 +0.00    +0.285 C  
DOCKED: ATOM     17  C   UNL     1     -36.869 -19.278  -3.788 -0.20 +0.00    +0.285 C  
DOCKED: ENDBRANCH  14  15
DOCKED: ENDBRANCH  13  14
DOCKED: ENDBRANCH  12  13
DOCKED: ENDBRANCH   2  12
DOCKED: BRANCH   2  18
DOCKED: ATOM     18  C   UNL     1     -39.610 -15.350   1.343 -0.27 +0.00    +0.006 A  
DOCKED: ATOM     19  C   UNL     1     -39.164 -14.436   2.297 -0.20 +0.00    +0.001 A  
DOCKED: ATOM     20  C   UNL     1     -40.024 -14.013   3.311 -0.22 +0.00    +0.029 A  
DOCKED: ATOM     21  C   UNL     1     -41.328 -14.503   3.369 -0.14 +0.00    +0.140 A  
DOCKED: ATOM     22  C   UNL     1     -41.773 -15.417   2.414 -0.26 +0.00    +0.029 A  
DOCKED: ATOM     23  F   UNL     1     -42.154 -14.096   4.341 +0.00 -0.00    -0.204 F  
DOCKED: ATOM     24  C   UNL     1     -40.913 -15.841   1.400 -0.26 +0.00    +0.001 A  
DOCKED: ENDBRANCH   2  18
DOCKED: TORSDOF 5
DOCKED: TER
DOCKED: ENDMDL
________________________________________________________________________________


    FINAL DOCKED STATE:
    ________________________


Run:   125 / 512
Time taken for this run:   0.002s

DOCKED: MODEL        125
DOCKED: USER    Run = 125
DOCKED: USER
DOCKED: USER    Estimated Free Energy of Binding    =  -4.28 kcal/mol  [=(1)+(2)+(3)-(4)]
DOCKED: USER
DOCKED: USER    (1) Final Intermolecular Energy     =  -5.77 kcal/mol
DOCKED: USER        vdW + Hbond + desolv Energy     =  -5.77 kcal/mol
DOCKED: USER        Electrostatic Energy            =  +0.00 kcal/mol
DOCKED: USER        Moving Ligand-Fixed Receptor    =  -5.77 kcal/mol
DOCKED: USER        Moving Ligand-Moving Receptor   =  +0.00 kcal/mol
DOCKED: USER    (2) Final Total Internal Energy     =  -1.24 kcal/mol
DOCKED: USER    (3) Torsional Free Energy           =  +1.49 kcal/mol
DOCKED: USER    (4) Unbound System's Energy         =  -1.24 kcal/mol
DOCKED: USER
DOCKED: USER
DOCKED: REMARK  5 active torsions:
DOCKED: REMARK  status: ('A' for Active; 'I' for Inactive)
DOCKED: REMARK    1  A    between atoms: C_2  and  C_19 
DOCKED: REMARK    2  A    between atoms: C_2  and  C_11 
DOCKED: REMARK    3  A    between atoms: C_19  and  C_20 
DOCKED: REMARK    4  A    between atoms: C_20  and  C_21 
DOCKED: REMARK    5  A    between atoms: C_21  and  N_22 
DOCKED: USER                              x       y       z     vdW  Elec       q    Type
DOCKED: USER                           _______ _______ _______ _____ _____    ______ ____
DOCKED: ROOT
DOCKED: ATOM      1  O   UNL     1     -40.924 -20.531   9.199 -0.00 -0.00    -0.346 OA 
DOCKED: ATOM      2  C   UNL     1     -40.701 -20.226   7.786 -0.12 +0.00    +0.130 C  
DOCKED: ATOM      3  C   UNL     1     -41.202 -21.447   7.070 -0.24 +0.00    +0.004 A  
DOCKED: ATOM      4  C   UNL     1     -41.764 -22.326   7.985 -0.15 +0.00    +0.006 A  
DOCKED: ATOM      5  C   UNL     1     -41.687 -21.751   9.347 -0.04 +0.00    +0.169 C  
DOCKED: ATOM      6  C   UNL     1     -41.174 -21.750   5.717 -0.05 -0.00    -0.001 A  
DOCKED: ATOM      7  C   UNL     1     -42.310 -23.533   7.583 -0.20 +0.00    +0.008 A  
DOCKED: ATOM      8  C   UNL     1     -41.716 -22.966   5.296 -0.28 +0.00    +0.010 A  
DOCKED: ATOM      9  C   UNL     1     -42.282 -23.852   6.225 -0.29 +0.00    +0.068 A  
DOCKED: ATOM     10  N   UNL     1     -43.284 -26.098   5.409 -2.54 -0.00    -0.191 NA 
DOCKED: ATOM     11  C   UNL     1     -42.834 -25.091   5.775 -0.32 +0.00    +0.101 C  
DOCKED: ENDROOT
DOCKED: BRANCH   2  12
DOCKED: ATOM     12  C   UNL     1     -41.486 -18.968   7.434 -0.13 +0.00    +0.038 C  
DOCKED: BRANCH  12  13
DOCKED: ATOM     13  C   UNL     1     -42.732 -19.299   6.616 -0.22 +0.00    +0.038 C  
DOCKED: BRANCH  13  14
DOCKED: ATOM     14  C   UNL     1     -43.903 -19.668   7.525 -0.13 +0.00    +0.251 C  
DOCKED: BRANCH  14  15
DOCKED: ATOM     15  N   UNL     1     -45.026 -20.157   6.732 -0.20 +0.00    +0.141 N  
DOCKED: ATOM     16  C   UNL     1     -45.384 -21.519   7.130 -0.12 +0.00    +0.285 C  
DOCKED: ATOM     17  C   UNL     1     -46.180 -19.268   6.871 -0.14 +0.00    +0.285 C  
DOCKED: ENDBRANCH  14  15
DOCKED: ENDBRANCH  13  14
DOCKED: ENDBRANCH  12  13
DOCKED: ENDBRANCH   2  12
DOCKED: BRANCH   2  18
DOCKED: ATOM     18  C   UNL     1     -39.234 -20.011   7.612 -0.12 +0.00    +0.006 A  
DOCKED: ATOM     19  C   UNL     1     -38.341 -20.505   8.562 -0.09 +0.00    +0.001 A  
DOCKED: ATOM     20  C   UNL     1     -36.969 -20.304   8.398 -0.07 +0.00    +0.029 A  
DOCKED: ATOM     21  C   UNL     1     -36.494 -19.610   7.286 -0.06 +0.00    +0.140 A  
DOCKED: ATOM     22  C   UNL     1     -37.389 -19.117   6.337 -0.10 +0.00    +0.029 A  
DOCKED: ATOM     23  F   UNL     1     -35.178 -19.418   7.129 -0.00 -0.00    -0.204 F  
DOCKED: ATOM     24  C   UNL     1     -38.760 -19.317   6.499 -0.14 +0.00    +0.001 A  
DOCKED: ENDBRANCH   2  18
DOCKED: TORSDOF 5
DOCKED: TER
DOCKED: ENDMDL
________________________________________________________________________________


    FINAL DOCKED STATE:
    ________________________


Run:   126 / 512
Time taken for this run:   0.002s

DOCKED: MODEL        126
DOCKED: USER    Run = 126
DOCKED: USER
DOCKED: USER    Estimated Free Energy of Binding    =  -4.09 kcal/mol  [=(1)+(2)+(3)-(4)]
DOCKED: USER
DOCKED: USER    (1) Final Intermolecular Energy     =  -5.58 kcal/mol
DOCKED: USER        vdW + Hbond + desolv Energy     =  -5.58 kcal/mol
DOCKED: USER        Electrostatic Energy            =  +0.00 kcal/mol
DOCKED: USER        Moving Ligand-Fixed Receptor    =  -5.58 kcal/mol
DOCKED: USER        Moving Ligand-Moving Receptor   =  +0.00 kcal/mol
DOCKED: USER    (2) Final Total Internal Energy     =  -1.43 kcal/mol
DOCKED: USER    (3) Torsional Free Energy           =  +1.49 kcal/mol
DOCKED: USER    (4) Unbound System's Energy         =  -1.43 kcal/mol
DOCKED: USER
DOCKED: USER
DOCKED: REMARK  5 active torsions:
DOCKED: REMARK  status: ('A' for Active; 'I' for Inactive)
DOCKED: REMARK    1  A    between atoms: C_2  and  C_19 
DOCKED: REMARK    2  A    between atoms: C_2  and  C_11 
DOCKED: REMARK    3  A    between atoms: C_19  and  C_20 
DOCKED: REMARK    4  A    between atoms: C_20  and  C_21 
DOCKED: REMARK    5  A    between atoms: C_21  and  N_22 
DOCKED: USER                              x       y       z     vdW  Elec       q    Type
DOCKED: USER                           _______ _______ _______ _____ _____    ______ ____
DOCKED: ROOT
DOCKED: ATOM      1  O   UNL     1     -39.590 -20.510   8.013 -0.05 -0.00    -0.346 OA 
DOCKED: ATOM      2  C   UNL     1     -40.987 -20.095   7.881 -0.11 +0.00    +0.130 C  
DOCKED: ATOM      3  C   UNL     1     -41.666 -21.301   7.300 -0.21 +0.00    +0.004 A  
DOCKED: ATOM      4  C   UNL     1     -40.761 -22.349   7.211 -0.25 +0.00    +0.006 A  
DOCKED: ATOM      5  C   UNL     1     -39.443 -21.921   7.731 -0.11 +0.00    +0.169 C  
DOCKED: ATOM      6  C   UNL     1     -42.983 -21.462   6.893 -0.23 -0.00    -0.001 A  
DOCKED: ATOM      7  C   UNL     1     -41.136 -23.585   6.711 -0.32 +0.00    +0.008 A  
DOCKED: ATOM      8  C   UNL     1     -43.376 -22.700   6.383 -0.24 +0.00    +0.010 A  
DOCKED: ATOM      9  C   UNL     1     -42.457 -23.756   6.293 -0.27 +0.00    +0.068 A  
DOCKED: ATOM     10  N   UNL     1     -43.220 -26.044   5.346 -2.55 -0.00    -0.191 NA 
DOCKED: ATOM     11  C   UNL     1     -42.877 -25.018   5.770 -0.36 +0.00    +0.101 C  
DOCKED: ENDROOT
DOCKED: BRANCH   2  12
DOCKED: ATOM     12  C   UNL     1     -41.513 -19.726   9.263 -0.04 +0.00    +0.038 C  
DOCKED: BRANCH  12  13
DOCKED: ATOM     13  C   UNL     1     -40.742 -18.549   9.857 -0.01 +0.00    +0.038 C  
DOCKED: BRANCH  13  14
DOCKED: ATOM     14  C   UNL     1     -39.939 -18.981  11.082 -0.00 +0.00    +0.251 C  
DOCKED: BRANCH  14  15
DOCKED: ATOM     15  N   UNL     1     -38.509 -18.887  10.811 -0.00 +0.00    +0.141 N  
DOCKED: ATOM     16  C   UNL     1     -37.953 -20.207  10.511 -0.01 +0.00    +0.285 C  
DOCKED: ATOM     17  C   UNL     1     -38.255 -17.965   9.702 -0.00 +0.00    +0.285 C  
DOCKED: ENDBRANCH  14  15
DOCKED: ENDBRANCH  13  14
DOCKED: ENDBRANCH  12  13
DOCKED: ENDBRANCH   2  12
DOCKED: BRANCH   2  18
DOCKED: ATOM     18  C   UNL     1     -41.008 -18.918   6.965 -0.14 +0.00    +0.006 A  
DOCKED: ATOM     19  C   UNL     1     -39.811 -18.377   6.497 -0.12 +0.00    +0.001 A  
DOCKED: ATOM     20  C   UNL     1     -39.833 -17.276   5.640 -0.10 +0.00    +0.029 A  
DOCKED: ATOM     21  C   UNL     1     -41.050 -16.717   5.253 -0.10 +0.00    +0.140 A  
DOCKED: ATOM     22  C   UNL     1     -42.247 -17.258   5.722 -0.15 +0.00    +0.029 A  
DOCKED: ATOM     23  F   UNL     1     -41.070 -15.661   4.429 -0.02 -0.00    -0.204 F  
DOCKED: ATOM     24  C   UNL     1     -42.226 -18.360   6.579 -0.18 +0.00    +0.001 A  
DOCKED: ENDBRANCH   2  18
DOCKED: TORSDOF 5
DOCKED: TER
DOCKED: ENDMDL
________________________________________________________________________________


    FINAL DOCKED STATE:
    ________________________


Run:   127 / 512
Time taken for this run:   0.002s

DOCKED: MODEL        127
DOCKED: USER    Run = 127
DOCKED: USER
DOCKED: USER    Estimated Free Energy of Binding    =  -3.75 kcal/mol  [=(1)+(2)+(3)-(4)]
DOCKED: USER
DOCKED: USER    (1) Final Intermolecular Energy     =  -5.24 kcal/mol
DOCKED: USER        vdW + Hbond + desolv Energy     =  -5.24 kcal/mol
DOCKED: USER        Electrostatic Energy            =  +0.00 kcal/mol
DOCKED: USER        Moving Ligand-Fixed Receptor    =  -5.24 kcal/mol
DOCKED: USER        Moving Ligand-Moving Receptor   =  +0.00 kcal/mol
DOCKED: USER    (2) Final Total Internal Energy     =  -1.33 kcal/mol
DOCKED: USER    (3) Torsional Free Energy           =  +1.49 kcal/mol
DOCKED: USER    (4) Unbound System's Energy         =  -1.33 kcal/mol
DOCKED: USER
DOCKED: USER
DOCKED: REMARK  5 active torsions:
DOCKED: REMARK  status: ('A' for Active; 'I' for Inactive)
DOCKED: REMARK    1  A    between atoms: C_2  and  C_19 
DOCKED: REMARK    2  A    between atoms: C_2  and  C_11 
DOCKED: REMARK    3  A    between atoms: C_19  and  C_20 
DOCKED: REMARK    4  A    between atoms: C_20  and  C_21 
DOCKED: REMARK    5  A    between atoms: C_21  and  N_22 
DOCKED: USER                              x       y       z     vdW  Elec       q    Type
DOCKED: USER                           _______ _______ _______ _____ _____    ______ ____
DOCKED: ROOT
DOCKED: ATOM      1  O   UNL     1     -32.924 -23.599  -1.607 -0.00 -0.00    -0.346 OA 
DOCKED: ATOM      2  C   UNL     1     -33.208 -22.510  -0.671 -0.06 +0.00    +0.130 C  
DOCKED: ATOM      3  C   UNL     1     -33.828 -23.203   0.508 -0.10 +0.00    +0.004 A  
DOCKED: ATOM      4  C   UNL     1     -33.800 -24.576   0.311 -0.14 +0.00    +0.006 A  
DOCKED: ATOM      5  C   UNL     1     -33.157 -24.884  -0.987 -0.08 +0.00    +0.169 C  
DOCKED: ATOM      6  C   UNL     1     -34.364 -22.662   1.667 -0.12 -0.00    -0.001 A  
DOCKED: ATOM      7  C   UNL     1     -34.307 -25.451   1.257 -0.25 +0.00    +0.008 A  
DOCKED: ATOM      8  C   UNL     1     -34.883 -23.530   2.629 -0.24 +0.00    +0.010 A  
DOCKED: ATOM      9  C   UNL     1     -34.854 -24.918   2.424 -0.29 +0.00    +0.068 A  
DOCKED: ATOM     10  N   UNL     1     -35.821 -26.502   4.232 -2.64 -0.00    -0.191 NA 
DOCKED: ATOM     11  C   UNL     1     -35.388 -25.791   3.421 -0.39 +0.00    +0.101 C  
DOCKED: ENDROOT
DOCKED: BRANCH   2  12
DOCKED: ATOM     12  C   UNL     1     -31.897 -21.814  -0.328 -0.01 +0.00    +0.038 C  
DOCKED: BRANCH  12  13
DOCKED: ATOM     13  C   UNL     1     -31.195 -22.495   0.845 -0.01 +0.00    +0.038 C  
DOCKED: BRANCH  13  14
DOCKED: ATOM     14  C   UNL     1     -30.999 -21.524   2.008 -0.00 +0.00    +0.251 C  
DOCKED: BRANCH  14  15
DOCKED: ATOM     15  N   UNL     1     -31.830 -21.914   3.140 -0.01 +0.00    +0.141 N  
DOCKED: ATOM     16  C   UNL     1     -31.382 -23.193   3.693 -0.00 +0.00    +0.285 C  
DOCKED: ATOM     17  C   UNL     1     -31.811 -20.879   4.175 -0.00 +0.00    +0.285 C  
DOCKED: ENDBRANCH  14  15
DOCKED: ENDBRANCH  13  14
DOCKED: ENDBRANCH  12  13
DOCKED: ENDBRANCH   2  12
DOCKED: BRANCH   2  18
DOCKED: ATOM     18  C   UNL     1     -34.149 -21.578  -1.359 -0.11 +0.00    +0.006 A  
DOCKED: ATOM     19  C   UNL     1     -34.705 -21.931  -2.588 -0.11 +0.00    +0.001 A  
DOCKED: ATOM     20  C   UNL     1     -35.585 -21.058  -3.230 -0.17 +0.00    +0.029 A  
DOCKED: ATOM     21  C   UNL     1     -35.906 -19.835  -2.643 -0.18 +0.00    +0.140 A  
DOCKED: ATOM     22  C   UNL     1     -35.349 -19.483  -1.413 -0.11 +0.00    +0.029 A  
DOCKED: ATOM     23  F   UNL     1     -36.752 -18.998  -3.258 -0.10 -0.00    -0.204 F  
DOCKED: ATOM     24  C   UNL     1     -34.469 -20.355  -0.770 -0.08 +0.00    +0.001 A  
DOCKED: ENDBRANCH   2  18
DOCKED: TORSDOF 5
DOCKED: TER
DOCKED: ENDMDL
________________________________________________________________________________


    FINAL DOCKED STATE:
    ________________________


Run:   128 / 512
Time taken for this run:   0.002s

DOCKED: MODEL        128
DOCKED: USER    Run = 128
DOCKED: USER
DOCKED: USER    Estimated Free Energy of Binding    =  -3.72 kcal/mol  [=(1)+(2)+(3)-(4)]
DOCKED: USER
DOCKED: USER    (1) Final Intermolecular Energy     =  -5.21 kcal/mol
DOCKED: USER        vdW + Hbond + desolv Energy     =  -5.21 kcal/mol
DOCKED: USER        Electrostatic Energy            =  +0.00 kcal/mol
DOCKED: USER        Moving Ligand-Fixed Receptor    =  -5.21 kcal/mol
DOCKED: USER        Moving Ligand-Moving Receptor   =  +0.00 kcal/mol
DOCKED: USER    (2) Final Total Internal Energy     =  -1.42 kcal/mol
DOCKED: USER    (3) Torsional Free Energy           =  +1.49 kcal/mol
DOCKED: USER    (4) Unbound System's Energy         =  -1.42 kcal/mol
DOCKED: USER
DOCKED: USER
DOCKED: REMARK  5 active torsions:
DOCKED: REMARK  status: ('A' for Active; 'I' for Inactive)
DOCKED: REMARK    1  A    between atoms: C_2  and  C_19 
DOCKED: REMARK    2  A    between atoms: C_2  and  C_11 
DOCKED: REMARK    3  A    between atoms: C_19  and  C_20 
DOCKED: REMARK    4  A    between atoms: C_20  and  C_21 
DOCKED: REMARK    5  A    between atoms: C_21  and  N_22 
DOCKED: USER                              x       y       z     vdW  Elec       q    Type
DOCKED: USER                           _______ _______ _______ _____ _____    ______ ____
DOCKED: ROOT
DOCKED: ATOM      1  O   UNL     1     -33.867 -14.213  -3.097 +0.01 -0.00    -0.346 OA 
DOCKED: ATOM      2  C   UNL     1     -34.843 -14.522  -2.051 -0.04 +0.00    +0.130 C  
DOCKED: ATOM      3  C   UNL     1     -36.150 -14.065  -2.634 -0.11 +0.00    +0.004 A  
DOCKED: ATOM      4  C   UNL     1     -35.955 -13.636  -3.939 -0.10 +0.00    +0.006 A  
DOCKED: ATOM      5  C   UNL     1     -34.530 -13.788  -4.310 -0.02 +0.00    +0.169 C  
DOCKED: ATOM      6  C   UNL     1     -37.412 -14.043  -2.058 -0.21 -0.00    -0.001 A  
DOCKED: ATOM      7  C   UNL     1     -37.006 -13.168  -4.708 -0.22 +0.00    +0.008 A  
DOCKED: ATOM      8  C   UNL     1     -38.482 -13.569  -2.820 -0.33 +0.00    +0.010 A  
DOCKED: ATOM      9  C   UNL     1     -38.280 -13.135  -4.138 -0.32 +0.00    +0.068 A  
DOCKED: ATOM     10  N   UNL     1     -40.288 -12.267  -5.526 -2.56 -0.00    -0.191 NA 
DOCKED: ATOM     11  C   UNL     1     -39.387 -12.655  -4.903 -0.42 +0.00    +0.101 C  
DOCKED: ENDROOT
DOCKED: BRANCH   2  12
DOCKED: ATOM     12  C   UNL     1     -34.805 -16.021  -1.783 -0.03 +0.00    +0.038 C  
DOCKED: BRANCH  12  13
DOCKED: ATOM     13  C   UNL     1     -33.824 -16.729  -2.716 -0.01 +0.00    +0.038 C  
DOCKED: BRANCH  13  14
DOCKED: ATOM     14  C   UNL     1     -34.541 -17.753  -3.593 -0.02 +0.00    +0.251 C  
DOCKED: BRANCH  14  15
DOCKED: ATOM     15  N   UNL     1     -35.937 -17.374  -3.777 -0.10 +0.00    +0.141 N  
DOCKED: ATOM     16  C   UNL     1     -36.152 -16.829  -5.119 -0.10 +0.00    +0.285 C  
DOCKED: ATOM     17  C   UNL     1     -36.817 -18.521  -3.549 -0.16 +0.00    +0.285 C  
DOCKED: ENDBRANCH  14  15
DOCKED: ENDBRANCH  13  14
DOCKED: ENDBRANCH  12  13
DOCKED: ENDBRANCH   2  12
DOCKED: BRANCH   2  18
DOCKED: ATOM     18  C   UNL     1     -34.445 -13.747  -0.839 -0.07 +0.00    +0.006 A  
DOCKED: ATOM     19  C   UNL     1     -33.582 -12.659  -0.961 -0.05 +0.00    +0.001 A  
DOCKED: ATOM     20  C   UNL     1     -33.210 -11.936   0.174 -0.06 +0.00    +0.029 A  
DOCKED: ATOM     21  C   UNL     1     -33.701 -12.302   1.426 -0.06 +0.00    +0.140 A  
DOCKED: ATOM     22  C   UNL     1     -34.565 -13.390   1.546 -0.07 +0.00    +0.029 A  
DOCKED: ATOM     23  F   UNL     1     -33.345 -11.607   2.514 -0.03 -0.00    -0.204 F  
DOCKED: ATOM     24  C   UNL     1     -34.937 -14.114   0.412 -0.11 +0.00    +0.001 A  
DOCKED: ENDBRANCH   2  18
DOCKED: TORSDOF 5
DOCKED: TER
DOCKED: ENDMDL
________________________________________________________________________________


    FINAL DOCKED STATE:
    ________________________


Run:   129 / 512
Time taken for this run:   0.002s

DOCKED: MODEL        129
DOCKED: USER    Run = 129
DOCKED: USER
DOCKED: USER    Estimated Free Energy of Binding    =  -3.52 kcal/mol  [=(1)+(2)+(3)-(4)]
DOCKED: USER
DOCKED: USER    (1) Final Intermolecular Energy     =  -5.01 kcal/mol
DOCKED: USER        vdW + Hbond + desolv Energy     =  -5.01 kcal/mol
DOCKED: USER        Electrostatic Energy            =  +0.00 kcal/mol
DOCKED: USER        Moving Ligand-Fixed Receptor    =  -5.01 kcal/mol
DOCKED: USER        Moving Ligand-Moving Receptor   =  +0.00 kcal/mol
DOCKED: USER    (2) Final Total Internal Energy     =  -1.33 kcal/mol
DOCKED: USER    (3) Torsional Free Energy           =  +1.49 kcal/mol
DOCKED: USER    (4) Unbound System's Energy         =  -1.33 kcal/mol
DOCKED: USER
DOCKED: USER
DOCKED: REMARK  5 active torsions:
DOCKED: REMARK  status: ('A' for Active; 'I' for Inactive)
DOCKED: REMARK    1  A    between atoms: C_2  and  C_19 
DOCKED: REMARK    2  A    between atoms: C_2  and  C_11 
DOCKED: REMARK    3  A    between atoms: C_19  and  C_20 
DOCKED: REMARK    4  A    between atoms: C_20  and  C_21 
DOCKED: REMARK    5  A    between atoms: C_21  and  N_22 
DOCKED: USER                              x       y       z     vdW  Elec       q    Type
DOCKED: USER                           _______ _______ _______ _____ _____    ______ ____
DOCKED: ROOT
DOCKED: ATOM      1  O   UNL     1     -45.484 -20.053   7.856 -0.04 -0.00    -0.346 OA 
DOCKED: ATOM      2  C   UNL     1     -44.173 -20.285   8.463 -0.08 +0.00    +0.130 C  
DOCKED: ATOM      3  C   UNL     1     -43.720 -21.582   7.856 -0.14 +0.00    +0.004 A  
DOCKED: ATOM      4  C   UNL     1     -44.640 -21.999   6.905 -0.22 +0.00    +0.006 A  
DOCKED: ATOM      5  C   UNL     1     -45.742 -21.015   6.807 -0.18 +0.00    +0.169 C  
DOCKED: ATOM      6  C   UNL     1     -42.580 -22.328   8.118 -0.12 -0.00    -0.001 A  
DOCKED: ATOM      7  C   UNL     1     -44.457 -23.169   6.189 -0.26 +0.00    +0.008 A  
DOCKED: ATOM      8  C   UNL     1     -42.383 -23.513   7.408 -0.21 +0.00    +0.010 A  
DOCKED: ATOM      9  C   UNL     1     -43.316 -23.931   6.448 -0.23 +0.00    +0.068 A  
DOCKED: ATOM     10  N   UNL     1     -42.917 -26.134   5.143 -2.49 -0.00    -0.191 NA 
DOCKED: ATOM     11  C   UNL     1     -43.096 -25.146   5.729 -0.31 +0.00    +0.101 C  
DOCKED: ENDROOT
DOCKED: BRANCH   2  12
DOCKED: ATOM     12  C   UNL     1     -43.263 -19.115   8.108 -0.11 +0.00    +0.038 C  
DOCKED: BRANCH  12  13
DOCKED: ATOM     13  C   UNL     1     -42.665 -19.278   6.712 -0.22 +0.00    +0.038 C  
DOCKED: BRANCH  13  14
DOCKED: ATOM     14  C   UNL     1     -41.139 -19.213   6.757 -0.13 +0.00    +0.251 C  
DOCKED: BRANCH  14  15
DOCKED: ATOM     15  N   UNL     1     -40.638 -19.881   7.951 -0.07 +0.00    +0.141 N  
DOCKED: ATOM     16  C   UNL     1     -39.608 -20.860   7.601 -0.11 +0.00    +0.285 C  
DOCKED: ATOM     17  C   UNL     1     -40.107 -18.905   8.904 -0.02 +0.00    +0.285 C  
DOCKED: ENDBRANCH  14  15
DOCKED: ENDBRANCH  13  14
DOCKED: ENDBRANCH  12  13
DOCKED: ENDBRANCH   2  12
DOCKED: BRANCH   2  18
DOCKED: ATOM     18  C   UNL     1     -44.384 -20.375   9.937 -0.03 +0.00    +0.006 A  
DOCKED: ATOM     19  C   UNL     1     -43.667 -19.542  10.796 -0.01 +0.00    +0.001 A  
DOCKED: ATOM     20  C   UNL     1     -43.866 -19.628  12.174 -0.00 +0.00    +0.029 A  
DOCKED: ATOM     21  C   UNL     1     -44.780 -20.544  12.692 -0.00 +0.00    +0.140 A  
DOCKED: ATOM     22  C   UNL     1     -45.497 -21.376  11.833 -0.02 +0.00    +0.029 A  
DOCKED: ATOM     23  F   UNL     1     -44.972 -20.624  14.015 +0.00 -0.00    -0.204 F  
DOCKED: ATOM     24  C   UNL     1     -45.299 -21.292  10.453 -0.03 +0.00    +0.001 A  
DOCKED: ENDBRANCH   2  18
DOCKED: TORSDOF 5
DOCKED: TER
DOCKED: ENDMDL
________________________________________________________________________________


    FINAL DOCKED STATE:
    ________________________


Run:   130 / 512
Time taken for this run:   0.002s

DOCKED: MODEL        130
DOCKED: USER    Run = 130
DOCKED: USER
DOCKED: USER    Estimated Free Energy of Binding    =  -4.23 kcal/mol  [=(1)+(2)+(3)-(4)]
DOCKED: USER
DOCKED: USER    (1) Final Intermolecular Energy     =  -5.72 kcal/mol
DOCKED: USER        vdW + Hbond + desolv Energy     =  -5.72 kcal/mol
DOCKED: USER        Electrostatic Energy            =  +0.00 kcal/mol
DOCKED: USER        Moving Ligand-Fixed Receptor    =  -5.72 kcal/mol
DOCKED: USER        Moving Ligand-Moving Receptor   =  +0.00 kcal/mol
DOCKED: USER    (2) Final Total Internal Energy     =  -1.05 kcal/mol
DOCKED: USER    (3) Torsional Free Energy           =  +1.49 kcal/mol
DOCKED: USER    (4) Unbound System's Energy         =  -1.05 kcal/mol
DOCKED: USER
DOCKED: USER
DOCKED: REMARK  5 active torsions:
DOCKED: REMARK  status: ('A' for Active; 'I' for Inactive)
DOCKED: REMARK    1  A    between atoms: C_2  and  C_19 
DOCKED: REMARK    2  A    between atoms: C_2  and  C_11 
DOCKED: REMARK    3  A    between atoms: C_19  and  C_20 
DOCKED: REMARK    4  A    between atoms: C_20  and  C_21 
DOCKED: REMARK    5  A    between atoms: C_21  and  N_22 
DOCKED: USER                              x       y       z     vdW  Elec       q    Type
DOCKED: USER                           _______ _______ _______ _____ _____    ______ ____
DOCKED: ROOT
DOCKED: ATOM      1  O   UNL     1     -35.014 -15.011  -1.016 -0.01 -0.00    -0.346 OA 
DOCKED: ATOM      2  C   UNL     1     -36.262 -15.613  -0.544 -0.08 +0.00    +0.130 C  
DOCKED: ATOM      3  C   UNL     1     -37.310 -15.018  -1.440 -0.19 +0.00    +0.004 A  
DOCKED: ATOM      4  C   UNL     1     -36.703 -14.232  -2.409 -0.16 +0.00    +0.006 A  
DOCKED: ATOM      5  C   UNL     1     -35.234 -14.262  -2.233 -0.04 +0.00    +0.169 C  
DOCKED: ATOM      6  C   UNL     1     -38.688 -15.170  -1.407 -0.29 -0.00    -0.001 A  
DOCKED: ATOM      7  C   UNL     1     -37.448 -13.571  -3.370 -0.24 +0.00    +0.008 A  
DOCKED: ATOM      8  C   UNL     1     -39.454 -14.506  -2.367 -0.19 +0.00    +0.010 A  
DOCKED: ATOM      9  C   UNL     1     -38.837 -13.711  -3.344 -0.30 +0.00    +0.068 A  
DOCKED: ATOM     10  N   UNL     1     -40.287 -12.496  -5.114 -2.41 -0.00    -0.191 NA 
DOCKED: ATOM     11  C   UNL     1     -39.636 -13.040  -4.319 -0.41 +0.00    +0.101 C  
DOCKED: ENDROOT
DOCKED: BRANCH   2  12
DOCKED: ATOM     12  C   UNL     1     -36.151 -17.127  -0.684 -0.07 +0.00    +0.038 C  
DOCKED: BRANCH  12  13
DOCKED: ATOM     13  C   UNL     1     -37.007 -17.847   0.356 -0.12 +0.00    +0.038 C  
DOCKED: BRANCH  13  14
DOCKED: ATOM     14  C   UNL     1     -38.492 -17.744   0.013 -0.14 +0.00    +0.251 C  
DOCKED: BRANCH  14  15
DOCKED: ATOM     15  N   UNL     1     -39.300 -17.838   1.223 -0.19 +0.00    +0.141 N  
DOCKED: ATOM     16  C   UNL     1     -38.465 -17.677   2.415 -0.07 +0.00    +0.285 C  
DOCKED: ATOM     17  C   UNL     1     -40.365 -16.835   1.211 -0.19 +0.00    +0.285 C  
DOCKED: ENDBRANCH  14  15
DOCKED: ENDBRANCH  13  14
DOCKED: ENDBRANCH  12  13
DOCKED: ENDBRANCH   2  12
DOCKED: BRANCH   2  18
DOCKED: ATOM     18  C   UNL     1     -36.425 -15.216   0.885 -0.13 +0.00    +0.006 A  
DOCKED: ATOM     19  C   UNL     1     -37.661 -14.761   1.345 -0.11 +0.00    +0.001 A  
DOCKED: ATOM     20  C   UNL     1     -37.812 -14.389   2.682 -0.10 +0.00    +0.029 A  
DOCKED: ATOM     21  C   UNL     1     -36.729 -14.474   3.556 -0.09 +0.00    +0.140 A  
DOCKED: ATOM     22  C   UNL     1     -35.494 -14.929   3.095 -0.08 +0.00    +0.029 A  
DOCKED: ATOM     23  F   UNL     1     -36.874 -14.119   4.839 -0.03 -0.00    -0.204 F  
DOCKED: ATOM     24  C   UNL     1     -35.341 -15.301   1.758 -0.08 +0.00    +0.001 A  
DOCKED: ENDBRANCH   2  18
DOCKED: TORSDOF 5
DOCKED: TER
DOCKED: ENDMDL
________________________________________________________________________________


    FINAL DOCKED STATE:
    ________________________


Run:   131 / 512
Time taken for this run:   0.002s

DOCKED: MODEL        131
DOCKED: USER    Run = 131
DOCKED: USER
DOCKED: USER    Estimated Free Energy of Binding    =  -4.43 kcal/mol  [=(1)+(2)+(3)-(4)]
DOCKED: USER
DOCKED: USER    (1) Final Intermolecular Energy     =  -5.92 kcal/mol
DOCKED: USER        vdW + Hbond + desolv Energy     =  -5.92 kcal/mol
DOCKED: USER        Electrostatic Energy            =  +0.00 kcal/mol
DOCKED: USER        Moving Ligand-Fixed Receptor    =  -5.92 kcal/mol
DOCKED: USER        Moving Ligand-Moving Receptor   =  +0.00 kcal/mol
DOCKED: USER    (2) Final Total Internal Energy     =  -1.51 kcal/mol
DOCKED: USER    (3) Torsional Free Energy           =  +1.49 kcal/mol
DOCKED: USER    (4) Unbound System's Energy         =  -1.51 kcal/mol
DOCKED: USER
DOCKED: USER
DOCKED: REMARK  5 active torsions:
DOCKED: REMARK  status: ('A' for Active; 'I' for Inactive)
DOCKED: REMARK    1  A    between atoms: C_2  and  C_19 
DOCKED: REMARK    2  A    between atoms: C_2  and  C_11 
DOCKED: REMARK    3  A    between atoms: C_19  and  C_20 
DOCKED: REMARK    4  A    between atoms: C_20  and  C_21 
DOCKED: REMARK    5  A    between atoms: C_21  and  N_22 
DOCKED: USER                              x       y       z     vdW  Elec       q    Type
DOCKED: USER                           _______ _______ _______ _____ _____    ______ ____
DOCKED: ROOT
DOCKED: ATOM      1  O   UNL     1     -39.216 -15.912   0.930 -0.10 -0.00    -0.346 OA 
DOCKED: ATOM      2  C   UNL     1     -37.906 -15.503   0.422 -0.18 +0.00    +0.130 C  
DOCKED: ATOM      3  C   UNL     1     -38.221 -14.820  -0.877 -0.21 +0.00    +0.004 A  
DOCKED: ATOM      4  C   UNL     1     -39.596 -14.746  -1.044 -0.24 +0.00    +0.006 A  
DOCKED: ATOM      5  C   UNL     1     -40.277 -15.353   0.121 -0.08 +0.00    +0.169 C  
DOCKED: ATOM      6  C   UNL     1     -37.359 -14.296  -1.830 -0.21 -0.00    -0.001 A  
DOCKED: ATOM      7  C   UNL     1     -40.155 -14.153  -2.163 -0.37 +0.00    +0.008 A  
DOCKED: ATOM      8  C   UNL     1     -37.907 -13.699  -2.966 -0.28 +0.00    +0.010 A  
DOCKED: ATOM      9  C   UNL     1     -39.298 -13.627  -3.132 -0.33 +0.00    +0.068 A  
DOCKED: ATOM     10  N   UNL     1     -40.283 -12.508  -5.250 -2.50 -0.00    -0.191 NA 
DOCKED: ATOM     11  C   UNL     1     -39.842 -13.010  -4.300 -0.40 +0.00    +0.101 C  
DOCKED: ENDROOT
DOCKED: BRANCH   2  12
DOCKED: ATOM     12  C   UNL     1     -37.262 -14.572   1.442 -0.11 +0.00    +0.038 C  
DOCKED: BRANCH  12  13
DOCKED: ATOM     13  C   UNL     1     -38.085 -14.497   2.726 -0.18 +0.00    +0.038 C  
DOCKED: BRANCH  13  14
DOCKED: ATOM     14  C   UNL     1     -37.436 -15.314   3.842 -0.07 +0.00    +0.251 C  
DOCKED: BRANCH  14  15
DOCKED: ATOM     15  N   UNL     1     -36.909 -16.566   3.314 -0.04 +0.00    +0.141 N  
DOCKED: ATOM     16  C   UNL     1     -35.493 -16.714   3.653 -0.01 +0.00    +0.285 C  
DOCKED: ATOM     17  C   UNL     1     -37.674 -17.704   3.825 -0.05 +0.00    +0.285 C  
DOCKED: ENDBRANCH  14  15
DOCKED: ENDBRANCH  13  14
DOCKED: ENDBRANCH  12  13
DOCKED: ENDBRANCH   2  12
DOCKED: BRANCH   2  18
DOCKED: ATOM     18  C   UNL     1     -37.100 -16.747   0.245 -0.10 +0.00    +0.006 A  
DOCKED: ATOM     19  C   UNL     1     -35.734 -16.660  -0.022 -0.04 +0.00    +0.001 A  
DOCKED: ATOM     20  C   UNL     1     -34.982 -17.823  -0.188 -0.02 +0.00    +0.029 A  
DOCKED: ATOM     21  C   UNL     1     -35.596 -19.071  -0.087 -0.06 +0.00    +0.140 A  
DOCKED: ATOM     22  C   UNL     1     -36.962 -19.157   0.180 -0.17 +0.00    +0.029 A  
DOCKED: ATOM     23  F   UNL     1     -34.873 -20.188  -0.244 -0.01 -0.00    -0.204 F  
DOCKED: ATOM     24  C   UNL     1     -37.715 -17.994   0.346 -0.17 +0.00    +0.001 A  
DOCKED: ENDBRANCH   2  18
DOCKED: TORSDOF 5
DOCKED: TER
DOCKED: ENDMDL
________________________________________________________________________________


    FINAL DOCKED STATE:
    ________________________


Run:   132 / 512
Time taken for this run:   0.002s

DOCKED: MODEL        132
DOCKED: USER    Run = 132
DOCKED: USER
DOCKED: USER    Estimated Free Energy of Binding    =  -4.26 kcal/mol  [=(1)+(2)+(3)-(4)]
DOCKED: USER
DOCKED: USER    (1) Final Intermolecular Energy     =  -5.75 kcal/mol
DOCKED: USER        vdW + Hbond + desolv Energy     =  -5.75 kcal/mol
DOCKED: USER        Electrostatic Energy            =  +0.00 kcal/mol
DOCKED: USER        Moving Ligand-Fixed Receptor    =  -5.75 kcal/mol
DOCKED: USER        Moving Ligand-Moving Receptor   =  +0.00 kcal/mol
DOCKED: USER    (2) Final Total Internal Energy     =  -1.44 kcal/mol
DOCKED: USER    (3) Torsional Free Energy           =  +1.49 kcal/mol
DOCKED: USER    (4) Unbound System's Energy         =  -1.44 kcal/mol
DOCKED: USER
DOCKED: USER
DOCKED: REMARK  5 active torsions:
DOCKED: REMARK  status: ('A' for Active; 'I' for Inactive)
DOCKED: REMARK    1  A    between atoms: C_2  and  C_19 
DOCKED: REMARK    2  A    between atoms: C_2  and  C_11 
DOCKED: REMARK    3  A    between atoms: C_19  and  C_20 
DOCKED: REMARK    4  A    between atoms: C_20  and  C_21 
DOCKED: REMARK    5  A    between atoms: C_21  and  N_22 
DOCKED: USER                              x       y       z     vdW  Elec       q    Type
DOCKED: USER                           _______ _______ _______ _____ _____    ______ ____
DOCKED: ROOT
DOCKED: ATOM      1  O   UNL     1     -41.380 -19.718   7.693 -0.04 -0.00    -0.346 OA 
DOCKED: ATOM      2  C   UNL     1     -42.821 -19.918   7.855 -0.12 +0.00    +0.130 C  
DOCKED: ATOM      3  C   UNL     1     -43.067 -21.270   7.248 -0.21 +0.00    +0.004 A  
DOCKED: ATOM      4  C   UNL     1     -41.858 -21.840   6.874 -0.26 +0.00    +0.006 A  
DOCKED: ATOM      5  C   UNL     1     -40.745 -20.926   7.213 -0.18 +0.00    +0.169 C  
DOCKED: ATOM      6  C   UNL     1     -44.263 -21.945   7.054 -0.21 -0.00    -0.001 A  
DOCKED: ATOM      7  C   UNL     1     -41.803 -23.095   6.292 -0.33 +0.00    +0.008 A  
DOCKED: ATOM      8  C   UNL     1     -44.225 -23.210   6.465 -0.24 +0.00    +0.010 A  
DOCKED: ATOM      9  C   UNL     1     -43.001 -23.782   6.086 -0.26 +0.00    +0.068 A  
DOCKED: ATOM     10  N   UNL     1     -42.965 -26.133   4.999 -2.40 -0.00    -0.191 NA 
DOCKED: ATOM     11  C   UNL     1     -42.981 -25.078   5.486 -0.38 +0.00    +0.101 C  
DOCKED: ENDROOT
DOCKED: BRANCH   2  12
DOCKED: ATOM     12  C   UNL     1     -43.152 -19.866   9.341 -0.04 +0.00    +0.038 C  
DOCKED: BRANCH  12  13
DOCKED: ATOM     13  C   UNL     1     -41.979 -19.321  10.154 -0.02 +0.00    +0.038 C  
DOCKED: BRANCH  13  14
DOCKED: ATOM     14  C   UNL     1     -42.423 -18.171  11.056 -0.00 +0.00    +0.251 C  
DOCKED: BRANCH  14  15
DOCKED: ATOM     15  N   UNL     1     -42.135 -16.890  10.423 -0.00 +0.00    +0.141 N  
DOCKED: ATOM     16  C   UNL     1     -41.139 -17.050   9.363 -0.00 +0.00    +0.285 C  
DOCKED: ATOM     17  C   UNL     1     -43.359 -16.295   9.883 -0.00 +0.00    +0.285 C  
DOCKED: ENDBRANCH  14  15
DOCKED: ENDBRANCH  13  14
DOCKED: ENDBRANCH  12  13
DOCKED: ENDBRANCH   2  12
DOCKED: BRANCH   2  18
DOCKED: ATOM     18  C   UNL     1     -43.500 -18.816   7.113 -0.20 +0.00    +0.006 A  
DOCKED: ATOM     19  C   UNL     1     -42.745 -17.903   6.378 -0.18 +0.00    +0.001 A  
DOCKED: ATOM     20  C   UNL     1     -43.382 -16.872   5.685 -0.15 +0.00    +0.029 A  
DOCKED: ATOM     21  C   UNL     1     -44.770 -16.757   5.727 -0.11 +0.00    +0.140 A  
DOCKED: ATOM     22  C   UNL     1     -45.524 -17.671   6.463 -0.19 +0.00    +0.029 A  
DOCKED: ATOM     23  F   UNL     1     -45.381 -15.768   5.061 -0.03 -0.00    -0.204 F  
DOCKED: ATOM     24  C   UNL     1     -44.889 -18.702   7.157 -0.20 +0.00    +0.001 A  
DOCKED: ENDBRANCH   2  18
DOCKED: TORSDOF 5
DOCKED: TER
DOCKED: ENDMDL
________________________________________________________________________________


    FINAL DOCKED STATE:
    ________________________


Run:   133 / 512
Time taken for this run:   0.002s

DOCKED: MODEL        133
DOCKED: USER    Run = 133
DOCKED: USER
DOCKED: USER    Estimated Free Energy of Binding    =  -3.77 kcal/mol  [=(1)+(2)+(3)-(4)]
DOCKED: USER
DOCKED: USER    (1) Final Intermolecular Energy     =  -5.26 kcal/mol
DOCKED: USER        vdW + Hbond + desolv Energy     =  -5.26 kcal/mol
DOCKED: USER        Electrostatic Energy            =  +0.00 kcal/mol
DOCKED: USER        Moving Ligand-Fixed Receptor    =  -5.26 kcal/mol
DOCKED: USER        Moving Ligand-Moving Receptor   =  +0.00 kcal/mol
DOCKED: USER    (2) Final Total Internal Energy     =  -1.50 kcal/mol
DOCKED: USER    (3) Torsional Free Energy           =  +1.49 kcal/mol
DOCKED: USER    (4) Unbound System's Energy         =  -1.50 kcal/mol
DOCKED: USER
DOCKED: USER
DOCKED: REMARK  5 active torsions:
DOCKED: REMARK  status: ('A' for Active; 'I' for Inactive)
DOCKED: REMARK    1  A    between atoms: C_2  and  C_19 
DOCKED: REMARK    2  A    between atoms: C_2  and  C_11 
DOCKED: REMARK    3  A    between atoms: C_19  and  C_20 
DOCKED: REMARK    4  A    between atoms: C_20  and  C_21 
DOCKED: REMARK    5  A    between atoms: C_21  and  N_22 
DOCKED: USER                              x       y       z     vdW  Elec       q    Type
DOCKED: USER                           _______ _______ _______ _____ _____    ______ ____
DOCKED: ROOT
DOCKED: ATOM      1  O   UNL     1     -32.862 -21.624  -0.451 +0.01 -0.00    -0.346 OA 
DOCKED: ATOM      2  C   UNL     1     -33.936 -20.966   0.295 -0.05 +0.00    +0.130 C  
DOCKED: ATOM      3  C   UNL     1     -34.503 -22.062   1.151 -0.11 +0.00    +0.004 A  
DOCKED: ATOM      4  C   UNL     1     -33.750 -23.217   0.991 -0.10 +0.00    +0.006 A  
DOCKED: ATOM      5  C   UNL     1     -32.641 -22.966   0.043 -0.03 +0.00    +0.169 C  
DOCKED: ATOM      6  C   UNL     1     -35.591 -22.036   2.010 -0.23 -0.00    -0.001 A  
DOCKED: ATOM      7  C   UNL     1     -34.058 -24.379   1.676 -0.17 +0.00    +0.008 A  
DOCKED: ATOM      8  C   UNL     1     -35.918 -23.202   2.705 -0.26 +0.00    +0.010 A  
DOCKED: ATOM      9  C   UNL     1     -35.155 -24.367   2.539 -0.28 +0.00    +0.068 A  
DOCKED: ATOM     10  N   UNL     1     -35.786 -26.512   3.849 -2.55 -0.00    -0.191 NA 
DOCKED: ATOM     11  C   UNL     1     -35.503 -25.550   3.261 -0.39 +0.00    +0.101 C  
DOCKED: ENDROOT
DOCKED: BRANCH   2  12
DOCKED: ATOM     12  C   UNL     1     -33.331 -19.830   1.111 -0.02 +0.00    +0.038 C  
DOCKED: BRANCH  12  13
DOCKED: ATOM     13  C   UNL     1     -32.874 -18.682   0.213 -0.00 +0.00    +0.038 C  
DOCKED: BRANCH  13  14
DOCKED: ATOM     14  C   UNL     1     -31.552 -19.016  -0.476 -0.00 +0.00    +0.251 C  
DOCKED: BRANCH  14  15
DOCKED: ATOM     15  N   UNL     1     -31.536 -18.479  -1.831 -0.00 +0.00    +0.141 N  
DOCKED: ATOM     16  C   UNL     1     -31.379 -19.554  -2.811 +0.00 +0.00    +0.285 C  
DOCKED: ATOM     17  C   UNL     1     -32.760 -17.722  -2.100 +0.00 +0.00    +0.285 C  
DOCKED: ENDBRANCH  14  15
DOCKED: ENDBRANCH  13  14
DOCKED: ENDBRANCH  12  13
DOCKED: ENDBRANCH   2  12
DOCKED: BRANCH   2  18
DOCKED: ATOM     18  C   UNL     1     -34.911 -20.449  -0.709 -0.11 +0.00    +0.006 A  
DOCKED: ATOM     19  C   UNL     1     -35.939 -19.597  -0.307 -0.14 +0.00    +0.001 A  
DOCKED: ATOM     20  C   UNL     1     -36.850 -19.114  -1.247 -0.18 +0.00    +0.029 A  
DOCKED: ATOM     21  C   UNL     1     -36.732 -19.482  -2.586 -0.18 +0.00    +0.140 A  
DOCKED: ATOM     22  C   UNL     1     -35.703 -20.334  -2.987 -0.21 +0.00    +0.029 A  
DOCKED: ATOM     23  F   UNL     1     -37.606 -19.017  -3.488 -0.11 -0.00    -0.204 F  
DOCKED: ATOM     24  C   UNL     1     -34.791 -20.819  -2.048 -0.14 +0.00    +0.001 A  
DOCKED: ENDBRANCH   2  18
DOCKED: TORSDOF 5
DOCKED: TER
DOCKED: ENDMDL
________________________________________________________________________________


    FINAL DOCKED STATE:
    ________________________


Run:   134 / 512
Time taken for this run:   0.002s

DOCKED: MODEL        134
DOCKED: USER    Run = 134
DOCKED: USER
DOCKED: USER    Estimated Free Energy of Binding    =  -2.94 kcal/mol  [=(1)+(2)+(3)-(4)]
DOCKED: USER
DOCKED: USER    (1) Final Intermolecular Energy     =  -4.44 kcal/mol
DOCKED: USER        vdW + Hbond + desolv Energy     =  -4.44 kcal/mol
DOCKED: USER        Electrostatic Energy            =  +0.00 kcal/mol
DOCKED: USER        Moving Ligand-Fixed Receptor    =  -4.44 kcal/mol
DOCKED: USER        Moving Ligand-Moving Receptor   =  +0.00 kcal/mol
DOCKED: USER    (2) Final Total Internal Energy     =  -1.48 kcal/mol
DOCKED: USER    (3) Torsional Free Energy           =  +1.49 kcal/mol
DOCKED: USER    (4) Unbound System's Energy         =  -1.48 kcal/mol
DOCKED: USER
DOCKED: USER
DOCKED: REMARK  5 active torsions:
DOCKED: REMARK  status: ('A' for Active; 'I' for Inactive)
DOCKED: REMARK    1  A    between atoms: C_2  and  C_19 
DOCKED: REMARK    2  A    between atoms: C_2  and  C_11 
DOCKED: REMARK    3  A    between atoms: C_19  and  C_20 
DOCKED: REMARK    4  A    between atoms: C_20  and  C_21 
DOCKED: REMARK    5  A    between atoms: C_21  and  N_22 
DOCKED: USER                              x       y       z     vdW  Elec       q    Type
DOCKED: USER                           _______ _______ _______ _____ _____    ______ ____
DOCKED: ROOT
DOCKED: ATOM      1  O   UNL     1     -33.760 -14.348  -4.308 +0.01 -0.00    -0.346 OA 
DOCKED: ATOM      2  C   UNL     1     -34.080 -13.316  -3.321 -0.02 +0.00    +0.130 C  
DOCKED: ATOM      3  C   UNL     1     -35.525 -13.004  -3.582 -0.09 +0.00    +0.004 A  
DOCKED: ATOM      4  C   UNL     1     -36.019 -13.859  -4.557 -0.11 +0.00    +0.006 A  
DOCKED: ATOM      5  C   UNL     1     -34.955 -14.791  -4.993 -0.04 +0.00    +0.169 C  
DOCKED: ATOM      6  C   UNL     1     -36.341 -12.047  -2.996 -0.20 -0.00    -0.001 A  
DOCKED: ATOM      7  C   UNL     1     -37.335 -13.786  -4.981 -0.24 +0.00    +0.008 A  
DOCKED: ATOM      8  C   UNL     1     -37.669 -11.958  -3.416 -0.30 +0.00    +0.010 A  
DOCKED: ATOM      9  C   UNL     1     -38.163 -12.824  -4.403 -0.33 +0.00    +0.068 A  
DOCKED: ATOM     10  N   UNL     1     -40.635 -12.634  -5.156 -2.56 -0.00    -0.191 NA 
DOCKED: ATOM     11  C   UNL     1     -39.527 -12.719  -4.819 -0.41 +0.00    +0.101 C  
DOCKED: ENDROOT
DOCKED: BRANCH   2  12
DOCKED: ATOM     12  C   UNL     1     -33.839 -13.889  -1.929 -0.03 +0.00    +0.038 C  
DOCKED: BRANCH  12  13
DOCKED: ATOM     13  C   UNL     1     -33.264 -15.302  -2.000 -0.01 +0.00    +0.038 C  
DOCKED: BRANCH  13  14
DOCKED: ATOM     14  C   UNL     1     -31.788 -15.314  -1.609 -0.00 +0.00    +0.251 C  
DOCKED: BRANCH  14  15
DOCKED: ATOM     15  N   UNL     1     -30.974 -14.760  -2.684 -0.00 +0.00    +0.141 N  
DOCKED: ATOM     16  C   UNL     1     -30.025 -13.777  -2.160 +0.00 +0.00    +0.285 C  
DOCKED: ATOM     17  C   UNL     1     -30.261 -15.825  -3.393 +0.00 +0.00    +0.285 C  
DOCKED: ENDBRANCH  14  15
DOCKED: ENDBRANCH  13  14
DOCKED: ENDBRANCH  12  13
DOCKED: ENDBRANCH   2  12
DOCKED: BRANCH   2  18
DOCKED: ATOM     18  C   UNL     1     -33.177 -12.159  -3.591 -0.02 +0.00    +0.006 A  
DOCKED: ATOM     19  C   UNL     1     -32.740 -11.356  -2.538 -0.02 +0.00    +0.001 A  
DOCKED: ATOM     20  C   UNL     1     -31.896 -10.275  -2.792 -0.01 +0.00    +0.029 A  
DOCKED: ATOM     21  C   UNL     1     -31.490  -9.998  -4.097 -0.00 +0.00    +0.140 A  
DOCKED: ATOM     22  C   UNL     1     -31.928 -10.802  -5.149 -0.03 +0.00    +0.029 A  
DOCKED: ATOM     23  F   UNL     1     -30.678  -8.961  -4.340 +0.01 -0.00    -0.204 F  
DOCKED: ATOM     24  C   UNL     1     -32.773 -11.884  -4.896 -0.03 +0.00    +0.001 A  
DOCKED: ENDBRANCH   2  18
DOCKED: TORSDOF 5
DOCKED: TER
DOCKED: ENDMDL
________________________________________________________________________________


    FINAL DOCKED STATE:
    ________________________


Run:   135 / 512
Time taken for this run:   0.002s

DOCKED: MODEL        135
DOCKED: USER    Run = 135
DOCKED: USER
DOCKED: USER    Estimated Free Energy of Binding    =  -4.28 kcal/mol  [=(1)+(2)+(3)-(4)]
DOCKED: USER
DOCKED: USER    (1) Final Intermolecular Energy     =  -5.77 kcal/mol
DOCKED: USER        vdW + Hbond + desolv Energy     =  -5.77 kcal/mol
DOCKED: USER        Electrostatic Energy            =  +0.00 kcal/mol
DOCKED: USER        Moving Ligand-Fixed Receptor    =  -5.77 kcal/mol
DOCKED: USER        Moving Ligand-Moving Receptor   =  +0.00 kcal/mol
DOCKED: USER    (2) Final Total Internal Energy     =  -1.38 kcal/mol
DOCKED: USER    (3) Torsional Free Energy           =  +1.49 kcal/mol
DOCKED: USER    (4) Unbound System's Energy         =  -1.38 kcal/mol
DOCKED: USER
DOCKED: USER
DOCKED: REMARK  5 active torsions:
DOCKED: REMARK  status: ('A' for Active; 'I' for Inactive)
DOCKED: REMARK    1  A    between atoms: C_2  and  C_19 
DOCKED: REMARK    2  A    between atoms: C_2  and  C_11 
DOCKED: REMARK    3  A    between atoms: C_19  and  C_20 
DOCKED: REMARK    4  A    between atoms: C_20  and  C_21 
DOCKED: REMARK    5  A    between atoms: C_21  and  N_22 
DOCKED: USER                              x       y       z     vdW  Elec       q    Type
DOCKED: USER                           _______ _______ _______ _____ _____    ______ ____
DOCKED: ROOT
DOCKED: ATOM      1  O   UNL     1     -38.982 -21.420   8.406 -0.07 -0.00    -0.346 OA 
DOCKED: ATOM      2  C   UNL     1     -40.240 -20.743   8.088 -0.11 +0.00    +0.130 C  
DOCKED: ATOM      3  C   UNL     1     -41.040 -21.791   7.370 -0.22 +0.00    +0.004 A  
DOCKED: ATOM      4  C   UNL     1     -40.347 -22.993   7.375 -0.25 +0.00    +0.006 A  
DOCKED: ATOM      5  C   UNL     1     -39.064 -22.830   8.096 -0.14 +0.00    +0.169 C  
DOCKED: ATOM      6  C   UNL     1     -42.288 -21.692   6.771 -0.25 -0.00    -0.001 A  
DOCKED: ATOM      7  C   UNL     1     -40.870 -24.129   6.781 -0.35 +0.00    +0.008 A  
DOCKED: ATOM      8  C   UNL     1     -42.827 -22.827   6.165 -0.29 +0.00    +0.010 A  
DOCKED: ATOM      9  C   UNL     1     -42.121 -24.040   6.170 -0.31 +0.00    +0.068 A  
DOCKED: ATOM     10  N   UNL     1     -43.153 -26.130   5.039 -2.40 -0.00    -0.191 NA 
DOCKED: ATOM     11  C   UNL     1     -42.690 -25.192   5.545 -0.35 +0.00    +0.101 C  
DOCKED: ENDROOT
DOCKED: BRANCH   2  12
DOCKED: ATOM     12  C   UNL     1     -40.887 -20.291   9.392 -0.04 +0.00    +0.038 C  
DOCKED: BRANCH  12  13
DOCKED: ATOM     13  C   UNL     1     -42.032 -21.218   9.795 -0.04 +0.00    +0.038 C  
DOCKED: BRANCH  13  14
DOCKED: ATOM     14  C   UNL     1     -41.625 -22.119  10.960 -0.01 +0.00    +0.251 C  
DOCKED: BRANCH  14  15
DOCKED: ATOM     15  N   UNL     1     -41.241 -23.438  10.470 -0.07 +0.00    +0.141 N  
DOCKED: ATOM     16  C   UNL     1     -39.963 -23.852  11.051 -0.08 +0.00    +0.285 C  
DOCKED: ATOM     17  C   UNL     1     -42.280 -24.424  10.774 -0.08 +0.00    +0.285 C  
DOCKED: ENDBRANCH  14  15
DOCKED: ENDBRANCH  13  14
DOCKED: ENDBRANCH  12  13
DOCKED: ENDBRANCH   2  12
DOCKED: BRANCH   2  18
DOCKED: ATOM     18  C   UNL     1     -39.901 -19.576   7.222 -0.14 +0.00    +0.006 A  
DOCKED: ATOM     19  C   UNL     1     -40.727 -18.453   7.213 -0.11 +0.00    +0.001 A  
DOCKED: ATOM     20  C   UNL     1     -40.409 -17.362   6.402 -0.09 +0.00    +0.029 A  
DOCKED: ATOM     21  C   UNL     1     -39.266 -17.396   5.604 -0.07 +0.00    +0.140 A  
DOCKED: ATOM     22  C   UNL     1     -38.441 -18.520   5.615 -0.12 +0.00    +0.029 A  
DOCKED: ATOM     23  F   UNL     1     -38.960 -16.348   4.828 -0.01 -0.00    -0.204 F  
DOCKED: ATOM     24  C   UNL     1     -38.758 -19.612   6.424 -0.15 +0.00    +0.001 A  
DOCKED: ENDBRANCH   2  18
DOCKED: TORSDOF 5
DOCKED: TER
DOCKED: ENDMDL
________________________________________________________________________________


    FINAL DOCKED STATE:
    ________________________


Run:   136 / 512
Time taken for this run:   0.002s

DOCKED: MODEL        136
DOCKED: USER    Run = 136
DOCKED: USER
DOCKED: USER    Estimated Free Energy of Binding    =  -4.12 kcal/mol  [=(1)+(2)+(3)-(4)]
DOCKED: USER
DOCKED: USER    (1) Final Intermolecular Energy     =  -5.61 kcal/mol
DOCKED: USER        vdW + Hbond + desolv Energy     =  -5.61 kcal/mol
DOCKED: USER        Electrostatic Energy            =  +0.00 kcal/mol
DOCKED: USER        Moving Ligand-Fixed Receptor    =  -5.61 kcal/mol
DOCKED: USER        Moving Ligand-Moving Receptor   =  +0.00 kcal/mol
DOCKED: USER    (2) Final Total Internal Energy     =  -1.31 kcal/mol
DOCKED: USER    (3) Torsional Free Energy           =  +1.49 kcal/mol
DOCKED: USER    (4) Unbound System's Energy         =  -1.31 kcal/mol
DOCKED: USER
DOCKED: USER
DOCKED: REMARK  5 active torsions:
DOCKED: REMARK  status: ('A' for Active; 'I' for Inactive)
DOCKED: REMARK    1  A    between atoms: C_2  and  C_19 
DOCKED: REMARK    2  A    between atoms: C_2  and  C_11 
DOCKED: REMARK    3  A    between atoms: C_19  and  C_20 
DOCKED: REMARK    4  A    between atoms: C_20  and  C_21 
DOCKED: REMARK    5  A    between atoms: C_21  and  N_22 
DOCKED: USER                              x       y       z     vdW  Elec       q    Type
DOCKED: USER                           _______ _______ _______ _____ _____    ______ ____
DOCKED: ROOT
DOCKED: ATOM      1  O   UNL     1     -41.629 -20.362   9.175 -0.00 -0.00    -0.346 OA 
DOCKED: ATOM      2  C   UNL     1     -41.177 -20.132   7.802 -0.12 +0.00    +0.130 C  
DOCKED: ATOM      3  C   UNL     1     -41.564 -21.391   7.081 -0.23 +0.00    +0.004 A  
DOCKED: ATOM      4  C   UNL     1     -42.273 -22.221   7.937 -0.14 +0.00    +0.006 A  
DOCKED: ATOM      5  C   UNL     1     -42.414 -21.574   9.261 -0.04 +0.00    +0.169 C  
DOCKED: ATOM      6  C   UNL     1     -41.318 -21.766   5.768 -0.13 -0.00    -0.001 A  
DOCKED: ATOM      7  C   UNL     1     -42.754 -23.449   7.517 -0.19 +0.00    +0.008 A  
DOCKED: ATOM      8  C   UNL     1     -41.793 -23.004   5.330 -0.34 +0.00    +0.010 A  
DOCKED: ATOM      9  C   UNL     1     -42.508 -23.840   6.200 -0.28 +0.00    +0.068 A  
DOCKED: ATOM     10  N   UNL     1     -43.379 -26.129   5.353 -2.50 -0.00    -0.191 NA 
DOCKED: ATOM     11  C   UNL     1     -42.988 -25.103   5.733 -0.33 +0.00    +0.101 C  
DOCKED: ENDROOT
DOCKED: BRANCH   2  12
DOCKED: ATOM     12  C   UNL     1     -41.886 -18.897   7.261 -0.16 +0.00    +0.038 C  
DOCKED: BRANCH  12  13
DOCKED: ATOM     13  C   UNL     1     -43.100 -19.276   6.415 -0.19 +0.00    +0.038 C  
DOCKED: BRANCH  13  14
DOCKED: ATOM     14  C   UNL     1     -44.287 -18.363   6.716 -0.16 +0.00    +0.251 C  
DOCKED: BRANCH  14  15
DOCKED: ATOM     15  N   UNL     1     -45.435 -19.150   7.150 -0.17 +0.00    +0.141 N  
DOCKED: ATOM     16  C   UNL     1     -45.228 -20.569   6.859 -0.13 +0.00    +0.285 C  
DOCKED: ATOM     17  C   UNL     1     -45.683 -18.956   8.580 -0.02 +0.00    +0.285 C  
DOCKED: ENDBRANCH  14  15
DOCKED: ENDBRANCH  13  14
DOCKED: ENDBRANCH  12  13
DOCKED: ENDBRANCH   2  12
DOCKED: BRANCH   2  18
DOCKED: ATOM     18  C   UNL     1     -39.701 -19.925   7.858 -0.11 +0.00    +0.006 A  
DOCKED: ATOM     19  C   UNL     1     -38.875 -20.924   8.372 -0.11 +0.00    +0.001 A  
DOCKED: ATOM     20  C   UNL     1     -37.495 -20.728   8.424 -0.09 +0.00    +0.029 A  
DOCKED: ATOM     21  C   UNL     1     -36.942 -19.535   7.962 -0.04 +0.00    +0.140 A  
DOCKED: ATOM     22  C   UNL     1     -37.768 -18.536   7.448 -0.05 +0.00    +0.029 A  
DOCKED: ATOM     23  F   UNL     1     -35.616 -19.348   8.011 -0.00 -0.00    -0.204 F  
DOCKED: ATOM     24  C   UNL     1     -39.149 -18.730   7.396 -0.08 +0.00    +0.001 A  
DOCKED: ENDBRANCH   2  18
DOCKED: TORSDOF 5
DOCKED: TER
DOCKED: ENDMDL
________________________________________________________________________________


    FINAL DOCKED STATE:
    ________________________


Run:   137 / 512
Time taken for this run:   0.002s

DOCKED: MODEL        137
DOCKED: USER    Run = 137
DOCKED: USER
DOCKED: USER    Estimated Free Energy of Binding    =  -4.09 kcal/mol  [=(1)+(2)+(3)-(4)]
DOCKED: USER
DOCKED: USER    (1) Final Intermolecular Energy     =  -5.58 kcal/mol
DOCKED: USER        vdW + Hbond + desolv Energy     =  -5.58 kcal/mol
DOCKED: USER        Electrostatic Energy            =  +0.00 kcal/mol
DOCKED: USER        Moving Ligand-Fixed Receptor    =  -5.58 kcal/mol
DOCKED: USER        Moving Ligand-Moving Receptor   =  +0.00 kcal/mol
DOCKED: USER    (2) Final Total Internal Energy     =  -1.30 kcal/mol
DOCKED: USER    (3) Torsional Free Energy           =  +1.49 kcal/mol
DOCKED: USER    (4) Unbound System's Energy         =  -1.30 kcal/mol
DOCKED: USER
DOCKED: USER
DOCKED: REMARK  5 active torsions:
DOCKED: REMARK  status: ('A' for Active; 'I' for Inactive)
DOCKED: REMARK    1  A    between atoms: C_2  and  C_19 
DOCKED: REMARK    2  A    between atoms: C_2  and  C_11 
DOCKED: REMARK    3  A    between atoms: C_19  and  C_20 
DOCKED: REMARK    4  A    between atoms: C_20  and  C_21 
DOCKED: REMARK    5  A    between atoms: C_21  and  N_22 
DOCKED: USER                              x       y       z     vdW  Elec       q    Type
DOCKED: USER                           _______ _______ _______ _____ _____    ______ ____
DOCKED: ROOT
DOCKED: ATOM      1  O   UNL     1     -40.794 -19.443   6.690 -0.08 -0.00    -0.346 OA 
DOCKED: ATOM      2  C   UNL     1     -41.838 -19.780   7.659 -0.13 +0.00    +0.130 C  
DOCKED: ATOM      3  C   UNL     1     -42.229 -21.182   7.293 -0.20 +0.00    +0.004 A  
DOCKED: ATOM      4  C   UNL     1     -41.407 -21.647   6.276 -0.28 +0.00    +0.006 A  
DOCKED: ATOM      5  C   UNL     1     -40.420 -20.605   5.913 +0.13 +0.00    +0.169 C  
DOCKED: ATOM      6  C   UNL     1     -43.226 -21.987   7.825 -0.14 -0.00    -0.001 A  
DOCKED: ATOM      7  C   UNL     1     -41.554 -22.921   5.756 -0.32 +0.00    +0.008 A  
DOCKED: ATOM      8  C   UNL     1     -43.390 -23.273   7.308 -0.19 +0.00    +0.010 A  
DOCKED: ATOM      9  C   UNL     1     -42.557 -23.738   6.279 -0.27 +0.00    +0.068 A  
DOCKED: ATOM     10  N   UNL     1     -42.885 -26.133   5.346 -2.60 -0.00    -0.191 NA 
DOCKED: ATOM     11  C   UNL     1     -42.738 -25.058   5.764 -0.34 +0.00    +0.101 C  
DOCKED: ENDROOT
DOCKED: BRANCH   2  12
DOCKED: ATOM     12  C   UNL     1     -41.246 -19.676   9.060 -0.05 +0.00    +0.038 C  
DOCKED: BRANCH  12  13
DOCKED: ATOM     13  C   UNL     1     -39.903 -20.397   9.153 -0.06 +0.00    +0.038 C  
DOCKED: BRANCH  13  14
DOCKED: ATOM     14  C   UNL     1     -40.004 -21.634  10.043 -0.03 +0.00    +0.251 C  
DOCKED: BRANCH  14  15
DOCKED: ATOM     15  N   UNL     1     -39.812 -22.844   9.253 -0.11 +0.00    +0.141 N  
DOCKED: ATOM     16  C   UNL     1     -38.397 -23.027   8.924 -0.10 +0.00    +0.285 C  
DOCKED: ATOM     17  C   UNL     1     -40.322 -24.014   9.970 -0.06 +0.00    +0.285 C  
DOCKED: ENDBRANCH  14  15
DOCKED: ENDBRANCH  13  14
DOCKED: ENDBRANCH  12  13
DOCKED: ENDBRANCH   2  12
DOCKED: BRANCH   2  18
DOCKED: ATOM     18  C   UNL     1     -42.945 -18.798   7.467 -0.15 +0.00    +0.006 A  
DOCKED: ATOM     19  C   UNL     1     -44.270 -19.230   7.489 -0.18 +0.00    +0.001 A  
DOCKED: ATOM     20  C   UNL     1     -45.305 -18.311   7.309 -0.16 +0.00    +0.029 A  
DOCKED: ATOM     21  C   UNL     1     -45.012 -16.962   7.109 -0.08 +0.00    +0.140 A  
DOCKED: ATOM     22  C   UNL     1     -43.686 -16.531   7.088 -0.09 +0.00    +0.029 A  
DOCKED: ATOM     23  F   UNL     1     -46.005 -16.080   6.938 +0.00 -0.00    -0.204 F  
DOCKED: ATOM     24  C   UNL     1     -42.651 -17.450   7.267 -0.11 +0.00    +0.001 A  
DOCKED: ENDBRANCH   2  18
DOCKED: TORSDOF 5
DOCKED: TER
DOCKED: ENDMDL
________________________________________________________________________________


    FINAL DOCKED STATE:
    ________________________


Run:   138 / 512
Time taken for this run:   0.002s

DOCKED: MODEL        138
DOCKED: USER    Run = 138
DOCKED: USER
DOCKED: USER    Estimated Free Energy of Binding    =  -4.28 kcal/mol  [=(1)+(2)+(3)-(4)]
DOCKED: USER
DOCKED: USER    (1) Final Intermolecular Energy     =  -5.77 kcal/mol
DOCKED: USER        vdW + Hbond + desolv Energy     =  -5.77 kcal/mol
DOCKED: USER        Electrostatic Energy            =  +0.00 kcal/mol
DOCKED: USER        Moving Ligand-Fixed Receptor    =  -5.77 kcal/mol
DOCKED: USER        Moving Ligand-Moving Receptor   =  +0.00 kcal/mol
DOCKED: USER    (2) Final Total Internal Energy     =  -1.33 kcal/mol
DOCKED: USER    (3) Torsional Free Energy           =  +1.49 kcal/mol
DOCKED: USER    (4) Unbound System's Energy         =  -1.33 kcal/mol
DOCKED: USER
DOCKED: USER
DOCKED: REMARK  5 active torsions:
DOCKED: REMARK  status: ('A' for Active; 'I' for Inactive)
DOCKED: REMARK    1  A    between atoms: C_2  and  C_19 
DOCKED: REMARK    2  A    between atoms: C_2  and  C_11 
DOCKED: REMARK    3  A    between atoms: C_19  and  C_20 
DOCKED: REMARK    4  A    between atoms: C_20  and  C_21 
DOCKED: REMARK    5  A    between atoms: C_21  and  N_22 
DOCKED: USER                              x       y       z     vdW  Elec       q    Type
DOCKED: USER                           _______ _______ _______ _____ _____    ______ ____
DOCKED: ROOT
DOCKED: ATOM      1  O   UNL     1     -39.031 -20.839   8.105 -0.06 -0.00    -0.346 OA 
DOCKED: ATOM      2  C   UNL     1     -40.217 -20.237   7.495 -0.14 +0.00    +0.130 C  
DOCKED: ATOM      3  C   UNL     1     -40.959 -21.408   6.919 -0.24 +0.00    +0.004 A  
DOCKED: ATOM      4  C   UNL     1     -40.313 -22.586   7.266 -0.23 +0.00    +0.006 A  
DOCKED: ATOM      5  C   UNL     1     -39.123 -22.282   8.092 -0.14 +0.00    +0.169 C  
DOCKED: ATOM      6  C   UNL     1     -42.120 -21.430   6.160 -0.22 -0.00    -0.001 A  
DOCKED: ATOM      7  C   UNL     1     -40.798 -23.819   6.864 -0.33 +0.00    +0.008 A  
DOCKED: ATOM      8  C   UNL     1     -42.619 -22.665   5.744 -0.27 +0.00    +0.010 A  
DOCKED: ATOM      9  C   UNL     1     -41.962 -23.853   6.094 -0.32 +0.00    +0.068 A  
DOCKED: ATOM     10  N   UNL     1     -42.919 -26.130   5.309 -2.59 -0.00    -0.191 NA 
DOCKED: ATOM     11  C   UNL     1     -42.489 -25.109   5.661 -0.34 +0.00    +0.101 C  
DOCKED: ENDROOT
DOCKED: BRANCH   2  12
DOCKED: ATOM     12  C   UNL     1     -41.003 -19.511   8.580 -0.06 +0.00    +0.038 C  
DOCKED: BRANCH  12  13
DOCKED: ATOM     13  C   UNL     1     -41.321 -20.439   9.751 -0.04 +0.00    +0.038 C  
DOCKED: BRANCH  13  14
DOCKED: ATOM     14  C   UNL     1     -42.678 -21.115   9.563 -0.02 +0.00    +0.251 C  
DOCKED: BRANCH  14  15
DOCKED: ATOM     15  N   UNL     1     -42.811 -22.247  10.473 -0.02 +0.00    +0.141 N  
DOCKED: ATOM     16  C   UNL     1     -44.151 -22.829  10.379 -0.01 +0.00    +0.285 C  
DOCKED: ATOM     17  C   UNL     1     -41.796 -23.261  10.185 -0.04 +0.00    +0.285 C  
DOCKED: ENDBRANCH  14  15
DOCKED: ENDBRANCH  13  14
DOCKED: ENDBRANCH  12  13
DOCKED: ENDBRANCH   2  12
DOCKED: BRANCH   2  18
DOCKED: ATOM     18  C   UNL     1     -39.735 -19.284   6.452 -0.16 +0.00    +0.006 A  
DOCKED: ATOM     19  C   UNL     1     -38.657 -19.630   5.637 -0.10 +0.00    +0.001 A  
DOCKED: ATOM     20  C   UNL     1     -38.207 -18.739   4.662 -0.14 +0.00    +0.029 A  
DOCKED: ATOM     21  C   UNL     1     -38.835 -17.504   4.504 -0.07 +0.00    +0.140 A  
DOCKED: ATOM     22  C   UNL     1     -39.912 -17.159   5.319 -0.10 +0.00    +0.029 A  
DOCKED: ATOM     23  F   UNL     1     -38.404 -16.649   3.567 -0.01 -0.00    -0.204 F  
DOCKED: ATOM     24  C   UNL     1     -40.363 -18.050   6.294 -0.12 +0.00    +0.001 A  
DOCKED: ENDBRANCH   2  18
DOCKED: TORSDOF 5
DOCKED: TER
DOCKED: ENDMDL
________________________________________________________________________________


    FINAL DOCKED STATE:
    ________________________


Run:   139 / 512
Time taken for this run:   0.002s

DOCKED: MODEL        139
DOCKED: USER    Run = 139
DOCKED: USER
DOCKED: USER    Estimated Free Energy of Binding    =  -4.74 kcal/mol  [=(1)+(2)+(3)-(4)]
DOCKED: USER
DOCKED: USER    (1) Final Intermolecular Energy     =  -6.24 kcal/mol
DOCKED: USER        vdW + Hbond + desolv Energy     =  -6.24 kcal/mol
DOCKED: USER        Electrostatic Energy            =  +0.00 kcal/mol
DOCKED: USER        Moving Ligand-Fixed Receptor    =  -6.24 kcal/mol
DOCKED: USER        Moving Ligand-Moving Receptor   =  +0.00 kcal/mol
DOCKED: USER    (2) Final Total Internal Energy     =  -1.23 kcal/mol
DOCKED: USER    (3) Torsional Free Energy           =  +1.49 kcal/mol
DOCKED: USER    (4) Unbound System's Energy         =  -1.23 kcal/mol
DOCKED: USER
DOCKED: USER
DOCKED: REMARK  5 active torsions:
DOCKED: REMARK  status: ('A' for Active; 'I' for Inactive)
DOCKED: REMARK    1  A    between atoms: C_2  and  C_19 
DOCKED: REMARK    2  A    between atoms: C_2  and  C_11 
DOCKED: REMARK    3  A    between atoms: C_19  and  C_20 
DOCKED: REMARK    4  A    between atoms: C_20  and  C_21 
DOCKED: REMARK    5  A    between atoms: C_21  and  N_22 
DOCKED: USER                              x       y       z     vdW  Elec       q    Type
DOCKED: USER                           _______ _______ _______ _____ _____    ______ ____
DOCKED: ROOT
DOCKED: ATOM      1  O   UNL     1     -44.061 -24.216   8.589 -0.04 -0.00    -0.346 OA 
DOCKED: ATOM      2  C   UNL     1     -43.122 -23.182   8.155 -0.11 +0.00    +0.130 C  
DOCKED: ATOM      3  C   UNL     1     -43.012 -23.394   6.673 -0.25 +0.00    +0.004 A  
DOCKED: ATOM      4  C   UNL     1     -43.894 -24.389   6.277 -0.28 +0.00    +0.006 A  
DOCKED: ATOM      5  C   UNL     1     -44.647 -24.888   7.450 -0.08 +0.00    +0.169 C  
DOCKED: ATOM      6  C   UNL     1     -42.204 -22.750   5.747 -0.34 -0.00    -0.001 A  
DOCKED: ATOM      7  C   UNL     1     -43.997 -24.777   4.952 -0.39 +0.00    +0.008 A  
DOCKED: ATOM      8  C   UNL     1     -42.292 -23.133   4.407 -0.22 +0.00    +0.010 A  
DOCKED: ATOM      9  C   UNL     1     -43.184 -24.140   4.012 -0.38 +0.00    +0.068 A  
DOCKED: ATOM     10  N   UNL     1     -43.327 -24.822   1.517 -2.82 -0.00    -0.191 NA 
DOCKED: ATOM     11  C   UNL     1     -43.263 -24.517   2.636 -0.28 +0.00    +0.101 C  
DOCKED: ENDROOT
DOCKED: BRANCH   2  12
DOCKED: ATOM     12  C   UNL     1     -43.702 -21.820   8.518 -0.11 +0.00    +0.038 C  
DOCKED: BRANCH  12  13
DOCKED: ATOM     13  C   UNL     1     -42.830 -20.683   7.987 -0.14 +0.00    +0.038 C  
DOCKED: BRANCH  13  14
DOCKED: ATOM     14  C   UNL     1     -42.321 -19.804   9.127 -0.02 +0.00    +0.251 C  
DOCKED: BRANCH  14  15
DOCKED: ATOM     15  N   UNL     1     -41.072 -20.336   9.659 -0.02 +0.00    +0.141 N  
DOCKED: ATOM     16  C   UNL     1     -39.932 -19.547   9.188 -0.02 +0.00    +0.285 C  
DOCKED: ATOM     17  C   UNL     1     -41.103 -20.358  11.122 -0.00 +0.00    +0.285 C  
DOCKED: ENDBRANCH  14  15
DOCKED: ENDBRANCH  13  14
DOCKED: ENDBRANCH  12  13
DOCKED: ENDBRANCH   2  12
DOCKED: BRANCH   2  18
DOCKED: ATOM     18  C   UNL     1     -41.838 -23.429   8.875 -0.14 +0.00    +0.006 A  
DOCKED: ATOM     19  C   UNL     1     -41.851 -23.994  10.149 -0.14 +0.00    +0.001 A  
DOCKED: ATOM     20  C   UNL     1     -40.650 -24.224  10.821 -0.16 +0.00    +0.029 A  
DOCKED: ATOM     21  C   UNL     1     -39.439 -23.889  10.218 +0.06 +0.00    +0.140 A  
DOCKED: ATOM     22  C   UNL     1     -39.426 -23.324   8.943 -0.16 +0.00    +0.029 A  
DOCKED: ATOM     23  F   UNL     1     -38.286 -24.112  10.862 +0.01 -0.00    -0.204 F  
DOCKED: ATOM     24  C   UNL     1     -40.627 -23.093   8.270 -0.21 +0.00    +0.001 A  
DOCKED: ENDBRANCH   2  18
DOCKED: TORSDOF 5
DOCKED: TER
DOCKED: ENDMDL
________________________________________________________________________________


    FINAL DOCKED STATE:
    ________________________


Run:   140 / 512
Time taken for this run:   0.002s

DOCKED: MODEL        140
DOCKED: USER    Run = 140
DOCKED: USER
DOCKED: USER    Estimated Free Energy of Binding    =  -3.57 kcal/mol  [=(1)+(2)+(3)-(4)]
DOCKED: USER
DOCKED: USER    (1) Final Intermolecular Energy     =  -5.06 kcal/mol
DOCKED: USER        vdW + Hbond + desolv Energy     =  -5.06 kcal/mol
DOCKED: USER        Electrostatic Energy            =  +0.00 kcal/mol
DOCKED: USER        Moving Ligand-Fixed Receptor    =  -5.06 kcal/mol
DOCKED: USER        Moving Ligand-Moving Receptor   =  +0.00 kcal/mol
DOCKED: USER    (2) Final Total Internal Energy     =  -1.39 kcal/mol
DOCKED: USER    (3) Torsional Free Energy           =  +1.49 kcal/mol
DOCKED: USER    (4) Unbound System's Energy         =  -1.39 kcal/mol
DOCKED: USER
DOCKED: USER
DOCKED: REMARK  5 active torsions:
DOCKED: REMARK  status: ('A' for Active; 'I' for Inactive)
DOCKED: REMARK    1  A    between atoms: C_2  and  C_19 
DOCKED: REMARK    2  A    between atoms: C_2  and  C_11 
DOCKED: REMARK    3  A    between atoms: C_19  and  C_20 
DOCKED: REMARK    4  A    between atoms: C_20  and  C_21 
DOCKED: REMARK    5  A    between atoms: C_21  and  N_22 
DOCKED: USER                              x       y       z     vdW  Elec       q    Type
DOCKED: USER                           _______ _______ _______ _____ _____    ______ ____
DOCKED: ROOT
DOCKED: ATOM      1  O   UNL     1     -35.380 -19.755   3.144 -0.02 -0.00    -0.346 OA 
DOCKED: ATOM      2  C   UNL     1     -35.981 -20.281   1.918 -0.13 +0.00    +0.130 C  
DOCKED: ATOM      3  C   UNL     1     -35.929 -21.770   2.102 -0.24 +0.00    +0.004 A  
DOCKED: ATOM      4  C   UNL     1     -35.444 -22.068   3.368 -0.18 +0.00    +0.006 A  
DOCKED: ATOM      5  C   UNL     1     -35.157 -20.816   4.103 -0.10 +0.00    +0.169 C  
DOCKED: ATOM      6  C   UNL     1     -36.294 -22.781   1.224 -0.25 -0.00    -0.001 A  
DOCKED: ATOM      7  C   UNL     1     -35.303 -23.377   3.796 -0.11 +0.00    +0.008 A  
DOCKED: ATOM      8  C   UNL     1     -36.153 -24.106   1.639 -0.26 +0.00    +0.010 A  
DOCKED: ATOM      9  C   UNL     1     -35.660 -24.402   2.919 -0.26 +0.00    +0.068 A  
DOCKED: ATOM     10  N   UNL     1     -35.415 -26.873   3.660 -2.19 -0.00    -0.191 NA 
DOCKED: ATOM     11  C   UNL     1     -35.524 -25.764   3.328 -0.39 +0.00    +0.101 C  
DOCKED: ENDROOT
DOCKED: BRANCH   2  12
DOCKED: ATOM     12  C   UNL     1     -37.404 -19.746   1.810 -0.24 +0.00    +0.038 C  
DOCKED: BRANCH  12  13
DOCKED: ATOM     13  C   UNL     1     -37.455 -18.243   2.080 -0.12 +0.00    +0.038 C  
DOCKED: BRANCH  13  14
DOCKED: ATOM     14  C   UNL     1     -38.231 -17.942   3.361 -0.08 +0.00    +0.251 C  
DOCKED: BRANCH  14  15
DOCKED: ATOM     15  N   UNL     1     -37.503 -18.439   4.523 -0.09 +0.00    +0.141 N  
DOCKED: ATOM     16  C   UNL     1     -36.606 -17.409   5.049 -0.02 +0.00    +0.285 C  
DOCKED: ATOM     17  C   UNL     1     -38.434 -18.881   5.563 -0.10 +0.00    +0.285 C  
DOCKED: ENDBRANCH  14  15
DOCKED: ENDBRANCH  13  14
DOCKED: ENDBRANCH  12  13
DOCKED: ENDBRANCH   2  12
DOCKED: BRANCH   2  18
DOCKED: ATOM     18  C   UNL     1     -35.139 -19.806   0.781 -0.07 +0.00    +0.006 A  
DOCKED: ATOM     19  C   UNL     1     -33.830 -19.385   1.012 -0.02 +0.00    +0.001 A  
DOCKED: ATOM     20  C   UNL     1     -33.044 -18.941  -0.052 -0.00 +0.00    +0.029 A  
DOCKED: ATOM     21  C   UNL     1     -33.567 -18.919  -1.344 -0.00 +0.00    +0.140 A  
DOCKED: ATOM     22  C   UNL     1     -34.877 -19.340  -1.574 -0.07 +0.00    +0.029 A  
DOCKED: ATOM     23  F   UNL     1     -32.812 -18.494  -2.365 +0.00 -0.00    -0.204 F  
DOCKED: ATOM     24  C   UNL     1     -35.664 -19.784  -0.511 -0.14 +0.00    +0.001 A  
DOCKED: ENDBRANCH   2  18
DOCKED: TORSDOF 5
DOCKED: TER
DOCKED: ENDMDL
________________________________________________________________________________


    FINAL DOCKED STATE:
    ________________________


Run:   141 / 512
Time taken for this run:   0.002s

DOCKED: MODEL        141
DOCKED: USER    Run = 141
DOCKED: USER
DOCKED: USER    Estimated Free Energy of Binding    =  -5.05 kcal/mol  [=(1)+(2)+(3)-(4)]
DOCKED: USER
DOCKED: USER    (1) Final Intermolecular Energy     =  -6.54 kcal/mol
DOCKED: USER        vdW + Hbond + desolv Energy     =  -6.54 kcal/mol
DOCKED: USER        Electrostatic Energy            =  +0.00 kcal/mol
DOCKED: USER        Moving Ligand-Fixed Receptor    =  -6.54 kcal/mol
DOCKED: USER        Moving Ligand-Moving Receptor   =  +0.00 kcal/mol
DOCKED: USER    (2) Final Total Internal Energy     =  -1.34 kcal/mol
DOCKED: USER    (3) Torsional Free Energy           =  +1.49 kcal/mol
DOCKED: USER    (4) Unbound System's Energy         =  -1.34 kcal/mol
DOCKED: USER
DOCKED: USER
DOCKED: REMARK  5 active torsions:
DOCKED: REMARK  status: ('A' for Active; 'I' for Inactive)
DOCKED: REMARK    1  A    between atoms: C_2  and  C_19 
DOCKED: REMARK    2  A    between atoms: C_2  and  C_11 
DOCKED: REMARK    3  A    between atoms: C_19  and  C_20 
DOCKED: REMARK    4  A    between atoms: C_20  and  C_21 
DOCKED: REMARK    5  A    between atoms: C_21  and  N_22 
DOCKED: USER                              x       y       z     vdW  Elec       q    Type
DOCKED: USER                           _______ _______ _______ _____ _____    ______ ____
DOCKED: ROOT
DOCKED: ATOM      1  O   UNL     1     -40.418 -24.958   8.471 -0.11 -0.00    -0.346 OA 
DOCKED: ATOM      2  C   UNL     1     -41.178 -23.712   8.356 -0.19 +0.00    +0.130 C  
DOCKED: ATOM      3  C   UNL     1     -41.722 -23.751   6.957 -0.30 +0.00    +0.004 A  
DOCKED: ATOM      4  C   UNL     1     -41.396 -24.962   6.363 -0.39 +0.00    +0.006 A  
DOCKED: ATOM      5  C   UNL     1     -40.636 -25.801   7.316 -0.15 +0.00    +0.169 C  
DOCKED: ATOM      6  C   UNL     1     -42.457 -22.796   6.270 -0.31 -0.00    -0.001 A  
DOCKED: ATOM      7  C   UNL     1     -41.787 -25.257   5.068 -0.46 +0.00    +0.008 A  
DOCKED: ATOM      8  C   UNL     1     -42.855 -23.076   4.962 -0.05 +0.00    +0.010 A  
DOCKED: ATOM      9  C   UNL     1     -42.522 -24.301   4.364 -0.43 +0.00    +0.068 A  
DOCKED: ATOM     10  N   UNL     1     -43.280 -24.793   1.936 -2.50 -0.00    -0.191 NA 
DOCKED: ATOM     11  C   UNL     1     -42.939 -24.572   3.025 -0.48 +0.00    +0.101 C  
DOCKED: ENDROOT
DOCKED: BRANCH   2  12
DOCKED: ATOM     12  C   UNL     1     -42.270 -23.713   9.418 -0.15 +0.00    +0.038 C  
DOCKED: BRANCH  12  13
DOCKED: ATOM     13  C   UNL     1     -42.670 -25.135   9.805 -0.19 +0.00    +0.038 C  
DOCKED: BRANCH  13  14
DOCKED: ATOM     14  C   UNL     1     -44.150 -25.385   9.526 -0.08 +0.00    +0.251 C  
DOCKED: BRANCH  14  15
DOCKED: ATOM     15  N   UNL     1     -44.761 -24.203   8.930 -0.09 +0.00    +0.141 N  
DOCKED: ATOM     16  C   UNL     1     -45.243 -24.496   7.579 -0.08 +0.00    +0.285 C  
DOCKED: ATOM     17  C   UNL     1     -45.859 -23.713   9.766 -0.02 +0.00    +0.285 C  
DOCKED: ENDBRANCH  14  15
DOCKED: ENDBRANCH  13  14
DOCKED: ENDBRANCH  12  13
DOCKED: ENDBRANCH   2  12
DOCKED: BRANCH   2  18
DOCKED: ATOM     18  C   UNL     1     -40.215 -22.592   8.574 -0.17 +0.00    +0.006 A  
DOCKED: ATOM     19  C   UNL     1     -40.576 -21.509   9.375 -0.07 +0.00    +0.001 A  
DOCKED: ATOM     20  C   UNL     1     -39.675 -20.463   9.578 -0.04 +0.00    +0.029 A  
DOCKED: ATOM     21  C   UNL     1     -38.416 -20.502   8.981 -0.05 +0.00    +0.140 A  
DOCKED: ATOM     22  C   UNL     1     -38.055 -21.586   8.181 -0.11 +0.00    +0.029 A  
DOCKED: ATOM     23  F   UNL     1     -37.551 -19.498   9.178 -0.00 -0.00    -0.204 F  
DOCKED: ATOM     24  C   UNL     1     -38.956 -22.632   7.977 -0.14 +0.00    +0.001 A  
DOCKED: ENDBRANCH   2  18
DOCKED: TORSDOF 5
DOCKED: TER
DOCKED: ENDMDL
________________________________________________________________________________


    FINAL DOCKED STATE:
    ________________________


Run:   142 / 512
Time taken for this run:   0.002s

DOCKED: MODEL        142
DOCKED: USER    Run = 142
DOCKED: USER
DOCKED: USER    Estimated Free Energy of Binding    =  -4.22 kcal/mol  [=(1)+(2)+(3)-(4)]
DOCKED: USER
DOCKED: USER    (1) Final Intermolecular Energy     =  -5.71 kcal/mol
DOCKED: USER        vdW + Hbond + desolv Energy     =  -5.71 kcal/mol
DOCKED: USER        Electrostatic Energy            =  +0.00 kcal/mol
DOCKED: USER        Moving Ligand-Fixed Receptor    =  -5.71 kcal/mol
DOCKED: USER        Moving Ligand-Moving Receptor   =  +0.00 kcal/mol
DOCKED: USER    (2) Final Total Internal Energy     =  -1.36 kcal/mol
DOCKED: USER    (3) Torsional Free Energy           =  +1.49 kcal/mol
DOCKED: USER    (4) Unbound System's Energy         =  -1.36 kcal/mol
DOCKED: USER
DOCKED: USER
DOCKED: REMARK  5 active torsions:
DOCKED: REMARK  status: ('A' for Active; 'I' for Inactive)
DOCKED: REMARK    1  A    between atoms: C_2  and  C_19 
DOCKED: REMARK    2  A    between atoms: C_2  and  C_11 
DOCKED: REMARK    3  A    between atoms: C_19  and  C_20 
DOCKED: REMARK    4  A    between atoms: C_20  and  C_21 
DOCKED: REMARK    5  A    between atoms: C_21  and  N_22 
DOCKED: USER                              x       y       z     vdW  Elec       q    Type
DOCKED: USER                           _______ _______ _______ _____ _____    ______ ____
DOCKED: ROOT
DOCKED: ATOM      1  O   UNL     1     -40.771 -19.631   7.127 -0.06 -0.00    -0.346 OA 
DOCKED: ATOM      2  C   UNL     1     -42.044 -19.881   7.804 -0.12 +0.00    +0.130 C  
DOCKED: ATOM      3  C   UNL     1     -42.442 -21.248   7.327 -0.20 +0.00    +0.004 A  
DOCKED: ATOM      4  C   UNL     1     -41.433 -21.778   6.535 -0.29 +0.00    +0.006 A  
DOCKED: ATOM      5  C   UNL     1     -40.309 -20.820   6.445 -0.16 +0.00    +0.169 C  
DOCKED: ATOM      6  C   UNL     1     -43.599 -21.969   7.583 -0.17 -0.00    -0.001 A  
DOCKED: ATOM      7  C   UNL     1     -41.547 -23.038   5.972 -0.34 +0.00    +0.008 A  
DOCKED: ATOM      8  C   UNL     1     -43.731 -23.238   7.018 -0.21 +0.00    +0.010 A  
DOCKED: ATOM      9  C   UNL     1     -42.709 -23.770   6.217 -0.27 +0.00    +0.068 A  
DOCKED: ATOM     10  N   UNL     1     -42.983 -26.132   5.188 -2.51 -0.00    -0.191 NA 
DOCKED: ATOM     11  C   UNL     1     -42.860 -25.073   5.649 -0.36 +0.00    +0.101 C  
DOCKED: ENDROOT
DOCKED: BRANCH   2  12
DOCKED: ATOM     12  C   UNL     1     -41.810 -19.822   9.309 -0.04 +0.00    +0.038 C  
DOCKED: BRANCH  12  13
DOCKED: ATOM     13  C   UNL     1     -41.714 -21.222   9.912 -0.04 +0.00    +0.038 C  
DOCKED: BRANCH  13  14
DOCKED: ATOM     14  C   UNL     1     -40.484 -21.351  10.808 -0.01 +0.00    +0.251 C  
DOCKED: BRANCH  14  15
DOCKED: ATOM     15  N   UNL     1     -39.584 -22.375  10.290 -0.06 +0.00    +0.141 N  
DOCKED: ATOM     16  C   UNL     1     -40.322 -23.350   9.484 -0.08 +0.00    +0.285 C  
DOCKED: ATOM     17  C   UNL     1     -38.513 -21.768   9.498 -0.06 +0.00    +0.285 C  
DOCKED: ENDBRANCH  14  15
DOCKED: ENDBRANCH  13  14
DOCKED: ENDBRANCH  12  13
DOCKED: ENDBRANCH   2  12
DOCKED: BRANCH   2  18
DOCKED: ATOM     18  C   UNL     1     -42.989 -18.813   7.364 -0.16 +0.00    +0.006 A  
DOCKED: ATOM     19  C   UNL     1     -42.795 -18.172   6.141 -0.17 +0.00    +0.001 A  
DOCKED: ATOM     20  C   UNL     1     -43.680 -17.173   5.731 -0.13 +0.00    +0.029 A  
DOCKED: ATOM     21  C   UNL     1     -44.756 -16.819   6.543 -0.11 +0.00    +0.140 A  
DOCKED: ATOM     22  C   UNL     1     -44.950 -17.461   7.766 -0.09 +0.00    +0.029 A  
DOCKED: ATOM     23  F   UNL     1     -45.606 -15.862   6.148 -0.01 -0.00    -0.204 F  
DOCKED: ATOM     24  C   UNL     1     -44.065 -18.460   8.177 -0.08 +0.00    +0.001 A  
DOCKED: ENDBRANCH   2  18
DOCKED: TORSDOF 5
DOCKED: TER
DOCKED: ENDMDL
________________________________________________________________________________


    FINAL DOCKED STATE:
    ________________________


Run:   143 / 512
Time taken for this run:   0.002s

DOCKED: MODEL        143
DOCKED: USER    Run = 143
DOCKED: USER
DOCKED: USER    Estimated Free Energy of Binding    =  -4.15 kcal/mol  [=(1)+(2)+(3)-(4)]
DOCKED: USER
DOCKED: USER    (1) Final Intermolecular Energy     =  -5.64 kcal/mol
DOCKED: USER        vdW + Hbond + desolv Energy     =  -5.64 kcal/mol
DOCKED: USER        Electrostatic Energy            =  +0.00 kcal/mol
DOCKED: USER        Moving Ligand-Fixed Receptor    =  -5.64 kcal/mol
DOCKED: USER        Moving Ligand-Moving Receptor   =  +0.00 kcal/mol
DOCKED: USER    (2) Final Total Internal Energy     =  -1.28 kcal/mol
DOCKED: USER    (3) Torsional Free Energy           =  +1.49 kcal/mol
DOCKED: USER    (4) Unbound System's Energy         =  -1.28 kcal/mol
DOCKED: USER
DOCKED: USER
DOCKED: REMARK  5 active torsions:
DOCKED: REMARK  status: ('A' for Active; 'I' for Inactive)
DOCKED: REMARK    1  A    between atoms: C_2  and  C_19 
DOCKED: REMARK    2  A    between atoms: C_2  and  C_11 
DOCKED: REMARK    3  A    between atoms: C_19  and  C_20 
DOCKED: REMARK    4  A    between atoms: C_20  and  C_21 
DOCKED: REMARK    5  A    between atoms: C_21  and  N_22 
DOCKED: USER                              x       y       z     vdW  Elec       q    Type
DOCKED: USER                           _______ _______ _______ _____ _____    ______ ____
DOCKED: ROOT
DOCKED: ATOM      1  O   UNL     1     -43.093 -23.608   8.566 -0.01 -0.00    -0.346 OA 
DOCKED: ATOM      2  C   UNL     1     -42.246 -22.646   7.859 -0.14 +0.00    +0.130 C  
DOCKED: ATOM      3  C   UNL     1     -42.381 -23.041   6.417 -0.30 +0.00    +0.004 A  
DOCKED: ATOM      4  C   UNL     1     -43.309 -24.066   6.298 -0.29 +0.00    +0.006 A  
DOCKED: ATOM      5  C   UNL     1     -43.853 -24.407   7.631 -0.16 +0.00    +0.169 C  
DOCKED: ATOM      6  C   UNL     1     -41.743 -22.526   5.298 -0.22 -0.00    -0.001 A  
DOCKED: ATOM      7  C   UNL     1     -43.625 -24.612   5.066 -0.39 +0.00    +0.008 A  
DOCKED: ATOM      8  C   UNL     1     -42.048 -23.069   4.049 +0.12 +0.00    +0.010 A  
DOCKED: ATOM      9  C   UNL     1     -42.985 -24.106   3.934 -0.40 +0.00    +0.068 A  
DOCKED: ATOM     10  N   UNL     1     -43.532 -25.089   1.599 -2.67 -0.00    -0.191 NA 
DOCKED: ATOM     11  C   UNL     1     -43.286 -24.649   2.647 -0.28 +0.00    +0.101 C  
DOCKED: ENDROOT
DOCKED: BRANCH   2  12
DOCKED: ATOM     12  C   UNL     1     -42.769 -21.243   8.142 -0.13 +0.00    +0.038 C  
DOCKED: BRANCH  12  13
DOCKED: ATOM     13  C   UNL     1     -42.292 -20.733   9.500 -0.05 +0.00    +0.038 C  
DOCKED: BRANCH  13  14
DOCKED: ATOM     14  C   UNL     1     -43.464 -20.566  10.467 -0.00 +0.00    +0.251 C  
DOCKED: BRANCH  14  15
DOCKED: ATOM     15  N   UNL     1     -43.398 -21.570  11.522 -0.01 +0.00    +0.141 N  
DOCKED: ATOM     16  C   UNL     1     -43.862 -21.014  12.793 +0.00 +0.00    +0.285 C  
DOCKED: ATOM     17  C   UNL     1     -44.190 -22.748  11.163 -0.00 +0.00    +0.285 C  
DOCKED: ENDBRANCH  14  15
DOCKED: ENDBRANCH  13  14
DOCKED: ENDBRANCH  12  13
DOCKED: ENDBRANCH   2  12
DOCKED: BRANCH   2  18
DOCKED: ATOM     18  C   UNL     1     -40.859 -22.818   8.382 -0.17 +0.00    +0.006 A  
DOCKED: ATOM     19  C   UNL     1     -40.623 -23.661   9.467 -0.16 +0.00    +0.001 A  
DOCKED: ATOM     20  C   UNL     1     -39.326 -23.821   9.955 +0.09 +0.00    +0.029 A  
DOCKED: ATOM     21  C   UNL     1     -38.267 -23.140   9.357 -0.10 +0.00    +0.140 A  
DOCKED: ATOM     22  C   UNL     1     -38.503 -22.297   8.271 -0.14 +0.00    +0.029 A  
DOCKED: ATOM     23  F   UNL     1     -37.021 -23.295   9.825 -0.03 -0.00    -0.204 F  
DOCKED: ATOM     24  C   UNL     1     -39.801 -22.136   7.783 -0.19 +0.00    +0.001 A  
DOCKED: ENDBRANCH   2  18
DOCKED: TORSDOF 5
DOCKED: TER
DOCKED: ENDMDL
________________________________________________________________________________


    FINAL DOCKED STATE:
    ________________________


Run:   144 / 512
Time taken for this run:   0.002s

DOCKED: MODEL        144
DOCKED: USER    Run = 144
DOCKED: USER
DOCKED: USER    Estimated Free Energy of Binding    =  -5.15 kcal/mol  [=(1)+(2)+(3)-(4)]
DOCKED: USER
DOCKED: USER    (1) Final Intermolecular Energy     =  -6.64 kcal/mol
DOCKED: USER        vdW + Hbond + desolv Energy     =  -6.64 kcal/mol
DOCKED: USER        Electrostatic Energy            =  +0.00 kcal/mol
DOCKED: USER        Moving Ligand-Fixed Receptor    =  -6.64 kcal/mol
DOCKED: USER        Moving Ligand-Moving Receptor   =  +0.00 kcal/mol
DOCKED: USER    (2) Final Total Internal Energy     =  -1.11 kcal/mol
DOCKED: USER    (3) Torsional Free Energy           =  +1.49 kcal/mol
DOCKED: USER    (4) Unbound System's Energy         =  -1.11 kcal/mol
DOCKED: USER
DOCKED: USER
DOCKED: REMARK  5 active torsions:
DOCKED: REMARK  status: ('A' for Active; 'I' for Inactive)
DOCKED: REMARK    1  A    between atoms: C_2  and  C_19 
DOCKED: REMARK    2  A    between atoms: C_2  and  C_11 
DOCKED: REMARK    3  A    between atoms: C_19  and  C_20 
DOCKED: REMARK    4  A    between atoms: C_20  and  C_21 
DOCKED: REMARK    5  A    between atoms: C_21  and  N_22 
DOCKED: USER                              x       y       z     vdW  Elec       q    Type
DOCKED: USER                           _______ _______ _______ _____ _____    ______ ____
DOCKED: ROOT
DOCKED: ATOM      1  O   UNL     1     -41.336 -21.732   8.142 -0.03 -0.00    -0.346 OA 
DOCKED: ATOM      2  C   UNL     1     -41.160 -23.182   8.239 -0.17 +0.00    +0.130 C  
DOCKED: ATOM      3  C   UNL     1     -41.606 -23.690   6.899 -0.31 +0.00    +0.004 A  
DOCKED: ATOM      4  C   UNL     1     -41.905 -22.618   6.070 -0.33 +0.00    +0.006 A  
DOCKED: ATOM      5  C   UNL     1     -41.669 -21.346   6.788 -0.22 +0.00    +0.169 C  
DOCKED: ATOM      6  C   UNL     1     -41.726 -24.995   6.445 -0.31 -0.00    -0.001 A  
DOCKED: ATOM      7  C   UNL     1     -42.336 -22.812   4.768 -0.01 +0.00    +0.008 A  
DOCKED: ATOM      8  C   UNL     1     -42.164 -25.207   5.137 -0.47 +0.00    +0.010 A  
DOCKED: ATOM      9  C   UNL     1     -42.467 -24.121   4.303 -0.41 +0.00    +0.068 A  
DOCKED: ATOM     10  N   UNL     1     -43.272 -24.550   1.878 -2.65 -0.00    -0.191 NA 
DOCKED: ATOM     11  C   UNL     1     -42.912 -24.357   2.966 -0.49 +0.00    +0.101 C  
DOCKED: ENDROOT
DOCKED: BRANCH   2  12
DOCKED: ATOM     12  C   UNL     1     -39.691 -23.472   8.525 -0.24 +0.00    +0.038 C  
DOCKED: BRANCH  12  13
DOCKED: ATOM     13  C   UNL     1     -38.788 -22.373   7.968 -0.13 +0.00    +0.038 C  
DOCKED: BRANCH  13  14
DOCKED: ATOM     14  C   UNL     1     -38.440 -21.349   9.047 -0.07 +0.00    +0.251 C  
DOCKED: BRANCH  14  15
DOCKED: ATOM     15  N   UNL     1     -37.551 -21.940  10.040 -0.05 +0.00    +0.141 N  
DOCKED: ATOM     16  C   UNL     1     -36.224 -22.175   9.470 -0.05 +0.00    +0.285 C  
DOCKED: ATOM     17  C   UNL     1     -37.452 -21.080  11.221 -0.01 +0.00    +0.285 C  
DOCKED: ENDBRANCH  14  15
DOCKED: ENDBRANCH  13  14
DOCKED: ENDBRANCH  12  13
DOCKED: ENDBRANCH   2  12
DOCKED: BRANCH   2  18
DOCKED: ATOM     18  C   UNL     1     -42.029 -23.653   9.358 -0.13 +0.00    +0.006 A  
DOCKED: ATOM     19  C   UNL     1     -41.653 -24.764  10.112 -0.22 +0.00    +0.001 A  
DOCKED: ATOM     20  C   UNL     1     -42.467 -25.203  11.157 -0.13 +0.00    +0.029 A  
DOCKED: ATOM     21  C   UNL     1     -43.653 -24.530  11.447 -0.07 +0.00    +0.140 A  
DOCKED: ATOM     22  C   UNL     1     -44.028 -23.419  10.692 -0.06 +0.00    +0.029 A  
DOCKED: ATOM     23  F   UNL     1     -44.433 -24.951  12.451 -0.00 -0.00    -0.204 F  
DOCKED: ATOM     24  C   UNL     1     -43.215 -22.979   9.646 -0.07 +0.00    +0.001 A  
DOCKED: ENDBRANCH   2  18
DOCKED: TORSDOF 5
DOCKED: TER
DOCKED: ENDMDL
________________________________________________________________________________


    FINAL DOCKED STATE:
    ________________________


Run:   145 / 512
Time taken for this run:   0.002s

DOCKED: MODEL        145
DOCKED: USER    Run = 145
DOCKED: USER
DOCKED: USER    Estimated Free Energy of Binding    =  -5.43 kcal/mol  [=(1)+(2)+(3)-(4)]
DOCKED: USER
DOCKED: USER    (1) Final Intermolecular Energy     =  -6.92 kcal/mol
DOCKED: USER        vdW + Hbond + desolv Energy     =  -6.92 kcal/mol
DOCKED: USER        Electrostatic Energy            =  +0.00 kcal/mol
DOCKED: USER        Moving Ligand-Fixed Receptor    =  -6.92 kcal/mol
DOCKED: USER        Moving Ligand-Moving Receptor   =  +0.00 kcal/mol
DOCKED: USER    (2) Final Total Internal Energy     =  -1.20 kcal/mol
DOCKED: USER    (3) Torsional Free Energy           =  +1.49 kcal/mol
DOCKED: USER    (4) Unbound System's Energy         =  -1.20 kcal/mol
DOCKED: USER
DOCKED: USER
DOCKED: REMARK  5 active torsions:
DOCKED: REMARK  status: ('A' for Active; 'I' for Inactive)
DOCKED: REMARK    1  A    between atoms: C_2  and  C_19 
DOCKED: REMARK    2  A    between atoms: C_2  and  C_11 
DOCKED: REMARK    3  A    between atoms: C_19  and  C_20 
DOCKED: REMARK    4  A    between atoms: C_20  and  C_21 
DOCKED: REMARK    5  A    between atoms: C_21  and  N_22 
DOCKED: USER                              x       y       z     vdW  Elec       q    Type
DOCKED: USER                           _______ _______ _______ _____ _____    ______ ____
DOCKED: ROOT
DOCKED: ATOM      1  O   UNL     1     -41.352 -23.227   8.012 -0.05 -0.00    -0.346 OA 
DOCKED: ATOM      2  C   UNL     1     -42.803 -23.418   8.013 -0.13 +0.00    +0.130 C  
DOCKED: ATOM      3  C   UNL     1     -43.133 -23.679   6.572 -0.26 +0.00    +0.004 A  
DOCKED: ATOM      4  C   UNL     1     -41.962 -23.741   5.829 -0.38 +0.00    +0.006 A  
DOCKED: ATOM      5  C   UNL     1     -40.794 -23.543   6.715 -0.25 +0.00    +0.169 C  
DOCKED: ATOM      6  C   UNL     1     -44.369 -23.857   5.969 -0.30 -0.00    -0.001 A  
DOCKED: ATOM      7  C   UNL     1     -41.986 -23.979   4.465 -0.30 +0.00    +0.008 A  
DOCKED: ATOM      8  C   UNL     1     -44.410 -24.093   4.593 -0.24 +0.00    +0.010 A  
DOCKED: ATOM      9  C   UNL     1     -43.225 -24.154   3.846 -0.37 +0.00    +0.068 A  
DOCKED: ATOM     10  N   UNL     1     -43.336 -24.598   1.296 -3.07 -0.00    -0.191 NA 
DOCKED: ATOM     11  C   UNL     1     -43.286 -24.398   2.439 -0.27 +0.00    +0.101 C  
DOCKED: ENDROOT
DOCKED: BRANCH   2  12
DOCKED: ATOM     12  C   UNL     1     -43.133 -24.598   8.920 -0.22 +0.00    +0.038 C  
DOCKED: BRANCH  12  13
DOCKED: ATOM     13  C   UNL     1     -41.959 -25.569   9.021 -0.27 +0.00    +0.038 C  
DOCKED: BRANCH  13  14
DOCKED: ATOM     14  C   UNL     1     -41.040 -25.201  10.185 -0.14 +0.00    +0.251 C  
DOCKED: BRANCH  14  15
DOCKED: ATOM     15  N   UNL     1     -41.787 -24.491  11.216 -0.11 +0.00    +0.141 N  
DOCKED: ATOM     16  C   UNL     1     -42.790 -25.368  11.822 -0.07 +0.00    +0.285 C  
DOCKED: ATOM     17  C   UNL     1     -40.882 -23.969  12.242 -0.05 +0.00    +0.285 C  
DOCKED: ENDBRANCH  14  15
DOCKED: ENDBRANCH  13  14
DOCKED: ENDBRANCH  12  13
DOCKED: ENDBRANCH   2  12
DOCKED: BRANCH   2  18
DOCKED: ATOM     18  C   UNL     1     -43.409 -22.156   8.530 -0.09 +0.00    +0.006 A  
DOCKED: ATOM     19  C   UNL     1     -43.875 -22.093   9.842 -0.05 +0.00    +0.001 A  
DOCKED: ATOM     20  C   UNL     1     -44.442 -20.913  10.323 -0.02 +0.00    +0.029 A  
DOCKED: ATOM     21  C   UNL     1     -44.540 -19.797   9.493 -0.01 +0.00    +0.140 A  
DOCKED: ATOM     22  C   UNL     1     -44.073 -19.861   8.181 -0.10 +0.00    +0.029 A  
DOCKED: ATOM     23  F   UNL     1     -45.082 -18.663   9.956 +0.01 -0.00    -0.204 F  
DOCKED: ATOM     24  C   UNL     1     -43.506 -21.041   7.698 -0.16 +0.00    +0.001 A  
DOCKED: ENDBRANCH   2  18
DOCKED: TORSDOF 5
DOCKED: TER
DOCKED: ENDMDL
________________________________________________________________________________


    FINAL DOCKED STATE:
    ________________________


Run:   146 / 512
Time taken for this run:   0.002s

DOCKED: MODEL        146
DOCKED: USER    Run = 146
DOCKED: USER
DOCKED: USER    Estimated Free Energy of Binding    =  -3.90 kcal/mol  [=(1)+(2)+(3)-(4)]
DOCKED: USER
DOCKED: USER    (1) Final Intermolecular Energy     =  -5.40 kcal/mol
DOCKED: USER        vdW + Hbond + desolv Energy     =  -5.40 kcal/mol
DOCKED: USER        Electrostatic Energy            =  +0.00 kcal/mol
DOCKED: USER        Moving Ligand-Fixed Receptor    =  -5.40 kcal/mol
DOCKED: USER        Moving Ligand-Moving Receptor   =  +0.00 kcal/mol
DOCKED: USER    (2) Final Total Internal Energy     =  -1.42 kcal/mol
DOCKED: USER    (3) Torsional Free Energy           =  +1.49 kcal/mol
DOCKED: USER    (4) Unbound System's Energy         =  -1.42 kcal/mol
DOCKED: USER
DOCKED: USER
DOCKED: REMARK  5 active torsions:
DOCKED: REMARK  status: ('A' for Active; 'I' for Inactive)
DOCKED: REMARK    1  A    between atoms: C_2  and  C_19 
DOCKED: REMARK    2  A    between atoms: C_2  and  C_11 
DOCKED: REMARK    3  A    between atoms: C_19  and  C_20 
DOCKED: REMARK    4  A    between atoms: C_20  and  C_21 
DOCKED: REMARK    5  A    between atoms: C_21  and  N_22 
DOCKED: USER                              x       y       z     vdW  Elec       q    Type
DOCKED: USER                           _______ _______ _______ _____ _____    ______ ____
DOCKED: ROOT
DOCKED: ATOM      1  O   UNL     1     -40.433 -21.200   9.528 -0.01 -0.00    -0.346 OA 
DOCKED: ATOM      2  C   UNL     1     -40.732 -20.526   8.264 -0.09 +0.00    +0.130 C  
DOCKED: ATOM      3  C   UNL     1     -41.223 -21.632   7.374 -0.21 +0.00    +0.004 A  
DOCKED: ATOM      4  C   UNL     1     -41.303 -22.813   8.099 -0.17 +0.00    +0.006 A  
DOCKED: ATOM      5  C   UNL     1     -40.889 -22.572   9.499 -0.08 +0.00    +0.169 C  
DOCKED: ATOM      6  C   UNL     1     -41.581 -21.593   6.035 -0.23 -0.00    -0.001 A  
DOCKED: ATOM      7  C   UNL     1     -41.736 -23.989   7.512 -0.26 +0.00    +0.008 A  
DOCKED: ATOM      8  C   UNL     1     -42.016 -22.772   5.428 -0.33 +0.00    +0.010 A  
DOCKED: ATOM      9  C   UNL     1     -42.093 -23.964   6.163 -0.31 +0.00    +0.068 A  
DOCKED: ATOM     10  N   UNL     1     -42.909 -26.135   5.007 -2.40 -0.00    -0.191 NA 
DOCKED: ATOM     11  C   UNL     1     -42.543 -25.161   5.526 -0.36 +0.00    +0.101 C  
DOCKED: ENDROOT
DOCKED: BRANCH   2  12
DOCKED: ATOM     12  C   UNL     1     -41.790 -19.460   8.523 -0.07 +0.00    +0.038 C  
DOCKED: BRANCH  12  13
DOCKED: ATOM     13  C   UNL     1     -43.167 -19.912   8.043 -0.13 +0.00    +0.038 C  
DOCKED: BRANCH  13  14
DOCKED: ATOM     14  C   UNL     1     -43.913 -20.666   9.143 -0.02 +0.00    +0.251 C  
DOCKED: BRANCH  14  15
DOCKED: ATOM     15  N   UNL     1     -44.957 -21.504   8.565 -0.06 +0.00    +0.141 N  
DOCKED: ATOM     16  C   UNL     1     -45.026 -21.316   7.115 -0.12 +0.00    +0.285 C  
DOCKED: ATOM     17  C   UNL     1     -44.722 -22.913   8.884 -0.02 +0.00    +0.285 C  
DOCKED: ENDBRANCH  14  15
DOCKED: ENDBRANCH  13  14
DOCKED: ENDBRANCH  12  13
DOCKED: ENDBRANCH   2  12
DOCKED: BRANCH   2  18
DOCKED: ATOM     18  C   UNL     1     -39.458 -19.915   7.783 -0.11 +0.00    +0.006 A  
DOCKED: ATOM     19  C   UNL     1     -39.476 -18.667   7.161 -0.10 +0.00    +0.001 A  
DOCKED: ATOM     20  C   UNL     1     -38.284 -18.097   6.712 -0.06 +0.00    +0.029 A  
DOCKED: ATOM     21  C   UNL     1     -37.078 -18.775   6.885 -0.05 +0.00    +0.140 A  
DOCKED: ATOM     22  C   UNL     1     -37.061 -20.022   7.508 -0.09 +0.00    +0.029 A  
DOCKED: ATOM     23  F   UNL     1     -35.934 -18.226   6.456 -0.00 -0.00    -0.204 F  
DOCKED: ATOM     24  C   UNL     1     -38.253 -20.594   7.957 -0.12 +0.00    +0.001 A  
DOCKED: ENDBRANCH   2  18
DOCKED: TORSDOF 5
DOCKED: TER
DOCKED: ENDMDL
________________________________________________________________________________


    FINAL DOCKED STATE:
    ________________________


Run:   147 / 512
Time taken for this run:   0.002s

DOCKED: MODEL        147
DOCKED: USER    Run = 147
DOCKED: USER
DOCKED: USER    Estimated Free Energy of Binding    =  -4.76 kcal/mol  [=(1)+(2)+(3)-(4)]
DOCKED: USER
DOCKED: USER    (1) Final Intermolecular Energy     =  -6.25 kcal/mol
DOCKED: USER        vdW + Hbond + desolv Energy     =  -6.25 kcal/mol
DOCKED: USER        Electrostatic Energy            =  +0.00 kcal/mol
DOCKED: USER        Moving Ligand-Fixed Receptor    =  -6.25 kcal/mol
DOCKED: USER        Moving Ligand-Moving Receptor   =  +0.00 kcal/mol
DOCKED: USER    (2) Final Total Internal Energy     =  -1.51 kcal/mol
DOCKED: USER    (3) Torsional Free Energy           =  +1.49 kcal/mol
DOCKED: USER    (4) Unbound System's Energy         =  -1.51 kcal/mol
DOCKED: USER
DOCKED: USER
DOCKED: REMARK  5 active torsions:
DOCKED: REMARK  status: ('A' for Active; 'I' for Inactive)
DOCKED: REMARK    1  A    between atoms: C_2  and  C_19 
DOCKED: REMARK    2  A    between atoms: C_2  and  C_11 
DOCKED: REMARK    3  A    between atoms: C_19  and  C_20 
DOCKED: REMARK    4  A    between atoms: C_20  and  C_21 
DOCKED: REMARK    5  A    between atoms: C_21  and  N_22 
DOCKED: USER                              x       y       z     vdW  Elec       q    Type
DOCKED: USER                           _______ _______ _______ _____ _____    ______ ____
DOCKED: ROOT
DOCKED: ATOM      1  O   UNL     1     -44.435 -24.135   8.619 -0.03 -0.00    -0.346 OA 
DOCKED: ATOM      2  C   UNL     1     -43.404 -23.159   8.264 -0.11 +0.00    +0.130 C  
DOCKED: ATOM      3  C   UNL     1     -43.215 -23.357   6.788 -0.23 +0.00    +0.004 A  
DOCKED: ATOM      4  C   UNL     1     -44.134 -24.286   6.320 -0.28 +0.00    +0.006 A  
DOCKED: ATOM      5  C   UNL     1     -44.990 -24.750   7.434 -0.13 +0.00    +0.169 C  
DOCKED: ATOM      6  C   UNL     1     -42.309 -22.756   5.926 -0.33 -0.00    -0.001 A  
DOCKED: ATOM      7  C   UNL     1     -44.177 -24.646   4.984 -0.38 +0.00    +0.008 A  
DOCKED: ATOM      8  C   UNL     1     -42.338 -23.112   4.576 -0.23 +0.00    +0.010 A  
DOCKED: ATOM      9  C   UNL     1     -43.267 -24.052   4.108 -0.35 +0.00    +0.068 A  
DOCKED: ATOM     10  N   UNL     1     -43.297 -24.687   1.596 -2.92 -0.00    -0.191 NA 
DOCKED: ATOM     11  C   UNL     1     -43.283 -24.403   2.723 -0.26 +0.00    +0.101 C  
DOCKED: ENDROOT
DOCKED: BRANCH   2  12
DOCKED: ATOM     12  C   UNL     1     -43.915 -21.767   8.615 -0.10 +0.00    +0.038 C  
DOCKED: BRANCH  12  13
DOCKED: ATOM     13  C   UNL     1     -45.203 -21.837   9.433 -0.07 +0.00    +0.038 C  
DOCKED: BRANCH  13  14
DOCKED: ATOM     14  C   UNL     1     -44.945 -21.479  10.896 -0.00 +0.00    +0.251 C  
DOCKED: BRANCH  14  15
DOCKED: ATOM     15  N   UNL     1     -43.743 -22.149  11.377 -0.01 +0.00    +0.141 N  
DOCKED: ATOM     16  C   UNL     1     -42.784 -21.174  11.900 -0.00 +0.00    +0.285 C  
DOCKED: ATOM     17  C   UNL     1     -44.079 -23.133  12.407 -0.00 +0.00    +0.285 C  
DOCKED: ENDBRANCH  14  15
DOCKED: ENDBRANCH  13  14
DOCKED: ENDBRANCH  12  13
DOCKED: ENDBRANCH   2  12
DOCKED: BRANCH   2  18
DOCKED: ATOM     18  C   UNL     1     -42.187 -23.502   9.057 -0.13 +0.00    +0.006 A  
DOCKED: ATOM     19  C   UNL     1     -42.132 -24.701   9.766 -0.21 +0.00    +0.001 A  
DOCKED: ATOM     20  C   UNL     1     -40.994 -25.020  10.507 -0.21 +0.00    +0.029 A  
DOCKED: ATOM     21  C   UNL     1     -39.913 -24.140  10.539 -0.04 +0.00    +0.140 A  
DOCKED: ATOM     22  C   UNL     1     -39.968 -22.941   9.829 -0.11 +0.00    +0.029 A  
DOCKED: ATOM     23  F   UNL     1     -38.820 -24.448  11.249 -0.01 -0.00    -0.204 F  
DOCKED: ATOM     24  C   UNL     1     -41.107 -22.621   9.088 -0.11 +0.00    +0.001 A  
DOCKED: ENDBRANCH   2  18
DOCKED: TORSDOF 5
DOCKED: TER
DOCKED: ENDMDL
________________________________________________________________________________


    FINAL DOCKED STATE:
    ________________________


Run:   148 / 512
Time taken for this run:   0.002s

DOCKED: MODEL        148
DOCKED: USER    Run = 148
DOCKED: USER
DOCKED: USER    Estimated Free Energy of Binding    =  -3.93 kcal/mol  [=(1)+(2)+(3)-(4)]
DOCKED: USER
DOCKED: USER    (1) Final Intermolecular Energy     =  -5.42 kcal/mol
DOCKED: USER        vdW + Hbond + desolv Energy     =  -5.42 kcal/mol
DOCKED: USER        Electrostatic Energy            =  +0.00 kcal/mol
DOCKED: USER        Moving Ligand-Fixed Receptor    =  -5.42 kcal/mol
DOCKED: USER        Moving Ligand-Moving Receptor   =  +0.00 kcal/mol
DOCKED: USER    (2) Final Total Internal Energy     =  -1.40 kcal/mol
DOCKED: USER    (3) Torsional Free Energy           =  +1.49 kcal/mol
DOCKED: USER    (4) Unbound System's Energy         =  -1.40 kcal/mol
DOCKED: USER
DOCKED: USER
DOCKED: REMARK  5 active torsions:
DOCKED: REMARK  status: ('A' for Active; 'I' for Inactive)
DOCKED: REMARK    1  A    between atoms: C_2  and  C_19 
DOCKED: REMARK    2  A    between atoms: C_2  and  C_11 
DOCKED: REMARK    3  A    between atoms: C_19  and  C_20 
DOCKED: REMARK    4  A    between atoms: C_20  and  C_21 
DOCKED: REMARK    5  A    between atoms: C_21  and  N_22 
DOCKED: USER                              x       y       z     vdW  Elec       q    Type
DOCKED: USER                           _______ _______ _______ _____ _____    ______ ____
DOCKED: ROOT
DOCKED: ATOM      1  O   UNL     1     -36.882 -15.646   0.393 -0.04 -0.00    -0.346 OA 
DOCKED: ATOM      2  C   UNL     1     -38.249 -15.875  -0.077 -0.20 +0.00    +0.130 C  
DOCKED: ATOM      3  C   UNL     1     -38.419 -14.880  -1.189 -0.27 +0.00    +0.004 A  
DOCKED: ATOM      4  C   UNL     1     -37.220 -14.217  -1.409 -0.17 +0.00    +0.006 A  
DOCKED: ATOM      5  C   UNL     1     -36.185 -14.728  -0.482 -0.11 +0.00    +0.169 C  
DOCKED: ATOM      6  C   UNL     1     -39.541 -14.592  -1.951 -0.26 -0.00    -0.001 A  
DOCKED: ATOM      7  C   UNL     1     -37.102 -13.247  -2.390 -0.20 +0.00    +0.008 A  
DOCKED: ATOM      8  C   UNL     1     -39.440 -13.614  -2.941 -0.40 +0.00    +0.010 A  
DOCKED: ATOM      9  C   UNL     1     -38.226 -12.945  -3.160 -0.30 +0.00    +0.068 A  
DOCKED: ATOM     10  N   UNL     1     -38.071 -11.137  -5.009 -0.80 -0.00    -0.191 NA 
DOCKED: ATOM     11  C   UNL     1     -38.141 -11.948  -4.179 -0.34 +0.00    +0.101 C  
DOCKED: ENDROOT
DOCKED: BRANCH   2  12
DOCKED: ATOM     12  C   UNL     1     -38.361 -17.319  -0.551 -0.22 +0.00    +0.038 C  
DOCKED: BRANCH  12  13
DOCKED: ATOM     13  C   UNL     1     -36.990 -17.988  -0.627 -0.16 +0.00    +0.038 C  
DOCKED: BRANCH  13  14
DOCKED: ATOM     14  C   UNL     1     -36.763 -18.912   0.568 -0.10 +0.00    +0.251 C  
DOCKED: BRANCH  14  15
DOCKED: ATOM     15  N   UNL     1     -37.994 -19.059   1.337 -0.17 +0.00    +0.141 N  
DOCKED: ATOM     16  C   UNL     1     -38.509 -20.425   1.229 -0.23 +0.00    +0.285 C  
DOCKED: ATOM     17  C   UNL     1     -37.769 -18.710   2.741 -0.10 +0.00    +0.285 C  
DOCKED: ENDBRANCH  14  15
DOCKED: ENDBRANCH  13  14
DOCKED: ENDBRANCH  12  13
DOCKED: ENDBRANCH   2  12
DOCKED: BRANCH   2  18
DOCKED: ATOM     18  C   UNL     1     -39.157 -15.616   1.079 -0.25 +0.00    +0.006 A  
DOCKED: ATOM     19  C   UNL     1     -38.769 -14.732   2.085 -0.20 +0.00    +0.001 A  
DOCKED: ATOM     20  C   UNL     1     -39.618 -14.491   3.166 -0.21 +0.00    +0.029 A  
DOCKED: ATOM     21  C   UNL     1     -40.854 -15.132   3.238 -0.14 +0.00    +0.140 A  
DOCKED: ATOM     22  C   UNL     1     -41.241 -16.016   2.231 -0.26 +0.00    +0.029 A  
DOCKED: ATOM     23  F   UNL     1     -41.670 -14.899   4.274 -0.01 -0.00    -0.204 F  
DOCKED: ATOM     24  C   UNL     1     -40.392 -16.258   1.150 -0.28 +0.00    +0.001 A  
DOCKED: ENDBRANCH   2  18
DOCKED: TORSDOF 5
DOCKED: TER
DOCKED: ENDMDL
________________________________________________________________________________


    FINAL DOCKED STATE:
    ________________________


Run:   149 / 512
Time taken for this run:   0.002s

DOCKED: MODEL        149
DOCKED: USER    Run = 149
DOCKED: USER
DOCKED: USER    Estimated Free Energy of Binding    =  -4.43 kcal/mol  [=(1)+(2)+(3)-(4)]
DOCKED: USER
DOCKED: USER    (1) Final Intermolecular Energy     =  -5.92 kcal/mol
DOCKED: USER        vdW + Hbond + desolv Energy     =  -5.92 kcal/mol
DOCKED: USER        Electrostatic Energy            =  +0.00 kcal/mol
DOCKED: USER        Moving Ligand-Fixed Receptor    =  -5.92 kcal/mol
DOCKED: USER        Moving Ligand-Moving Receptor   =  +0.00 kcal/mol
DOCKED: USER    (2) Final Total Internal Energy     =  -1.26 kcal/mol
DOCKED: USER    (3) Torsional Free Energy           =  +1.49 kcal/mol
DOCKED: USER    (4) Unbound System's Energy         =  -1.26 kcal/mol
DOCKED: USER
DOCKED: USER
DOCKED: REMARK  5 active torsions:
DOCKED: REMARK  status: ('A' for Active; 'I' for Inactive)
DOCKED: REMARK    1  A    between atoms: C_2  and  C_19 
DOCKED: REMARK    2  A    between atoms: C_2  and  C_11 
DOCKED: REMARK    3  A    between atoms: C_19  and  C_20 
DOCKED: REMARK    4  A    between atoms: C_20  and  C_21 
DOCKED: REMARK    5  A    between atoms: C_21  and  N_22 
DOCKED: USER                              x       y       z     vdW  Elec       q    Type
DOCKED: USER                           _______ _______ _______ _____ _____    ______ ____
DOCKED: ROOT
DOCKED: ATOM      1  O   UNL     1     -38.359 -21.735   8.560 -0.07 -0.00    -0.346 OA 
DOCKED: ATOM      2  C   UNL     1     -39.421 -20.853   8.073 -0.12 +0.00    +0.130 C  
DOCKED: ATOM      3  C   UNL     1     -40.384 -21.789   7.401 -0.21 +0.00    +0.004 A  
DOCKED: ATOM      4  C   UNL     1     -39.967 -23.099   7.584 -0.24 +0.00    +0.006 A  
DOCKED: ATOM      5  C   UNL     1     -38.725 -23.124   8.388 -0.17 +0.00    +0.169 C  
DOCKED: ATOM      6  C   UNL     1     -41.543 -21.503   6.695 -0.27 -0.00    -0.001 A  
DOCKED: ATOM      7  C   UNL     1     -40.686 -24.163   7.067 -0.34 +0.00    +0.008 A  
DOCKED: ATOM      8  C   UNL     1     -42.277 -22.564   6.163 -0.31 +0.00    +0.010 A  
DOCKED: ATOM      9  C   UNL     1     -41.851 -23.888   6.349 -0.30 +0.00    +0.068 A  
DOCKED: ATOM     10  N   UNL     1     -43.240 -25.836   5.354 -2.55 -0.00    -0.191 NA 
DOCKED: ATOM     11  C   UNL     1     -42.617 -24.962   5.800 -0.36 +0.00    +0.101 C  
DOCKED: ENDROOT
DOCKED: BRANCH   2  12
DOCKED: ATOM     12  C   UNL     1     -40.031 -20.128   9.266 -0.05 +0.00    +0.038 C  
DOCKED: BRANCH  12  13
DOCKED: ATOM     13  C   UNL     1     -40.669 -18.805   8.847 -0.04 +0.00    +0.038 C  
DOCKED: BRANCH  13  14
DOCKED: ATOM     14  C   UNL     1     -42.193 -18.911   8.827 -0.02 +0.00    +0.251 C  
DOCKED: BRANCH  14  15
DOCKED: ATOM     15  N   UNL     1     -42.743 -18.106   7.744 -0.06 +0.00    +0.141 N  
DOCKED: ATOM     16  C   UNL     1     -41.670 -17.508   6.948 -0.08 +0.00    +0.285 C  
DOCKED: ATOM     17  C   UNL     1     -43.616 -18.915   6.892 -0.16 +0.00    +0.285 C  
DOCKED: ENDBRANCH  14  15
DOCKED: ENDBRANCH  13  14
DOCKED: ENDBRANCH  12  13
DOCKED: ENDBRANCH   2  12
DOCKED: BRANCH   2  18
DOCKED: ATOM     18  C   UNL     1     -38.788 -19.891   7.124 -0.13 +0.00    +0.006 A  
DOCKED: ATOM     19  C   UNL     1     -39.285 -19.761   5.828 -0.13 +0.00    +0.001 A  
DOCKED: ATOM     20  C   UNL     1     -38.692 -18.861   4.942 -0.12 +0.00    +0.029 A  
DOCKED: ATOM     21  C   UNL     1     -37.604 -18.092   5.353 -0.07 +0.00    +0.140 A  
DOCKED: ATOM     22  C   UNL     1     -37.108 -18.222   6.650 -0.05 +0.00    +0.029 A  
DOCKED: ATOM     23  F   UNL     1     -37.036 -17.226   4.503 -0.00 -0.00    -0.204 F  
DOCKED: ATOM     24  C   UNL     1     -37.700 -19.122   7.537 -0.07 +0.00    +0.001 A  
DOCKED: ENDBRANCH   2  18
DOCKED: TORSDOF 5
DOCKED: TER
DOCKED: ENDMDL
________________________________________________________________________________


    FINAL DOCKED STATE:
    ________________________


Run:   150 / 512
Time taken for this run:   0.002s

DOCKED: MODEL        150
DOCKED: USER    Run = 150
DOCKED: USER
DOCKED: USER    Estimated Free Energy of Binding    =  -4.05 kcal/mol  [=(1)+(2)+(3)-(4)]
DOCKED: USER
DOCKED: USER    (1) Final Intermolecular Energy     =  -5.54 kcal/mol
DOCKED: USER        vdW + Hbond + desolv Energy     =  -5.54 kcal/mol
DOCKED: USER        Electrostatic Energy            =  +0.00 kcal/mol
DOCKED: USER        Moving Ligand-Fixed Receptor    =  -5.54 kcal/mol
DOCKED: USER        Moving Ligand-Moving Receptor   =  +0.00 kcal/mol
DOCKED: USER    (2) Final Total Internal Energy     =  -1.09 kcal/mol
DOCKED: USER    (3) Torsional Free Energy           =  +1.49 kcal/mol
DOCKED: USER    (4) Unbound System's Energy         =  -1.09 kcal/mol
DOCKED: USER
DOCKED: USER
DOCKED: REMARK  5 active torsions:
DOCKED: REMARK  status: ('A' for Active; 'I' for Inactive)
DOCKED: REMARK    1  A    between atoms: C_2  and  C_19 
DOCKED: REMARK    2  A    between atoms: C_2  and  C_11 
DOCKED: REMARK    3  A    between atoms: C_19  and  C_20 
DOCKED: REMARK    4  A    between atoms: C_20  and  C_21 
DOCKED: REMARK    5  A    between atoms: C_21  and  N_22 
DOCKED: USER                              x       y       z     vdW  Elec       q    Type
DOCKED: USER                           _______ _______ _______ _____ _____    ______ ____
DOCKED: ROOT
DOCKED: ATOM      1  O   UNL     1     -35.308 -15.837  -1.250 +0.00 -0.00    -0.346 OA 
DOCKED: ATOM      2  C   UNL     1     -36.533 -16.067  -0.484 -0.08 +0.00    +0.130 C  
DOCKED: ATOM      3  C   UNL     1     -37.593 -15.361  -1.280 -0.21 +0.00    +0.004 A  
DOCKED: ATOM      4  C   UNL     1     -37.042 -14.865  -2.454 -0.18 +0.00    +0.006 A  
DOCKED: ATOM      5  C   UNL     1     -35.605 -15.215  -2.521 -0.05 +0.00    +0.169 C  
DOCKED: ATOM      6  C   UNL     1     -38.938 -15.181  -0.994 -0.29 -0.00    -0.001 A  
DOCKED: ATOM      7  C   UNL     1     -37.811 -14.174  -3.374 -0.25 +0.00    +0.008 A  
DOCKED: ATOM      8  C   UNL     1     -39.726 -14.482  -1.910 -0.29 +0.00    +0.010 A  
DOCKED: ATOM      9  C   UNL     1     -39.165 -13.982  -3.095 -0.16 +0.00    +0.068 A  
DOCKED: ATOM     10  N   UNL     1     -40.656 -12.693  -4.777 -2.35 -0.00    -0.191 NA 
DOCKED: ATOM     11  C   UNL     1     -39.987 -13.271  -4.022 -0.31 +0.00    +0.101 C  
DOCKED: ENDROOT
DOCKED: BRANCH   2  12
DOCKED: ATOM     12  C   UNL     1     -36.767 -17.570  -0.387 -0.12 +0.00    +0.038 C  
DOCKED: BRANCH  12  13
DOCKED: ATOM     13  C   UNL     1     -35.665 -18.352  -1.099 -0.08 +0.00    +0.038 C  
DOCKED: BRANCH  13  14
DOCKED: ATOM     14  C   UNL     1     -35.963 -18.485  -2.591 -0.12 +0.00    +0.251 C  
DOCKED: BRANCH  14  15
DOCKED: ATOM     15  N   UNL     1     -36.384 -19.845  -2.905 -0.24 +0.00    +0.141 N  
DOCKED: ATOM     16  C   UNL     1     -36.627 -19.992  -4.341 -0.22 +0.00    +0.285 C  
DOCKED: ATOM     17  C   UNL     1     -35.380 -20.812  -2.458 -0.15 +0.00    +0.285 C  
DOCKED: ENDBRANCH  14  15
DOCKED: ENDBRANCH  13  14
DOCKED: ENDBRANCH  12  13
DOCKED: ENDBRANCH   2  12
DOCKED: BRANCH   2  18
DOCKED: ATOM     18  C   UNL     1     -36.324 -15.466   0.866 -0.11 +0.00    +0.006 A  
DOCKED: ATOM     19  C   UNL     1     -35.488 -14.360   1.014 -0.12 +0.00    +0.001 A  
DOCKED: ATOM     20  C   UNL     1     -35.292 -13.800   2.277 +0.05 +0.00    +0.029 A  
DOCKED: ATOM     21  C   UNL     1     -35.932 -14.345   3.389 -0.07 +0.00    +0.140 A  
DOCKED: ATOM     22  C   UNL     1     -36.769 -15.452   3.240 -0.09 +0.00    +0.029 A  
DOCKED: ATOM     23  F   UNL     1     -35.746 -13.806   4.601 -0.03 -0.00    -0.204 F  
DOCKED: ATOM     24  C   UNL     1     -36.965 -16.013   1.977 -0.09 +0.00    +0.001 A  
DOCKED: ENDBRANCH   2  18
DOCKED: TORSDOF 5
DOCKED: TER
DOCKED: ENDMDL
________________________________________________________________________________


    FINAL DOCKED STATE:
    ________________________


Run:   151 / 512
Time taken for this run:   0.002s

DOCKED: MODEL        151
DOCKED: USER    Run = 151
DOCKED: USER
DOCKED: USER    Estimated Free Energy of Binding    =  -3.99 kcal/mol  [=(1)+(2)+(3)-(4)]
DOCKED: USER
DOCKED: USER    (1) Final Intermolecular Energy     =  -5.48 kcal/mol
DOCKED: USER        vdW + Hbond + desolv Energy     =  -5.48 kcal/mol
DOCKED: USER        Electrostatic Energy            =  +0.00 kcal/mol
DOCKED: USER        Moving Ligand-Fixed Receptor    =  -5.48 kcal/mol
DOCKED: USER        Moving Ligand-Moving Receptor   =  +0.00 kcal/mol
DOCKED: USER    (2) Final Total Internal Energy     =  -1.26 kcal/mol
DOCKED: USER    (3) Torsional Free Energy           =  +1.49 kcal/mol
DOCKED: USER    (4) Unbound System's Energy         =  -1.26 kcal/mol
DOCKED: USER
DOCKED: USER
DOCKED: REMARK  5 active torsions:
DOCKED: REMARK  status: ('A' for Active; 'I' for Inactive)
DOCKED: REMARK    1  A    between atoms: C_2  and  C_19 
DOCKED: REMARK    2  A    between atoms: C_2  and  C_11 
DOCKED: REMARK    3  A    between atoms: C_19  and  C_20 
DOCKED: REMARK    4  A    between atoms: C_20  and  C_21 
DOCKED: REMARK    5  A    between atoms: C_21  and  N_22 
DOCKED: USER                              x       y       z     vdW  Elec       q    Type
DOCKED: USER                           _______ _______ _______ _____ _____    ______ ____
DOCKED: ROOT
DOCKED: ATOM      1  O   UNL     1     -34.566 -11.788  -1.697 -0.02 -0.00    -0.346 OA 
DOCKED: ATOM      2  C   UNL     1     -34.228 -11.751  -3.120 -0.05 +0.00    +0.130 C  
DOCKED: ATOM      3  C   UNL     1     -35.546 -11.955  -3.808 -0.14 +0.00    +0.004 A  
DOCKED: ATOM      4  C   UNL     1     -36.564 -11.994  -2.866 -0.22 +0.00    +0.006 A  
DOCKED: ATOM      5  C   UNL     1     -36.000 -11.809  -1.510 -0.15 +0.00    +0.169 C  
DOCKED: ATOM      6  C   UNL     1     -35.824 -12.084  -5.161 -0.17 -0.00    -0.001 A  
DOCKED: ATOM      7  C   UNL     1     -37.886 -12.168  -3.239 -0.34 +0.00    +0.008 A  
DOCKED: ATOM      8  C   UNL     1     -37.152 -12.263  -5.553 -0.28 +0.00    +0.010 A  
DOCKED: ATOM      9  C   UNL     1     -38.177 -12.304  -4.597 -0.34 +0.00    +0.068 A  
DOCKED: ATOM     10  N   UNL     1     -40.631 -12.634  -5.359 -2.57 -0.00    -0.191 NA 
DOCKED: ATOM     11  C   UNL     1     -39.531 -12.487  -5.017 -0.33 +0.00    +0.101 C  
DOCKED: ENDROOT
DOCKED: BRANCH   2  12
DOCKED: ATOM     12  C   UNL     1     -33.599 -10.397  -3.431 -0.08 +0.00    +0.038 C  
DOCKED: BRANCH  12  13
DOCKED: ATOM     13  C   UNL     1     -34.662  -9.312  -3.586 -0.17 +0.00    +0.038 C  
DOCKED: BRANCH  13  14
DOCKED: ATOM     14  C   UNL     1     -35.029  -8.705  -2.233 -0.09 +0.00    +0.251 C  
DOCKED: BRANCH  14  15
DOCKED: ATOM     15  N   UNL     1     -36.412  -8.241  -2.244 -0.19 +0.00    +0.141 N  
DOCKED: ATOM     16  C   UNL     1     -37.187  -8.906  -1.196 -0.24 +0.00    +0.285 C  
DOCKED: ATOM     17  C   UNL     1     -36.469  -6.788  -2.074 -0.06 +0.00    +0.285 C  
DOCKED: ENDBRANCH  14  15
DOCKED: ENDBRANCH  13  14
DOCKED: ENDBRANCH  12  13
DOCKED: ENDBRANCH   2  12
DOCKED: BRANCH   2  18
DOCKED: ATOM     18  C   UNL     1     -33.263 -12.862  -3.369 -0.02 +0.00    +0.006 A  
DOCKED: ATOM     19  C   UNL     1     -31.923 -12.577  -3.624 -0.01 +0.00    +0.001 A  
DOCKED: ATOM     20  C   UNL     1     -31.022 -13.618  -3.857 -0.00 +0.00    +0.029 A  
DOCKED: ATOM     21  C   UNL     1     -31.463 -14.940  -3.834 -0.00 +0.00    +0.140 A  
DOCKED: ATOM     22  C   UNL     1     -32.804 -15.224  -3.578 -0.00 +0.00    +0.029 A  
DOCKED: ATOM     23  F   UNL     1     -30.598 -15.938  -4.055 +0.00 -0.00    -0.204 F  
DOCKED: ATOM     24  C   UNL     1     -33.706 -14.184  -3.345 -0.01 +0.00    +0.001 A  
DOCKED: ENDBRANCH   2  18
DOCKED: TORSDOF 5
DOCKED: TER
DOCKED: ENDMDL
________________________________________________________________________________


    FINAL DOCKED STATE:
    ________________________


Run:   152 / 512
Time taken for this run:   0.002s

DOCKED: MODEL        152
DOCKED: USER    Run = 152
DOCKED: USER
DOCKED: USER    Estimated Free Energy of Binding    =  -4.17 kcal/mol  [=(1)+(2)+(3)-(4)]
DOCKED: USER
DOCKED: USER    (1) Final Intermolecular Energy     =  -5.66 kcal/mol
DOCKED: USER        vdW + Hbond + desolv Energy     =  -5.66 kcal/mol
DOCKED: USER        Electrostatic Energy            =  +0.00 kcal/mol
DOCKED: USER        Moving Ligand-Fixed Receptor    =  -5.66 kcal/mol
DOCKED: USER        Moving Ligand-Moving Receptor   =  +0.00 kcal/mol
DOCKED: USER    (2) Final Total Internal Energy     =  -1.36 kcal/mol
DOCKED: USER    (3) Torsional Free Energy           =  +1.49 kcal/mol
DOCKED: USER    (4) Unbound System's Energy         =  -1.36 kcal/mol
DOCKED: USER
DOCKED: USER
DOCKED: REMARK  5 active torsions:
DOCKED: REMARK  status: ('A' for Active; 'I' for Inactive)
DOCKED: REMARK    1  A    between atoms: C_2  and  C_19 
DOCKED: REMARK    2  A    between atoms: C_2  and  C_11 
DOCKED: REMARK    3  A    between atoms: C_19  and  C_20 
DOCKED: REMARK    4  A    between atoms: C_20  and  C_21 
DOCKED: REMARK    5  A    between atoms: C_21  and  N_22 
DOCKED: USER                              x       y       z     vdW  Elec       q    Type
DOCKED: USER                           _______ _______ _______ _____ _____    ______ ____
DOCKED: ROOT
DOCKED: ATOM      1  O   UNL     1     -38.915 -21.377   8.395 -0.07 -0.00    -0.346 OA 
DOCKED: ATOM      2  C   UNL     1     -40.145 -20.687   8.006 -0.12 +0.00    +0.130 C  
DOCKED: ATOM      3  C   UNL     1     -40.946 -21.747   7.306 -0.22 +0.00    +0.004 A  
DOCKED: ATOM      4  C   UNL     1     -40.281 -22.962   7.385 -0.25 +0.00    +0.006 A  
DOCKED: ATOM      5  C   UNL     1     -39.020 -22.797   8.142 -0.14 +0.00    +0.169 C  
DOCKED: ATOM      6  C   UNL     1     -42.170 -21.645   6.661 -0.26 -0.00    -0.001 A  
DOCKED: ATOM      7  C   UNL     1     -40.811 -24.111   6.822 -0.35 +0.00    +0.008 A  
DOCKED: ATOM      8  C   UNL     1     -42.715 -22.794   6.084 -0.30 +0.00    +0.010 A  
DOCKED: ATOM      9  C   UNL     1     -42.039 -24.020   6.165 -0.31 +0.00    +0.068 A  
DOCKED: ATOM     10  N   UNL     1     -43.082 -26.134   5.088 -2.44 -0.00    -0.191 NA 
DOCKED: ATOM     11  C   UNL     1     -42.614 -25.186   5.571 -0.34 +0.00    +0.101 C  
DOCKED: ENDROOT
DOCKED: BRANCH   2  12
DOCKED: ATOM     12  C   UNL     1     -40.825 -20.165   9.266 -0.05 +0.00    +0.038 C  
DOCKED: BRANCH  12  13
DOCKED: ATOM     13  C   UNL     1     -39.965 -20.409  10.505 -0.02 +0.00    +0.038 C  
DOCKED: BRANCH  13  14
DOCKED: ATOM     14  C   UNL     1     -40.663 -21.354  11.481 -0.01 +0.00    +0.251 C  
DOCKED: BRANCH  14  15
DOCKED: ATOM     15  N   UNL     1     -40.521 -22.736  11.037 -0.04 +0.00    +0.141 N  
DOCKED: ATOM     16  C   UNL     1     -40.085 -23.591  12.142 -0.05 +0.00    +0.285 C  
DOCKED: ATOM     17  C   UNL     1     -41.782 -23.230  10.480 -0.04 +0.00    +0.285 C  
DOCKED: ENDBRANCH  14  15
DOCKED: ENDBRANCH  13  14
DOCKED: ENDBRANCH  12  13
DOCKED: ENDBRANCH   2  12
DOCKED: BRANCH   2  18
DOCKED: ATOM     18  C   UNL     1     -39.750 -19.566   7.104 -0.15 +0.00    +0.006 A  
DOCKED: ATOM     19  C   UNL     1     -38.404 -19.348   6.812 -0.12 +0.00    +0.001 A  
DOCKED: ATOM     20  C   UNL     1     -38.036 -18.299   5.968 -0.09 +0.00    +0.029 A  
DOCKED: ATOM     21  C   UNL     1     -39.013 -17.471   5.418 -0.07 +0.00    +0.140 A  
DOCKED: ATOM     22  C   UNL     1     -40.359 -17.689   5.711 -0.08 +0.00    +0.029 A  
DOCKED: ATOM     23  F   UNL     1     -38.659 -16.465   4.607 -0.01 -0.00    -0.204 F  
DOCKED: ATOM     24  C   UNL     1     -40.728 -18.738   6.555 -0.14 +0.00    +0.001 A  
DOCKED: ENDBRANCH   2  18
DOCKED: TORSDOF 5
DOCKED: TER
DOCKED: ENDMDL
________________________________________________________________________________


    FINAL DOCKED STATE:
    ________________________


Run:   153 / 512
Time taken for this run:   0.002s

DOCKED: MODEL        153
DOCKED: USER    Run = 153
DOCKED: USER
DOCKED: USER    Estimated Free Energy of Binding    =  -4.38 kcal/mol  [=(1)+(2)+(3)-(4)]
DOCKED: USER
DOCKED: USER    (1) Final Intermolecular Energy     =  -5.87 kcal/mol
DOCKED: USER        vdW + Hbond + desolv Energy     =  -5.87 kcal/mol
DOCKED: USER        Electrostatic Energy            =  +0.00 kcal/mol
DOCKED: USER        Moving Ligand-Fixed Receptor    =  -5.87 kcal/mol
DOCKED: USER        Moving Ligand-Moving Receptor   =  +0.00 kcal/mol
DOCKED: USER    (2) Final Total Internal Energy     =  -1.17 kcal/mol
DOCKED: USER    (3) Torsional Free Energy           =  +1.49 kcal/mol
DOCKED: USER    (4) Unbound System's Energy         =  -1.17 kcal/mol
DOCKED: USER
DOCKED: USER
DOCKED: REMARK  5 active torsions:
DOCKED: REMARK  status: ('A' for Active; 'I' for Inactive)
DOCKED: REMARK    1  A    between atoms: C_2  and  C_19 
DOCKED: REMARK    2  A    between atoms: C_2  and  C_11 
DOCKED: REMARK    3  A    between atoms: C_19  and  C_20 
DOCKED: REMARK    4  A    between atoms: C_20  and  C_21 
DOCKED: REMARK    5  A    between atoms: C_21  and  N_22 
DOCKED: USER                              x       y       z     vdW  Elec       q    Type
DOCKED: USER                           _______ _______ _______ _____ _____    ______ ____
DOCKED: ROOT
DOCKED: ATOM      1  O   UNL     1     -43.425 -25.377   6.179 -1.82 -0.00    -0.346 OA 
DOCKED: ATOM      2  C   UNL     1     -44.064 -24.326   6.972 -0.21 +0.00    +0.130 C  
DOCKED: ATOM      3  C   UNL     1     -42.948 -23.364   7.259 -0.20 +0.00    +0.004 A  
DOCKED: ATOM      4  C   UNL     1     -41.798 -23.771   6.598 -0.33 +0.00    +0.006 A  
DOCKED: ATOM      5  C   UNL     1     -42.072 -25.005   5.827 -0.32 +0.00    +0.169 C  
DOCKED: ATOM      6  C   UNL     1     -42.952 -22.214   8.036 -0.13 -0.00    -0.001 A  
DOCKED: ATOM      7  C   UNL     1     -40.619 -23.051   6.691 -0.22 +0.00    +0.008 A  
DOCKED: ATOM      8  C   UNL     1     -41.771 -21.479   8.143 -0.12 +0.00    +0.010 A  
DOCKED: ATOM      9  C   UNL     1     -40.610 -21.895   7.474 -0.19 +0.00    +0.068 A  
DOCKED: ATOM     10  N   UNL     1     -38.434 -20.505   7.691 -0.08 -0.00    -0.191 NA 
DOCKED: ATOM     11  C   UNL     1     -39.410 -21.129   7.594 -0.15 +0.00    +0.101 C  
DOCKED: ENDROOT
DOCKED: BRANCH   2  12
DOCKED: ATOM     12  C   UNL     1     -45.181 -23.707   6.140 -0.32 +0.00    +0.038 C  
DOCKED: BRANCH  12  13
DOCKED: ATOM     13  C   UNL     1     -46.127 -22.879   7.008 -0.27 +0.00    +0.038 C  
DOCKED: BRANCH  13  14
DOCKED: ATOM     14  C   UNL     1     -46.270 -21.458   6.464 -0.10 +0.00    +0.251 C  
DOCKED: BRANCH  14  15
DOCKED: ATOM     15  N   UNL     1     -45.572 -20.512   7.326 -0.16 +0.00    +0.141 N  
DOCKED: ATOM     16  C   UNL     1     -45.422 -19.219   6.658 -0.12 +0.00    +0.285 C  
DOCKED: ATOM     17  C   UNL     1     -46.285 -20.348   8.594 -0.03 +0.00    +0.285 C  
DOCKED: ENDBRANCH  14  15
DOCKED: ENDBRANCH  13  14
DOCKED: ENDBRANCH  12  13
DOCKED: ENDBRANCH   2  12
DOCKED: BRANCH   2  18
DOCKED: ATOM     18  C   UNL     1     -44.604 -24.974   8.202 -0.22 +0.00    +0.006 A  
DOCKED: ATOM     19  C   UNL     1     -45.756 -25.757   8.129 -0.21 +0.00    +0.001 A  
DOCKED: ATOM     20  C   UNL     1     -46.260 -26.363   9.280 -0.23 +0.00    +0.029 A  
DOCKED: ATOM     21  C   UNL     1     -45.613 -26.186  10.502 -0.08 +0.00    +0.140 A  
DOCKED: ATOM     22  C   UNL     1     -44.461 -25.403  10.575 -0.13 +0.00    +0.029 A  
DOCKED: ATOM     23  F   UNL     1     -46.096 -26.769  11.607 -0.04 -0.00    -0.204 F  
DOCKED: ATOM     24  C   UNL     1     -43.956 -24.796   9.424 -0.18 +0.00    +0.001 A  
DOCKED: ENDBRANCH   2  18
DOCKED: TORSDOF 5
DOCKED: TER
DOCKED: ENDMDL
________________________________________________________________________________


    FINAL DOCKED STATE:
    ________________________


Run:   154 / 512
Time taken for this run:   0.002s

DOCKED: MODEL        154
DOCKED: USER    Run = 154
DOCKED: USER
DOCKED: USER    Estimated Free Energy of Binding    =  -4.68 kcal/mol  [=(1)+(2)+(3)-(4)]
DOCKED: USER
DOCKED: USER    (1) Final Intermolecular Energy     =  -6.18 kcal/mol
DOCKED: USER        vdW + Hbond + desolv Energy     =  -6.18 kcal/mol
DOCKED: USER        Electrostatic Energy            =  +0.00 kcal/mol
DOCKED: USER        Moving Ligand-Fixed Receptor    =  -6.18 kcal/mol
DOCKED: USER        Moving Ligand-Moving Receptor   =  +0.00 kcal/mol
DOCKED: USER    (2) Final Total Internal Energy     =  -1.33 kcal/mol
DOCKED: USER    (3) Torsional Free Energy           =  +1.49 kcal/mol
DOCKED: USER    (4) Unbound System's Energy         =  -1.33 kcal/mol
DOCKED: USER
DOCKED: USER
DOCKED: REMARK  5 active torsions:
DOCKED: REMARK  status: ('A' for Active; 'I' for Inactive)
DOCKED: REMARK    1  A    between atoms: C_2  and  C_19 
DOCKED: REMARK    2  A    between atoms: C_2  and  C_11 
DOCKED: REMARK    3  A    between atoms: C_19  and  C_20 
DOCKED: REMARK    4  A    between atoms: C_20  and  C_21 
DOCKED: REMARK    5  A    between atoms: C_21  and  N_22 
DOCKED: USER                              x       y       z     vdW  Elec       q    Type
DOCKED: USER                           _______ _______ _______ _____ _____    ______ ____
DOCKED: ROOT
DOCKED: ATOM      1  O   UNL     1     -41.027 -19.467   6.999 -0.07 -0.00    -0.346 OA 
DOCKED: ATOM      2  C   UNL     1     -42.363 -19.685   7.555 -0.14 +0.00    +0.130 C  
DOCKED: ATOM      3  C   UNL     1     -42.698 -21.090   7.144 -0.21 +0.00    +0.004 A  
DOCKED: ATOM      4  C   UNL     1     -41.607 -21.663   6.506 -0.28 +0.00    +0.006 A  
DOCKED: ATOM      5  C   UNL     1     -40.487 -20.696   6.462 -0.19 +0.00    +0.169 C  
DOCKED: ATOM      6  C   UNL     1     -43.871 -21.808   7.329 -0.19 -0.00    -0.001 A  
DOCKED: ATOM      7  C   UNL     1     -41.650 -22.962   6.030 -0.34 +0.00    +0.008 A  
DOCKED: ATOM      8  C   UNL     1     -43.932 -23.118   6.852 -0.22 +0.00    +0.010 A  
DOCKED: ATOM      9  C   UNL     1     -42.827 -23.692   6.206 -0.26 +0.00    +0.068 A  
DOCKED: ATOM     10  N   UNL     1     -42.972 -26.128   5.336 -2.60 -0.00    -0.191 NA 
DOCKED: ATOM     11  C   UNL     1     -42.907 -25.035   5.726 -0.36 +0.00    +0.101 C  
DOCKED: ENDROOT
DOCKED: BRANCH   2  12
DOCKED: ATOM     12  C   UNL     1     -42.292 -19.511   9.067 -0.05 +0.00    +0.038 C  
DOCKED: BRANCH  12  13
DOCKED: ATOM     13  C   UNL     1     -42.311 -20.859   9.785 -0.04 +0.00    +0.038 C  
DOCKED: BRANCH  13  14
DOCKED: ATOM     14  C   UNL     1     -40.901 -21.285  10.190 -0.02 +0.00    +0.251 C  
DOCKED: BRANCH  14  15
DOCKED: ATOM     15  N   UNL     1     -40.826 -22.736  10.314 -0.05 +0.00    +0.141 N  
DOCKED: ATOM     16  C   UNL     1     -42.004 -23.367   9.716 -0.05 +0.00    +0.285 C  
DOCKED: ATOM     17  C   UNL     1     -39.605 -23.245   9.687 -0.08 +0.00    +0.285 C  
DOCKED: ENDBRANCH  14  15
DOCKED: ENDBRANCH  13  14
DOCKED: ENDBRANCH  12  13
DOCKED: ENDBRANCH   2  12
DOCKED: BRANCH   2  18
DOCKED: ATOM     18  C   UNL     1     -43.264 -18.668   6.937 -0.20 +0.00    +0.006 A  
DOCKED: ATOM     19  C   UNL     1     -44.635 -18.708   7.189 -0.20 +0.00    +0.001 A  
DOCKED: ATOM     20  C   UNL     1     -45.476 -17.756   6.611 -0.18 +0.00    +0.029 A  
DOCKED: ATOM     21  C   UNL     1     -44.946 -16.768   5.783 -0.11 +0.00    +0.140 A  
DOCKED: ATOM     22  C   UNL     1     -43.575 -16.729   5.532 -0.14 +0.00    +0.029 A  
DOCKED: ATOM     23  F   UNL     1     -45.753 -15.853   5.230 -0.03 -0.00    -0.204 F  
DOCKED: ATOM     24  C   UNL     1     -42.732 -17.680   6.110 -0.18 +0.00    +0.001 A  
DOCKED: ENDBRANCH   2  18
DOCKED: TORSDOF 5
DOCKED: TER
DOCKED: ENDMDL
________________________________________________________________________________


    FINAL DOCKED STATE:
    ________________________


Run:   155 / 512
Time taken for this run:   0.002s

DOCKED: MODEL        155
DOCKED: USER    Run = 155
DOCKED: USER
DOCKED: USER    Estimated Free Energy of Binding    =  -4.86 kcal/mol  [=(1)+(2)+(3)-(4)]
DOCKED: USER
DOCKED: USER    (1) Final Intermolecular Energy     =  -6.35 kcal/mol
DOCKED: USER        vdW + Hbond + desolv Energy     =  -6.35 kcal/mol
DOCKED: USER        Electrostatic Energy            =  +0.00 kcal/mol
DOCKED: USER        Moving Ligand-Fixed Receptor    =  -6.35 kcal/mol
DOCKED: USER        Moving Ligand-Moving Receptor   =  +0.00 kcal/mol
DOCKED: USER    (2) Final Total Internal Energy     =  -1.52 kcal/mol
DOCKED: USER    (3) Torsional Free Energy           =  +1.49 kcal/mol
DOCKED: USER    (4) Unbound System's Energy         =  -1.52 kcal/mol
DOCKED: USER
DOCKED: USER
DOCKED: REMARK  5 active torsions:
DOCKED: REMARK  status: ('A' for Active; 'I' for Inactive)
DOCKED: REMARK    1  A    between atoms: C_2  and  C_19 
DOCKED: REMARK    2  A    between atoms: C_2  and  C_11 
DOCKED: REMARK    3  A    between atoms: C_19  and  C_20 
DOCKED: REMARK    4  A    between atoms: C_20  and  C_21 
DOCKED: REMARK    5  A    between atoms: C_21  and  N_22 
DOCKED: USER                              x       y       z     vdW  Elec       q    Type
DOCKED: USER                           _______ _______ _______ _____ _____    ______ ____
DOCKED: ROOT
DOCKED: ATOM      1  O   UNL     1     -44.552 -23.285   8.488 -0.00 -0.00    -0.346 OA 
DOCKED: ATOM      2  C   UNL     1     -43.232 -22.740   8.167 -0.10 +0.00    +0.130 C  
DOCKED: ATOM      3  C   UNL     1     -43.044 -23.084   6.718 -0.24 +0.00    +0.004 A  
DOCKED: ATOM      4  C   UNL     1     -44.199 -23.674   6.224 -0.27 +0.00    +0.006 A  
DOCKED: ATOM      5  C   UNL     1     -45.221 -23.749   7.293 -0.16 +0.00    +0.169 C  
DOCKED: ATOM      6  C   UNL     1     -41.943 -22.879   5.899 -0.35 -0.00    -0.001 A  
DOCKED: ATOM      7  C   UNL     1     -44.292 -24.082   4.905 -0.33 +0.00    +0.008 A  
DOCKED: ATOM      8  C   UNL     1     -42.020 -23.290   4.567 -0.23 +0.00    +0.010 A  
DOCKED: ATOM      9  C   UNL     1     -43.189 -23.888   4.072 -0.33 +0.00    +0.068 A  
DOCKED: ATOM     10  N   UNL     1     -43.300 -24.633   1.593 -2.97 -0.00    -0.191 NA 
DOCKED: ATOM     11  C   UNL     1     -43.250 -24.299   2.705 -0.27 +0.00    +0.101 C  
DOCKED: ENDROOT
DOCKED: BRANCH   2  12
DOCKED: ATOM     12  C   UNL     1     -43.255 -21.238   8.423 -0.10 +0.00    +0.038 C  
DOCKED: BRANCH  12  13
DOCKED: ATOM     13  C   UNL     1     -44.685 -20.711   8.517 -0.11 +0.00    +0.038 C  
DOCKED: BRANCH  13  14
DOCKED: ATOM     14  C   UNL     1     -45.128 -20.580   9.973 -0.00 +0.00    +0.251 C  
DOCKED: BRANCH  14  15
DOCKED: ATOM     15  N   UNL     1     -44.451 -21.572  10.800 -0.01 +0.00    +0.141 N  
DOCKED: ATOM     16  C   UNL     1     -43.583 -20.920  11.783 -0.00 +0.00    +0.285 C  
DOCKED: ATOM     17  C   UNL     1     -45.425 -22.432  11.475 +0.00 +0.00    +0.285 C  
DOCKED: ENDBRANCH  14  15
DOCKED: ENDBRANCH  13  14
DOCKED: ENDBRANCH  12  13
DOCKED: ENDBRANCH   2  12
DOCKED: BRANCH   2  18
DOCKED: ATOM     18  C   UNL     1     -42.249 -23.423   9.059 -0.12 +0.00    +0.006 A  
DOCKED: ATOM     19  C   UNL     1     -42.360 -24.792   9.298 -0.22 +0.00    +0.001 A  
DOCKED: ATOM     20  C   UNL     1     -41.441 -25.430  10.132 -0.22 +0.00    +0.029 A  
DOCKED: ATOM     21  C   UNL     1     -40.413 -24.698  10.725 -0.08 +0.00    +0.140 A  
DOCKED: ATOM     22  C   UNL     1     -40.303 -23.328  10.485 -0.11 +0.00    +0.029 A  
DOCKED: ATOM     23  F   UNL     1     -39.530 -25.310  11.524 -0.04 -0.00    -0.204 F  
DOCKED: ATOM     24  C   UNL     1     -41.222 -22.690   9.651 -0.09 +0.00    +0.001 A  
DOCKED: ENDBRANCH   2  18
DOCKED: TORSDOF 5
DOCKED: TER
DOCKED: ENDMDL
________________________________________________________________________________


    FINAL DOCKED STATE:
    ________________________


Run:   156 / 512
Time taken for this run:   0.002s

DOCKED: MODEL        156
DOCKED: USER    Run = 156
DOCKED: USER
DOCKED: USER    Estimated Free Energy of Binding    =  -4.71 kcal/mol  [=(1)+(2)+(3)-(4)]
DOCKED: USER
DOCKED: USER    (1) Final Intermolecular Energy     =  -6.20 kcal/mol
DOCKED: USER        vdW + Hbond + desolv Energy     =  -6.20 kcal/mol
DOCKED: USER        Electrostatic Energy            =  +0.00 kcal/mol
DOCKED: USER        Moving Ligand-Fixed Receptor    =  -6.20 kcal/mol
DOCKED: USER        Moving Ligand-Moving Receptor   =  +0.00 kcal/mol
DOCKED: USER    (2) Final Total Internal Energy     =  -1.17 kcal/mol
DOCKED: USER    (3) Torsional Free Energy           =  +1.49 kcal/mol
DOCKED: USER    (4) Unbound System's Energy         =  -1.17 kcal/mol
DOCKED: USER
DOCKED: USER
DOCKED: REMARK  5 active torsions:
DOCKED: REMARK  status: ('A' for Active; 'I' for Inactive)
DOCKED: REMARK    1  A    between atoms: C_2  and  C_19 
DOCKED: REMARK    2  A    between atoms: C_2  and  C_11 
DOCKED: REMARK    3  A    between atoms: C_19  and  C_20 
DOCKED: REMARK    4  A    between atoms: C_20  and  C_21 
DOCKED: REMARK    5  A    between atoms: C_21  and  N_22 
DOCKED: USER                              x       y       z     vdW  Elec       q    Type
DOCKED: USER                           _______ _______ _______ _____ _____    ______ ____
DOCKED: ROOT
DOCKED: ATOM      1  O   UNL     1     -38.873 -15.972   0.854 -0.08 -0.00    -0.346 OA 
DOCKED: ATOM      2  C   UNL     1     -37.595 -15.714   0.190 -0.15 +0.00    +0.130 C  
DOCKED: ATOM      3  C   UNL     1     -37.983 -15.012  -1.078 -0.24 +0.00    +0.004 A  
DOCKED: ATOM      4  C   UNL     1     -39.353 -14.789  -1.088 -0.27 +0.00    +0.006 A  
DOCKED: ATOM      5  C   UNL     1     -39.955 -15.308   0.160 -0.24 +0.00    +0.169 C  
DOCKED: ATOM      6  C   UNL     1     -37.187 -14.594  -2.134 -0.19 -0.00    -0.001 A  
DOCKED: ATOM      7  C   UNL     1     -39.971 -14.148  -2.148 -0.37 +0.00    +0.008 A  
DOCKED: ATOM      8  C   UNL     1     -37.796 -13.951  -3.213 -0.26 +0.00    +0.010 A  
DOCKED: ATOM      9  C   UNL     1     -39.181 -13.728  -3.219 -0.30 +0.00    +0.068 A  
DOCKED: ATOM     10  N   UNL     1     -40.279 -12.526  -5.235 -2.49 -0.00    -0.191 NA 
DOCKED: ATOM     11  C   UNL     1     -39.787 -13.066  -4.331 -0.37 +0.00    +0.101 C  
DOCKED: ENDROOT
DOCKED: BRANCH   2  12
DOCKED: ATOM     12  C   UNL     1     -36.739 -14.850   1.109 -0.16 +0.00    +0.038 C  
DOCKED: BRANCH  12  13
DOCKED: ATOM     13  C   UNL     1     -35.305 -14.742   0.597 -0.11 +0.00    +0.038 C  
DOCKED: BRANCH  13  14
DOCKED: ATOM     14  C   UNL     1     -34.710 -13.371   0.911 -0.08 +0.00    +0.251 C  
DOCKED: BRANCH  14  15
DOCKED: ATOM     15  N   UNL     1     -34.144 -12.775  -0.293 -0.08 +0.00    +0.141 N  
DOCKED: ATOM     16  C   UNL     1     -33.486 -13.793  -1.112 -0.01 +0.00    +0.285 C  
DOCKED: ATOM     17  C   UNL     1     -35.182 -12.093  -1.068 -0.10 +0.00    +0.285 C  
DOCKED: ENDBRANCH  14  15
DOCKED: ENDBRANCH  13  14
DOCKED: ENDBRANCH  12  13
DOCKED: ENDBRANCH   2  12
DOCKED: BRANCH   2  18
DOCKED: ATOM     18  C   UNL     1     -36.954 -17.040  -0.051 -0.10 +0.00    +0.006 A  
DOCKED: ATOM     19  C   UNL     1     -36.326 -17.712   0.997 -0.06 +0.00    +0.001 A  
DOCKED: ATOM     20  C   UNL     1     -35.727 -18.952   0.769 -0.06 +0.00    +0.029 A  
DOCKED: ATOM     21  C   UNL     1     -35.757 -19.517  -0.505 -0.11 +0.00    +0.140 A  
DOCKED: ATOM     22  C   UNL     1     -36.384 -18.844  -1.553 -0.17 +0.00    +0.029 A  
DOCKED: ATOM     23  F   UNL     1     -35.183 -20.708  -0.723 -0.04 -0.00    -0.204 F  
DOCKED: ATOM     24  C   UNL     1     -36.984 -17.604  -1.326 -0.17 +0.00    +0.001 A  
DOCKED: ENDBRANCH   2  18
DOCKED: TORSDOF 5
DOCKED: TER
DOCKED: ENDMDL
________________________________________________________________________________


    FINAL DOCKED STATE:
    ________________________


Run:   157 / 512
Time taken for this run:   0.002s

DOCKED: MODEL        157
DOCKED: USER    Run = 157
DOCKED: USER
DOCKED: USER    Estimated Free Energy of Binding    =  -4.90 kcal/mol  [=(1)+(2)+(3)-(4)]
DOCKED: USER
DOCKED: USER    (1) Final Intermolecular Energy     =  -6.39 kcal/mol
DOCKED: USER        vdW + Hbond + desolv Energy     =  -6.39 kcal/mol
DOCKED: USER        Electrostatic Energy            =  +0.00 kcal/mol
DOCKED: USER        Moving Ligand-Fixed Receptor    =  -6.39 kcal/mol
DOCKED: USER        Moving Ligand-Moving Receptor   =  +0.00 kcal/mol
DOCKED: USER    (2) Final Total Internal Energy     =  -1.04 kcal/mol
DOCKED: USER    (3) Torsional Free Energy           =  +1.49 kcal/mol
DOCKED: USER    (4) Unbound System's Energy         =  -1.04 kcal/mol
DOCKED: USER
DOCKED: USER
DOCKED: REMARK  5 active torsions:
DOCKED: REMARK  status: ('A' for Active; 'I' for Inactive)
DOCKED: REMARK    1  A    between atoms: C_2  and  C_19 
DOCKED: REMARK    2  A    between atoms: C_2  and  C_11 
DOCKED: REMARK    3  A    between atoms: C_19  and  C_20 
DOCKED: REMARK    4  A    between atoms: C_20  and  C_21 
DOCKED: REMARK    5  A    between atoms: C_21  and  N_22 
DOCKED: USER                              x       y       z     vdW  Elec       q    Type
DOCKED: USER                           _______ _______ _______ _____ _____    ______ ____
DOCKED: ROOT
DOCKED: ATOM      1  O   UNL     1     -43.839 -22.559   8.281 -0.01 -0.00    -0.346 OA 
DOCKED: ATOM      2  C   UNL     1     -42.432 -22.830   7.982 -0.13 +0.00    +0.130 C  
DOCKED: ATOM      3  C   UNL     1     -42.458 -23.358   6.577 -0.28 +0.00    +0.004 A  
DOCKED: ATOM      4  C   UNL     1     -43.750 -23.290   6.076 -0.27 +0.00    +0.006 A  
DOCKED: ATOM      5  C   UNL     1     -44.654 -22.711   7.095 -0.16 +0.00    +0.169 C  
DOCKED: ATOM      6  C   UNL     1     -41.418 -23.847   5.799 -0.36 -0.00    -0.001 A  
DOCKED: ATOM      7  C   UNL     1     -44.048 -23.712   4.792 -0.16 +0.00    +0.008 A  
DOCKED: ATOM      8  C   UNL     1     -41.703 -24.280   4.503 +0.02 +0.00    +0.010 A  
DOCKED: ATOM      9  C   UNL     1     -43.012 -24.212   4.002 -0.41 +0.00    +0.068 A  
DOCKED: ATOM     10  N   UNL     1     -43.506 -25.018   1.590 -2.75 -0.00    -0.191 NA 
DOCKED: ATOM     11  C   UNL     1     -43.285 -24.657   2.672 -0.29 +0.00    +0.101 C  
DOCKED: ENDROOT
DOCKED: BRANCH   2  12
DOCKED: ATOM     12  C   UNL     1     -41.651 -21.527   8.112 -0.14 +0.00    +0.038 C  
DOCKED: BRANCH  12  13
DOCKED: ATOM     13  C   UNL     1     -41.651 -20.745   6.801 -0.25 +0.00    +0.038 C  
DOCKED: BRANCH  13  14
DOCKED: ATOM     14  C   UNL     1     -40.389 -19.894   6.669 -0.15 +0.00    +0.251 C  
DOCKED: BRANCH  14  15
DOCKED: ATOM     15  N   UNL     1     -39.578 -20.000   7.876 -0.08 +0.00    +0.141 N  
DOCKED: ATOM     16  C   UNL     1     -38.341 -20.735   7.605 -0.07 +0.00    +0.285 C  
DOCKED: ATOM     17  C   UNL     1     -39.271 -18.671   8.410 -0.02 +0.00    +0.285 C  
DOCKED: ENDBRANCH  14  15
DOCKED: ENDBRANCH  13  14
DOCKED: ENDBRANCH  12  13
DOCKED: ENDBRANCH   2  12
DOCKED: BRANCH   2  18
DOCKED: ATOM     18  C   UNL     1     -41.962 -23.841   8.974 -0.16 +0.00    +0.006 A  
DOCKED: ATOM     19  C   UNL     1     -41.696 -25.147   8.565 -0.29 +0.00    +0.001 A  
DOCKED: ATOM     20  C   UNL     1     -41.257 -26.091   9.494 +0.08 +0.00    +0.029 A  
DOCKED: ATOM     21  C   UNL     1     -41.084 -25.728  10.829 -0.15 +0.00    +0.140 A  
DOCKED: ATOM     22  C   UNL     1     -41.350 -24.421  11.237 -0.15 +0.00    +0.029 A  
DOCKED: ATOM     23  F   UNL     1     -40.661 -26.634  11.720 -0.11 -0.00    -0.204 F  
DOCKED: ATOM     24  C   UNL     1     -41.789 -23.476  10.309 -0.10 +0.00    +0.001 A  
DOCKED: ENDBRANCH   2  18
DOCKED: TORSDOF 5
DOCKED: TER
DOCKED: ENDMDL
________________________________________________________________________________


    FINAL DOCKED STATE:
    ________________________


Run:   158 / 512
Time taken for this run:   0.002s

DOCKED: MODEL        158
DOCKED: USER    Run = 158
DOCKED: USER
DOCKED: USER    Estimated Free Energy of Binding    =  -4.14 kcal/mol  [=(1)+(2)+(3)-(4)]
DOCKED: USER
DOCKED: USER    (1) Final Intermolecular Energy     =  -5.64 kcal/mol
DOCKED: USER        vdW + Hbond + desolv Energy     =  -5.64 kcal/mol
DOCKED: USER        Electrostatic Energy            =  +0.00 kcal/mol
DOCKED: USER        Moving Ligand-Fixed Receptor    =  -5.64 kcal/mol
DOCKED: USER        Moving Ligand-Moving Receptor   =  +0.00 kcal/mol
DOCKED: USER    (2) Final Total Internal Energy     =  -1.11 kcal/mol
DOCKED: USER    (3) Torsional Free Energy           =  +1.49 kcal/mol
DOCKED: USER    (4) Unbound System's Energy         =  -1.11 kcal/mol
DOCKED: USER
DOCKED: USER
DOCKED: REMARK  5 active torsions:
DOCKED: REMARK  status: ('A' for Active; 'I' for Inactive)
DOCKED: REMARK    1  A    between atoms: C_2  and  C_19 
DOCKED: REMARK    2  A    between atoms: C_2  and  C_11 
DOCKED: REMARK    3  A    between atoms: C_19  and  C_20 
DOCKED: REMARK    4  A    between atoms: C_20  and  C_21 
DOCKED: REMARK    5  A    between atoms: C_21  and  N_22 
DOCKED: USER                              x       y       z     vdW  Elec       q    Type
DOCKED: USER                           _______ _______ _______ _____ _____    ______ ____
DOCKED: ROOT
DOCKED: ATOM      1  O   UNL     1     -38.759 -21.818   9.103 -0.05 -0.00    -0.346 OA 
DOCKED: ATOM      2  C   UNL     1     -39.503 -20.932   8.207 -0.12 +0.00    +0.130 C  
DOCKED: ATOM      3  C   UNL     1     -40.402 -21.863   7.446 -0.21 +0.00    +0.004 A  
DOCKED: ATOM      4  C   UNL     1     -40.264 -23.153   7.940 -0.24 +0.00    +0.006 A  
DOCKED: ATOM      5  C   UNL     1     -39.289 -23.163   9.053 -0.15 +0.00    +0.169 C  
DOCKED: ATOM      6  C   UNL     1     -41.280 -21.589   6.408 -0.28 -0.00    -0.001 A  
DOCKED: ATOM      7  C   UNL     1     -40.991 -24.207   7.414 -0.32 +0.00    +0.008 A  
DOCKED: ATOM      8  C   UNL     1     -42.017 -22.642   5.864 -0.33 +0.00    +0.010 A  
DOCKED: ATOM      9  C   UNL     1     -41.873 -23.945   6.365 -0.30 +0.00    +0.068 A  
DOCKED: ATOM     10  N   UNL     1     -43.259 -25.877   5.335 -2.54 -0.00    -0.191 NA 
DOCKED: ATOM     11  C   UNL     1     -42.637 -25.010   5.796 -0.36 +0.00    +0.101 C  
DOCKED: ENDROOT
DOCKED: BRANCH   2  12
DOCKED: ATOM     12  C   UNL     1     -40.273 -19.925   9.054 -0.05 +0.00    +0.038 C  
DOCKED: BRANCH  12  13
DOCKED: ATOM     13  C   UNL     1     -41.293 -20.618   9.954 -0.03 +0.00    +0.038 C  
DOCKED: BRANCH  13  14
DOCKED: ATOM     14  C   UNL     1     -40.671 -21.005  11.294 -0.01 +0.00    +0.251 C  
DOCKED: BRANCH  14  15
DOCKED: ATOM     15  N   UNL     1     -41.688 -21.543  12.190 -0.01 +0.00    +0.141 N  
DOCKED: ATOM     16  C   UNL     1     -41.092 -22.478  13.145 -0.00 +0.00    +0.285 C  
DOCKED: ATOM     17  C   UNL     1     -42.375 -20.463  12.898 +0.00 +0.00    +0.285 C  
DOCKED: ENDBRANCH  14  15
DOCKED: ENDBRANCH  13  14
DOCKED: ENDBRANCH  12  13
DOCKED: ENDBRANCH   2  12
DOCKED: BRANCH   2  18
DOCKED: ATOM     18  C   UNL     1     -38.502 -20.250   7.336 -0.12 +0.00    +0.006 A  
DOCKED: ATOM     19  C   UNL     1     -38.904 -19.220   6.486 -0.14 +0.00    +0.001 A  
DOCKED: ATOM     20  C   UNL     1     -37.966 -18.583   5.672 -0.11 +0.00    +0.029 A  
DOCKED: ATOM     21  C   UNL     1     -36.629 -18.976   5.710 -0.07 +0.00    +0.140 A  
DOCKED: ATOM     22  C   UNL     1     -36.228 -20.005   6.561 -0.10 +0.00    +0.029 A  
DOCKED: ATOM     23  F   UNL     1     -35.729 -18.363   4.930 -0.00 -0.00    -0.204 F  
DOCKED: ATOM     24  C   UNL     1     -37.165 -20.643   7.375 -0.08 +0.00    +0.001 A  
DOCKED: ENDBRANCH   2  18
DOCKED: TORSDOF 5
DOCKED: TER
DOCKED: ENDMDL
________________________________________________________________________________


    FINAL DOCKED STATE:
    ________________________


Run:   159 / 512
Time taken for this run:   0.002s

DOCKED: MODEL        159
DOCKED: USER    Run = 159
DOCKED: USER
DOCKED: USER    Estimated Free Energy of Binding    =  -3.77 kcal/mol  [=(1)+(2)+(3)-(4)]
DOCKED: USER
DOCKED: USER    (1) Final Intermolecular Energy     =  -5.27 kcal/mol
DOCKED: USER        vdW + Hbond + desolv Energy     =  -5.27 kcal/mol
DOCKED: USER        Electrostatic Energy            =  +0.00 kcal/mol
DOCKED: USER        Moving Ligand-Fixed Receptor    =  -5.27 kcal/mol
DOCKED: USER        Moving Ligand-Moving Receptor   =  +0.00 kcal/mol
DOCKED: USER    (2) Final Total Internal Energy     =  -1.36 kcal/mol
DOCKED: USER    (3) Torsional Free Energy           =  +1.49 kcal/mol
DOCKED: USER    (4) Unbound System's Energy         =  -1.36 kcal/mol
DOCKED: USER
DOCKED: USER
DOCKED: REMARK  5 active torsions:
DOCKED: REMARK  status: ('A' for Active; 'I' for Inactive)
DOCKED: REMARK    1  A    between atoms: C_2  and  C_19 
DOCKED: REMARK    2  A    between atoms: C_2  and  C_11 
DOCKED: REMARK    3  A    between atoms: C_19  and  C_20 
DOCKED: REMARK    4  A    between atoms: C_20  and  C_21 
DOCKED: REMARK    5  A    between atoms: C_21  and  N_22 
DOCKED: USER                              x       y       z     vdW  Elec       q    Type
DOCKED: USER                           _______ _______ _______ _____ _____    ______ ____
DOCKED: ROOT
DOCKED: ATOM      1  O   UNL     1     -32.061 -23.248  -0.893 +0.01 -0.00    -0.346 OA 
DOCKED: ATOM      2  C   UNL     1     -33.134 -22.338  -0.489 -0.05 +0.00    +0.130 C  
DOCKED: ATOM      3  C   UNL     1     -33.879 -23.106   0.564 -0.10 +0.00    +0.004 A  
DOCKED: ATOM      4  C   UNL     1     -33.225 -24.303   0.820 -0.10 +0.00    +0.006 A  
DOCKED: ATOM      5  C   UNL     1     -32.013 -24.403  -0.024 -0.03 +0.00    +0.169 C  
DOCKED: ATOM      6  C   UNL     1     -35.037 -22.767   1.249 -0.19 -0.00    -0.001 A  
DOCKED: ATOM      7  C   UNL     1     -33.704 -25.199   1.760 -0.20 +0.00    +0.008 A  
DOCKED: ATOM      8  C   UNL     1     -35.535 -23.662   2.198 -0.30 +0.00    +0.010 A  
DOCKED: ATOM      9  C   UNL     1     -34.871 -24.872   2.452 -0.29 +0.00    +0.068 A  
DOCKED: ATOM     10  N   UNL     1     -35.820 -26.509   4.222 -2.65 -0.00    -0.191 NA 
DOCKED: ATOM     11  C   UNL     1     -35.395 -25.775   3.428 -0.40 +0.00    +0.101 C  
DOCKED: ENDROOT
DOCKED: BRANCH   2  12
DOCKED: ATOM     12  C   UNL     1     -32.506 -21.056   0.043 -0.02 +0.00    +0.038 C  
DOCKED: BRANCH  12  13
DOCKED: ATOM     13  C   UNL     1     -31.173 -21.335   0.735 -0.01 +0.00    +0.038 C  
DOCKED: BRANCH  13  14
DOCKED: ATOM     14  C   UNL     1     -31.081 -20.596   2.069 -0.00 +0.00    +0.251 C  
DOCKED: BRANCH  14  15
DOCKED: ATOM     15  N   UNL     1     -30.905 -21.544   3.163 -0.01 +0.00    +0.141 N  
DOCKED: ATOM     16  C   UNL     1     -32.180 -22.176   3.507 -0.01 +0.00    +0.285 C  
DOCKED: ATOM     17  C   UNL     1     -29.914 -22.562   2.809 +0.00 +0.00    +0.285 C  
DOCKED: ENDBRANCH  14  15
DOCKED: ENDBRANCH  13  14
DOCKED: ENDBRANCH  12  13
DOCKED: ENDBRANCH   2  12
DOCKED: BRANCH   2  18
DOCKED: ATOM     18  C   UNL     1     -33.958 -22.069  -1.705 -0.11 +0.00    +0.006 A  
DOCKED: ATOM     19  C   UNL     1     -34.891 -21.033  -1.699 -0.14 +0.00    +0.001 A  
DOCKED: ATOM     20  C   UNL     1     -35.661 -20.783  -2.835 -0.18 +0.00    +0.029 A  
DOCKED: ATOM     21  C   UNL     1     -35.496 -21.568  -3.976 -0.16 +0.00    +0.140 A  
DOCKED: ATOM     22  C   UNL     1     -34.562 -22.604  -3.981 -0.11 +0.00    +0.029 A  
DOCKED: ATOM     23  F   UNL     1     -36.234 -21.327  -5.067 -0.11 -0.00    -0.204 F  
DOCKED: ATOM     24  C   UNL     1     -33.792 -22.856  -2.844 -0.12 +0.00    +0.001 A  
DOCKED: ENDBRANCH   2  18
DOCKED: TORSDOF 5
DOCKED: TER
DOCKED: ENDMDL
________________________________________________________________________________


    FINAL DOCKED STATE:
    ________________________


Run:   160 / 512
Time taken for this run:   0.002s

DOCKED: MODEL        160
DOCKED: USER    Run = 160
DOCKED: USER
DOCKED: USER    Estimated Free Energy of Binding    =  -5.68 kcal/mol  [=(1)+(2)+(3)-(4)]
DOCKED: USER
DOCKED: USER    (1) Final Intermolecular Energy     =  -7.17 kcal/mol
DOCKED: USER        vdW + Hbond + desolv Energy     =  -7.17 kcal/mol
DOCKED: USER        Electrostatic Energy            =  +0.00 kcal/mol
DOCKED: USER        Moving Ligand-Fixed Receptor    =  -7.17 kcal/mol
DOCKED: USER        Moving Ligand-Moving Receptor   =  +0.00 kcal/mol
DOCKED: USER    (2) Final Total Internal Energy     =  -1.05 kcal/mol
DOCKED: USER    (3) Torsional Free Energy           =  +1.49 kcal/mol
DOCKED: USER    (4) Unbound System's Energy         =  -1.05 kcal/mol
DOCKED: USER
DOCKED: USER
DOCKED: REMARK  5 active torsions:
DOCKED: REMARK  status: ('A' for Active; 'I' for Inactive)
DOCKED: REMARK    1  A    between atoms: C_2  and  C_19 
DOCKED: REMARK    2  A    between atoms: C_2  and  C_11 
DOCKED: REMARK    3  A    between atoms: C_19  and  C_20 
DOCKED: REMARK    4  A    between atoms: C_20  and  C_21 
DOCKED: REMARK    5  A    between atoms: C_21  and  N_22 
DOCKED: USER                              x       y       z     vdW  Elec       q    Type
DOCKED: USER                           _______ _______ _______ _____ _____    ______ ____
DOCKED: ROOT
DOCKED: ATOM      1  O   UNL     1     -40.832 -23.842   7.863 -0.10 -0.00    -0.346 OA 
DOCKED: ATOM      2  C   UNL     1     -42.290 -23.748   7.954 -0.16 +0.00    +0.130 C  
DOCKED: ATOM      3  C   UNL     1     -42.749 -23.903   6.533 -0.29 +0.00    +0.004 A  
DOCKED: ATOM      4  C   UNL     1     -41.659 -24.172   5.717 -0.40 +0.00    +0.006 A  
DOCKED: ATOM      5  C   UNL     1     -40.424 -24.226   6.530 -0.15 +0.00    +0.169 C  
DOCKED: ATOM      6  C   UNL     1     -44.030 -23.823   6.006 -0.29 -0.00    -0.001 A  
DOCKED: ATOM      7  C   UNL     1     -41.810 -24.365   4.354 -0.22 +0.00    +0.008 A  
DOCKED: ATOM      8  C   UNL     1     -44.198 -24.011   4.633 -0.28 +0.00    +0.010 A  
DOCKED: ATOM      9  C   UNL     1     -43.093 -24.281   3.812 -0.41 +0.00    +0.068 A  
DOCKED: ATOM     10  N   UNL     1     -43.440 -24.630   1.268 -3.15 -0.00    -0.191 NA 
DOCKED: ATOM     11  C   UNL     1     -43.284 -24.473   2.409 -0.28 +0.00    +0.101 C  
DOCKED: ENDROOT
DOCKED: BRANCH   2  12
DOCKED: ATOM     12  C   UNL     1     -42.790 -24.864   8.864 -0.25 +0.00    +0.038 C  
DOCKED: BRANCH  12  13
DOCKED: ATOM     13  C   UNL     1     -41.647 -25.480   9.669 -0.24 +0.00    +0.038 C  
DOCKED: BRANCH  13  14
DOCKED: ATOM     14  C   UNL     1     -41.833 -25.231  11.165 -0.13 +0.00    +0.251 C  
DOCKED: BRANCH  14  15
DOCKED: ATOM     15  N   UNL     1     -40.729 -25.815  11.917 -0.23 +0.00    +0.141 N  
DOCKED: ATOM     16  C   UNL     1     -39.965 -24.772  12.603 -0.10 +0.00    +0.285 C  
DOCKED: ATOM     17  C   UNL     1     -41.225 -26.798  12.881 -0.15 +0.00    +0.285 C  
DOCKED: ENDBRANCH  14  15
DOCKED: ENDBRANCH  13  14
DOCKED: ENDBRANCH  12  13
DOCKED: ENDBRANCH   2  12
DOCKED: BRANCH   2  18
DOCKED: ATOM     18  C   UNL     1     -42.606 -22.406   8.525 -0.10 +0.00    +0.006 A  
DOCKED: ATOM     19  C   UNL     1     -41.574 -21.529   8.855 -0.08 +0.00    +0.001 A  
DOCKED: ATOM     20  C   UNL     1     -41.871 -20.274   9.389 -0.03 +0.00    +0.029 A  
DOCKED: ATOM     21  C   UNL     1     -43.199 -19.899   9.591 -0.01 +0.00    +0.140 A  
DOCKED: ATOM     22  C   UNL     1     -44.230 -20.777   9.260 -0.05 +0.00    +0.029 A  
DOCKED: ATOM     23  F   UNL     1     -43.484 -18.694  10.102 +0.00 -0.00    -0.204 F  
DOCKED: ATOM     24  C   UNL     1     -43.934 -22.032   8.726 -0.08 +0.00    +0.001 A  
DOCKED: ENDBRANCH   2  18
DOCKED: TORSDOF 5
DOCKED: TER
DOCKED: ENDMDL
________________________________________________________________________________


    FINAL DOCKED STATE:
    ________________________


Run:   161 / 512
Time taken for this run:   0.002s

DOCKED: MODEL        161
DOCKED: USER    Run = 161
DOCKED: USER
DOCKED: USER    Estimated Free Energy of Binding    =  -5.08 kcal/mol  [=(1)+(2)+(3)-(4)]
DOCKED: USER
DOCKED: USER    (1) Final Intermolecular Energy     =  -6.57 kcal/mol
DOCKED: USER        vdW + Hbond + desolv Energy     =  -6.57 kcal/mol
DOCKED: USER        Electrostatic Energy            =  +0.00 kcal/mol
DOCKED: USER        Moving Ligand-Fixed Receptor    =  -6.57 kcal/mol
DOCKED: USER        Moving Ligand-Moving Receptor   =  +0.00 kcal/mol
DOCKED: USER    (2) Final Total Internal Energy     =  -0.99 kcal/mol
DOCKED: USER    (3) Torsional Free Energy           =  +1.49 kcal/mol
DOCKED: USER    (4) Unbound System's Energy         =  -0.99 kcal/mol
DOCKED: USER
DOCKED: USER
DOCKED: REMARK  5 active torsions:
DOCKED: REMARK  status: ('A' for Active; 'I' for Inactive)
DOCKED: REMARK    1  A    between atoms: C_2  and  C_19 
DOCKED: REMARK    2  A    between atoms: C_2  and  C_11 
DOCKED: REMARK    3  A    between atoms: C_19  and  C_20 
DOCKED: REMARK    4  A    between atoms: C_20  and  C_21 
DOCKED: REMARK    5  A    between atoms: C_21  and  N_22 
DOCKED: USER                              x       y       z     vdW  Elec       q    Type
DOCKED: USER                           _______ _______ _______ _____ _____    ______ ____
DOCKED: ROOT
DOCKED: ATOM      1  O   UNL     1     -45.192 -23.552   8.204 -0.01 -0.00    -0.346 OA 
DOCKED: ATOM      2  C   UNL     1     -43.809 -23.089   8.084 -0.11 +0.00    +0.130 C  
DOCKED: ATOM      3  C   UNL     1     -43.474 -23.327   6.640 -0.24 +0.00    +0.004 A  
DOCKED: ATOM      4  C   UNL     1     -44.600 -23.783   5.968 -0.29 +0.00    +0.006 A  
DOCKED: ATOM      5  C   UNL     1     -45.744 -23.864   6.904 -0.15 +0.00    +0.169 C  
DOCKED: ATOM      6  C   UNL     1     -42.272 -23.145   5.971 -0.35 -0.00    -0.001 A  
DOCKED: ATOM      7  C   UNL     1     -44.563 -24.075   4.616 -0.20 +0.00    +0.008 A  
DOCKED: ATOM      8  C   UNL     1     -42.218 -23.439   4.608 -0.37 +0.00    +0.010 A  
DOCKED: ATOM      9  C   UNL     1     -43.358 -23.901   3.934 -0.27 +0.00    +0.068 A  
DOCKED: ATOM     10  N   UNL     1     -43.225 -24.433   1.401 -2.99 -0.00    -0.191 NA 
DOCKED: ATOM     11  C   UNL     1     -43.285 -24.195   2.537 -0.27 +0.00    +0.101 C  
DOCKED: ENDROOT
DOCKED: BRANCH   2  12
DOCKED: ATOM     12  C   UNL     1     -43.759 -21.615   8.469 -0.11 +0.00    +0.038 C  
DOCKED: BRANCH  12  13
DOCKED: ATOM     13  C   UNL     1     -42.340 -21.060   8.362 -0.11 +0.00    +0.038 C  
DOCKED: BRANCH  13  14
DOCKED: ATOM     14  C   UNL     1     -42.201 -19.752   9.140 -0.02 +0.00    +0.251 C  
DOCKED: BRANCH  14  15
DOCKED: ATOM     15  N   UNL     1     -42.182 -20.015  10.574 -0.01 +0.00    +0.141 N  
DOCKED: ATOM     16  C   UNL     1     -43.540 -19.991  11.121 +0.00 +0.00    +0.285 C  
DOCKED: ATOM     17  C   UNL     1     -41.545 -21.303  10.854 -0.00 +0.00    +0.285 C  
DOCKED: ENDBRANCH  14  15
DOCKED: ENDBRANCH  13  14
DOCKED: ENDBRANCH  12  13
DOCKED: ENDBRANCH   2  12
DOCKED: BRANCH   2  18
DOCKED: ATOM     18  C   UNL     1     -42.989 -23.917   9.016 -0.14 +0.00    +0.006 A  
DOCKED: ATOM     19  C   UNL     1     -41.825 -24.533   8.559 -0.24 +0.00    +0.001 A  
DOCKED: ATOM     20  C   UNL     1     -41.059 -25.308   9.431 -0.18 +0.00    +0.029 A  
DOCKED: ATOM     21  C   UNL     1     -41.458 -25.464  10.758 -0.14 +0.00    +0.140 A  
DOCKED: ATOM     22  C   UNL     1     -42.622 -24.847  11.214 -0.15 +0.00    +0.029 A  
DOCKED: ATOM     23  F   UNL     1     -40.722 -26.206  11.595 -0.11 -0.00    -0.204 F  
DOCKED: ATOM     24  C   UNL     1     -43.389 -24.073  10.342 -0.12 +0.00    +0.001 A  
DOCKED: ENDBRANCH   2  18
DOCKED: TORSDOF 5
DOCKED: TER
DOCKED: ENDMDL
________________________________________________________________________________


    FINAL DOCKED STATE:
    ________________________


Run:   162 / 512
Time taken for this run:   0.002s

DOCKED: MODEL        162
DOCKED: USER    Run = 162
DOCKED: USER
DOCKED: USER    Estimated Free Energy of Binding    =  -5.42 kcal/mol  [=(1)+(2)+(3)-(4)]
DOCKED: USER
DOCKED: USER    (1) Final Intermolecular Energy     =  -6.91 kcal/mol
DOCKED: USER        vdW + Hbond + desolv Energy     =  -6.91 kcal/mol
DOCKED: USER        Electrostatic Energy            =  +0.00 kcal/mol
DOCKED: USER        Moving Ligand-Fixed Receptor    =  -6.91 kcal/mol
DOCKED: USER        Moving Ligand-Moving Receptor   =  +0.00 kcal/mol
DOCKED: USER    (2) Final Total Internal Energy     =  -0.84 kcal/mol
DOCKED: USER    (3) Torsional Free Energy           =  +1.49 kcal/mol
DOCKED: USER    (4) Unbound System's Energy         =  -0.84 kcal/mol
DOCKED: USER
DOCKED: USER
DOCKED: REMARK  5 active torsions:
DOCKED: REMARK  status: ('A' for Active; 'I' for Inactive)
DOCKED: REMARK    1  A    between atoms: C_2  and  C_19 
DOCKED: REMARK    2  A    between atoms: C_2  and  C_11 
DOCKED: REMARK    3  A    between atoms: C_19  and  C_20 
DOCKED: REMARK    4  A    between atoms: C_20  and  C_21 
DOCKED: REMARK    5  A    between atoms: C_21  and  N_22 
DOCKED: USER                              x       y       z     vdW  Elec       q    Type
DOCKED: USER                           _______ _______ _______ _____ _____    ______ ____
DOCKED: ROOT
DOCKED: ATOM      1  O   UNL     1     -41.448 -23.329   8.127 -0.04 -0.00    -0.346 OA 
DOCKED: ATOM      2  C   UNL     1     -42.768 -23.961   8.130 -0.16 +0.00    +0.130 C  
DOCKED: ATOM      3  C   UNL     1     -43.093 -24.121   6.673 -0.27 +0.00    +0.004 A  
DOCKED: ATOM      4  C   UNL     1     -42.010 -23.718   5.906 -0.37 +0.00    +0.006 A  
DOCKED: ATOM      5  C   UNL     1     -40.904 -23.283   6.787 -0.25 +0.00    +0.169 C  
DOCKED: ATOM      6  C   UNL     1     -44.252 -24.596   6.075 -0.28 -0.00    -0.001 A  
DOCKED: ATOM      7  C   UNL     1     -42.047 -23.771   4.523 -0.32 +0.00    +0.008 A  
DOCKED: ATOM      8  C   UNL     1     -44.306 -24.651   4.681 -0.33 +0.00    +0.010 A  
DOCKED: ATOM      9  C   UNL     1     -43.209 -24.242   3.909 -0.39 +0.00    +0.068 A  
DOCKED: ATOM     10  N   UNL     1     -43.341 -24.363   1.325 -3.13 -0.00    -0.191 NA 
DOCKED: ATOM     11  C   UNL     1     -43.282 -24.308   2.484 -0.27 +0.00    +0.101 C  
DOCKED: ENDROOT
DOCKED: BRANCH   2  12
DOCKED: ATOM     12  C   UNL     1     -42.664 -25.292   8.864 -0.28 +0.00    +0.038 C  
DOCKED: BRANCH  12  13
DOCKED: ATOM     13  C   UNL     1     -42.060 -25.115  10.256 -0.21 +0.00    +0.038 C  
DOCKED: BRANCH  13  14
DOCKED: ATOM     14  C   UNL     1     -40.615 -24.625  10.170 -0.07 +0.00    +0.251 C  
DOCKED: BRANCH  14  15
DOCKED: ATOM     15  N   UNL     1     -40.497 -23.290  10.743 -0.07 +0.00    +0.141 N  
DOCKED: ATOM     16  C   UNL     1     -40.968 -23.279  12.129 -0.03 +0.00    +0.285 C  
DOCKED: ATOM     17  C   UNL     1     -39.113 -22.820  10.674 -0.05 +0.00    +0.285 C  
DOCKED: ENDBRANCH  14  15
DOCKED: ENDBRANCH  13  14
DOCKED: ENDBRANCH  12  13
DOCKED: ENDBRANCH   2  12
DOCKED: BRANCH   2  18
DOCKED: ATOM     18  C   UNL     1     -43.697 -23.029   8.834 -0.09 +0.00    +0.006 A  
DOCKED: ATOM     19  C   UNL     1     -43.967 -21.773   8.292 -0.11 +0.00    +0.001 A  
DOCKED: ATOM     20  C   UNL     1     -44.835 -20.902   8.952 -0.06 +0.00    +0.029 A  
DOCKED: ATOM     21  C   UNL     1     -45.432 -21.288  10.151 -0.01 +0.00    +0.140 A  
DOCKED: ATOM     22  C   UNL     1     -45.161 -22.545  10.692 -0.03 +0.00    +0.029 A  
DOCKED: ATOM     23  F   UNL     1     -46.267 -20.453  10.783 +0.01 -0.00    -0.204 F  
DOCKED: ATOM     24  C   UNL     1     -44.293 -23.416  10.034 -0.07 +0.00    +0.001 A  
DOCKED: ENDBRANCH   2  18
DOCKED: TORSDOF 5
DOCKED: TER
DOCKED: ENDMDL
________________________________________________________________________________


    FINAL DOCKED STATE:
    ________________________


Run:   163 / 512
Time taken for this run:   0.002s

DOCKED: MODEL        163
DOCKED: USER    Run = 163
DOCKED: USER
DOCKED: USER    Estimated Free Energy of Binding    =  -4.02 kcal/mol  [=(1)+(2)+(3)-(4)]
DOCKED: USER
DOCKED: USER    (1) Final Intermolecular Energy     =  -5.52 kcal/mol
DOCKED: USER        vdW + Hbond + desolv Energy     =  -5.52 kcal/mol
DOCKED: USER        Electrostatic Energy            =  +0.00 kcal/mol
DOCKED: USER        Moving Ligand-Fixed Receptor    =  -5.52 kcal/mol
DOCKED: USER        Moving Ligand-Moving Receptor   =  +0.00 kcal/mol
DOCKED: USER    (2) Final Total Internal Energy     =  -1.38 kcal/mol
DOCKED: USER    (3) Torsional Free Energy           =  +1.49 kcal/mol
DOCKED: USER    (4) Unbound System's Energy         =  -1.38 kcal/mol
DOCKED: USER
DOCKED: USER
DOCKED: REMARK  5 active torsions:
DOCKED: REMARK  status: ('A' for Active; 'I' for Inactive)
DOCKED: REMARK    1  A    between atoms: C_2  and  C_19 
DOCKED: REMARK    2  A    between atoms: C_2  and  C_11 
DOCKED: REMARK    3  A    between atoms: C_19  and  C_20 
DOCKED: REMARK    4  A    between atoms: C_20  and  C_21 
DOCKED: REMARK    5  A    between atoms: C_21  and  N_22 
DOCKED: USER                              x       y       z     vdW  Elec       q    Type
DOCKED: USER                           _______ _______ _______ _____ _____    ______ ____
DOCKED: ROOT
DOCKED: ATOM      1  O   UNL     1     -32.818 -23.561  -1.830 -0.00 -0.00    -0.346 OA 
DOCKED: ATOM      2  C   UNL     1     -33.386 -22.477  -1.028 -0.08 +0.00    +0.130 C  
DOCKED: ATOM      3  C   UNL     1     -34.002 -23.182   0.145 -0.12 +0.00    +0.004 A  
DOCKED: ATOM      4  C   UNL     1     -33.715 -24.538   0.078 -0.13 +0.00    +0.006 A  
DOCKED: ATOM      5  C   UNL     1     -32.892 -24.819  -1.119 -0.07 +0.00    +0.169 C  
DOCKED: ATOM      6  C   UNL     1     -34.747 -22.664   1.195 -0.15 -0.00    -0.001 A  
DOCKED: ATOM      7  C   UNL     1     -34.163 -25.419   1.048 -0.23 +0.00    +0.008 A  
DOCKED: ATOM      8  C   UNL     1     -35.209 -23.539   2.179 -0.27 +0.00    +0.010 A  
DOCKED: ATOM      9  C   UNL     1     -34.919 -24.910   2.106 -0.28 +0.00    +0.068 A  
DOCKED: ATOM     10  N   UNL     1     -35.789 -26.507   3.951 -2.59 -0.00    -0.191 NA 
DOCKED: ATOM     11  C   UNL     1     -35.399 -25.791   3.123 -0.43 +0.00    +0.101 C  
DOCKED: ENDROOT
DOCKED: BRANCH   2  12
DOCKED: ATOM     12  C   UNL     1     -32.260 -21.531  -0.628 -0.01 +0.00    +0.038 C  
DOCKED: BRANCH  12  13
DOCKED: ATOM     13  C   UNL     1     -31.155 -22.268   0.125 -0.01 +0.00    +0.038 C  
DOCKED: BRANCH  13  14
DOCKED: ATOM     14  C   UNL     1     -30.847 -21.586   1.456 -0.00 +0.00    +0.251 C  
DOCKED: BRANCH  14  15
DOCKED: ATOM     15  N   UNL     1     -31.990 -21.689   2.356 -0.01 +0.00    +0.141 N  
DOCKED: ATOM     16  C   UNL     1     -31.630 -22.432   3.565 -0.00 +0.00    +0.285 C  
DOCKED: ATOM     17  C   UNL     1     -32.491 -20.359   2.707 -0.00 +0.00    +0.285 C  
DOCKED: ENDBRANCH  14  15
DOCKED: ENDBRANCH  13  14
DOCKED: ENDBRANCH  12  13
DOCKED: ENDBRANCH   2  12
DOCKED: BRANCH   2  18
DOCKED: ATOM     18  C   UNL     1     -34.393 -21.783  -1.883 -0.12 +0.00    +0.006 A  
DOCKED: ATOM     19  C   UNL     1     -35.154 -20.740  -1.357 -0.15 +0.00    +0.001 A  
DOCKED: ATOM     20  C   UNL     1     -36.096 -20.093  -2.158 -0.20 +0.00    +0.029 A  
DOCKED: ATOM     21  C   UNL     1     -36.274 -20.488  -3.483 -0.19 +0.00    +0.140 A  
DOCKED: ATOM     22  C   UNL     1     -35.513 -21.531  -4.009 -0.19 +0.00    +0.029 A  
DOCKED: ATOM     23  F   UNL     1     -37.177 -19.865  -4.252 -0.14 -0.00    -0.204 F  
DOCKED: ATOM     24  C   UNL     1     -34.571 -22.180  -3.208 -0.14 +0.00    +0.001 A  
DOCKED: ENDBRANCH   2  18
DOCKED: TORSDOF 5
DOCKED: TER
DOCKED: ENDMDL
________________________________________________________________________________


    FINAL DOCKED STATE:
    ________________________


Run:   164 / 512
Time taken for this run:   0.002s

DOCKED: MODEL        164
DOCKED: USER    Run = 164
DOCKED: USER
DOCKED: USER    Estimated Free Energy of Binding    =  -4.36 kcal/mol  [=(1)+(2)+(3)-(4)]
DOCKED: USER
DOCKED: USER    (1) Final Intermolecular Energy     =  -5.85 kcal/mol
DOCKED: USER        vdW + Hbond + desolv Energy     =  -5.85 kcal/mol
DOCKED: USER        Electrostatic Energy            =  +0.00 kcal/mol
DOCKED: USER        Moving Ligand-Fixed Receptor    =  -5.85 kcal/mol
DOCKED: USER        Moving Ligand-Moving Receptor   =  +0.00 kcal/mol
DOCKED: USER    (2) Final Total Internal Energy     =  -1.27 kcal/mol
DOCKED: USER    (3) Torsional Free Energy           =  +1.49 kcal/mol
DOCKED: USER    (4) Unbound System's Energy         =  -1.27 kcal/mol
DOCKED: USER
DOCKED: USER
DOCKED: REMARK  5 active torsions:
DOCKED: REMARK  status: ('A' for Active; 'I' for Inactive)
DOCKED: REMARK    1  A    between atoms: C_2  and  C_19 
DOCKED: REMARK    2  A    between atoms: C_2  and  C_11 
DOCKED: REMARK    3  A    between atoms: C_19  and  C_20 
DOCKED: REMARK    4  A    between atoms: C_20  and  C_21 
DOCKED: REMARK    5  A    between atoms: C_21  and  N_22 
DOCKED: USER                              x       y       z     vdW  Elec       q    Type
DOCKED: USER                           _______ _______ _______ _____ _____    ______ ____
DOCKED: ROOT
DOCKED: ATOM      1  O   UNL     1     -38.423 -21.892   8.727 -0.07 -0.00    -0.346 OA 
DOCKED: ATOM      2  C   UNL     1     -39.364 -20.977   8.079 -0.12 +0.00    +0.130 C  
DOCKED: ATOM      3  C   UNL     1     -40.331 -21.889   7.382 -0.21 +0.00    +0.004 A  
DOCKED: ATOM      4  C   UNL     1     -40.036 -23.208   7.693 -0.25 +0.00    +0.006 A  
DOCKED: ATOM      5  C   UNL     1     -38.879 -23.260   8.615 -0.14 +0.00    +0.169 C  
DOCKED: ATOM      6  C   UNL     1     -41.394 -21.575   6.547 -0.28 -0.00    -0.001 A  
DOCKED: ATOM      7  C   UNL     1     -40.785 -24.254   7.182 -0.35 +0.00    +0.008 A  
DOCKED: ATOM      8  C   UNL     1     -42.156 -22.619   6.020 -0.32 +0.00    +0.010 A  
DOCKED: ATOM      9  C   UNL     1     -41.853 -23.952   6.336 -0.31 +0.00    +0.068 A  
DOCKED: ATOM     10  N   UNL     1     -43.292 -25.865   5.345 -2.56 -0.00    -0.191 NA 
DOCKED: ATOM     11  C   UNL     1     -42.646 -25.007   5.789 -0.36 +0.00    +0.101 C  
DOCKED: ENDROOT
DOCKED: BRANCH   2  12
DOCKED: ATOM     12  C   UNL     1     -40.024 -20.122   9.155 -0.05 +0.00    +0.038 C  
DOCKED: BRANCH  12  13
DOCKED: ATOM     13  C   UNL     1     -41.236 -20.828   9.761 -0.04 +0.00    +0.038 C  
DOCKED: BRANCH  13  14
DOCKED: ATOM     14  C   UNL     1     -40.886 -21.463  11.105 -0.01 +0.00    +0.251 C  
DOCKED: BRANCH  14  15
DOCKED: ATOM     15  N   UNL     1     -41.848 -22.507  11.438 -0.02 +0.00    +0.141 N  
DOCKED: ATOM     16  C   UNL     1     -43.218 -22.010  11.301 -0.00 +0.00    +0.285 C  
DOCKED: ATOM     17  C   UNL     1     -41.648 -23.683  10.589 -0.06 +0.00    +0.285 C  
DOCKED: ENDBRANCH  14  15
DOCKED: ENDBRANCH  13  14
DOCKED: ENDBRANCH  12  13
DOCKED: ENDBRANCH   2  12
DOCKED: BRANCH   2  18
DOCKED: ATOM     18  C   UNL     1     -38.573 -20.135   7.134 -0.13 +0.00    +0.006 A  
DOCKED: ATOM     19  C   UNL     1     -37.179 -20.150   7.187 -0.11 +0.00    +0.001 A  
DOCKED: ATOM     20  C   UNL     1     -36.441 -19.363   6.303 -0.08 +0.00    +0.029 A  
DOCKED: ATOM     21  C   UNL     1     -37.096 -18.563   5.368 -0.07 +0.00    +0.140 A  
DOCKED: ATOM     22  C   UNL     1     -38.489 -18.549   5.315 -0.13 +0.00    +0.029 A  
DOCKED: ATOM     23  F   UNL     1     -36.386 -17.809   4.518 -0.00 -0.00    -0.204 F  
DOCKED: ATOM     24  C   UNL     1     -39.229 -19.336   6.199 -0.16 +0.00    +0.001 A  
DOCKED: ENDBRANCH   2  18
DOCKED: TORSDOF 5
DOCKED: TER
DOCKED: ENDMDL
________________________________________________________________________________


    FINAL DOCKED STATE:
    ________________________


Run:   165 / 512
Time taken for this run:   0.002s

DOCKED: MODEL        165
DOCKED: USER    Run = 165
DOCKED: USER
DOCKED: USER    Estimated Free Energy of Binding    =  -3.79 kcal/mol  [=(1)+(2)+(3)-(4)]
DOCKED: USER
DOCKED: USER    (1) Final Intermolecular Energy     =  -5.28 kcal/mol
DOCKED: USER        vdW + Hbond + desolv Energy     =  -5.28 kcal/mol
DOCKED: USER        Electrostatic Energy            =  +0.00 kcal/mol
DOCKED: USER        Moving Ligand-Fixed Receptor    =  -5.28 kcal/mol
DOCKED: USER        Moving Ligand-Moving Receptor   =  +0.00 kcal/mol
DOCKED: USER    (2) Final Total Internal Energy     =  -1.25 kcal/mol
DOCKED: USER    (3) Torsional Free Energy           =  +1.49 kcal/mol
DOCKED: USER    (4) Unbound System's Energy         =  -1.25 kcal/mol
DOCKED: USER
DOCKED: USER
DOCKED: REMARK  5 active torsions:
DOCKED: REMARK  status: ('A' for Active; 'I' for Inactive)
DOCKED: REMARK    1  A    between atoms: C_2  and  C_19 
DOCKED: REMARK    2  A    between atoms: C_2  and  C_11 
DOCKED: REMARK    3  A    between atoms: C_19  and  C_20 
DOCKED: REMARK    4  A    between atoms: C_20  and  C_21 
DOCKED: REMARK    5  A    between atoms: C_21  and  N_22 
DOCKED: USER                              x       y       z     vdW  Elec       q    Type
DOCKED: USER                           _______ _______ _______ _____ _____    ______ ____
DOCKED: ROOT
DOCKED: ATOM      1  O   UNL     1     -34.155 -12.273  -2.597 +0.00 -0.00    -0.346 OA 
DOCKED: ATOM      2  C   UNL     1     -34.237 -11.753  -3.963 -0.06 +0.00    +0.130 C  
DOCKED: ATOM      3  C   UNL     1     -35.674 -11.964  -4.342 -0.16 +0.00    +0.004 A  
DOCKED: ATOM      4  C   UNL     1     -36.377 -12.459  -3.252 -0.18 +0.00    +0.006 A  
DOCKED: ATOM      5  C   UNL     1     -35.471 -12.595  -2.090 -0.10 +0.00    +0.169 C  
DOCKED: ATOM      6  C   UNL     1     -36.311 -11.727  -5.551 -0.20 -0.00    -0.001 A  
DOCKED: ATOM      7  C   UNL     1     -37.731 -12.736  -3.334 -0.30 +0.00    +0.008 A  
DOCKED: ATOM      8  C   UNL     1     -37.675 -12.006  -5.651 -0.24 +0.00    +0.010 A  
DOCKED: ATOM      9  C   UNL     1     -38.381 -12.507  -4.547 -0.36 +0.00    +0.068 A  
DOCKED: ATOM     10  N   UNL     1     -40.914 -13.009  -4.764 -2.46 -0.00    -0.191 NA 
DOCKED: ATOM     11  C   UNL     1     -39.778 -12.785  -4.667 -0.32 +0.00    +0.101 C  
DOCKED: ENDROOT
DOCKED: BRANCH   2  12
DOCKED: ATOM     12  C   UNL     1     -33.838 -10.282  -3.944 -0.10 +0.00    +0.038 C  
DOCKED: BRANCH  12  13
DOCKED: ATOM     13  C   UNL     1     -34.986  -9.400  -3.455 -0.16 +0.00    +0.038 C  
DOCKED: BRANCH  13  14
DOCKED: ATOM     14  C   UNL     1     -34.848  -9.095  -1.965 -0.08 +0.00    +0.251 C  
DOCKED: BRANCH  14  15
DOCKED: ATOM     15  N   UNL     1     -36.109  -8.593  -1.431 -0.17 +0.00    +0.141 N  
DOCKED: ATOM     16  C   UNL     1     -36.529  -7.387  -2.147 -0.09 +0.00    +0.285 C  
DOCKED: ATOM     17  C   UNL     1     -37.149  -9.620  -1.513 -0.22 +0.00    +0.285 C  
DOCKED: ENDBRANCH  14  15
DOCKED: ENDBRANCH  13  14
DOCKED: ENDBRANCH  12  13
DOCKED: ENDBRANCH   2  12
DOCKED: BRANCH   2  18
DOCKED: ATOM     18  C   UNL     1     -33.292 -12.556  -4.793 -0.03 +0.00    +0.006 A  
DOCKED: ATOM     19  C   UNL     1     -33.785 -13.496  -5.697 -0.03 +0.00    +0.001 A  
DOCKED: ATOM     20  C   UNL     1     -32.900 -14.246  -6.472 -0.01 +0.00    +0.029 A  
DOCKED: ATOM     21  C   UNL     1     -31.525 -14.056  -6.343 +0.00 +0.00    +0.140 A  
DOCKED: ATOM     22  C   UNL     1     -31.033 -13.115  -5.438 -0.00 +0.00    +0.029 A  
DOCKED: ATOM     23  F   UNL     1     -30.676 -14.775  -7.088 +0.00 -0.00    -0.204 F  
DOCKED: ATOM     24  C   UNL     1     -31.917 -12.364  -4.662 -0.01 +0.00    +0.001 A  
DOCKED: ENDBRANCH   2  18
DOCKED: TORSDOF 5
DOCKED: TER
DOCKED: ENDMDL
________________________________________________________________________________


    FINAL DOCKED STATE:
    ________________________


Run:   166 / 512
Time taken for this run:   0.002s

DOCKED: MODEL        166
DOCKED: USER    Run = 166
DOCKED: USER
DOCKED: USER    Estimated Free Energy of Binding    =  -5.53 kcal/mol  [=(1)+(2)+(3)-(4)]
DOCKED: USER
DOCKED: USER    (1) Final Intermolecular Energy     =  -7.02 kcal/mol
DOCKED: USER        vdW + Hbond + desolv Energy     =  -7.02 kcal/mol
DOCKED: USER        Electrostatic Energy            =  +0.00 kcal/mol
DOCKED: USER        Moving Ligand-Fixed Receptor    =  -7.02 kcal/mol
DOCKED: USER        Moving Ligand-Moving Receptor   =  +0.00 kcal/mol
DOCKED: USER    (2) Final Total Internal Energy     =  -1.44 kcal/mol
DOCKED: USER    (3) Torsional Free Energy           =  +1.49 kcal/mol
DOCKED: USER    (4) Unbound System's Energy         =  -1.44 kcal/mol
DOCKED: USER
DOCKED: USER
DOCKED: REMARK  5 active torsions:
DOCKED: REMARK  status: ('A' for Active; 'I' for Inactive)
DOCKED: REMARK    1  A    between atoms: C_2  and  C_19 
DOCKED: REMARK    2  A    between atoms: C_2  and  C_11 
DOCKED: REMARK    3  A    between atoms: C_19  and  C_20 
DOCKED: REMARK    4  A    between atoms: C_20  and  C_21 
DOCKED: REMARK    5  A    between atoms: C_21  and  N_22 
DOCKED: USER                              x       y       z     vdW  Elec       q    Type
DOCKED: USER                           _______ _______ _______ _____ _____    ______ ____
DOCKED: ROOT
DOCKED: ATOM      1  O   UNL     1     -41.394 -21.887   8.142 -0.03 -0.00    -0.346 OA 
DOCKED: ATOM      2  C   UNL     1     -40.888 -23.259   8.086 -0.20 +0.00    +0.130 C  
DOCKED: ATOM      3  C   UNL     1     -41.357 -23.761   6.751 -0.33 +0.00    +0.004 A  
DOCKED: ATOM      4  C   UNL     1     -41.980 -22.732   6.058 -0.33 +0.00    +0.006 A  
DOCKED: ATOM      5  C   UNL     1     -41.956 -21.494   6.869 -0.21 +0.00    +0.169 C  
DOCKED: ATOM      6  C   UNL     1     -41.233 -25.023   6.190 -0.41 -0.00    -0.001 A  
DOCKED: ATOM      7  C   UNL     1     -42.501 -22.929   4.791 -0.03 +0.00    +0.008 A  
DOCKED: ATOM      8  C   UNL     1     -41.757 -25.239   4.914 -0.44 +0.00    +0.010 A  
DOCKED: ATOM      9  C   UNL     1     -42.388 -24.197   4.218 -0.42 +0.00    +0.068 A  
DOCKED: ATOM     10  N   UNL     1     -43.345 -24.629   1.850 -2.70 -0.00    -0.191 NA 
DOCKED: ATOM     11  C   UNL     1     -42.916 -24.435   2.912 -0.47 +0.00    +0.101 C  
DOCKED: ENDROOT
DOCKED: BRANCH   2  12
DOCKED: ATOM     12  C   UNL     1     -39.369 -23.219   8.204 -0.24 +0.00    +0.038 C  
DOCKED: BRANCH  12  13
DOCKED: ATOM     13  C   UNL     1     -38.831 -21.806   7.986 -0.15 +0.00    +0.038 C  
DOCKED: BRANCH  13  14
DOCKED: ATOM     14  C   UNL     1     -38.374 -21.183   9.304 -0.05 +0.00    +0.251 C  
DOCKED: BRANCH  14  15
DOCKED: ATOM     15  N   UNL     1     -39.520 -20.677  10.049 -0.02 +0.00    +0.141 N  
DOCKED: ATOM     16  C   UNL     1     -39.547 -21.241  11.400 -0.01 +0.00    +0.285 C  
DOCKED: ATOM     17  C   UNL     1     -39.490 -19.215  10.111 -0.00 +0.00    +0.285 C  
DOCKED: ENDBRANCH  14  15
DOCKED: ENDBRANCH  13  14
DOCKED: ENDBRANCH  12  13
DOCKED: ENDBRANCH   2  12
DOCKED: BRANCH   2  18
DOCKED: ATOM     18  C   UNL     1     -41.497 -23.996   9.231 -0.18 +0.00    +0.006 A  
DOCKED: ATOM     19  C   UNL     1     -40.680 -24.587  10.194 -0.17 +0.00    +0.001 A  
DOCKED: ATOM     20  C   UNL     1     -41.251 -25.276  11.264 -0.22 +0.00    +0.029 A  
DOCKED: ATOM     21  C   UNL     1     -42.638 -25.373  11.371 -0.06 +0.00    +0.140 A  
DOCKED: ATOM     22  C   UNL     1     -43.455 -24.782  10.408 -0.14 +0.00    +0.029 A  
DOCKED: ATOM     23  F   UNL     1     -43.186 -26.033  12.399 -0.04 -0.00    -0.204 F  
DOCKED: ATOM     24  C   UNL     1     -42.884 -24.093   9.336 -0.15 +0.00    +0.001 A  
DOCKED: ENDBRANCH   2  18
DOCKED: TORSDOF 5
DOCKED: TER
DOCKED: ENDMDL
________________________________________________________________________________


    FINAL DOCKED STATE:
    ________________________


Run:   167 / 512
Time taken for this run:   0.002s

DOCKED: MODEL        167
DOCKED: USER    Run = 167
DOCKED: USER
DOCKED: USER    Estimated Free Energy of Binding    =  -5.24 kcal/mol  [=(1)+(2)+(3)-(4)]
DOCKED: USER
DOCKED: USER    (1) Final Intermolecular Energy     =  -6.73 kcal/mol
DOCKED: USER        vdW + Hbond + desolv Energy     =  -6.73 kcal/mol
DOCKED: USER        Electrostatic Energy            =  +0.00 kcal/mol
DOCKED: USER        Moving Ligand-Fixed Receptor    =  -6.73 kcal/mol
DOCKED: USER        Moving Ligand-Moving Receptor   =  +0.00 kcal/mol
DOCKED: USER    (2) Final Total Internal Energy     =  -0.63 kcal/mol
DOCKED: USER    (3) Torsional Free Energy           =  +1.49 kcal/mol
DOCKED: USER    (4) Unbound System's Energy         =  -0.63 kcal/mol
DOCKED: USER
DOCKED: USER
DOCKED: REMARK  5 active torsions:
DOCKED: REMARK  status: ('A' for Active; 'I' for Inactive)
DOCKED: REMARK    1  A    between atoms: C_2  and  C_19 
DOCKED: REMARK    2  A    between atoms: C_2  and  C_11 
DOCKED: REMARK    3  A    between atoms: C_19  and  C_20 
DOCKED: REMARK    4  A    between atoms: C_20  and  C_21 
DOCKED: REMARK    5  A    between atoms: C_21  and  N_22 
DOCKED: USER                              x       y       z     vdW  Elec       q    Type
DOCKED: USER                           _______ _______ _______ _____ _____    ______ ____
DOCKED: ROOT
DOCKED: ATOM      1  O   UNL     1     -44.864 -24.108   8.249 -0.04 -0.00    -0.346 OA 
DOCKED: ATOM      2  C   UNL     1     -43.704 -23.255   7.988 -0.12 +0.00    +0.130 C  
DOCKED: ATOM      3  C   UNL     1     -43.421 -23.470   6.529 -0.25 +0.00    +0.004 A  
DOCKED: ATOM      4  C   UNL     1     -44.399 -24.285   5.979 -0.31 +0.00    +0.006 A  
DOCKED: ATOM      5  C   UNL     1     -45.389 -24.652   7.016 -0.15 +0.00    +0.169 C  
DOCKED: ATOM      6  C   UNL     1     -42.387 -22.973   5.749 -0.34 -0.00    -0.001 A  
DOCKED: ATOM      7  C   UNL     1     -44.376 -24.635   4.639 -0.32 +0.00    +0.008 A  
DOCKED: ATOM      8  C   UNL     1     -42.347 -23.320   4.397 -0.29 +0.00    +0.010 A  
DOCKED: ATOM      9  C   UNL     1     -43.338 -24.146   3.846 -0.32 +0.00    +0.068 A  
DOCKED: ATOM     10  N   UNL     1     -43.237 -24.767   1.332 -2.79 -0.00    -0.191 NA 
DOCKED: ATOM     11  C   UNL     1     -43.282 -24.489   2.460 -0.28 +0.00    +0.101 C  
DOCKED: ENDROOT
DOCKED: BRANCH   2  12
DOCKED: ATOM     12  C   UNL     1     -44.080 -21.815   8.314 -0.12 +0.00    +0.038 C  
DOCKED: BRANCH  12  13
DOCKED: ATOM     13  C   UNL     1     -43.523 -20.845   7.274 -0.22 +0.00    +0.038 C  
DOCKED: BRANCH  13  14
DOCKED: ATOM     14  C   UNL     1     -42.029 -20.608   7.487 -0.13 +0.00    +0.251 C  
DOCKED: BRANCH  14  15
DOCKED: ATOM     15  N   UNL     1     -41.817 -19.455   8.354 -0.05 +0.00    +0.141 N  
DOCKED: ATOM     16  C   UNL     1     -41.546 -19.885   9.727 -0.01 +0.00    +0.285 C  
DOCKED: ATOM     17  C   UNL     1     -40.716 -18.630   7.855 -0.05 +0.00    +0.285 C  
DOCKED: ENDBRANCH  14  15
DOCKED: ENDBRANCH  13  14
DOCKED: ENDBRANCH  12  13
DOCKED: ENDBRANCH   2  12
DOCKED: BRANCH   2  18
DOCKED: ATOM     18  C   UNL     1     -42.601 -23.737   8.871 -0.14 +0.00    +0.006 A  
DOCKED: ATOM     19  C   UNL     1     -42.892 -24.533   9.978 -0.17 +0.00    +0.001 A  
DOCKED: ATOM     20  C   UNL     1     -41.861 -24.983  10.803 -0.20 +0.00    +0.029 A  
DOCKED: ATOM     21  C   UNL     1     -40.540 -24.636  10.520 -0.10 +0.00    +0.140 A  
DOCKED: ATOM     22  C   UNL     1     -40.250 -23.839   9.413 -0.15 +0.00    +0.029 A  
DOCKED: ATOM     23  F   UNL     1     -39.550 -25.069  11.311 -0.02 -0.00    -0.204 F  
DOCKED: ATOM     24  C   UNL     1     -41.281 -23.389   8.587 -0.17 +0.00    +0.001 A  
DOCKED: ENDBRANCH   2  18
DOCKED: TORSDOF 5
DOCKED: TER
DOCKED: ENDMDL
________________________________________________________________________________


    FINAL DOCKED STATE:
    ________________________


Run:   168 / 512
Time taken for this run:   0.002s

DOCKED: MODEL        168
DOCKED: USER    Run = 168
DOCKED: USER
DOCKED: USER    Estimated Free Energy of Binding    =  -4.46 kcal/mol  [=(1)+(2)+(3)-(4)]
DOCKED: USER
DOCKED: USER    (1) Final Intermolecular Energy     =  -5.95 kcal/mol
DOCKED: USER        vdW + Hbond + desolv Energy     =  -5.95 kcal/mol
DOCKED: USER        Electrostatic Energy            =  +0.00 kcal/mol
DOCKED: USER        Moving Ligand-Fixed Receptor    =  -5.95 kcal/mol
DOCKED: USER        Moving Ligand-Moving Receptor   =  +0.00 kcal/mol
DOCKED: USER    (2) Final Total Internal Energy     =  -1.22 kcal/mol
DOCKED: USER    (3) Torsional Free Energy           =  +1.49 kcal/mol
DOCKED: USER    (4) Unbound System's Energy         =  -1.22 kcal/mol
DOCKED: USER
DOCKED: USER
DOCKED: REMARK  5 active torsions:
DOCKED: REMARK  status: ('A' for Active; 'I' for Inactive)
DOCKED: REMARK    1  A    between atoms: C_2  and  C_19 
DOCKED: REMARK    2  A    between atoms: C_2  and  C_11 
DOCKED: REMARK    3  A    between atoms: C_19  and  C_20 
DOCKED: REMARK    4  A    between atoms: C_20  and  C_21 
DOCKED: REMARK    5  A    between atoms: C_21  and  N_22 
DOCKED: USER                              x       y       z     vdW  Elec       q    Type
DOCKED: USER                           _______ _______ _______ _____ _____    ______ ____
DOCKED: ROOT
DOCKED: ATOM      1  O   UNL     1     -40.896 -19.768   7.490 -0.04 -0.00    -0.346 OA 
DOCKED: ATOM      2  C   UNL     1     -42.312 -19.940   7.816 -0.12 +0.00    +0.130 C  
DOCKED: ATOM      3  C   UNL     1     -42.654 -21.282   7.237 -0.21 +0.00    +0.004 A  
DOCKED: ATOM      4  C   UNL     1     -41.509 -21.875   6.723 -0.28 +0.00    +0.006 A  
DOCKED: ATOM      5  C   UNL     1     -40.345 -20.985   6.934 -0.19 +0.00    +0.169 C  
DOCKED: ATOM      6  C   UNL     1     -43.879 -21.932   7.180 -0.20 -0.00    -0.001 A  
DOCKED: ATOM      7  C   UNL     1     -41.548 -23.127   6.134 -0.34 +0.00    +0.008 A  
DOCKED: ATOM      8  C   UNL     1     -43.935 -23.194   6.585 -0.24 +0.00    +0.010 A  
DOCKED: ATOM      9  C   UNL     1     -42.776 -23.788   6.066 -0.28 +0.00    +0.068 A  
DOCKED: ATOM     10  N   UNL     1     -42.914 -26.133   4.973 -2.38 -0.00    -0.191 NA 
DOCKED: ATOM     11  C   UNL     1     -42.852 -25.081   5.463 -0.39 +0.00    +0.101 C  
DOCKED: ENDROOT
DOCKED: BRANCH   2  12
DOCKED: ATOM     12  C   UNL     1     -42.468 -19.890   9.331 -0.04 +0.00    +0.038 C  
DOCKED: BRANCH  12  13
DOCKED: ATOM     13  C   UNL     1     -41.606 -20.948  10.015 -0.04 +0.00    +0.038 C  
DOCKED: BRANCH  13  14
DOCKED: ATOM     14  C   UNL     1     -42.463 -21.902  10.846 -0.01 +0.00    +0.251 C  
DOCKED: BRANCH  14  15
DOCKED: ATOM     15  N   UNL     1     -41.708 -23.105  11.176 -0.04 +0.00    +0.141 N  
DOCKED: ATOM     16  C   UNL     1     -42.559 -24.074  11.869 -0.04 +0.00    +0.285 C  
DOCKED: ATOM     17  C   UNL     1     -41.136 -23.703   9.969 -0.07 +0.00    +0.285 C  
DOCKED: ENDBRANCH  14  15
DOCKED: ENDBRANCH  13  14
DOCKED: ENDBRANCH  12  13
DOCKED: ENDBRANCH   2  12
DOCKED: BRANCH   2  18
DOCKED: ATOM     18  C   UNL     1     -43.049 -18.819   7.161 -0.18 +0.00    +0.006 A  
DOCKED: ATOM     19  C   UNL     1     -44.442 -18.848   7.092 -0.21 +0.00    +0.001 A  
DOCKED: ATOM     20  C   UNL     1     -45.130 -17.800   6.479 -0.19 +0.00    +0.029 A  
DOCKED: ATOM     21  C   UNL     1     -44.425 -16.725   5.938 -0.12 +0.00    +0.140 A  
DOCKED: ATOM     22  C   UNL     1     -43.033 -16.698   6.007 -0.15 +0.00    +0.029 A  
DOCKED: ATOM     23  F   UNL     1     -45.086 -15.719   5.351 -0.02 -0.00    -0.204 F  
DOCKED: ATOM     24  C   UNL     1     -42.343 -17.746   6.620 -0.16 +0.00    +0.001 A  
DOCKED: ENDBRANCH   2  18
DOCKED: TORSDOF 5
DOCKED: TER
DOCKED: ENDMDL
________________________________________________________________________________


    FINAL DOCKED STATE:
    ________________________


Run:   169 / 512
Time taken for this run:   0.002s

DOCKED: MODEL        169
DOCKED: USER    Run = 169
DOCKED: USER
DOCKED: USER    Estimated Free Energy of Binding    =  -4.28 kcal/mol  [=(1)+(2)+(3)-(4)]
DOCKED: USER
DOCKED: USER    (1) Final Intermolecular Energy     =  -5.77 kcal/mol
DOCKED: USER        vdW + Hbond + desolv Energy     =  -5.77 kcal/mol
DOCKED: USER        Electrostatic Energy            =  +0.00 kcal/mol
DOCKED: USER        Moving Ligand-Fixed Receptor    =  -5.77 kcal/mol
DOCKED: USER        Moving Ligand-Moving Receptor   =  +0.00 kcal/mol
DOCKED: USER    (2) Final Total Internal Energy     =  -1.41 kcal/mol
DOCKED: USER    (3) Torsional Free Energy           =  +1.49 kcal/mol
DOCKED: USER    (4) Unbound System's Energy         =  -1.41 kcal/mol
DOCKED: USER
DOCKED: USER
DOCKED: REMARK  5 active torsions:
DOCKED: REMARK  status: ('A' for Active; 'I' for Inactive)
DOCKED: REMARK    1  A    between atoms: C_2  and  C_19 
DOCKED: REMARK    2  A    between atoms: C_2  and  C_11 
DOCKED: REMARK    3  A    between atoms: C_19  and  C_20 
DOCKED: REMARK    4  A    between atoms: C_20  and  C_21 
DOCKED: REMARK    5  A    between atoms: C_21  and  N_22 
DOCKED: USER                              x       y       z     vdW  Elec       q    Type
DOCKED: USER                           _______ _______ _______ _____ _____    ______ ____
DOCKED: ROOT
DOCKED: ATOM      1  O   UNL     1     -40.848 -24.941   9.403 -0.11 -0.00    -0.346 OA 
DOCKED: ATOM      2  C   UNL     1     -40.732 -23.530   9.030 -0.16 +0.00    +0.130 C  
DOCKED: ATOM      3  C   UNL     1     -41.162 -23.501   7.592 -0.26 +0.00    +0.004 A  
DOCKED: ATOM      4  C   UNL     1     -41.593 -24.763   7.208 -0.32 +0.00    +0.006 A  
DOCKED: ATOM      5  C   UNL     1     -41.491 -25.698   8.351 -0.21 +0.00    +0.169 C  
DOCKED: ATOM      6  C   UNL     1     -41.183 -22.440   6.699 -0.29 -0.00    -0.001 A  
DOCKED: ATOM      7  C   UNL     1     -42.051 -25.009   5.925 -0.37 +0.00    +0.008 A  
DOCKED: ATOM      8  C   UNL     1     -41.638 -22.673   5.400 -0.24 +0.00    +0.010 A  
DOCKED: ATOM      9  C   UNL     1     -42.071 -23.951   5.016 -0.36 +0.00    +0.068 A  
DOCKED: ATOM     10  N   UNL     1     -42.915 -24.347   2.598 -1.85 -0.00    -0.191 NA 
DOCKED: ATOM     11  C   UNL     1     -42.536 -24.170   3.682 -0.50 +0.00    +0.101 C  
DOCKED: ENDROOT
DOCKED: BRANCH   2  12
DOCKED: ATOM     12  C   UNL     1     -41.643 -22.714   9.939 -0.08 +0.00    +0.038 C  
DOCKED: BRANCH  12  13
DOCKED: ATOM     13  C   UNL     1     -43.074 -23.248   9.917 -0.09 +0.00    +0.038 C  
DOCKED: BRANCH  13  14
DOCKED: ATOM     14  C   UNL     1     -43.903 -22.554   8.838 -0.03 +0.00    +0.251 C  
DOCKED: BRANCH  14  15
DOCKED: ATOM     15  N   UNL     1     -45.037 -23.386   8.456 -0.08 +0.00    +0.141 N  
DOCKED: ATOM     16  C   UNL     1     -45.363 -23.198   7.041 -0.10 +0.00    +0.285 C  
DOCKED: ATOM     17  C   UNL     1     -44.757 -24.797   8.729 -0.08 +0.00    +0.285 C  
DOCKED: ENDBRANCH  14  15
DOCKED: ENDBRANCH  13  14
DOCKED: ENDBRANCH  12  13
DOCKED: ENDBRANCH   2  12
DOCKED: BRANCH   2  18
DOCKED: ATOM     18  C   UNL     1     -39.302 -23.146   9.217 -0.17 +0.00    +0.006 A  
DOCKED: ATOM     19  C   UNL     1     -38.874 -22.623  10.436 -0.09 +0.00    +0.001 A  
DOCKED: ATOM     20  C   UNL     1     -37.537 -22.264  10.609 -0.07 +0.00    +0.029 A  
DOCKED: ATOM     21  C   UNL     1     -36.630 -22.429   9.563 -0.08 +0.00    +0.140 A  
DOCKED: ATOM     22  C   UNL     1     -37.058 -22.952   8.344 -0.17 +0.00    +0.029 A  
DOCKED: ATOM     23  F   UNL     1     -35.346 -22.086   9.730 -0.00 -0.00    -0.204 F  
DOCKED: ATOM     24  C   UNL     1     -38.396 -23.311   8.170 -0.07 +0.00    +0.001 A  
DOCKED: ENDBRANCH   2  18
DOCKED: TORSDOF 5
DOCKED: TER
DOCKED: ENDMDL
________________________________________________________________________________


    FINAL DOCKED STATE:
    ________________________


Run:   170 / 512
Time taken for this run:   0.002s

DOCKED: MODEL        170
DOCKED: USER    Run = 170
DOCKED: USER
DOCKED: USER    Estimated Free Energy of Binding    =  -4.04 kcal/mol  [=(1)+(2)+(3)-(4)]
DOCKED: USER
DOCKED: USER    (1) Final Intermolecular Energy     =  -5.53 kcal/mol
DOCKED: USER        vdW + Hbond + desolv Energy     =  -5.53 kcal/mol
DOCKED: USER        Electrostatic Energy            =  +0.00 kcal/mol
DOCKED: USER        Moving Ligand-Fixed Receptor    =  -5.53 kcal/mol
DOCKED: USER        Moving Ligand-Moving Receptor   =  +0.00 kcal/mol
DOCKED: USER    (2) Final Total Internal Energy     =  -1.23 kcal/mol
DOCKED: USER    (3) Torsional Free Energy           =  +1.49 kcal/mol
DOCKED: USER    (4) Unbound System's Energy         =  -1.23 kcal/mol
DOCKED: USER
DOCKED: USER
DOCKED: REMARK  5 active torsions:
DOCKED: REMARK  status: ('A' for Active; 'I' for Inactive)
DOCKED: REMARK    1  A    between atoms: C_2  and  C_19 
DOCKED: REMARK    2  A    between atoms: C_2  and  C_11 
DOCKED: REMARK    3  A    between atoms: C_19  and  C_20 
DOCKED: REMARK    4  A    between atoms: C_20  and  C_21 
DOCKED: REMARK    5  A    between atoms: C_21  and  N_22 
DOCKED: USER                              x       y       z     vdW  Elec       q    Type
DOCKED: USER                           _______ _______ _______ _____ _____    ______ ____
DOCKED: ROOT
DOCKED: ATOM      1  O   UNL     1     -32.623 -22.056  -0.727 +0.01 -0.00    -0.346 OA 
DOCKED: ATOM      2  C   UNL     1     -33.899 -21.455  -0.340 -0.07 +0.00    +0.130 C  
DOCKED: ATOM      3  C   UNL     1     -34.499 -22.459   0.601 -0.13 +0.00    +0.004 A  
DOCKED: ATOM      4  C   UNL     1     -33.597 -23.490   0.820 -0.09 +0.00    +0.006 A  
DOCKED: ATOM      5  C   UNL     1     -32.352 -23.239   0.061 -0.02 +0.00    +0.169 C  
DOCKED: ATOM      6  C   UNL     1     -35.739 -22.453   1.224 -0.25 -0.00    -0.001 A  
DOCKED: ATOM      7  C   UNL     1     -33.903 -24.548   1.660 -0.17 +0.00    +0.008 A  
DOCKED: ATOM      8  C   UNL     1     -36.063 -23.515   2.069 -0.33 +0.00    +0.010 A  
DOCKED: ATOM      9  C   UNL     1     -35.149 -24.557   2.287 -0.29 +0.00    +0.068 A  
DOCKED: ATOM     10  N   UNL     1     -35.781 -26.511   3.867 -2.56 -0.00    -0.191 NA 
DOCKED: ATOM     11  C   UNL     1     -35.498 -25.635   3.157 -0.41 +0.00    +0.101 C  
DOCKED: ENDROOT
DOCKED: BRANCH   2  12
DOCKED: ATOM     12  C   UNL     1     -33.619 -20.112   0.324 -0.03 +0.00    +0.038 C  
DOCKED: BRANCH  12  13
DOCKED: ATOM     13  C   UNL     1     -33.991 -20.135   1.805 -0.04 +0.00    +0.038 C  
DOCKED: BRANCH  13  14
DOCKED: ATOM     14  C   UNL     1     -32.786 -19.794   2.680 -0.01 +0.00    +0.251 C  
DOCKED: BRANCH  14  15
DOCKED: ATOM     15  N   UNL     1     -32.797 -20.599   3.895 -0.02 +0.00    +0.141 N  
DOCKED: ATOM     16  C   UNL     1     -33.916 -21.543   3.879 -0.04 +0.00    +0.285 C  
DOCKED: ATOM     17  C   UNL     1     -31.531 -21.316   4.050 -0.00 +0.00    +0.285 C  
DOCKED: ENDBRANCH  14  15
DOCKED: ENDBRANCH  13  14
DOCKED: ENDBRANCH  12  13
DOCKED: ENDBRANCH   2  12
DOCKED: BRANCH   2  18
DOCKED: ATOM     18  C   UNL     1     -34.697 -21.281  -1.590 -0.13 +0.00    +0.006 A  
DOCKED: ATOM     19  C   UNL     1     -35.686 -20.301  -1.654 -0.18 +0.00    +0.001 A  
DOCKED: ATOM     20  C   UNL     1     -36.431 -20.140  -2.823 -0.20 +0.00    +0.029 A  
DOCKED: ATOM     21  C   UNL     1     -36.185 -20.958  -3.925 -0.17 +0.00    +0.140 A  
DOCKED: ATOM     22  C   UNL     1     -35.195 -21.937  -3.860 -0.15 +0.00    +0.029 A  
DOCKED: ATOM     23  F   UNL     1     -36.899 -20.802  -5.048 -0.13 -0.00    -0.204 F  
DOCKED: ATOM     24  C   UNL     1     -34.449 -22.100  -2.691 -0.13 +0.00    +0.001 A  
DOCKED: ENDBRANCH   2  18
DOCKED: TORSDOF 5
DOCKED: TER
DOCKED: ENDMDL
________________________________________________________________________________


    FINAL DOCKED STATE:
    ________________________


Run:   171 / 512
Time taken for this run:   0.002s

DOCKED: MODEL        171
DOCKED: USER    Run = 171
DOCKED: USER
DOCKED: USER    Estimated Free Energy of Binding    =  -4.36 kcal/mol  [=(1)+(2)+(3)-(4)]
DOCKED: USER
DOCKED: USER    (1) Final Intermolecular Energy     =  -5.86 kcal/mol
DOCKED: USER        vdW + Hbond + desolv Energy     =  -5.86 kcal/mol
DOCKED: USER        Electrostatic Energy            =  +0.00 kcal/mol
DOCKED: USER        Moving Ligand-Fixed Receptor    =  -5.86 kcal/mol
DOCKED: USER        Moving Ligand-Moving Receptor   =  +0.00 kcal/mol
DOCKED: USER    (2) Final Total Internal Energy     =  -1.42 kcal/mol
DOCKED: USER    (3) Torsional Free Energy           =  +1.49 kcal/mol
DOCKED: USER    (4) Unbound System's Energy         =  -1.42 kcal/mol
DOCKED: USER
DOCKED: USER
DOCKED: REMARK  5 active torsions:
DOCKED: REMARK  status: ('A' for Active; 'I' for Inactive)
DOCKED: REMARK    1  A    between atoms: C_2  and  C_19 
DOCKED: REMARK    2  A    between atoms: C_2  and  C_11 
DOCKED: REMARK    3  A    between atoms: C_19  and  C_20 
DOCKED: REMARK    4  A    between atoms: C_20  and  C_21 
DOCKED: REMARK    5  A    between atoms: C_21  and  N_22 
DOCKED: USER                              x       y       z     vdW  Elec       q    Type
DOCKED: USER                           _______ _______ _______ _____ _____    ______ ____
DOCKED: ROOT
DOCKED: ATOM      1  O   UNL     1     -40.642 -19.934   7.961 -0.03 -0.00    -0.346 OA 
DOCKED: ATOM      2  C   UNL     1     -42.102 -19.870   7.884 -0.11 +0.00    +0.130 C  
DOCKED: ATOM      3  C   UNL     1     -42.489 -21.194   7.292 -0.20 +0.00    +0.004 A  
DOCKED: ATOM      4  C   UNL     1     -41.360 -21.988   7.145 -0.24 +0.00    +0.006 A  
DOCKED: ATOM      5  C   UNL     1     -40.168 -21.261   7.635 -0.15 +0.00    +0.169 C  
DOCKED: ATOM      6  C   UNL     1     -43.741 -21.663   6.923 -0.22 -0.00    -0.001 A  
DOCKED: ATOM      7  C   UNL     1     -41.442 -23.268   6.624 -0.32 +0.00    +0.008 A  
DOCKED: ATOM      8  C   UNL     1     -43.840 -22.950   6.391 -0.24 +0.00    +0.010 A  
DOCKED: ATOM      9  C   UNL     1     -42.696 -23.749   6.243 -0.26 +0.00    +0.068 A  
DOCKED: ATOM     10  N   UNL     1     -42.915 -26.135   5.258 -2.56 -0.00    -0.191 NA 
DOCKED: ATOM     11  C   UNL     1     -42.816 -25.064   5.699 -0.35 +0.00    +0.101 C  
DOCKED: ENDROOT
DOCKED: BRANCH   2  12
DOCKED: ATOM     12  C   UNL     1     -42.650 -19.667   9.292 -0.04 +0.00    +0.038 C  
DOCKED: BRANCH  12  13
DOCKED: ATOM     13  C   UNL     1     -41.852 -20.465  10.321 -0.02 +0.00    +0.038 C  
DOCKED: BRANCH  13  14
DOCKED: ATOM     14  C   UNL     1     -42.566 -21.767  10.680 -0.01 +0.00    +0.251 C  
DOCKED: BRANCH  14  15
DOCKED: ATOM     15  N   UNL     1     -41.595 -22.819  10.955 -0.03 +0.00    +0.141 N  
DOCKED: ATOM     16  C   UNL     1     -41.750 -23.925  10.008 -0.08 +0.00    +0.285 C  
DOCKED: ATOM     17  C   UNL     1     -40.231 -22.290  10.897 -0.02 +0.00    +0.285 C  
DOCKED: ENDBRANCH  14  15
DOCKED: ENDBRANCH  13  14
DOCKED: ENDBRANCH  12  13
DOCKED: ENDBRANCH   2  12
DOCKED: BRANCH   2  18
DOCKED: ATOM     18  C   UNL     1     -42.443 -18.716   7.002 -0.17 +0.00    +0.006 A  
DOCKED: ATOM     19  C   UNL     1     -41.443 -18.086   6.262 -0.13 +0.00    +0.001 A  
DOCKED: ATOM     20  C   UNL     1     -41.763 -17.007   5.437 -0.13 +0.00    +0.029 A  
DOCKED: ATOM     21  C   UNL     1     -43.081 -16.560   5.353 -0.12 +0.00    +0.140 A  
DOCKED: ATOM     22  C   UNL     1     -44.080 -17.191   6.093 -0.18 +0.00    +0.029 A  
DOCKED: ATOM     23  F   UNL     1     -43.388 -15.525   4.560 -0.03 -0.00    -0.204 F  
DOCKED: ATOM     24  C   UNL     1     -43.761 -18.271   6.919 -0.20 +0.00    +0.001 A  
DOCKED: ENDBRANCH   2  18
DOCKED: TORSDOF 5
DOCKED: TER
DOCKED: ENDMDL
________________________________________________________________________________


    FINAL DOCKED STATE:
    ________________________


Run:   172 / 512
Time taken for this run:   0.002s

DOCKED: MODEL        172
DOCKED: USER    Run = 172
DOCKED: USER
DOCKED: USER    Estimated Free Energy of Binding    =  -4.10 kcal/mol  [=(1)+(2)+(3)-(4)]
DOCKED: USER
DOCKED: USER    (1) Final Intermolecular Energy     =  -5.59 kcal/mol
DOCKED: USER        vdW + Hbond + desolv Energy     =  -5.59 kcal/mol
DOCKED: USER        Electrostatic Energy            =  +0.00 kcal/mol
DOCKED: USER        Moving Ligand-Fixed Receptor    =  -5.59 kcal/mol
DOCKED: USER        Moving Ligand-Moving Receptor   =  +0.00 kcal/mol
DOCKED: USER    (2) Final Total Internal Energy     =  -1.44 kcal/mol
DOCKED: USER    (3) Torsional Free Energy           =  +1.49 kcal/mol
DOCKED: USER    (4) Unbound System's Energy         =  -1.44 kcal/mol
DOCKED: USER
DOCKED: USER
DOCKED: REMARK  5 active torsions:
DOCKED: REMARK  status: ('A' for Active; 'I' for Inactive)
DOCKED: REMARK    1  A    between atoms: C_2  and  C_19 
DOCKED: REMARK    2  A    between atoms: C_2  and  C_11 
DOCKED: REMARK    3  A    between atoms: C_19  and  C_20 
DOCKED: REMARK    4  A    between atoms: C_20  and  C_21 
DOCKED: REMARK    5  A    between atoms: C_21  and  N_22 
DOCKED: USER                              x       y       z     vdW  Elec       q    Type
DOCKED: USER                           _______ _______ _______ _____ _____    ______ ____
DOCKED: ROOT
DOCKED: ATOM      1  O   UNL     1     -38.798 -22.411   9.708 -0.05 -0.00    -0.346 OA 
DOCKED: ATOM      2  C   UNL     1     -39.137 -21.484   8.628 -0.12 +0.00    +0.130 C  
DOCKED: ATOM      3  C   UNL     1     -40.076 -22.270   7.760 -0.21 +0.00    +0.004 A  
DOCKED: ATOM      4  C   UNL     1     -40.339 -23.499   8.350 -0.23 +0.00    +0.006 A  
DOCKED: ATOM      5  C   UNL     1     -39.613 -23.604   9.635 -0.06 +0.00    +0.169 C  
DOCKED: ATOM      6  C   UNL     1     -40.661 -21.922   6.551 -0.21 -0.00    -0.001 A  
DOCKED: ATOM      7  C   UNL     1     -41.186 -24.418   7.754 -0.30 +0.00    +0.008 A  
DOCKED: ATOM      8  C   UNL     1     -41.514 -22.839   5.935 -0.32 +0.00    +0.010 A  
DOCKED: ATOM      9  C   UNL     1     -41.775 -24.081   6.534 -0.30 +0.00    +0.068 A  
DOCKED: ATOM     10  N   UNL     1     -43.367 -25.759   5.367 -2.50 -0.00    -0.191 NA 
DOCKED: ATOM     11  C   UNL     1     -42.652 -25.007   5.890 -0.34 +0.00    +0.101 C  
DOCKED: ENDROOT
DOCKED: BRANCH   2  12
DOCKED: ATOM     12  C   UNL     1     -39.787 -20.248   9.239 -0.05 +0.00    +0.038 C  
DOCKED: BRANCH  12  13
DOCKED: ATOM     13  C   UNL     1     -41.224 -20.532   9.672 -0.04 +0.00    +0.038 C  
DOCKED: BRANCH  13  14
DOCKED: ATOM     14  C   UNL     1     -42.216 -19.695   8.867 -0.03 +0.00    +0.251 C  
DOCKED: BRANCH  14  15
DOCKED: ATOM     15  N   UNL     1     -43.454 -20.437   8.658 -0.05 +0.00    +0.141 N  
DOCKED: ATOM     16  C   UNL     1     -43.734 -20.581   7.229 -0.14 +0.00    +0.285 C  
DOCKED: ATOM     17  C   UNL     1     -43.381 -21.752   9.297 -0.01 +0.00    +0.285 C  
DOCKED: ENDBRANCH  14  15
DOCKED: ENDBRANCH  13  14
DOCKED: ENDBRANCH  12  13
DOCKED: ENDBRANCH   2  12
DOCKED: BRANCH   2  18
DOCKED: ATOM     18  C   UNL     1     -37.861 -21.135   7.937 -0.11 +0.00    +0.006 A  
DOCKED: ATOM     19  C   UNL     1     -37.844 -20.126   6.974 -0.11 +0.00    +0.001 A  
DOCKED: ATOM     20  C   UNL     1     -36.651 -19.801   6.328 -0.10 +0.00    +0.029 A  
DOCKED: ATOM     21  C   UNL     1     -35.477 -20.483   6.646 -0.07 +0.00    +0.140 A  
DOCKED: ATOM     22  C   UNL     1     -35.495 -21.491   7.610 -0.10 +0.00    +0.029 A  
DOCKED: ATOM     23  F   UNL     1     -34.331 -20.170   6.027 -0.01 -0.00    -0.204 F  
DOCKED: ATOM     24  C   UNL     1     -36.689 -21.818   8.256 -0.13 +0.00    +0.001 A  
DOCKED: ENDBRANCH   2  18
DOCKED: TORSDOF 5
DOCKED: TER
DOCKED: ENDMDL
________________________________________________________________________________


    FINAL DOCKED STATE:
    ________________________


Run:   173 / 512
Time taken for this run:   0.002s

DOCKED: MODEL        173
DOCKED: USER    Run = 173
DOCKED: USER
DOCKED: USER    Estimated Free Energy of Binding    =  -4.22 kcal/mol  [=(1)+(2)+(3)-(4)]
DOCKED: USER
DOCKED: USER    (1) Final Intermolecular Energy     =  -5.71 kcal/mol
DOCKED: USER        vdW + Hbond + desolv Energy     =  -5.71 kcal/mol
DOCKED: USER        Electrostatic Energy            =  +0.00 kcal/mol
DOCKED: USER        Moving Ligand-Fixed Receptor    =  -5.71 kcal/mol
DOCKED: USER        Moving Ligand-Moving Receptor   =  +0.00 kcal/mol
DOCKED: USER    (2) Final Total Internal Energy     =  -1.06 kcal/mol
DOCKED: USER    (3) Torsional Free Energy           =  +1.49 kcal/mol
DOCKED: USER    (4) Unbound System's Energy         =  -1.06 kcal/mol
DOCKED: USER
DOCKED: USER
DOCKED: REMARK  5 active torsions:
DOCKED: REMARK  status: ('A' for Active; 'I' for Inactive)
DOCKED: REMARK    1  A    between atoms: C_2  and  C_19 
DOCKED: REMARK    2  A    between atoms: C_2  and  C_11 
DOCKED: REMARK    3  A    between atoms: C_19  and  C_20 
DOCKED: REMARK    4  A    between atoms: C_20  and  C_21 
DOCKED: REMARK    5  A    between atoms: C_21  and  N_22 
DOCKED: USER                              x       y       z     vdW  Elec       q    Type
DOCKED: USER                           _______ _______ _______ _____ _____    ______ ____
DOCKED: ROOT
DOCKED: ATOM      1  O   UNL     1     -38.788 -21.497   8.680 -0.06 -0.00    -0.346 OA 
DOCKED: ATOM      2  C   UNL     1     -39.648 -20.686   7.817 -0.13 +0.00    +0.130 C  
DOCKED: ATOM      3  C   UNL     1     -40.535 -21.694   7.145 -0.23 +0.00    +0.004 A  
DOCKED: ATOM      4  C   UNL     1     -40.281 -22.957   7.660 -0.25 +0.00    +0.006 A  
DOCKED: ATOM      5  C   UNL     1     -39.233 -22.873   8.702 -0.16 +0.00    +0.169 C  
DOCKED: ATOM      6  C   UNL     1     -41.498 -21.506   6.164 -0.26 -0.00    -0.001 A  
DOCKED: ATOM      7  C   UNL     1     -40.972 -24.070   7.213 -0.33 +0.00    +0.008 A  
DOCKED: ATOM      8  C   UNL     1     -42.201 -22.619   5.699 -0.32 +0.00    +0.010 A  
DOCKED: ATOM      9  C   UNL     1     -41.939 -23.895   6.222 -0.31 +0.00    +0.068 A  
DOCKED: ATOM     10  N   UNL     1     -43.265 -25.939   5.341 -2.55 -0.00    -0.191 NA 
DOCKED: ATOM     11  C   UNL     1     -42.670 -25.022   5.736 -0.37 +0.00    +0.101 C  
DOCKED: ENDROOT
DOCKED: BRANCH   2  12
DOCKED: ATOM     12  C   UNL     1     -40.421 -19.705   8.690 -0.06 +0.00    +0.038 C  
DOCKED: BRANCH  12  13
DOCKED: ATOM     13  C   UNL     1     -39.871 -19.675  10.115 -0.02 +0.00    +0.038 C  
DOCKED: BRANCH  13  14
DOCKED: ATOM     14  C   UNL     1     -40.812 -18.918  11.051 -0.00 +0.00    +0.251 C  
DOCKED: BRANCH  14  15
DOCKED: ATOM     15  N   UNL     1     -40.906 -19.601  12.336 -0.00 +0.00    +0.141 N  
DOCKED: ATOM     16  C   UNL     1     -41.643 -20.858  12.199 -0.00 +0.00    +0.285 C  
DOCKED: ATOM     17  C   UNL     1     -39.572 -19.852  12.885 +0.00 +0.00    +0.285 C  
DOCKED: ENDBRANCH  14  15
DOCKED: ENDBRANCH  13  14
DOCKED: ENDBRANCH  12  13
DOCKED: ENDBRANCH   2  12
DOCKED: BRANCH   2  18
DOCKED: ATOM     18  C   UNL     1     -38.754 -19.969   6.861 -0.14 +0.00    +0.006 A  
DOCKED: ATOM     19  C   UNL     1     -39.287 -19.023   5.985 -0.15 +0.00    +0.001 A  
DOCKED: ATOM     20  C   UNL     1     -38.450 -18.354   5.092 -0.12 +0.00    +0.029 A  
DOCKED: ATOM     21  C   UNL     1     -37.084 -18.629   5.076 -0.08 +0.00    +0.140 A  
DOCKED: ATOM     22  C   UNL     1     -36.552 -19.574   5.952 -0.10 +0.00    +0.029 A  
DOCKED: ATOM     23  F   UNL     1     -36.280 -17.984   4.219 -0.00 -0.00    -0.204 F  
DOCKED: ATOM     24  C   UNL     1     -37.388 -20.246   6.846 -0.07 +0.00    +0.001 A  
DOCKED: ENDBRANCH   2  18
DOCKED: TORSDOF 5
DOCKED: TER
DOCKED: ENDMDL
________________________________________________________________________________


    FINAL DOCKED STATE:
    ________________________


Run:   174 / 512
Time taken for this run:   0.002s

DOCKED: MODEL        174
DOCKED: USER    Run = 174
DOCKED: USER
DOCKED: USER    Estimated Free Energy of Binding    =  -3.99 kcal/mol  [=(1)+(2)+(3)-(4)]
DOCKED: USER
DOCKED: USER    (1) Final Intermolecular Energy     =  -5.48 kcal/mol
DOCKED: USER        vdW + Hbond + desolv Energy     =  -5.48 kcal/mol
DOCKED: USER        Electrostatic Energy            =  +0.00 kcal/mol
DOCKED: USER        Moving Ligand-Fixed Receptor    =  -5.48 kcal/mol
DOCKED: USER        Moving Ligand-Moving Receptor   =  +0.00 kcal/mol
DOCKED: USER    (2) Final Total Internal Energy     =  -1.36 kcal/mol
DOCKED: USER    (3) Torsional Free Energy           =  +1.49 kcal/mol
DOCKED: USER    (4) Unbound System's Energy         =  -1.36 kcal/mol
DOCKED: USER
DOCKED: USER
DOCKED: REMARK  5 active torsions:
DOCKED: REMARK  status: ('A' for Active; 'I' for Inactive)
DOCKED: REMARK    1  A    between atoms: C_2  and  C_19 
DOCKED: REMARK    2  A    between atoms: C_2  and  C_11 
DOCKED: REMARK    3  A    between atoms: C_19  and  C_20 
DOCKED: REMARK    4  A    between atoms: C_20  and  C_21 
DOCKED: REMARK    5  A    between atoms: C_21  and  N_22 
DOCKED: USER                              x       y       z     vdW  Elec       q    Type
DOCKED: USER                           _______ _______ _______ _____ _____    ______ ____
DOCKED: ROOT
DOCKED: ATOM      1  O   UNL     1     -40.764 -19.626   6.883 -0.08 -0.00    -0.346 OA 
DOCKED: ATOM      2  C   UNL     1     -41.989 -19.820   7.660 -0.13 +0.00    +0.130 C  
DOCKED: ATOM      3  C   UNL     1     -42.459 -21.187   7.257 -0.20 +0.00    +0.004 A  
DOCKED: ATOM      4  C   UNL     1     -41.527 -21.769   6.409 -0.29 +0.00    +0.006 A  
DOCKED: ATOM      5  C   UNL     1     -40.388 -20.847   6.205 -0.08 +0.00    +0.169 C  
DOCKED: ATOM      6  C   UNL     1     -43.612 -21.866   7.620 -0.16 -0.00    -0.001 A  
DOCKED: ATOM      7  C   UNL     1     -41.717 -23.041   5.894 -0.35 +0.00    +0.008 A  
DOCKED: ATOM      8  C   UNL     1     -43.820 -23.147   7.106 -0.20 +0.00    +0.010 A  
DOCKED: ATOM      9  C   UNL     1     -42.877 -23.731   6.248 -0.25 +0.00    +0.068 A  
DOCKED: ATOM     10  N   UNL     1     -43.291 -26.113   5.315 -2.53 -0.00    -0.191 NA 
DOCKED: ATOM     11  C   UNL     1     -43.106 -25.045   5.733 -0.34 +0.00    +0.101 C  
DOCKED: ENDROOT
DOCKED: BRANCH   2  12
DOCKED: ATOM     12  C   UNL     1     -41.640 -19.725   9.141 -0.04 +0.00    +0.038 C  
DOCKED: BRANCH  12  13
DOCKED: ATOM     13  C   UNL     1     -40.132 -19.807   9.365 -0.04 +0.00    +0.038 C  
DOCKED: BRANCH  13  14
DOCKED: ATOM     14  C   UNL     1     -39.560 -18.447   9.763 -0.00 +0.00    +0.251 C  
DOCKED: BRANCH  14  15
DOCKED: ATOM     15  N   UNL     1     -39.724 -17.490   8.675 -0.01 +0.00    +0.141 N  
DOCKED: ATOM     16  C   UNL     1     -39.705 -16.119   9.186 -0.00 +0.00    +0.285 C  
DOCKED: ATOM     17  C   UNL     1     -38.677 -17.670   7.668 -0.02 +0.00    +0.285 C  
DOCKED: ENDBRANCH  14  15
DOCKED: ENDBRANCH  13  14
DOCKED: ENDBRANCH  12  13
DOCKED: ENDBRANCH   2  12
DOCKED: BRANCH   2  18
DOCKED: ATOM     18  C   UNL     1     -42.936 -18.738   7.260 -0.17 +0.00    +0.006 A  
DOCKED: ATOM     19  C   UNL     1     -44.052 -19.042   6.481 -0.23 +0.00    +0.001 A  
DOCKED: ATOM     20  C   UNL     1     -44.936 -18.029   6.107 -0.10 +0.00    +0.029 A  
DOCKED: ATOM     21  C   UNL     1     -44.703 -16.716   6.512 -0.11 +0.00    +0.140 A  
DOCKED: ATOM     22  C   UNL     1     -43.587 -16.412   7.291 -0.07 +0.00    +0.029 A  
DOCKED: ATOM     23  F   UNL     1     -45.553 -15.744   6.154 -0.00 -0.00    -0.204 F  
DOCKED: ATOM     24  C   UNL     1     -42.702 -17.424   7.665 -0.08 +0.00    +0.001 A  
DOCKED: ENDBRANCH   2  18
DOCKED: TORSDOF 5
DOCKED: TER
DOCKED: ENDMDL
________________________________________________________________________________


    FINAL DOCKED STATE:
    ________________________


Run:   175 / 512
Time taken for this run:   0.002s

DOCKED: MODEL        175
DOCKED: USER    Run = 175
DOCKED: USER
DOCKED: USER    Estimated Free Energy of Binding    =  -3.97 kcal/mol  [=(1)+(2)+(3)-(4)]
DOCKED: USER
DOCKED: USER    (1) Final Intermolecular Energy     =  -5.47 kcal/mol
DOCKED: USER        vdW + Hbond + desolv Energy     =  -5.47 kcal/mol
DOCKED: USER        Electrostatic Energy            =  +0.00 kcal/mol
DOCKED: USER        Moving Ligand-Fixed Receptor    =  -5.47 kcal/mol
DOCKED: USER        Moving Ligand-Moving Receptor   =  +0.00 kcal/mol
DOCKED: USER    (2) Final Total Internal Energy     =  -1.48 kcal/mol
DOCKED: USER    (3) Torsional Free Energy           =  +1.49 kcal/mol
DOCKED: USER    (4) Unbound System's Energy         =  -1.48 kcal/mol
DOCKED: USER
DOCKED: USER
DOCKED: REMARK  5 active torsions:
DOCKED: REMARK  status: ('A' for Active; 'I' for Inactive)
DOCKED: REMARK    1  A    between atoms: C_2  and  C_19 
DOCKED: REMARK    2  A    between atoms: C_2  and  C_11 
DOCKED: REMARK    3  A    between atoms: C_19  and  C_20 
DOCKED: REMARK    4  A    between atoms: C_20  and  C_21 
DOCKED: REMARK    5  A    between atoms: C_21  and  N_22 
DOCKED: USER                              x       y       z     vdW  Elec       q    Type
DOCKED: USER                           _______ _______ _______ _____ _____    ______ ____
DOCKED: ROOT
DOCKED: ATOM      1  O   UNL     1     -41.228 -19.962   8.121 -0.02 -0.00    -0.346 OA 
DOCKED: ATOM      2  C   UNL     1     -42.688 -20.065   8.109 -0.10 +0.00    +0.130 C  
DOCKED: ATOM      3  C   UNL     1     -42.950 -21.370   7.415 -0.19 +0.00    +0.004 A  
DOCKED: ATOM      4  C   UNL     1     -41.747 -22.010   7.152 -0.23 +0.00    +0.006 A  
DOCKED: ATOM      5  C   UNL     1     -40.622 -21.192   7.658 -0.15 +0.00    +0.169 C  
DOCKED: ATOM      6  C   UNL     1     -44.158 -21.950   7.055 -0.21 -0.00    -0.001 A  
DOCKED: ATOM      7  C   UNL     1     -41.709 -23.242   6.521 -0.32 +0.00    +0.008 A  
DOCKED: ATOM      8  C   UNL     1     -44.136 -23.190   6.414 -0.25 +0.00    +0.010 A  
DOCKED: ATOM      9  C   UNL     1     -42.917 -23.832   6.149 -0.26 +0.00    +0.068 A  
DOCKED: ATOM     10  N   UNL     1     -42.911 -26.135   4.962 -2.36 -0.00    -0.191 NA 
DOCKED: ATOM     11  C   UNL     1     -42.914 -25.102   5.494 -0.38 +0.00    +0.101 C  
DOCKED: ENDROOT
DOCKED: BRANCH   2  12
DOCKED: ATOM     12  C   UNL     1     -43.184 -20.049   9.550 -0.04 +0.00    +0.038 C  
DOCKED: BRANCH  12  13
DOCKED: ATOM     13  C   UNL     1     -42.060 -20.374  10.531 -0.02 +0.00    +0.038 C  
DOCKED: BRANCH  13  14
DOCKED: ATOM     14  C   UNL     1     -41.509 -19.104  11.176 -0.00 +0.00    +0.251 C  
DOCKED: BRANCH  14  15
DOCKED: ATOM     15  N   UNL     1     -41.847 -17.937  10.369 -0.00 +0.00    +0.141 N  
DOCKED: ATOM     16  C   UNL     1     -42.806 -17.084  11.072 +0.00 +0.00    +0.285 C  
DOCKED: ATOM     17  C   UNL     1     -40.643 -17.177  10.032 -0.00 +0.00    +0.285 C  
DOCKED: ENDBRANCH  14  15
DOCKED: ENDBRANCH  13  14
DOCKED: ENDBRANCH  12  13
DOCKED: ENDBRANCH   2  12
DOCKED: BRANCH   2  18
DOCKED: ATOM     18  C   UNL     1     -43.202 -18.888   7.349 -0.17 +0.00    +0.006 A  
DOCKED: ATOM     19  C   UNL     1     -44.485 -18.404   7.599 -0.14 +0.00    +0.001 A  
DOCKED: ATOM     20  C   UNL     1     -44.964 -17.304   6.887 -0.15 +0.00    +0.029 A  
DOCKED: ATOM     21  C   UNL     1     -44.161 -16.690   5.928 -0.13 +0.00    +0.140 A  
DOCKED: ATOM     22  C   UNL     1     -42.877 -17.175   5.678 -0.14 +0.00    +0.029 A  
DOCKED: ATOM     23  F   UNL     1     -44.621 -15.633   5.246 -0.02 -0.00    -0.204 F  
DOCKED: ATOM     24  C   UNL     1     -42.397 -18.276   6.389 -0.18 +0.00    +0.001 A  
DOCKED: ENDBRANCH   2  18
DOCKED: TORSDOF 5
DOCKED: TER
DOCKED: ENDMDL
________________________________________________________________________________


    FINAL DOCKED STATE:
    ________________________


Run:   176 / 512
Time taken for this run:   0.002s

DOCKED: MODEL        176
DOCKED: USER    Run = 176
DOCKED: USER
DOCKED: USER    Estimated Free Energy of Binding    =  -4.11 kcal/mol  [=(1)+(2)+(3)-(4)]
DOCKED: USER
DOCKED: USER    (1) Final Intermolecular Energy     =  -5.60 kcal/mol
DOCKED: USER        vdW + Hbond + desolv Energy     =  -5.60 kcal/mol
DOCKED: USER        Electrostatic Energy            =  +0.00 kcal/mol
DOCKED: USER        Moving Ligand-Fixed Receptor    =  -5.60 kcal/mol
DOCKED: USER        Moving Ligand-Moving Receptor   =  +0.00 kcal/mol
DOCKED: USER    (2) Final Total Internal Energy     =  -1.41 kcal/mol
DOCKED: USER    (3) Torsional Free Energy           =  +1.49 kcal/mol
DOCKED: USER    (4) Unbound System's Energy         =  -1.41 kcal/mol
DOCKED: USER
DOCKED: USER
DOCKED: REMARK  5 active torsions:
DOCKED: REMARK  status: ('A' for Active; 'I' for Inactive)
DOCKED: REMARK    1  A    between atoms: C_2  and  C_19 
DOCKED: REMARK    2  A    between atoms: C_2  and  C_11 
DOCKED: REMARK    3  A    between atoms: C_19  and  C_20 
DOCKED: REMARK    4  A    between atoms: C_20  and  C_21 
DOCKED: REMARK    5  A    between atoms: C_21  and  N_22 
DOCKED: USER                              x       y       z     vdW  Elec       q    Type
DOCKED: USER                           _______ _______ _______ _____ _____    ______ ____
DOCKED: ROOT
DOCKED: ATOM      1  O   UNL     1     -43.935 -19.520   7.795 -0.05 -0.00    -0.346 OA 
DOCKED: ATOM      2  C   UNL     1     -42.586 -19.575   7.229 -0.18 +0.00    +0.130 C  
DOCKED: ATOM      3  C   UNL     1     -42.453 -20.994   6.756 -0.23 +0.00    +0.004 A  
DOCKED: ATOM      4  C   UNL     1     -43.657 -21.661   6.934 -0.22 +0.00    +0.006 A  
DOCKED: ATOM      5  C   UNL     1     -44.659 -20.741   7.517 -0.16 +0.00    +0.169 C  
DOCKED: ATOM      6  C   UNL     1     -41.357 -21.639   6.202 -0.27 -0.00    -0.001 A  
DOCKED: ATOM      7  C   UNL     1     -43.805 -22.989   6.571 -0.24 +0.00    +0.008 A  
DOCKED: ATOM      8  C   UNL     1     -41.490 -22.979   5.835 -0.32 +0.00    +0.010 A  
DOCKED: ATOM      9  C   UNL     1     -42.708 -23.650   6.018 -0.28 +0.00    +0.068 A  
DOCKED: ATOM     10  N   UNL     1     -42.922 -26.136   5.321 -2.60 -0.00    -0.191 NA 
DOCKED: ATOM     11  C   UNL     1     -42.826 -25.022   5.634 -0.38 +0.00    +0.101 C  
DOCKED: ENDROOT
DOCKED: BRANCH   2  12
DOCKED: ATOM     12  C   UNL     1     -42.497 -18.561   6.095 -0.14 +0.00    +0.038 C  
DOCKED: BRANCH  12  13
DOCKED: ATOM     13  C   UNL     1     -43.701 -17.621   6.093 -0.20 +0.00    +0.038 C  
DOCKED: BRANCH  13  14
DOCKED: ATOM     14  C   UNL     1     -43.601 -16.597   7.222 -0.05 +0.00    +0.251 C  
DOCKED: BRANCH  14  15
DOCKED: ATOM     15  N   UNL     1     -44.926 -16.109   7.583 -0.04 +0.00    +0.141 N  
DOCKED: ATOM     16  C   UNL     1     -45.894 -16.414   6.528 -0.07 +0.00    +0.285 C  
DOCKED: ATOM     17  C   UNL     1     -45.361 -16.692   8.854 -0.00 +0.00    +0.285 C  
DOCKED: ENDBRANCH  14  15
DOCKED: ENDBRANCH  13  14
DOCKED: ENDBRANCH  12  13
DOCKED: ENDBRANCH   2  12
DOCKED: BRANCH   2  18
DOCKED: ATOM     18  C   UNL     1     -41.637 -19.238   8.330 -0.07 +0.00    +0.006 A  
DOCKED: ATOM     19  C   UNL     1     -41.830 -19.771   9.604 -0.03 +0.00    +0.001 A  
DOCKED: ATOM     20  C   UNL     1     -40.942 -19.454  10.633 -0.01 +0.00    +0.029 A  
DOCKED: ATOM     21  C   UNL     1     -39.864 -18.606  10.386 -0.00 +0.00    +0.140 A  
DOCKED: ATOM     22  C   UNL     1     -39.671 -18.073   9.112 -0.02 +0.00    +0.029 A  
DOCKED: ATOM     23  F   UNL     1     -39.010 -18.303  11.373 +0.00 -0.00    -0.204 F  
DOCKED: ATOM     24  C   UNL     1     -40.559 -18.389   8.082 -0.05 +0.00    +0.001 A  
DOCKED: ENDBRANCH   2  18
DOCKED: TORSDOF 5
DOCKED: TER
DOCKED: ENDMDL
________________________________________________________________________________


    FINAL DOCKED STATE:
    ________________________


Run:   177 / 512
Time taken for this run:   0.002s

DOCKED: MODEL        177
DOCKED: USER    Run = 177
DOCKED: USER
DOCKED: USER    Estimated Free Energy of Binding    =  -5.01 kcal/mol  [=(1)+(2)+(3)-(4)]
DOCKED: USER
DOCKED: USER    (1) Final Intermolecular Energy     =  -6.51 kcal/mol
DOCKED: USER        vdW + Hbond + desolv Energy     =  -6.51 kcal/mol
DOCKED: USER        Electrostatic Energy            =  +0.00 kcal/mol
DOCKED: USER        Moving Ligand-Fixed Receptor    =  -6.51 kcal/mol
DOCKED: USER        Moving Ligand-Moving Receptor   =  +0.00 kcal/mol
DOCKED: USER    (2) Final Total Internal Energy     =  -1.23 kcal/mol
DOCKED: USER    (3) Torsional Free Energy           =  +1.49 kcal/mol
DOCKED: USER    (4) Unbound System's Energy         =  -1.23 kcal/mol
DOCKED: USER
DOCKED: USER
DOCKED: REMARK  5 active torsions:
DOCKED: REMARK  status: ('A' for Active; 'I' for Inactive)
DOCKED: REMARK    1  A    between atoms: C_2  and  C_19 
DOCKED: REMARK    2  A    between atoms: C_2  and  C_11 
DOCKED: REMARK    3  A    between atoms: C_19  and  C_20 
DOCKED: REMARK    4  A    between atoms: C_20  and  C_21 
DOCKED: REMARK    5  A    between atoms: C_21  and  N_22 
DOCKED: USER                              x       y       z     vdW  Elec       q    Type
DOCKED: USER                           _______ _______ _______ _____ _____    ______ ____
DOCKED: ROOT
DOCKED: ATOM      1  O   UNL     1     -40.852 -23.621   7.835 -0.10 -0.00    -0.346 OA 
DOCKED: ATOM      2  C   UNL     1     -42.309 -23.510   7.909 -0.15 +0.00    +0.130 C  
DOCKED: ATOM      3  C   UNL     1     -42.762 -23.769   6.502 -0.28 +0.00    +0.004 A  
DOCKED: ATOM      4  C   UNL     1     -41.671 -24.108   5.715 -0.40 +0.00    +0.006 A  
DOCKED: ATOM      5  C   UNL     1     -40.440 -24.109   6.537 -0.15 +0.00    +0.169 C  
DOCKED: ATOM      6  C   UNL     1     -44.040 -23.720   5.963 -0.29 -0.00    -0.001 A  
DOCKED: ATOM      7  C   UNL     1     -41.816 -24.404   4.370 -0.24 +0.00    +0.008 A  
DOCKED: ATOM      8  C   UNL     1     -44.202 -24.012   4.608 -0.27 +0.00    +0.010 A  
DOCKED: ATOM      9  C   UNL     1     -43.096 -24.352   3.816 -0.41 +0.00    +0.068 A  
DOCKED: ATOM     10  N   UNL     1     -43.432 -24.892   1.304 -2.88 -0.00    -0.191 NA 
DOCKED: ATOM     11  C   UNL     1     -43.281 -24.649   2.430 -0.29 +0.00    +0.101 C  
DOCKED: ENDROOT
DOCKED: BRANCH   2  12
DOCKED: ATOM     12  C   UNL     1     -42.823 -24.549   8.899 -0.22 +0.00    +0.038 C  
DOCKED: BRANCH  12  13
DOCKED: ATOM     13  C   UNL     1     -41.909 -24.656  10.119 -0.22 +0.00    +0.038 C  
DOCKED: BRANCH  13  14
DOCKED: ATOM     14  C   UNL     1     -42.647 -24.256  11.395 -0.07 +0.00    +0.251 C  
DOCKED: BRANCH  14  15
DOCKED: ATOM     15  N   UNL     1     -44.085 -24.215  11.157 -0.07 +0.00    +0.141 N  
DOCKED: ATOM     16  C   UNL     1     -44.668 -25.552  11.281 -0.06 +0.00    +0.285 C  
DOCKED: ATOM     17  C   UNL     1     -44.735 -23.290  12.087 -0.00 +0.00    +0.285 C  
DOCKED: ENDBRANCH  14  15
DOCKED: ENDBRANCH  13  14
DOCKED: ENDBRANCH  12  13
DOCKED: ENDBRANCH   2  12
DOCKED: BRANCH   2  18
DOCKED: ATOM     18  C   UNL     1     -42.618 -22.125   8.374 -0.10 +0.00    +0.006 A  
DOCKED: ATOM     19  C   UNL     1     -41.645 -21.130   8.293 -0.10 +0.00    +0.001 A  
DOCKED: ATOM     20  C   UNL     1     -41.934 -19.837   8.729 -0.05 +0.00    +0.029 A  
DOCKED: ATOM     21  C   UNL     1     -43.196 -19.540   9.242 -0.02 +0.00    +0.140 A  
DOCKED: ATOM     22  C   UNL     1     -44.169 -20.536   9.322 -0.04 +0.00    +0.029 A  
DOCKED: ATOM     23  F   UNL     1     -43.474 -18.297   9.658 +0.00 -0.00    -0.204 F  
DOCKED: ATOM     24  C   UNL     1     -43.880 -21.830   8.888 -0.07 +0.00    +0.001 A  
DOCKED: ENDBRANCH   2  18
DOCKED: TORSDOF 5
DOCKED: TER
DOCKED: ENDMDL
________________________________________________________________________________


    FINAL DOCKED STATE:
    ________________________


Run:   178 / 512
Time taken for this run:   0.002s

DOCKED: MODEL        178
DOCKED: USER    Run = 178
DOCKED: USER
DOCKED: USER    Estimated Free Energy of Binding    =  -4.06 kcal/mol  [=(1)+(2)+(3)-(4)]
DOCKED: USER
DOCKED: USER    (1) Final Intermolecular Energy     =  -5.55 kcal/mol
DOCKED: USER        vdW + Hbond + desolv Energy     =  -5.55 kcal/mol
DOCKED: USER        Electrostatic Energy            =  +0.00 kcal/mol
DOCKED: USER        Moving Ligand-Fixed Receptor    =  -5.55 kcal/mol
DOCKED: USER        Moving Ligand-Moving Receptor   =  +0.00 kcal/mol
DOCKED: USER    (2) Final Total Internal Energy     =  -1.20 kcal/mol
DOCKED: USER    (3) Torsional Free Energy           =  +1.49 kcal/mol
DOCKED: USER    (4) Unbound System's Energy         =  -1.20 kcal/mol
DOCKED: USER
DOCKED: USER
DOCKED: REMARK  5 active torsions:
DOCKED: REMARK  status: ('A' for Active; 'I' for Inactive)
DOCKED: REMARK    1  A    between atoms: C_2  and  C_19 
DOCKED: REMARK    2  A    between atoms: C_2  and  C_11 
DOCKED: REMARK    3  A    between atoms: C_19  and  C_20 
DOCKED: REMARK    4  A    between atoms: C_20  and  C_21 
DOCKED: REMARK    5  A    between atoms: C_21  and  N_22 
DOCKED: USER                              x       y       z     vdW  Elec       q    Type
DOCKED: USER                           _______ _______ _______ _____ _____    ______ ____
DOCKED: ROOT
DOCKED: ATOM      1  O   UNL     1     -41.559 -19.453   7.234 -0.06 -0.00    -0.346 OA 
DOCKED: ATOM      2  C   UNL     1     -40.420 -20.312   7.563 -0.14 +0.00    +0.130 C  
DOCKED: ATOM      3  C   UNL     1     -40.874 -21.684   7.155 -0.23 +0.00    +0.004 A  
DOCKED: ATOM      4  C   UNL     1     -42.118 -21.601   6.545 -0.27 +0.00    +0.006 A  
DOCKED: ATOM      5  C   UNL     1     -42.561 -20.190   6.496 -0.17 +0.00    +0.169 C  
DOCKED: ATOM      6  C   UNL     1     -40.233 -22.905   7.302 -0.23 -0.00    -0.001 A  
DOCKED: ATOM      7  C   UNL     1     -42.762 -22.730   6.068 -0.29 +0.00    +0.008 A  
DOCKED: ATOM      8  C   UNL     1     -40.872 -24.053   6.830 -0.34 +0.00    +0.010 A  
DOCKED: ATOM      9  C   UNL     1     -42.130 -23.965   6.215 -0.30 +0.00    +0.068 A  
DOCKED: ATOM     10  N   UNL     1     -43.285 -26.115   5.344 -2.55 -0.00    -0.191 NA 
DOCKED: ATOM     11  C   UNL     1     -42.768 -25.151   5.736 -0.31 +0.00    +0.101 C  
DOCKED: ENDROOT
DOCKED: BRANCH   2  12
DOCKED: ATOM     12  C   UNL     1     -39.208 -19.829   6.775 -0.17 +0.00    +0.038 C  
DOCKED: BRANCH  12  13
DOCKED: ATOM     13  C   UNL     1     -39.602 -18.785   5.732 -0.11 +0.00    +0.038 C  
DOCKED: BRANCH  13  14
DOCKED: ATOM     14  C   UNL     1     -39.668 -17.389   6.350 -0.06 +0.00    +0.251 C  
DOCKED: BRANCH  14  15
DOCKED: ATOM     15  N   UNL     1     -40.192 -16.431   5.385 -0.07 +0.00    +0.141 N  
DOCKED: ATOM     16  C   UNL     1     -41.649 -16.535   5.293 -0.10 +0.00    +0.285 C  
DOCKED: ATOM     17  C   UNL     1     -39.802 -15.067   5.748 -0.02 +0.00    +0.285 C  
DOCKED: ENDBRANCH  14  15
DOCKED: ENDBRANCH  13  14
DOCKED: ENDBRANCH  12  13
DOCKED: ENDBRANCH   2  12
DOCKED: BRANCH   2  18
DOCKED: ATOM     18  C   UNL     1     -40.191 -20.188   9.032 -0.05 +0.00    +0.006 A  
DOCKED: ATOM     19  C   UNL     1     -41.271 -19.999   9.893 -0.02 +0.00    +0.001 A  
DOCKED: ATOM     20  C   UNL     1     -41.055 -19.883  11.267 -0.00 +0.00    +0.029 A  
DOCKED: ATOM     21  C   UNL     1     -39.760 -19.957  11.777 -0.00 +0.00    +0.140 A  
DOCKED: ATOM     22  C   UNL     1     -38.680 -20.147  10.916 -0.01 +0.00    +0.029 A  
DOCKED: ATOM     23  F   UNL     1     -39.553 -19.848  13.096 +0.00 -0.00    -0.204 F  
DOCKED: ATOM     24  C   UNL     1     -38.895 -20.263   9.542 -0.04 +0.00    +0.001 A  
DOCKED: ENDBRANCH   2  18
DOCKED: TORSDOF 5
DOCKED: TER
DOCKED: ENDMDL
________________________________________________________________________________


    FINAL DOCKED STATE:
    ________________________


Run:   179 / 512
Time taken for this run:   0.002s

DOCKED: MODEL        179
DOCKED: USER    Run = 179
DOCKED: USER
DOCKED: USER    Estimated Free Energy of Binding    =  -4.16 kcal/mol  [=(1)+(2)+(3)-(4)]
DOCKED: USER
DOCKED: USER    (1) Final Intermolecular Energy     =  -5.65 kcal/mol
DOCKED: USER        vdW + Hbond + desolv Energy     =  -5.65 kcal/mol
DOCKED: USER        Electrostatic Energy            =  +0.00 kcal/mol
DOCKED: USER        Moving Ligand-Fixed Receptor    =  -5.65 kcal/mol
DOCKED: USER        Moving Ligand-Moving Receptor   =  +0.00 kcal/mol
DOCKED: USER    (2) Final Total Internal Energy     =  -1.29 kcal/mol
DOCKED: USER    (3) Torsional Free Energy           =  +1.49 kcal/mol
DOCKED: USER    (4) Unbound System's Energy         =  -1.29 kcal/mol
DOCKED: USER
DOCKED: USER
DOCKED: REMARK  5 active torsions:
DOCKED: REMARK  status: ('A' for Active; 'I' for Inactive)
DOCKED: REMARK    1  A    between atoms: C_2  and  C_19 
DOCKED: REMARK    2  A    between atoms: C_2  and  C_11 
DOCKED: REMARK    3  A    between atoms: C_19  and  C_20 
DOCKED: REMARK    4  A    between atoms: C_20  and  C_21 
DOCKED: REMARK    5  A    between atoms: C_21  and  N_22 
DOCKED: USER                              x       y       z     vdW  Elec       q    Type
DOCKED: USER                           _______ _______ _______ _____ _____    ______ ____
DOCKED: ROOT
DOCKED: ATOM      1  O   UNL     1     -42.434 -21.867   8.803 -0.00 -0.00    -0.346 OA 
DOCKED: ATOM      2  C   UNL     1     -41.188 -22.580   8.521 -0.12 +0.00    +0.130 C  
DOCKED: ATOM      3  C   UNL     1     -41.472 -23.307   7.238 -0.27 +0.00    +0.004 A  
DOCKED: ATOM      4  C   UNL     1     -42.730 -22.954   6.770 -0.25 +0.00    +0.006 A  
DOCKED: ATOM      5  C   UNL     1     -43.351 -21.973   7.688 -0.12 +0.00    +0.169 C  
DOCKED: ATOM      6  C   UNL     1     -40.677 -24.201   6.536 -0.35 -0.00    -0.001 A  
DOCKED: ATOM      7  C   UNL     1     -43.235 -23.481   5.593 -0.31 +0.00    +0.008 A  
DOCKED: ATOM      8  C   UNL     1     -41.174 -24.745   5.350 -0.10 +0.00    +0.010 A  
DOCKED: ATOM      9  C   UNL     1     -42.447 -24.386   4.882 -0.40 +0.00    +0.068 A  
DOCKED: ATOM     10  N   UNL     1     -43.337 -25.410   2.674 -1.55 -0.00    -0.191 NA 
DOCKED: ATOM     11  C   UNL     1     -42.938 -24.951   3.665 -0.52 +0.00    +0.101 C  
DOCKED: ENDROOT
DOCKED: BRANCH   2  12
DOCKED: ATOM     12  C   UNL     1     -40.066 -21.558   8.387 -0.15 +0.00    +0.038 C  
DOCKED: BRANCH  12  13
DOCKED: ATOM     13  C   UNL     1     -40.044 -20.934   6.993 -0.21 +0.00    +0.038 C  
DOCKED: BRANCH  13  14
DOCKED: ATOM     14  C   UNL     1     -40.163 -19.413   7.069 -0.11 +0.00    +0.251 C  
DOCKED: BRANCH  14  15
DOCKED: ATOM     15  N   UNL     1     -41.211 -19.033   8.009 -0.05 +0.00    +0.141 N  
DOCKED: ATOM     16  C   UNL     1     -40.892 -17.757   8.649 -0.01 +0.00    +0.285 C  
DOCKED: ATOM     17  C   UNL     1     -42.506 -18.952   7.331 -0.12 +0.00    +0.285 C  
DOCKED: ENDBRANCH  14  15
DOCKED: ENDBRANCH  13  14
DOCKED: ENDBRANCH  12  13
DOCKED: ENDBRANCH   2  12
DOCKED: BRANCH   2  18
DOCKED: ATOM     18  C   UNL     1     -40.943 -23.501   9.669 -0.14 +0.00    +0.006 A  
DOCKED: ATOM     19  C   UNL     1     -41.645 -24.702   9.761 -0.22 +0.00    +0.001 A  
DOCKED: ATOM     20  C   UNL     1     -41.416 -25.562  10.836 -0.18 +0.00    +0.029 A  
DOCKED: ATOM     21  C   UNL     1     -40.484 -25.221  11.815 -0.17 +0.00    +0.140 A  
DOCKED: ATOM     22  C   UNL     1     -39.782 -24.020  11.722 -0.12 +0.00    +0.029 A  
DOCKED: ATOM     23  F   UNL     1     -40.263 -26.048  12.846 -0.07 -0.00    -0.204 F  
DOCKED: ATOM     24  C   UNL     1     -40.012 -23.158  10.648 -0.10 +0.00    +0.001 A  
DOCKED: ENDBRANCH   2  18
DOCKED: TORSDOF 5
DOCKED: TER
DOCKED: ENDMDL
________________________________________________________________________________


    FINAL DOCKED STATE:
    ________________________


Run:   180 / 512
Time taken for this run:   0.002s

DOCKED: MODEL        180
DOCKED: USER    Run = 180
DOCKED: USER
DOCKED: USER    Estimated Free Energy of Binding    =  -4.51 kcal/mol  [=(1)+(2)+(3)-(4)]
DOCKED: USER
DOCKED: USER    (1) Final Intermolecular Energy     =  -6.00 kcal/mol
DOCKED: USER        vdW + Hbond + desolv Energy     =  -6.00 kcal/mol
DOCKED: USER        Electrostatic Energy            =  +0.00 kcal/mol
DOCKED: USER        Moving Ligand-Fixed Receptor    =  -6.00 kcal/mol
DOCKED: USER        Moving Ligand-Moving Receptor   =  +0.00 kcal/mol
DOCKED: USER    (2) Final Total Internal Energy     =  -0.86 kcal/mol
DOCKED: USER    (3) Torsional Free Energy           =  +1.49 kcal/mol
DOCKED: USER    (4) Unbound System's Energy         =  -0.86 kcal/mol
DOCKED: USER
DOCKED: USER
DOCKED: REMARK  5 active torsions:
DOCKED: REMARK  status: ('A' for Active; 'I' for Inactive)
DOCKED: REMARK    1  A    between atoms: C_2  and  C_19 
DOCKED: REMARK    2  A    between atoms: C_2  and  C_11 
DOCKED: REMARK    3  A    between atoms: C_19  and  C_20 
DOCKED: REMARK    4  A    between atoms: C_20  and  C_21 
DOCKED: REMARK    5  A    between atoms: C_21  and  N_22 
DOCKED: USER                              x       y       z     vdW  Elec       q    Type
DOCKED: USER                           _______ _______ _______ _____ _____    ______ ____
DOCKED: ROOT
DOCKED: ATOM      1  O   UNL     1     -38.497 -15.819   0.386 -0.08 -0.00    -0.346 OA 
DOCKED: ATOM      2  C   UNL     1     -37.261 -15.536  -0.346 -0.15 +0.00    +0.130 C  
DOCKED: ATOM      3  C   UNL     1     -37.730 -14.813  -1.575 -0.23 +0.00    +0.004 A  
DOCKED: ATOM      4  C   UNL     1     -39.099 -14.603  -1.500 -0.30 +0.00    +0.006 A  
DOCKED: ATOM      5  C   UNL     1     -39.623 -15.152  -0.229 -0.25 +0.00    +0.169 C  
DOCKED: ATOM      6  C   UNL     1     -37.000 -14.367  -2.668 -0.18 -0.00    -0.001 A  
DOCKED: ATOM      7  C   UNL     1     -39.784 -13.947  -2.509 -0.37 +0.00    +0.008 A  
DOCKED: ATOM      8  C   UNL     1     -37.677 -13.708  -3.695 -0.26 +0.00    +0.010 A  
DOCKED: ATOM      9  C   UNL     1     -39.062 -13.499  -3.616 -0.31 +0.00    +0.068 A  
DOCKED: ATOM     10  N   UNL     1     -40.287 -12.268  -5.539 -2.56 -0.00    -0.191 NA 
DOCKED: ATOM     11  C   UNL     1     -39.738 -12.821  -4.677 -0.33 +0.00    +0.101 C  
DOCKED: ENDROOT
DOCKED: BRANCH   2  12
DOCKED: ATOM     12  C   UNL     1     -36.361 -14.681   0.539 -0.15 +0.00    +0.038 C  
DOCKED: BRANCH  12  13
DOCKED: ATOM     13  C   UNL     1     -35.131 -14.195  -0.224 -0.11 +0.00    +0.038 C  
DOCKED: BRANCH  13  14
DOCKED: ATOM     14  C   UNL     1     -34.278 -13.268   0.641 -0.08 +0.00    +0.251 C  
DOCKED: BRANCH  14  15
DOCKED: ATOM     15  N   UNL     1     -33.058 -12.896  -0.065 -0.03 +0.00    +0.141 N  
DOCKED: ATOM     16  C   UNL     1     -31.997 -12.556   0.884 -0.01 +0.00    +0.285 C  
DOCKED: ATOM     17  C   UNL     1     -32.622 -13.979  -0.948 -0.00 +0.00    +0.285 C  
DOCKED: ENDBRANCH  14  15
DOCKED: ENDBRANCH  13  14
DOCKED: ENDBRANCH  12  13
DOCKED: ENDBRANCH   2  12
DOCKED: BRANCH   2  18
DOCKED: ATOM     18  C   UNL     1     -36.625 -16.851  -0.651 -0.09 +0.00    +0.006 A  
DOCKED: ATOM     19  C   UNL     1     -36.342 -17.197  -1.972 -0.12 +0.00    +0.001 A  
DOCKED: ATOM     20  C   UNL     1     -35.747 -18.427  -2.256 -0.11 +0.00    +0.029 A  
DOCKED: ATOM     21  C   UNL     1     -35.435 -19.307  -1.221 -0.09 +0.00    +0.140 A  
DOCKED: ATOM     22  C   UNL     1     -35.718 -18.959   0.100 -0.08 +0.00    +0.029 A  
DOCKED: ATOM     23  F   UNL     1     -34.862 -20.486  -1.494 -0.04 -0.00    -0.204 F  
DOCKED: ATOM     24  C   UNL     1     -36.313 -17.729   0.385 -0.06 +0.00    +0.001 A  
DOCKED: ENDBRANCH   2  18
DOCKED: TORSDOF 5
DOCKED: TER
DOCKED: ENDMDL
________________________________________________________________________________


    FINAL DOCKED STATE:
    ________________________


Run:   181 / 512
Time taken for this run:   0.002s

DOCKED: MODEL        181
DOCKED: USER    Run = 181
DOCKED: USER
DOCKED: USER    Estimated Free Energy of Binding    =  -3.98 kcal/mol  [=(1)+(2)+(3)-(4)]
DOCKED: USER
DOCKED: USER    (1) Final Intermolecular Energy     =  -5.47 kcal/mol
DOCKED: USER        vdW + Hbond + desolv Energy     =  -5.47 kcal/mol
DOCKED: USER        Electrostatic Energy            =  +0.00 kcal/mol
DOCKED: USER        Moving Ligand-Fixed Receptor    =  -5.47 kcal/mol
DOCKED: USER        Moving Ligand-Moving Receptor   =  +0.00 kcal/mol
DOCKED: USER    (2) Final Total Internal Energy     =  -1.32 kcal/mol
DOCKED: USER    (3) Torsional Free Energy           =  +1.49 kcal/mol
DOCKED: USER    (4) Unbound System's Energy         =  -1.32 kcal/mol
DOCKED: USER
DOCKED: USER
DOCKED: REMARK  5 active torsions:
DOCKED: REMARK  status: ('A' for Active; 'I' for Inactive)
DOCKED: REMARK    1  A    between atoms: C_2  and  C_19 
DOCKED: REMARK    2  A    between atoms: C_2  and  C_11 
DOCKED: REMARK    3  A    between atoms: C_19  and  C_20 
DOCKED: REMARK    4  A    between atoms: C_20  and  C_21 
DOCKED: REMARK    5  A    between atoms: C_21  and  N_22 
DOCKED: USER                              x       y       z     vdW  Elec       q    Type
DOCKED: USER                           _______ _______ _______ _____ _____    ______ ____
DOCKED: ROOT
DOCKED: ATOM      1  O   UNL     1     -37.340 -16.176   0.223 -0.03 -0.00    -0.346 OA 
DOCKED: ATOM      2  C   UNL     1     -36.503 -15.001  -0.022 -0.13 +0.00    +0.130 C  
DOCKED: ATOM      3  C   UNL     1     -37.179 -14.312  -1.171 -0.14 +0.00    +0.004 A  
DOCKED: ATOM      4  C   UNL     1     -38.358 -14.972  -1.484 -0.28 +0.00    +0.006 A  
DOCKED: ATOM      5  C   UNL     1     -38.549 -16.119  -0.569 -0.21 +0.00    +0.169 C  
DOCKED: ATOM      6  C   UNL     1     -36.786 -13.183  -1.877 -0.16 -0.00    -0.001 A  
DOCKED: ATOM      7  C   UNL     1     -39.180 -14.534  -2.508 -0.19 +0.00    +0.008 A  
DOCKED: ATOM      8  C   UNL     1     -37.602 -12.731  -2.915 -0.28 +0.00    +0.010 A  
DOCKED: ATOM      9  C   UNL     1     -38.793 -13.403  -3.229 -0.35 +0.00    +0.068 A  
DOCKED: ATOM     10  N   UNL     1     -40.287 -12.534  -5.160 -2.50 -0.00    -0.191 NA 
DOCKED: ATOM     11  C   UNL     1     -39.617 -12.924  -4.294 -0.42 +0.00    +0.101 C  
DOCKED: ENDROOT
DOCKED: BRANCH   2  12
DOCKED: ATOM     12  C   UNL     1     -36.476 -14.155   1.245 -0.01 +0.00    +0.038 C  
DOCKED: BRANCH  12  13
DOCKED: ATOM     13  C   UNL     1     -36.435 -15.028   2.498 -0.12 +0.00    +0.038 C  
DOCKED: BRANCH  13  14
DOCKED: ATOM     14  C   UNL     1     -37.608 -14.713   3.425 -0.11 +0.00    +0.251 C  
DOCKED: BRANCH  14  15
DOCKED: ATOM     15  N   UNL     1     -38.866 -14.783   2.692 -0.17 +0.00    +0.141 N  
DOCKED: ATOM     16  C   UNL     1     -39.430 -16.132   2.763 -0.10 +0.00    +0.285 C  
DOCKED: ATOM     17  C   UNL     1     -39.822 -13.805   3.216 -0.17 +0.00    +0.285 C  
DOCKED: ENDBRANCH  14  15
DOCKED: ENDBRANCH  13  14
DOCKED: ENDBRANCH  12  13
DOCKED: ENDBRANCH   2  12
DOCKED: BRANCH   2  18
DOCKED: ATOM     18  C   UNL     1     -35.139 -15.501  -0.364 -0.05 +0.00    +0.006 A  
DOCKED: ATOM     19  C   UNL     1     -34.880 -16.871  -0.369 -0.02 +0.00    +0.001 A  
DOCKED: ATOM     20  C   UNL     1     -33.604 -17.338  -0.689 -0.00 +0.00    +0.029 A  
DOCKED: ATOM     21  C   UNL     1     -32.591 -16.434  -1.004 -0.00 +0.00    +0.140 A  
DOCKED: ATOM     22  C   UNL     1     -32.850 -15.064  -1.000 -0.01 +0.00    +0.029 A  
DOCKED: ATOM     23  F   UNL     1     -31.367 -16.882  -1.313 +0.00 -0.00    -0.204 F  
DOCKED: ATOM     24  C   UNL     1     -34.126 -14.597  -0.679 -0.04 +0.00    +0.001 A  
DOCKED: ENDBRANCH   2  18
DOCKED: TORSDOF 5
DOCKED: TER
DOCKED: ENDMDL
________________________________________________________________________________


    FINAL DOCKED STATE:
    ________________________


Run:   182 / 512
Time taken for this run:   0.002s

DOCKED: MODEL        182
DOCKED: USER    Run = 182
DOCKED: USER
DOCKED: USER    Estimated Free Energy of Binding    =  -3.75 kcal/mol  [=(1)+(2)+(3)-(4)]
DOCKED: USER
DOCKED: USER    (1) Final Intermolecular Energy     =  -5.24 kcal/mol
DOCKED: USER        vdW + Hbond + desolv Energy     =  -5.24 kcal/mol
DOCKED: USER        Electrostatic Energy            =  +0.00 kcal/mol
DOCKED: USER        Moving Ligand-Fixed Receptor    =  -5.24 kcal/mol
DOCKED: USER        Moving Ligand-Moving Receptor   =  +0.00 kcal/mol
DOCKED: USER    (2) Final Total Internal Energy     =  -1.44 kcal/mol
DOCKED: USER    (3) Torsional Free Energy           =  +1.49 kcal/mol
DOCKED: USER    (4) Unbound System's Energy         =  -1.44 kcal/mol
DOCKED: USER
DOCKED: USER
DOCKED: REMARK  5 active torsions:
DOCKED: REMARK  status: ('A' for Active; 'I' for Inactive)
DOCKED: REMARK    1  A    between atoms: C_2  and  C_19 
DOCKED: REMARK    2  A    between atoms: C_2  and  C_11 
DOCKED: REMARK    3  A    between atoms: C_19  and  C_20 
DOCKED: REMARK    4  A    between atoms: C_20  and  C_21 
DOCKED: REMARK    5  A    between atoms: C_21  and  N_22 
DOCKED: USER                              x       y       z     vdW  Elec       q    Type
DOCKED: USER                           _______ _______ _______ _____ _____    ______ ____
DOCKED: ROOT
DOCKED: ATOM      1  O   UNL     1     -34.537 -14.565  -2.116 +0.00 -0.00    -0.346 OA 
DOCKED: ATOM      2  C   UNL     1     -35.131 -13.422  -1.423 -0.09 +0.00    +0.130 C  
DOCKED: ATOM      3  C   UNL     1     -36.310 -13.057  -2.277 -0.16 +0.00    +0.004 A  
DOCKED: ATOM      4  C   UNL     1     -36.444 -13.978  -3.307 -0.13 +0.00    +0.006 A  
DOCKED: ATOM      5  C   UNL     1     -35.387 -15.008  -3.199 -0.04 +0.00    +0.169 C  
DOCKED: ATOM      6  C   UNL     1     -37.201 -12.001  -2.147 -0.16 -0.00    -0.001 A  
DOCKED: ATOM      7  C   UNL     1     -37.462 -13.874  -4.239 -0.23 +0.00    +0.008 A  
DOCKED: ATOM      8  C   UNL     1     -38.230 -11.880  -3.082 -0.28 +0.00    +0.010 A  
DOCKED: ATOM      9  C   UNL     1     -38.361 -12.812  -4.122 -0.35 +0.00    +0.068 A  
DOCKED: ATOM     10  N   UNL     1     -40.287 -12.561  -5.837 -2.36 -0.00    -0.191 NA 
DOCKED: ATOM     11  C   UNL     1     -39.422 -12.673  -5.068 -0.38 +0.00    +0.101 C  
DOCKED: ENDROOT
DOCKED: BRANCH   2  12
DOCKED: ATOM     12  C   UNL     1     -35.529 -13.862  -0.019 -0.14 +0.00    +0.038 C  
DOCKED: BRANCH  12  13
DOCKED: ATOM     13  C   UNL     1     -36.911 -14.512  -0.010 -0.13 +0.00    +0.038 C  
DOCKED: BRANCH  13  14
DOCKED: ATOM     14  C   UNL     1     -36.804 -16.033  -0.097 -0.07 +0.00    +0.251 C  
DOCKED: BRANCH  14  15
DOCKED: ATOM     15  N   UNL     1     -37.959 -16.584  -0.796 -0.16 +0.00    +0.141 N  
DOCKED: ATOM     16  C   UNL     1     -38.963 -15.546  -1.032 -0.11 +0.00    +0.285 C  
DOCKED: ATOM     17  C   UNL     1     -37.551 -17.193  -2.064 -0.16 +0.00    +0.285 C  
DOCKED: ENDBRANCH  14  15
DOCKED: ENDBRANCH  13  14
DOCKED: ENDBRANCH  12  13
DOCKED: ENDBRANCH   2  12
DOCKED: BRANCH   2  18
DOCKED: ATOM     18  C   UNL     1     -34.092 -12.351  -1.377 -0.07 +0.00    +0.006 A  
DOCKED: ATOM     19  C   UNL     1     -33.037 -12.366  -2.288 -0.02 +0.00    +0.001 A  
DOCKED: ATOM     20  C   UNL     1     -32.066 -11.364  -2.244 -0.01 +0.00    +0.029 A  
DOCKED: ATOM     21  C   UNL     1     -32.152 -10.351  -1.290 -0.01 +0.00    +0.140 A  
DOCKED: ATOM     22  C   UNL     1     -33.209 -10.337  -0.380 -0.05 +0.00    +0.029 A  
DOCKED: ATOM     23  F   UNL     1     -31.221  -9.389  -1.250 +0.00 -0.00    -0.204 F  
DOCKED: ATOM     24  C   UNL     1     -34.180 -11.338  -0.423 -0.11 +0.00    +0.001 A  
DOCKED: ENDBRANCH   2  18
DOCKED: TORSDOF 5
DOCKED: TER
DOCKED: ENDMDL
________________________________________________________________________________


    FINAL DOCKED STATE:
    ________________________


Run:   183 / 512
Time taken for this run:   0.002s

DOCKED: MODEL        183
DOCKED: USER    Run = 183
DOCKED: USER
DOCKED: USER    Estimated Free Energy of Binding    =  -4.80 kcal/mol  [=(1)+(2)+(3)-(4)]
DOCKED: USER
DOCKED: USER    (1) Final Intermolecular Energy     =  -6.29 kcal/mol
DOCKED: USER        vdW + Hbond + desolv Energy     =  -6.29 kcal/mol
DOCKED: USER        Electrostatic Energy            =  +0.00 kcal/mol
DOCKED: USER        Moving Ligand-Fixed Receptor    =  -6.29 kcal/mol
DOCKED: USER        Moving Ligand-Moving Receptor   =  +0.00 kcal/mol
DOCKED: USER    (2) Final Total Internal Energy     =  -1.23 kcal/mol
DOCKED: USER    (3) Torsional Free Energy           =  +1.49 kcal/mol
DOCKED: USER    (4) Unbound System's Energy         =  -1.23 kcal/mol
DOCKED: USER
DOCKED: USER
DOCKED: REMARK  5 active torsions:
DOCKED: REMARK  status: ('A' for Active; 'I' for Inactive)
DOCKED: REMARK    1  A    between atoms: C_2  and  C_19 
DOCKED: REMARK    2  A    between atoms: C_2  and  C_11 
DOCKED: REMARK    3  A    between atoms: C_19  and  C_20 
DOCKED: REMARK    4  A    between atoms: C_20  and  C_21 
DOCKED: REMARK    5  A    between atoms: C_21  and  N_22 
DOCKED: USER                              x       y       z     vdW  Elec       q    Type
DOCKED: USER                           _______ _______ _______ _____ _____    ______ ____
DOCKED: ROOT
DOCKED: ATOM      1  O   UNL     1     -44.180 -22.434   8.318 -0.00 -0.00    -0.346 OA 
DOCKED: ATOM      2  C   UNL     1     -42.746 -22.506   8.035 -0.11 +0.00    +0.130 C  
DOCKED: ATOM      3  C   UNL     1     -42.681 -23.063   6.642 -0.26 +0.00    +0.004 A  
DOCKED: ATOM      4  C   UNL     1     -43.965 -23.193   6.132 -0.26 +0.00    +0.006 A  
DOCKED: ATOM      5  C   UNL     1     -44.953 -22.727   7.131 -0.16 +0.00    +0.169 C  
DOCKED: ATOM      6  C   UNL     1     -41.575 -23.415   5.883 -0.35 -0.00    -0.001 A  
DOCKED: ATOM      7  C   UNL     1     -44.187 -23.681   4.855 -0.15 +0.00    +0.008 A  
DOCKED: ATOM      8  C   UNL     1     -41.782 -23.912   4.596 -0.20 +0.00    +0.010 A  
DOCKED: ATOM      9  C   UNL     1     -43.082 -24.044   4.084 -0.37 +0.00    +0.068 A  
DOCKED: ATOM     10  N   UNL     1     -43.431 -24.965   1.688 -2.65 -0.00    -0.191 NA 
DOCKED: ATOM     11  C   UNL     1     -43.275 -24.553   2.763 -0.29 +0.00    +0.101 C  
DOCKED: ENDROOT
DOCKED: BRANCH   2  12
DOCKED: ATOM     12  C   UNL     1     -42.162 -21.103   8.141 -0.13 +0.00    +0.038 C  
DOCKED: BRANCH  12  13
DOCKED: ATOM     13  C   UNL     1     -43.187 -20.113   8.690 -0.08 +0.00    +0.038 C  
DOCKED: BRANCH  13  14
DOCKED: ATOM     14  C   UNL     1     -43.778 -19.257   7.571 -0.12 +0.00    +0.251 C  
DOCKED: BRANCH  14  15
DOCKED: ATOM     15  N   UNL     1     -45.212 -19.084   7.767 -0.10 +0.00    +0.141 N  
DOCKED: ATOM     16  C   UNL     1     -45.486 -17.869   8.536 -0.02 +0.00    +0.285 C  
DOCKED: ATOM     17  C   UNL     1     -45.907 -19.037   6.479 -0.10 +0.00    +0.285 C  
DOCKED: ENDBRANCH  14  15
DOCKED: ENDBRANCH  13  14
DOCKED: ENDBRANCH  12  13
DOCKED: ENDBRANCH   2  12
DOCKED: BRANCH   2  18
DOCKED: ATOM     18  C   UNL     1     -42.145 -23.417   9.054 -0.12 +0.00    +0.006 A  
DOCKED: ATOM     19  C   UNL     1     -40.835 -23.214   9.484 -0.13 +0.00    +0.001 A  
DOCKED: ATOM     20  C   UNL     1     -40.275 -24.067  10.436 -0.13 +0.00    +0.029 A  
DOCKED: ATOM     21  C   UNL     1     -41.025 -25.120  10.956 -0.18 +0.00    +0.140 A  
DOCKED: ATOM     22  C   UNL     1     -42.336 -25.322  10.526 -0.08 +0.00    +0.029 A  
DOCKED: ATOM     23  F   UNL     1     -40.488 -25.937  11.871 -0.09 -0.00    -0.204 F  
DOCKED: ATOM     24  C   UNL     1     -42.897 -24.470   9.573 -0.17 +0.00    +0.001 A  
DOCKED: ENDBRANCH   2  18
DOCKED: TORSDOF 5
DOCKED: TER
DOCKED: ENDMDL
________________________________________________________________________________


    FINAL DOCKED STATE:
    ________________________


Run:   184 / 512
Time taken for this run:   0.002s

DOCKED: MODEL        184
DOCKED: USER    Run = 184
DOCKED: USER
DOCKED: USER    Estimated Free Energy of Binding    =  -4.34 kcal/mol  [=(1)+(2)+(3)-(4)]
DOCKED: USER
DOCKED: USER    (1) Final Intermolecular Energy     =  -5.83 kcal/mol
DOCKED: USER        vdW + Hbond + desolv Energy     =  -5.83 kcal/mol
DOCKED: USER        Electrostatic Energy            =  +0.00 kcal/mol
DOCKED: USER        Moving Ligand-Fixed Receptor    =  -5.83 kcal/mol
DOCKED: USER        Moving Ligand-Moving Receptor   =  +0.00 kcal/mol
DOCKED: USER    (2) Final Total Internal Energy     =  -1.40 kcal/mol
DOCKED: USER    (3) Torsional Free Energy           =  +1.49 kcal/mol
DOCKED: USER    (4) Unbound System's Energy         =  -1.40 kcal/mol
DOCKED: USER
DOCKED: USER
DOCKED: REMARK  5 active torsions:
DOCKED: REMARK  status: ('A' for Active; 'I' for Inactive)
DOCKED: REMARK    1  A    between atoms: C_2  and  C_19 
DOCKED: REMARK    2  A    between atoms: C_2  and  C_11 
DOCKED: REMARK    3  A    between atoms: C_19  and  C_20 
DOCKED: REMARK    4  A    between atoms: C_20  and  C_21 
DOCKED: REMARK    5  A    between atoms: C_21  and  N_22 
DOCKED: USER                              x       y       z     vdW  Elec       q    Type
DOCKED: USER                           _______ _______ _______ _____ _____    ______ ____
DOCKED: ROOT
DOCKED: ATOM      1  O   UNL     1     -39.076 -20.837   8.136 -0.06 -0.00    -0.346 OA 
DOCKED: ATOM      2  C   UNL     1     -40.378 -20.282   7.765 -0.12 +0.00    +0.130 C  
DOCKED: ATOM      3  C   UNL     1     -41.109 -21.449   7.166 -0.23 +0.00    +0.004 A  
DOCKED: ATOM      4  C   UNL     1     -40.336 -22.595   7.285 -0.23 +0.00    +0.006 A  
DOCKED: ATOM      5  C   UNL     1     -39.064 -22.274   7.971 -0.12 +0.00    +0.169 C  
DOCKED: ATOM      6  C   UNL     1     -42.363 -21.494   6.574 -0.26 -0.00    -0.001 A  
DOCKED: ATOM      7  C   UNL     1     -40.784 -23.818   6.816 -0.32 +0.00    +0.008 A  
DOCKED: ATOM      8  C   UNL     1     -42.827 -22.719   6.092 -0.29 +0.00    +0.010 A  
DOCKED: ATOM      9  C   UNL     1     -42.041 -23.875   6.213 -0.31 +0.00    +0.068 A  
DOCKED: ATOM     10  N   UNL     1     -42.934 -26.134   5.312 -2.59 -0.00    -0.191 NA 
DOCKED: ATOM     11  C   UNL     1     -42.533 -25.121   5.715 -0.32 +0.00    +0.101 C  
DOCKED: ENDROOT
DOCKED: BRANCH   2  12
DOCKED: ATOM     12  C   UNL     1     -41.049 -19.743   9.022 -0.05 +0.00    +0.038 C  
DOCKED: BRANCH  12  13
DOCKED: ATOM     13  C   UNL     1     -42.143 -20.686   9.517 -0.04 +0.00    +0.038 C  
DOCKED: BRANCH  13  14
DOCKED: ATOM     14  C   UNL     1     -41.723 -21.387  10.808 -0.01 +0.00    +0.251 C  
DOCKED: BRANCH  14  15
DOCKED: ATOM     15  N   UNL     1     -42.183 -22.770  10.808 -0.03 +0.00    +0.141 N  
DOCKED: ATOM     16  C   UNL     1     -43.337 -22.930   9.922 -0.02 +0.00    +0.285 C  
DOCKED: ATOM     17  C   UNL     1     -41.104 -23.673  10.403 -0.07 +0.00    +0.285 C  
DOCKED: ENDBRANCH  14  15
DOCKED: ENDBRANCH  13  14
DOCKED: ENDBRANCH  12  13
DOCKED: ENDBRANCH   2  12
DOCKED: BRANCH   2  18
DOCKED: ATOM     18  C   UNL     1     -40.122 -19.189   6.781 -0.15 +0.00    +0.006 A  
DOCKED: ATOM     19  C   UNL     1     -38.955 -19.197   6.019 -0.16 +0.00    +0.001 A  
DOCKED: ATOM     20  C   UNL     1     -38.716 -18.175   5.099 -0.12 +0.00    +0.029 A  
DOCKED: ATOM     21  C   UNL     1     -39.645 -17.147   4.943 -0.07 +0.00    +0.140 A  
DOCKED: ATOM     22  C   UNL     1     -40.813 -17.140   5.705 -0.12 +0.00    +0.029 A  
DOCKED: ATOM     23  F   UNL     1     -39.417 -16.167   4.059 -0.02 -0.00    -0.204 F  
DOCKED: ATOM     24  C   UNL     1     -41.052 -18.162   6.626 -0.13 +0.00    +0.001 A  
DOCKED: ENDBRANCH   2  18
DOCKED: TORSDOF 5
DOCKED: TER
DOCKED: ENDMDL
________________________________________________________________________________


    FINAL DOCKED STATE:
    ________________________


Run:   185 / 512
Time taken for this run:   0.002s

DOCKED: MODEL        185
DOCKED: USER    Run = 185
DOCKED: USER
DOCKED: USER    Estimated Free Energy of Binding    =  -4.80 kcal/mol  [=(1)+(2)+(3)-(4)]
DOCKED: USER
DOCKED: USER    (1) Final Intermolecular Energy     =  -6.29 kcal/mol
DOCKED: USER        vdW + Hbond + desolv Energy     =  -6.29 kcal/mol
DOCKED: USER        Electrostatic Energy            =  +0.00 kcal/mol
DOCKED: USER        Moving Ligand-Fixed Receptor    =  -6.29 kcal/mol
DOCKED: USER        Moving Ligand-Moving Receptor   =  +0.00 kcal/mol
DOCKED: USER    (2) Final Total Internal Energy     =  -1.24 kcal/mol
DOCKED: USER    (3) Torsional Free Energy           =  +1.49 kcal/mol
DOCKED: USER    (4) Unbound System's Energy         =  -1.24 kcal/mol
DOCKED: USER
DOCKED: USER
DOCKED: REMARK  5 active torsions:
DOCKED: REMARK  status: ('A' for Active; 'I' for Inactive)
DOCKED: REMARK    1  A    between atoms: C_2  and  C_19 
DOCKED: REMARK    2  A    between atoms: C_2  and  C_11 
DOCKED: REMARK    3  A    between atoms: C_19  and  C_20 
DOCKED: REMARK    4  A    between atoms: C_20  and  C_21 
DOCKED: REMARK    5  A    between atoms: C_21  and  N_22 
DOCKED: USER                              x       y       z     vdW  Elec       q    Type
DOCKED: USER                           _______ _______ _______ _____ _____    ______ ____
DOCKED: ROOT
DOCKED: ATOM      1  O   UNL     1     -42.081 -21.821   8.292 -0.02 -0.00    -0.346 OA 
DOCKED: ATOM      2  C   UNL     1     -41.242 -23.019   8.242 -0.16 +0.00    +0.130 C  
DOCKED: ATOM      3  C   UNL     1     -41.574 -23.635   6.913 -0.31 +0.00    +0.004 A  
DOCKED: ATOM      4  C   UNL     1     -42.442 -22.805   6.218 -0.31 +0.00    +0.006 A  
DOCKED: ATOM      5  C   UNL     1     -42.730 -21.594   7.019 -0.19 +0.00    +0.169 C  
DOCKED: ATOM      6  C   UNL     1     -41.135 -24.828   6.360 -0.41 -0.00    -0.001 A  
DOCKED: ATOM      7  C   UNL     1     -42.901 -23.138   4.955 -0.14 +0.00    +0.008 A  
DOCKED: ATOM      8  C   UNL     1     -41.592 -25.181   5.089 -0.39 +0.00    +0.010 A  
DOCKED: ATOM      9  C   UNL     1     -42.470 -24.339   4.390 -0.43 +0.00    +0.068 A  
DOCKED: ATOM     10  N   UNL     1     -43.297 -25.021   2.031 -2.28 -0.00    -0.191 NA 
DOCKED: ATOM     11  C   UNL     1     -42.927 -24.716   3.089 -0.51 +0.00    +0.101 C  
DOCKED: ENDROOT
DOCKED: BRANCH   2  12
DOCKED: ATOM     12  C   UNL     1     -39.783 -22.592   8.350 -0.21 +0.00    +0.038 C  
DOCKED: BRANCH  12  13
DOCKED: ATOM     13  C   UNL     1     -39.500 -21.911   9.687 -0.09 +0.00    +0.038 C  
DOCKED: BRANCH  13  14
DOCKED: ATOM     14  C   UNL     1     -39.889 -20.434   9.645 -0.02 +0.00    +0.251 C  
DOCKED: BRANCH  14  15
DOCKED: ATOM     15  N   UNL     1     -39.897 -19.873  10.990 -0.00 +0.00    +0.141 N  
DOCKED: ATOM     16  C   UNL     1     -40.953 -20.486  11.798 -0.00 +0.00    +0.285 C  
DOCKED: ATOM     17  C   UNL     1     -38.595 -20.057  11.634 -0.00 +0.00    +0.285 C  
DOCKED: ENDBRANCH  14  15
DOCKED: ENDBRANCH  13  14
DOCKED: ENDBRANCH  12  13
DOCKED: ENDBRANCH   2  12
DOCKED: BRANCH   2  18
DOCKED: ATOM     18  C   UNL     1     -41.639 -23.878   9.396 -0.16 +0.00    +0.006 A  
DOCKED: ATOM     19  C   UNL     1     -40.719 -24.766   9.952 -0.13 +0.00    +0.001 A  
DOCKED: ATOM     20  C   UNL     1     -41.091 -25.569  11.031 -0.23 +0.00    +0.029 A  
DOCKED: ATOM     21  C   UNL     1     -42.381 -25.482  11.552 -0.03 +0.00    +0.140 A  
DOCKED: ATOM     22  C   UNL     1     -43.300 -24.593  10.996 -0.13 +0.00    +0.029 A  
DOCKED: ATOM     23  F   UNL     1     -42.737 -26.251  12.589 -0.04 -0.00    -0.204 F  
DOCKED: ATOM     24  C   UNL     1     -42.929 -23.790   9.916 -0.11 +0.00    +0.001 A  
DOCKED: ENDBRANCH   2  18
DOCKED: TORSDOF 5
DOCKED: TER
DOCKED: ENDMDL
________________________________________________________________________________


    FINAL DOCKED STATE:
    ________________________


Run:   186 / 512
Time taken for this run:   0.002s

DOCKED: MODEL        186
DOCKED: USER    Run = 186
DOCKED: USER
DOCKED: USER    Estimated Free Energy of Binding    =  -4.22 kcal/mol  [=(1)+(2)+(3)-(4)]
DOCKED: USER
DOCKED: USER    (1) Final Intermolecular Energy     =  -5.72 kcal/mol
DOCKED: USER        vdW + Hbond + desolv Energy     =  -5.72 kcal/mol
DOCKED: USER        Electrostatic Energy            =  +0.00 kcal/mol
DOCKED: USER        Moving Ligand-Fixed Receptor    =  -5.72 kcal/mol
DOCKED: USER        Moving Ligand-Moving Receptor   =  +0.00 kcal/mol
DOCKED: USER    (2) Final Total Internal Energy     =  -1.31 kcal/mol
DOCKED: USER    (3) Torsional Free Energy           =  +1.49 kcal/mol
DOCKED: USER    (4) Unbound System's Energy         =  -1.31 kcal/mol
DOCKED: USER
DOCKED: USER
DOCKED: REMARK  5 active torsions:
DOCKED: REMARK  status: ('A' for Active; 'I' for Inactive)
DOCKED: REMARK    1  A    between atoms: C_2  and  C_19 
DOCKED: REMARK    2  A    between atoms: C_2  and  C_11 
DOCKED: REMARK    3  A    between atoms: C_19  and  C_20 
DOCKED: REMARK    4  A    between atoms: C_20  and  C_21 
DOCKED: REMARK    5  A    between atoms: C_21  and  N_22 
DOCKED: USER                              x       y       z     vdW  Elec       q    Type
DOCKED: USER                           _______ _______ _______ _____ _____    ______ ____
DOCKED: ROOT
DOCKED: ATOM      1  O   UNL     1     -33.506 -24.042  -2.180 -0.02 -0.00    -0.346 OA 
DOCKED: ATOM      2  C   UNL     1     -33.611 -22.898  -1.273 -0.10 +0.00    +0.130 C  
DOCKED: ATOM      3  C   UNL     1     -34.112 -23.501   0.008 -0.13 +0.00    +0.004 A  
DOCKED: ATOM      4  C   UNL     1     -34.182 -24.881  -0.120 -0.17 +0.00    +0.006 A  
DOCKED: ATOM      5  C   UNL     1     -33.727 -25.283  -1.470 -0.07 +0.00    +0.169 C  
DOCKED: ATOM      6  C   UNL     1     -34.466 -22.878   1.196 -0.14 -0.00    -0.001 A  
DOCKED: ATOM      7  C   UNL     1     -34.610 -25.681   0.925 -0.27 +0.00    +0.008 A  
DOCKED: ATOM      8  C   UNL     1     -34.904 -23.671   2.258 -0.24 +0.00    +0.010 A  
DOCKED: ATOM      9  C   UNL     1     -34.975 -25.066   2.123 -0.30 +0.00    +0.068 A  
DOCKED: ATOM     10  N   UNL     1     -35.787 -26.509   4.116 -2.65 -0.00    -0.191 NA 
DOCKED: ATOM     11  C   UNL     1     -35.423 -25.862   3.222 -0.42 +0.00    +0.101 C  
DOCKED: ENDROOT
DOCKED: BRANCH   2  12
DOCKED: ATOM     12  C   UNL     1     -32.231 -22.266  -1.131 -0.02 +0.00    +0.038 C  
DOCKED: BRANCH  12  13
DOCKED: ATOM     13  C   UNL     1     -31.434 -22.917  -0.003 -0.02 +0.00    +0.038 C  
DOCKED: BRANCH  13  14
DOCKED: ATOM     14  C   UNL     1     -30.407 -23.904  -0.554 -0.00 +0.00    +0.251 C  
DOCKED: BRANCH  14  15
DOCKED: ATOM     15  N   UNL     1     -30.731 -25.261  -0.130 -0.03 +0.00    +0.141 N  
DOCKED: ATOM     16  C   UNL     1     -30.363 -26.227  -1.167 -0.02 +0.00    +0.285 C  
DOCKED: ATOM     17  C   UNL     1     -30.054 -25.585   1.127 -0.03 +0.00    +0.285 C  
DOCKED: ENDBRANCH  14  15
DOCKED: ENDBRANCH  13  14
DOCKED: ENDBRANCH  12  13
DOCKED: ENDBRANCH   2  12
DOCKED: BRANCH   2  18
DOCKED: ATOM     18  C   UNL     1     -34.581 -21.943  -1.884 -0.09 +0.00    +0.006 A  
DOCKED: ATOM     19  C   UNL     1     -35.197 -20.974  -1.094 -0.14 +0.00    +0.001 A  
DOCKED: ATOM     20  C   UNL     1     -36.104 -20.082  -1.667 -0.19 +0.00    +0.029 A  
DOCKED: ATOM     21  C   UNL     1     -36.392 -20.160  -3.029 -0.18 +0.00    +0.140 A  
DOCKED: ATOM     22  C   UNL     1     -35.775 -21.129  -3.819 -0.21 +0.00    +0.029 A  
DOCKED: ATOM     23  F   UNL     1     -37.262 -19.302  -3.579 -0.14 -0.00    -0.204 F  
DOCKED: ATOM     24  C   UNL     1     -34.869 -22.023  -3.246 -0.13 +0.00    +0.001 A  
DOCKED: ENDBRANCH   2  18
DOCKED: TORSDOF 5
DOCKED: TER
DOCKED: ENDMDL
________________________________________________________________________________


    FINAL DOCKED STATE:
    ________________________


Run:   187 / 512
Time taken for this run:   0.002s

DOCKED: MODEL        187
DOCKED: USER    Run = 187
DOCKED: USER
DOCKED: USER    Estimated Free Energy of Binding    =  -3.23 kcal/mol  [=(1)+(2)+(3)-(4)]
DOCKED: USER
DOCKED: USER    (1) Final Intermolecular Energy     =  -4.73 kcal/mol
DOCKED: USER        vdW + Hbond + desolv Energy     =  -4.73 kcal/mol
DOCKED: USER        Electrostatic Energy            =  +0.00 kcal/mol
DOCKED: USER        Moving Ligand-Fixed Receptor    =  -4.73 kcal/mol
DOCKED: USER        Moving Ligand-Moving Receptor   =  +0.00 kcal/mol
DOCKED: USER    (2) Final Total Internal Energy     =  -1.31 kcal/mol
DOCKED: USER    (3) Torsional Free Energy           =  +1.49 kcal/mol
DOCKED: USER    (4) Unbound System's Energy         =  -1.31 kcal/mol
DOCKED: USER
DOCKED: USER
DOCKED: REMARK  5 active torsions:
DOCKED: REMARK  status: ('A' for Active; 'I' for Inactive)
DOCKED: REMARK    1  A    between atoms: C_2  and  C_19 
DOCKED: REMARK    2  A    between atoms: C_2  and  C_11 
DOCKED: REMARK    3  A    between atoms: C_19  and  C_20 
DOCKED: REMARK    4  A    between atoms: C_20  and  C_21 
DOCKED: REMARK    5  A    between atoms: C_21  and  N_22 
DOCKED: USER                              x       y       z     vdW  Elec       q    Type
DOCKED: USER                           _______ _______ _______ _____ _____    ______ ____
DOCKED: ROOT
DOCKED: ATOM      1  O   UNL     1     -33.030 -20.405   1.746 +0.00 -0.00    -0.346 OA 
DOCKED: ATOM      2  C   UNL     1     -34.119 -20.789   0.848 -0.05 +0.00    +0.130 C  
DOCKED: ATOM      3  C   UNL     1     -34.622 -22.081   1.424 -0.12 +0.00    +0.004 A  
DOCKED: ATOM      4  C   UNL     1     -33.954 -22.355   2.609 -0.09 +0.00    +0.006 A  
DOCKED: ATOM      5  C   UNL     1     -32.987 -21.274   2.902 -0.02 +0.00    +0.169 C  
DOCKED: ATOM      6  C   UNL     1     -35.600 -22.940   0.944 -0.17 -0.00    -0.001 A  
DOCKED: ATOM      7  C   UNL     1     -34.236 -23.491   3.349 -0.18 +0.00    +0.008 A  
DOCKED: ATOM      8  C   UNL     1     -35.893 -24.092   1.676 -0.31 +0.00    +0.010 A  
DOCKED: ATOM      9  C   UNL     1     -35.214 -24.366   2.873 -0.29 +0.00    +0.068 A  
DOCKED: ATOM     10  N   UNL     1     -35.784 -26.510   4.210 -2.68 -0.00    -0.191 NA 
DOCKED: ATOM     11  C   UNL     1     -35.527 -25.549   3.610 -0.29 +0.00    +0.101 C  
DOCKED: ENDROOT
DOCKED: BRANCH   2  12
DOCKED: ATOM     12  C   UNL     1     -35.169 -19.685   0.862 -0.07 +0.00    +0.038 C  
DOCKED: BRANCH  12  13
DOCKED: ATOM     13  C   UNL     1     -36.103 -19.819   2.064 -0.13 +0.00    +0.038 C  
DOCKED: BRANCH  13  14
DOCKED: ATOM     14  C   UNL     1     -36.013 -18.592   2.969 -0.04 +0.00    +0.251 C  
DOCKED: BRANCH  14  15
DOCKED: ATOM     15  N   UNL     1     -35.237 -18.899   4.165 -0.03 +0.00    +0.141 N  
DOCKED: ATOM     16  C   UNL     1     -33.954 -18.195   4.142 -0.00 +0.00    +0.285 C  
DOCKED: ATOM     17  C   UNL     1     -35.988 -18.547   5.371 -0.03 +0.00    +0.285 C  
DOCKED: ENDBRANCH  14  15
DOCKED: ENDBRANCH  13  14
DOCKED: ENDBRANCH  12  13
DOCKED: ENDBRANCH   2  12
DOCKED: BRANCH   2  18
DOCKED: ATOM     18  C   UNL     1     -33.527 -20.951  -0.512 -0.04 +0.00    +0.006 A  
DOCKED: ATOM     19  C   UNL     1     -32.219 -21.415  -0.652 -0.01 +0.00    +0.001 A  
DOCKED: ATOM     20  C   UNL     1     -31.666 -21.565  -1.924 -0.01 +0.00    +0.029 A  
DOCKED: ATOM     21  C   UNL     1     -32.420 -21.252  -3.054 -0.01 +0.00    +0.140 A  
DOCKED: ATOM     22  C   UNL     1     -33.728 -20.788  -2.913 -0.06 +0.00    +0.029 A  
DOCKED: ATOM     23  F   UNL     1     -31.890 -21.398  -4.275 +0.00 -0.00    -0.204 F  
DOCKED: ATOM     24  C   UNL     1     -34.282 -20.637  -1.641 -0.09 +0.00    +0.001 A  
DOCKED: ENDBRANCH   2  18
DOCKED: TORSDOF 5
DOCKED: TER
DOCKED: ENDMDL
________________________________________________________________________________


    FINAL DOCKED STATE:
    ________________________


Run:   188 / 512
Time taken for this run:   0.002s

DOCKED: MODEL        188
DOCKED: USER    Run = 188
DOCKED: USER
DOCKED: USER    Estimated Free Energy of Binding    =  -4.04 kcal/mol  [=(1)+(2)+(3)-(4)]
DOCKED: USER
DOCKED: USER    (1) Final Intermolecular Energy     =  -5.53 kcal/mol
DOCKED: USER        vdW + Hbond + desolv Energy     =  -5.53 kcal/mol
DOCKED: USER        Electrostatic Energy            =  +0.00 kcal/mol
DOCKED: USER        Moving Ligand-Fixed Receptor    =  -5.53 kcal/mol
DOCKED: USER        Moving Ligand-Moving Receptor   =  +0.00 kcal/mol
DOCKED: USER    (2) Final Total Internal Energy     =  -1.32 kcal/mol
DOCKED: USER    (3) Torsional Free Energy           =  +1.49 kcal/mol
DOCKED: USER    (4) Unbound System's Energy         =  -1.32 kcal/mol
DOCKED: USER
DOCKED: USER
DOCKED: REMARK  5 active torsions:
DOCKED: REMARK  status: ('A' for Active; 'I' for Inactive)
DOCKED: REMARK    1  A    between atoms: C_2  and  C_19 
DOCKED: REMARK    2  A    between atoms: C_2  and  C_11 
DOCKED: REMARK    3  A    between atoms: C_19  and  C_20 
DOCKED: REMARK    4  A    between atoms: C_20  and  C_21 
DOCKED: REMARK    5  A    between atoms: C_21  and  N_22 
DOCKED: USER                              x       y       z     vdW  Elec       q    Type
DOCKED: USER                           _______ _______ _______ _____ _____    ______ ____
DOCKED: ROOT
DOCKED: ATOM      1  O   UNL     1     -39.504 -22.462   9.799 -0.04 -0.00    -0.346 OA 
DOCKED: ATOM      2  C   UNL     1     -39.784 -21.559   8.682 -0.11 +0.00    +0.130 C  
DOCKED: ATOM      3  C   UNL     1     -40.558 -22.410   7.717 -0.21 +0.00    +0.004 A  
DOCKED: ATOM      4  C   UNL     1     -40.795 -23.656   8.280 -0.23 +0.00    +0.006 A  
DOCKED: ATOM      5  C   UNL     1     -40.215 -23.712   9.640 -0.12 +0.00    +0.169 C  
DOCKED: ATOM      6  C   UNL     1     -41.025 -22.103   6.448 -0.28 -0.00    -0.001 A  
DOCKED: ATOM      7  C   UNL     1     -41.498 -24.634   7.597 -0.31 +0.00    +0.008 A  
DOCKED: ATOM      8  C   UNL     1     -41.732 -23.079   5.744 -0.35 +0.00    +0.010 A  
DOCKED: ATOM      9  C   UNL     1     -41.968 -24.338   6.316 -0.32 +0.00    +0.068 A  
DOCKED: ATOM     10  N   UNL     1     -43.288 -26.126   4.985 -2.36 -0.00    -0.191 NA 
DOCKED: ATOM     11  C   UNL     1     -42.695 -25.324   5.582 -0.29 +0.00    +0.101 C  
DOCKED: ENDROOT
DOCKED: BRANCH   2  12
DOCKED: ATOM     12  C   UNL     1     -40.590 -20.377   9.208 -0.05 +0.00    +0.038 C  
DOCKED: BRANCH  12  13
DOCKED: ATOM     13  C   UNL     1     -42.018 -20.391   8.668 -0.08 +0.00    +0.038 C  
DOCKED: BRANCH  13  14
DOCKED: ATOM     14  C   UNL     1     -42.971 -21.067   9.652 -0.01 +0.00    +0.251 C  
DOCKED: BRANCH  14  15
DOCKED: ATOM     15  N   UNL     1     -44.219 -21.422   8.988 -0.04 +0.00    +0.141 N  
DOCKED: ATOM     16  C   UNL     1     -44.399 -20.631   7.770 -0.09 +0.00    +0.285 C  
DOCKED: ATOM     17  C   UNL     1     -44.246 -22.852   8.672 -0.02 +0.00    +0.285 C  
DOCKED: ENDBRANCH  14  15
DOCKED: ENDBRANCH  13  14
DOCKED: ENDBRANCH  12  13
DOCKED: ENDBRANCH   2  12
DOCKED: BRANCH   2  18
DOCKED: ATOM     18  C   UNL     1     -38.467 -21.115   8.139 -0.13 +0.00    +0.006 A  
DOCKED: ATOM     19  C   UNL     1     -38.332 -19.836   7.599 -0.10 +0.00    +0.001 A  
DOCKED: ATOM     20  C   UNL     1     -37.100 -19.422   7.091 -0.08 +0.00    +0.029 A  
DOCKED: ATOM     21  C   UNL     1     -36.006 -20.286   7.124 -0.07 +0.00    +0.140 A  
DOCKED: ATOM     22  C   UNL     1     -36.142 -21.564   7.664 -0.11 +0.00    +0.029 A  
DOCKED: ATOM     23  F   UNL     1     -34.824 -19.887   6.638 -0.01 -0.00    -0.204 F  
DOCKED: ATOM     24  C   UNL     1     -37.374 -21.980   8.172 -0.11 +0.00    +0.001 A  
DOCKED: ENDBRANCH   2  18
DOCKED: TORSDOF 5
DOCKED: TER
DOCKED: ENDMDL
________________________________________________________________________________


    FINAL DOCKED STATE:
    ________________________


Run:   189 / 512
Time taken for this run:   0.002s

DOCKED: MODEL        189
DOCKED: USER    Run = 189
DOCKED: USER
DOCKED: USER    Estimated Free Energy of Binding    =  -5.58 kcal/mol  [=(1)+(2)+(3)-(4)]
DOCKED: USER
DOCKED: USER    (1) Final Intermolecular Energy     =  -7.07 kcal/mol
DOCKED: USER        vdW + Hbond + desolv Energy     =  -7.07 kcal/mol
DOCKED: USER        Electrostatic Energy            =  +0.00 kcal/mol
DOCKED: USER        Moving Ligand-Fixed Receptor    =  -7.07 kcal/mol
DOCKED: USER        Moving Ligand-Moving Receptor   =  +0.00 kcal/mol
DOCKED: USER    (2) Final Total Internal Energy     =  -1.54 kcal/mol
DOCKED: USER    (3) Torsional Free Energy           =  +1.49 kcal/mol
DOCKED: USER    (4) Unbound System's Energy         =  -1.54 kcal/mol
DOCKED: USER
DOCKED: USER
DOCKED: REMARK  5 active torsions:
DOCKED: REMARK  status: ('A' for Active; 'I' for Inactive)
DOCKED: REMARK    1  A    between atoms: C_2  and  C_19 
DOCKED: REMARK    2  A    between atoms: C_2  and  C_11 
DOCKED: REMARK    3  A    between atoms: C_19  and  C_20 
DOCKED: REMARK    4  A    between atoms: C_20  and  C_21 
DOCKED: REMARK    5  A    between atoms: C_21  and  N_22 
DOCKED: USER                              x       y       z     vdW  Elec       q    Type
DOCKED: USER                           _______ _______ _______ _____ _____    ______ ____
DOCKED: ROOT
DOCKED: ATOM      1  O   UNL     1     -41.199 -22.095   7.403 -0.08 -0.00    -0.346 OA 
DOCKED: ATOM      2  C   UNL     1     -41.616 -23.475   7.653 -0.21 +0.00    +0.130 C  
DOCKED: ATOM      3  C   UNL     1     -42.123 -23.945   6.321 -0.34 +0.00    +0.004 A  
DOCKED: ATOM      4  C   UNL     1     -41.912 -22.959   5.367 -0.34 +0.00    +0.006 A  
DOCKED: ATOM      5  C   UNL     1     -41.250 -21.791   5.989 -0.17 +0.00    +0.169 C  
DOCKED: ATOM      6  C   UNL     1     -42.713 -25.153   5.977 -0.17 -0.00    -0.001 A  
DOCKED: ATOM      7  C   UNL     1     -42.286 -23.143   4.046 -0.14 +0.00    +0.008 A  
DOCKED: ATOM      8  C   UNL     1     -43.099 -25.351   4.651 -0.47 +0.00    +0.010 A  
DOCKED: ATOM      9  C   UNL     1     -42.886 -24.352   3.690 -0.45 +0.00    +0.068 A  
DOCKED: ATOM     10  N   UNL     1     -43.610 -24.755   1.235 -3.18 -0.00    -0.191 NA 
DOCKED: ATOM     11  C   UNL     1     -43.285 -24.573   2.336 -0.28 +0.00    +0.101 C  
DOCKED: ENDROOT
DOCKED: BRANCH   2  12
DOCKED: ATOM     12  C   UNL     1     -40.406 -24.264   8.139 -0.29 +0.00    +0.038 C  
DOCKED: BRANCH  12  13
DOCKED: ATOM     13  C   UNL     1     -39.130 -23.428   8.067 -0.21 +0.00    +0.038 C  
DOCKED: BRANCH  13  14
DOCKED: ATOM     14  C   UNL     1     -38.829 -22.767   9.412 -0.10 +0.00    +0.251 C  
DOCKED: BRANCH  14  15
DOCKED: ATOM     15  N   UNL     1     -39.817 -21.734   9.701 -0.05 +0.00    +0.141 N  
DOCKED: ATOM     16  C   UNL     1     -40.187 -21.757  11.117 -0.01 +0.00    +0.285 C  
DOCKED: ATOM     17  C   UNL     1     -39.305 -20.414   9.331 -0.02 +0.00    +0.285 C  
DOCKED: ENDBRANCH  14  15
DOCKED: ENDBRANCH  13  14
DOCKED: ENDBRANCH  12  13
DOCKED: ENDBRANCH   2  12
DOCKED: BRANCH   2  18
DOCKED: ATOM     18  C   UNL     1     -42.681 -23.427   8.697 -0.12 +0.00    +0.006 A  
DOCKED: ATOM     19  C   UNL     1     -43.693 -22.470   8.615 -0.09 +0.00    +0.001 A  
DOCKED: ATOM     20  C   UNL     1     -44.688 -22.426   9.592 -0.05 +0.00    +0.029 A  
DOCKED: ATOM     21  C   UNL     1     -44.671 -23.337  10.647 -0.03 +0.00    +0.140 A  
DOCKED: ATOM     22  C   UNL     1     -43.660 -24.293  10.728 -0.11 +0.00    +0.029 A  
DOCKED: ATOM     23  F   UNL     1     -45.628 -23.295  11.584 +0.01 -0.00    -0.204 F  
DOCKED: ATOM     24  C   UNL     1     -42.663 -24.338   9.752 -0.16 +0.00    +0.001 A  
DOCKED: ENDBRANCH   2  18
DOCKED: TORSDOF 5
DOCKED: TER
DOCKED: ENDMDL
________________________________________________________________________________


    FINAL DOCKED STATE:
    ________________________


Run:   190 / 512
Time taken for this run:   0.002s

DOCKED: MODEL        190
DOCKED: USER    Run = 190
DOCKED: USER
DOCKED: USER    Estimated Free Energy of Binding    =  -4.45 kcal/mol  [=(1)+(2)+(3)-(4)]
DOCKED: USER
DOCKED: USER    (1) Final Intermolecular Energy     =  -5.94 kcal/mol
DOCKED: USER        vdW + Hbond + desolv Energy     =  -5.94 kcal/mol
DOCKED: USER        Electrostatic Energy            =  +0.00 kcal/mol
DOCKED: USER        Moving Ligand-Fixed Receptor    =  -5.94 kcal/mol
DOCKED: USER        Moving Ligand-Moving Receptor   =  +0.00 kcal/mol
DOCKED: USER    (2) Final Total Internal Energy     =  -1.05 kcal/mol
DOCKED: USER    (3) Torsional Free Energy           =  +1.49 kcal/mol
DOCKED: USER    (4) Unbound System's Energy         =  -1.05 kcal/mol
DOCKED: USER
DOCKED: USER
DOCKED: REMARK  5 active torsions:
DOCKED: REMARK  status: ('A' for Active; 'I' for Inactive)
DOCKED: REMARK    1  A    between atoms: C_2  and  C_19 
DOCKED: REMARK    2  A    between atoms: C_2  and  C_11 
DOCKED: REMARK    3  A    between atoms: C_19  and  C_20 
DOCKED: REMARK    4  A    between atoms: C_20  and  C_21 
DOCKED: REMARK    5  A    between atoms: C_21  and  N_22 
DOCKED: USER                              x       y       z     vdW  Elec       q    Type
DOCKED: USER                           _______ _______ _______ _____ _____    ______ ____
DOCKED: ROOT
DOCKED: ATOM      1  O   UNL     1     -39.978 -15.710   1.720 -0.10 -0.00    -0.346 OA 
DOCKED: ATOM      2  C   UNL     1     -38.629 -15.613   1.160 -0.20 +0.00    +0.130 C  
DOCKED: ATOM      3  C   UNL     1     -38.848 -15.028  -0.205 -0.23 +0.00    +0.004 A  
DOCKED: ATOM      4  C   UNL     1     -40.190 -14.714  -0.369 -0.09 +0.00    +0.006 A  
DOCKED: ATOM      5  C   UNL     1     -40.939 -15.053   0.862 -0.04 +0.00    +0.169 C  
DOCKED: ATOM      6  C   UNL     1     -37.931 -14.782  -1.217 -0.23 -0.00    -0.001 A  
DOCKED: ATOM      7  C   UNL     1     -40.660 -14.151  -1.543 -0.06 +0.00    +0.008 A  
DOCKED: ATOM      8  C   UNL     1     -38.391 -14.219  -2.409 -0.30 +0.00    +0.010 A  
DOCKED: ATOM      9  C   UNL     1     -39.748 -13.904  -2.570 -0.32 +0.00    +0.068 A  
DOCKED: ATOM     10  N   UNL     1     -40.567 -12.855  -4.793 -2.37 -0.00    -0.191 NA 
DOCKED: ATOM     11  C   UNL     1     -40.200 -13.327  -3.797 -0.31 +0.00    +0.101 C  
DOCKED: ENDROOT
DOCKED: BRANCH   2  12
DOCKED: ATOM     12  C   UNL     1     -37.794 -14.715   2.064 -0.17 +0.00    +0.038 C  
DOCKED: BRANCH  12  13
DOCKED: ATOM     13  C   UNL     1     -38.456 -14.526   3.427 -0.18 +0.00    +0.038 C  
DOCKED: BRANCH  13  14
DOCKED: ATOM     14  C   UNL     1     -39.465 -13.380   3.394 -0.13 +0.00    +0.251 C  
DOCKED: BRANCH  14  15
DOCKED: ATOM     15  N   UNL     1     -39.935 -13.078   4.741 -0.13 +0.00    +0.141 N  
DOCKED: ATOM     16  C   UNL     1     -39.852 -14.264   5.594 -0.03 +0.00    +0.285 C  
DOCKED: ATOM     17  C   UNL     1     -39.162 -11.979   5.322 -0.11 +0.00    +0.285 C  
DOCKED: ENDBRANCH  14  15
DOCKED: ENDBRANCH  13  14
DOCKED: ENDBRANCH  12  13
DOCKED: ENDBRANCH   2  12
DOCKED: BRANCH   2  18
DOCKED: ATOM     18  C   UNL     1     -38.075 -16.998   1.116 -0.14 +0.00    +0.006 A  
DOCKED: ATOM     19  C   UNL     1     -38.692 -18.019   1.839 -0.16 +0.00    +0.001 A  
DOCKED: ATOM     20  C   UNL     1     -38.172 -19.313   1.798 -0.22 +0.00    +0.029 A  
DOCKED: ATOM     21  C   UNL     1     -37.037 -19.585   1.034 -0.16 +0.00    +0.140 A  
DOCKED: ATOM     22  C   UNL     1     -36.421 -18.564   0.312 -0.10 +0.00    +0.029 A  
DOCKED: ATOM     23  F   UNL     1     -36.540 -20.828   0.994 -0.07 -0.00    -0.204 F  
DOCKED: ATOM     24  C   UNL     1     -36.940 -17.268   0.353 -0.09 +0.00    +0.001 A  
DOCKED: ENDBRANCH   2  18
DOCKED: TORSDOF 5
DOCKED: TER
DOCKED: ENDMDL
________________________________________________________________________________


    FINAL DOCKED STATE:
    ________________________


Run:   191 / 512
Time taken for this run:   0.002s

DOCKED: MODEL        191
DOCKED: USER    Run = 191
DOCKED: USER
DOCKED: USER    Estimated Free Energy of Binding    =  -3.94 kcal/mol  [=(1)+(2)+(3)-(4)]
DOCKED: USER
DOCKED: USER    (1) Final Intermolecular Energy     =  -5.43 kcal/mol
DOCKED: USER        vdW + Hbond + desolv Energy     =  -5.43 kcal/mol
DOCKED: USER        Electrostatic Energy            =  +0.00 kcal/mol
DOCKED: USER        Moving Ligand-Fixed Receptor    =  -5.43 kcal/mol
DOCKED: USER        Moving Ligand-Moving Receptor   =  +0.00 kcal/mol
DOCKED: USER    (2) Final Total Internal Energy     =  -1.38 kcal/mol
DOCKED: USER    (3) Torsional Free Energy           =  +1.49 kcal/mol
DOCKED: USER    (4) Unbound System's Energy         =  -1.38 kcal/mol
DOCKED: USER
DOCKED: USER
DOCKED: REMARK  5 active torsions:
DOCKED: REMARK  status: ('A' for Active; 'I' for Inactive)
DOCKED: REMARK    1  A    between atoms: C_2  and  C_19 
DOCKED: REMARK    2  A    between atoms: C_2  and  C_11 
DOCKED: REMARK    3  A    between atoms: C_19  and  C_20 
DOCKED: REMARK    4  A    between atoms: C_20  and  C_21 
DOCKED: REMARK    5  A    between atoms: C_21  and  N_22 
DOCKED: USER                              x       y       z     vdW  Elec       q    Type
DOCKED: USER                           _______ _______ _______ _____ _____    ______ ____
DOCKED: ROOT
DOCKED: ATOM      1  O   UNL     1     -39.608 -21.049   9.078 -0.02 -0.00    -0.346 OA 
DOCKED: ATOM      2  C   UNL     1     -40.082 -20.440   7.834 -0.12 +0.00    +0.130 C  
DOCKED: ATOM      3  C   UNL     1     -40.746 -21.575   7.108 -0.23 +0.00    +0.004 A  
DOCKED: ATOM      4  C   UNL     1     -40.750 -22.705   7.913 -0.21 +0.00    +0.006 A  
DOCKED: ATOM      5  C   UNL     1     -40.110 -22.399   9.212 -0.10 +0.00    +0.169 C  
DOCKED: ATOM      6  C   UNL     1     -41.312 -21.600   5.842 -0.12 -0.00    -0.001 A  
DOCKED: ATOM      7  C   UNL     1     -41.311 -23.895   7.481 -0.29 +0.00    +0.008 A  
DOCKED: ATOM      8  C   UNL     1     -41.878 -22.794   5.391 -0.33 +0.00    +0.010 A  
DOCKED: ATOM      9  C   UNL     1     -41.878 -23.935   6.207 -0.31 +0.00    +0.068 A  
DOCKED: ATOM     10  N   UNL     1     -42.942 -26.133   5.340 -2.61 -0.00    -0.191 NA 
DOCKED: ATOM     11  C   UNL     1     -42.464 -25.147   5.729 -0.30 +0.00    +0.101 C  
DOCKED: ENDROOT
DOCKED: BRANCH   2  12
DOCKED: ATOM     12  C   UNL     1     -41.048 -19.314   8.185 -0.08 +0.00    +0.038 C  
DOCKED: BRANCH  12  13
DOCKED: ATOM     13  C   UNL     1     -40.408 -18.311   9.143 -0.02 +0.00    +0.038 C  
DOCKED: BRANCH  13  14
DOCKED: ATOM     14  C   UNL     1     -40.684 -18.687  10.598 -0.00 +0.00    +0.251 C  
DOCKED: BRANCH  14  15
DOCKED: ATOM     15  N   UNL     1     -39.459 -18.603  11.384 -0.00 +0.00    +0.141 N  
DOCKED: ATOM     16  C   UNL     1     -38.284 -18.614  10.511 -0.00 +0.00    +0.285 C  
DOCKED: ATOM     17  C   UNL     1     -39.461 -17.399  12.217 +0.00 +0.00    +0.285 C  
DOCKED: ENDBRANCH  14  15
DOCKED: ENDBRANCH  13  14
DOCKED: ENDBRANCH  12  13
DOCKED: ENDBRANCH   2  12
DOCKED: BRANCH   2  18
DOCKED: ATOM     18  C   UNL     1     -38.881 -19.916   7.120 -0.14 +0.00    +0.006 A  
DOCKED: ATOM     19  C   UNL     1     -37.604 -20.264   7.557 -0.11 +0.00    +0.001 A  
DOCKED: ATOM     20  C   UNL     1     -36.482 -19.773   6.888 -0.09 +0.00    +0.029 A  
DOCKED: ATOM     21  C   UNL     1     -36.639 -18.936   5.784 -0.07 +0.00    +0.140 A  
DOCKED: ATOM     22  C   UNL     1     -37.917 -18.589   5.348 -0.11 +0.00    +0.029 A  
DOCKED: ATOM     23  F   UNL     1     -35.562 -18.467   5.141 -0.00 -0.00    -0.204 F  
DOCKED: ATOM     24  C   UNL     1     -39.040 -19.079   6.016 -0.15 +0.00    +0.001 A  
DOCKED: ENDBRANCH   2  18
DOCKED: TORSDOF 5
DOCKED: TER
DOCKED: ENDMDL
________________________________________________________________________________


    FINAL DOCKED STATE:
    ________________________


Run:   192 / 512
Time taken for this run:   0.002s

DOCKED: MODEL        192
DOCKED: USER    Run = 192
DOCKED: USER
DOCKED: USER    Estimated Free Energy of Binding    =  -4.03 kcal/mol  [=(1)+(2)+(3)-(4)]
DOCKED: USER
DOCKED: USER    (1) Final Intermolecular Energy     =  -5.53 kcal/mol
DOCKED: USER        vdW + Hbond + desolv Energy     =  -5.53 kcal/mol
DOCKED: USER        Electrostatic Energy            =  +0.00 kcal/mol
DOCKED: USER        Moving Ligand-Fixed Receptor    =  -5.53 kcal/mol
DOCKED: USER        Moving Ligand-Moving Receptor   =  +0.00 kcal/mol
DOCKED: USER    (2) Final Total Internal Energy     =  -1.29 kcal/mol
DOCKED: USER    (3) Torsional Free Energy           =  +1.49 kcal/mol
DOCKED: USER    (4) Unbound System's Energy         =  -1.29 kcal/mol
DOCKED: USER
DOCKED: USER
DOCKED: REMARK  5 active torsions:
DOCKED: REMARK  status: ('A' for Active; 'I' for Inactive)
DOCKED: REMARK    1  A    between atoms: C_2  and  C_19 
DOCKED: REMARK    2  A    between atoms: C_2  and  C_11 
DOCKED: REMARK    3  A    between atoms: C_19  and  C_20 
DOCKED: REMARK    4  A    between atoms: C_20  and  C_21 
DOCKED: REMARK    5  A    between atoms: C_21  and  N_22 
DOCKED: USER                              x       y       z     vdW  Elec       q    Type
DOCKED: USER                           _______ _______ _______ _____ _____    ______ ____
DOCKED: ROOT
DOCKED: ATOM      1  O   UNL     1     -39.422 -21.219   9.128 -0.03 -0.00    -0.346 OA 
DOCKED: ATOM      2  C   UNL     1     -40.132 -20.519   8.056 -0.11 +0.00    +0.130 C  
DOCKED: ATOM      3  C   UNL     1     -40.817 -21.620   7.300 -0.22 +0.00    +0.004 A  
DOCKED: ATOM      4  C   UNL     1     -40.608 -22.831   7.945 -0.22 +0.00    +0.006 A  
DOCKED: ATOM      5  C   UNL     1     -39.794 -22.617   9.163 -0.12 +0.00    +0.169 C  
DOCKED: ATOM      6  C   UNL     1     -41.574 -21.554   6.139 -0.26 -0.00    -0.001 A  
DOCKED: ATOM      7  C   UNL     1     -41.141 -24.011   7.455 -0.30 +0.00    +0.008 A  
DOCKED: ATOM      8  C   UNL     1     -42.114 -22.736   5.629 -0.33 +0.00    +0.010 A  
DOCKED: ATOM      9  C   UNL     1     -41.899 -23.958   6.284 -0.31 +0.00    +0.068 A  
DOCKED: ATOM     10  N   UNL     1     -42.921 -26.132   5.314 -2.60 -0.00    -0.191 NA 
DOCKED: ATOM     11  C   UNL     1     -42.462 -25.157   5.749 -0.28 +0.00    +0.101 C  
DOCKED: ENDROOT
DOCKED: BRANCH   2  12
DOCKED: ATOM     12  C   UNL     1     -41.110 -19.536   8.688 -0.06 +0.00    +0.038 C  
DOCKED: BRANCH  12  13
DOCKED: ATOM     13  C   UNL     1     -42.209 -20.262   9.461 -0.04 +0.00    +0.038 C  
DOCKED: BRANCH  13  14
DOCKED: ATOM     14  C   UNL     1     -42.094 -19.995  10.961 -0.00 +0.00    +0.251 C  
DOCKED: BRANCH  14  15
DOCKED: ATOM     15  N   UNL     1     -42.314 -21.224  11.714 -0.00 +0.00    +0.141 N  
DOCKED: ATOM     16  C   UNL     1     -42.996 -22.221  10.887 -0.01 +0.00    +0.285 C  
DOCKED: ATOM     17  C   UNL     1     -41.044 -21.759  12.210 -0.00 +0.00    +0.285 C  
DOCKED: ENDBRANCH  14  15
DOCKED: ENDBRANCH  13  14
DOCKED: ENDBRANCH  12  13
DOCKED: ENDBRANCH   2  12
DOCKED: BRANCH   2  18
DOCKED: ATOM     18  C   UNL     1     -39.103 -19.808   7.243 -0.13 +0.00    +0.006 A  
DOCKED: ATOM     19  C   UNL     1     -37.800 -19.681   7.724 -0.09 +0.00    +0.001 A  
DOCKED: ATOM     20  C   UNL     1     -36.839 -19.015   6.963 -0.06 +0.00    +0.029 A  
DOCKED: ATOM     21  C   UNL     1     -37.181 -18.478   5.723 -0.06 +0.00    +0.140 A  
DOCKED: ATOM     22  C   UNL     1     -38.484 -18.605   5.242 -0.13 +0.00    +0.029 A  
DOCKED: ATOM     23  F   UNL     1     -36.258 -17.840   4.992 -0.00 -0.00    -0.204 F  
DOCKED: ATOM     24  C   UNL     1     -39.446 -19.271   6.003 -0.15 +0.00    +0.001 A  
DOCKED: ENDBRANCH   2  18
DOCKED: TORSDOF 5
DOCKED: TER
DOCKED: ENDMDL
________________________________________________________________________________


    FINAL DOCKED STATE:
    ________________________


Run:   193 / 512
Time taken for this run:   0.002s

DOCKED: MODEL        193
DOCKED: USER    Run = 193
DOCKED: USER
DOCKED: USER    Estimated Free Energy of Binding    =  -4.02 kcal/mol  [=(1)+(2)+(3)-(4)]
DOCKED: USER
DOCKED: USER    (1) Final Intermolecular Energy     =  -5.51 kcal/mol
DOCKED: USER        vdW + Hbond + desolv Energy     =  -5.51 kcal/mol
DOCKED: USER        Electrostatic Energy            =  +0.00 kcal/mol
DOCKED: USER        Moving Ligand-Fixed Receptor    =  -5.51 kcal/mol
DOCKED: USER        Moving Ligand-Moving Receptor   =  +0.00 kcal/mol
DOCKED: USER    (2) Final Total Internal Energy     =  -1.28 kcal/mol
DOCKED: USER    (3) Torsional Free Energy           =  +1.49 kcal/mol
DOCKED: USER    (4) Unbound System's Energy         =  -1.28 kcal/mol
DOCKED: USER
DOCKED: USER
DOCKED: REMARK  5 active torsions:
DOCKED: REMARK  status: ('A' for Active; 'I' for Inactive)
DOCKED: REMARK    1  A    between atoms: C_2  and  C_19 
DOCKED: REMARK    2  A    between atoms: C_2  and  C_11 
DOCKED: REMARK    3  A    between atoms: C_19  and  C_20 
DOCKED: REMARK    4  A    between atoms: C_20  and  C_21 
DOCKED: REMARK    5  A    between atoms: C_21  and  N_22 
DOCKED: USER                              x       y       z     vdW  Elec       q    Type
DOCKED: USER                           _______ _______ _______ _____ _____    ______ ____
DOCKED: ROOT
DOCKED: ATOM      1  O   UNL     1     -41.781 -21.033   7.872 -0.04 -0.00    -0.346 OA 
DOCKED: ATOM      2  C   UNL     1     -43.190 -21.427   7.913 -0.12 +0.00    +0.130 C  
DOCKED: ATOM      3  C   UNL     1     -43.349 -22.318   6.715 -0.23 +0.00    +0.004 A  
DOCKED: ATOM      4  C   UNL     1     -42.117 -22.506   6.106 -0.32 +0.00    +0.006 A  
DOCKED: ATOM      5  C   UNL     1     -41.070 -21.775   6.854 -0.23 +0.00    +0.169 C  
DOCKED: ATOM      6  C   UNL     1     -44.492 -22.922   6.211 -0.23 -0.00    -0.001 A  
DOCKED: ATOM      7  C   UNL     1     -41.984 -23.296   4.976 -0.33 +0.00    +0.008 A  
DOCKED: ATOM      8  C   UNL     1     -44.376 -23.718   5.070 -0.24 +0.00    +0.010 A  
DOCKED: ATOM      9  C   UNL     1     -43.128 -23.904   4.457 -0.34 +0.00    +0.068 A  
DOCKED: ATOM     10  N   UNL     1     -42.946 -25.392   2.343 -1.68 -0.00    -0.191 NA 
DOCKED: ATOM     11  C   UNL     1     -43.028 -24.724   3.291 -0.48 +0.00    +0.101 C  
DOCKED: ENDROOT
DOCKED: BRANCH   2  12
DOCKED: ATOM     12  C   UNL     1     -43.451 -22.151   9.229 -0.07 +0.00    +0.038 C  
DOCKED: BRANCH  12  13
DOCKED: ATOM     13  C   UNL     1     -42.990 -23.606   9.165 -0.13 +0.00    +0.038 C  
DOCKED: BRANCH  13  14
DOCKED: ATOM     14  C   UNL     1     -42.182 -23.982  10.406 -0.08 +0.00    +0.251 C  
DOCKED: BRANCH  14  15
DOCKED: ATOM     15  N   UNL     1     -41.002 -23.133  10.518 -0.06 +0.00    +0.141 N  
DOCKED: ATOM     16  C   UNL     1     -40.439 -23.209  11.867 -0.03 +0.00    +0.285 C  
DOCKED: ATOM     17  C   UNL     1     -39.996 -23.516   9.526 -0.08 +0.00    +0.285 C  
DOCKED: ENDBRANCH  14  15
DOCKED: ENDBRANCH  13  14
DOCKED: ENDBRANCH  12  13
DOCKED: ENDBRANCH   2  12
DOCKED: BRANCH   2  18
DOCKED: ATOM     18  C   UNL     1     -43.996 -20.175   7.819 -0.15 +0.00    +0.006 A  
DOCKED: ATOM     19  C   UNL     1     -43.602 -19.156   6.952 -0.22 +0.00    +0.001 A  
DOCKED: ATOM     20  C   UNL     1     -44.356 -17.986   6.865 -0.18 +0.00    +0.029 A  
DOCKED: ATOM     21  C   UNL     1     -45.504 -17.836   7.643 -0.08 +0.00    +0.140 A  
DOCKED: ATOM     22  C   UNL     1     -45.898 -18.855   8.509 -0.08 +0.00    +0.029 A  
DOCKED: ATOM     23  F   UNL     1     -46.229 -16.713   7.558 +0.01 -0.00    -0.204 F  
DOCKED: ATOM     24  C   UNL     1     -45.143 -20.027   8.598 -0.09 +0.00    +0.001 A  
DOCKED: ENDBRANCH   2  18
DOCKED: TORSDOF 5
DOCKED: TER
DOCKED: ENDMDL
________________________________________________________________________________


    FINAL DOCKED STATE:
    ________________________


Run:   194 / 512
Time taken for this run:   0.002s

DOCKED: MODEL        194
DOCKED: USER    Run = 194
DOCKED: USER
DOCKED: USER    Estimated Free Energy of Binding    =  -3.55 kcal/mol  [=(1)+(2)+(3)-(4)]
DOCKED: USER
DOCKED: USER    (1) Final Intermolecular Energy     =  -5.05 kcal/mol
DOCKED: USER        vdW + Hbond + desolv Energy     =  -5.05 kcal/mol
DOCKED: USER        Electrostatic Energy            =  +0.00 kcal/mol
DOCKED: USER        Moving Ligand-Fixed Receptor    =  -5.05 kcal/mol
DOCKED: USER        Moving Ligand-Moving Receptor   =  +0.00 kcal/mol
DOCKED: USER    (2) Final Total Internal Energy     =  -1.45 kcal/mol
DOCKED: USER    (3) Torsional Free Energy           =  +1.49 kcal/mol
DOCKED: USER    (4) Unbound System's Energy         =  -1.45 kcal/mol
DOCKED: USER
DOCKED: USER
DOCKED: REMARK  5 active torsions:
DOCKED: REMARK  status: ('A' for Active; 'I' for Inactive)
DOCKED: REMARK    1  A    between atoms: C_2  and  C_19 
DOCKED: REMARK    2  A    between atoms: C_2  and  C_11 
DOCKED: REMARK    3  A    between atoms: C_19  and  C_20 
DOCKED: REMARK    4  A    between atoms: C_20  and  C_21 
DOCKED: REMARK    5  A    between atoms: C_21  and  N_22 
DOCKED: USER                              x       y       z     vdW  Elec       q    Type
DOCKED: USER                           _______ _______ _______ _____ _____    ______ ____
DOCKED: ROOT
DOCKED: ATOM      1  O   UNL     1     -39.970 -22.170  10.067 -0.02 -0.00    -0.346 OA 
DOCKED: ATOM      2  C   UNL     1     -40.178 -21.306   8.904 -0.08 +0.00    +0.130 C  
DOCKED: ATOM      3  C   UNL     1     -40.802 -22.217   7.887 -0.19 +0.00    +0.004 A  
DOCKED: ATOM      4  C   UNL     1     -41.033 -23.462   8.454 -0.19 +0.00    +0.006 A  
DOCKED: ATOM      5  C   UNL     1     -40.596 -23.459   9.869 -0.11 +0.00    +0.169 C  
DOCKED: ATOM      6  C   UNL     1     -41.148 -21.961   6.568 -0.28 -0.00    -0.001 A  
DOCKED: ATOM      7  C   UNL     1     -41.609 -24.490   7.728 -0.28 +0.00    +0.008 A  
DOCKED: ATOM      8  C   UNL     1     -41.726 -22.988   5.821 -0.35 +0.00    +0.010 A  
DOCKED: ATOM      9  C   UNL     1     -41.956 -24.246   6.398 -0.31 +0.00    +0.068 A  
DOCKED: ATOM     10  N   UNL     1     -43.037 -26.129   4.984 -2.38 -0.00    -0.191 NA 
DOCKED: ATOM     11  C   UNL     1     -42.551 -25.285   5.618 -0.28 +0.00    +0.101 C  
DOCKED: ENDROOT
DOCKED: BRANCH   2  12
DOCKED: ATOM     12  C   UNL     1     -41.093 -20.158   9.313 -0.04 +0.00    +0.038 C  
DOCKED: BRANCH  12  13
DOCKED: ATOM     13  C   UNL     1     -41.214 -20.056  10.832 -0.01 +0.00    +0.038 C  
DOCKED: BRANCH  13  14
DOCKED: ATOM     14  C   UNL     1     -40.788 -18.674  11.325 -0.00 +0.00    +0.251 C  
DOCKED: BRANCH  14  15
DOCKED: ATOM     15  N   UNL     1     -39.393 -18.695  11.749 -0.00 +0.00    +0.141 N  
DOCKED: ATOM     16  C   UNL     1     -39.017 -20.028  12.222 -0.00 +0.00    +0.285 C  
DOCKED: ATOM     17  C   UNL     1     -38.515 -18.279  10.654 -0.00 +0.00    +0.285 C  
DOCKED: ENDBRANCH  14  15
DOCKED: ENDBRANCH  13  14
DOCKED: ENDBRANCH  12  13
DOCKED: ENDBRANCH   2  12
DOCKED: BRANCH   2  18
DOCKED: ATOM     18  C   UNL     1     -38.836 -20.803   8.489 -0.10 +0.00    +0.006 A  
DOCKED: ATOM     19  C   UNL     1     -37.687 -21.287   9.113 -0.09 +0.00    +0.001 A  
DOCKED: ATOM     20  C   UNL     1     -36.432 -20.816   8.724 -0.07 +0.00    +0.029 A  
DOCKED: ATOM     21  C   UNL     1     -36.329 -19.862   7.712 -0.05 +0.00    +0.140 A  
DOCKED: ATOM     22  C   UNL     1     -37.479 -19.378   7.089 -0.09 +0.00    +0.029 A  
DOCKED: ATOM     23  F   UNL     1     -35.125 -19.411   7.338 -0.00 -0.00    -0.204 F  
DOCKED: ATOM     24  C   UNL     1     -38.734 -19.849   7.477 -0.12 +0.00    +0.001 A  
DOCKED: ENDBRANCH   2  18
DOCKED: TORSDOF 5
DOCKED: TER
DOCKED: ENDMDL
________________________________________________________________________________


    FINAL DOCKED STATE:
    ________________________


Run:   195 / 512
Time taken for this run:   0.002s

DOCKED: MODEL        195
DOCKED: USER    Run = 195
DOCKED: USER
DOCKED: USER    Estimated Free Energy of Binding    =  -3.97 kcal/mol  [=(1)+(2)+(3)-(4)]
DOCKED: USER
DOCKED: USER    (1) Final Intermolecular Energy     =  -5.46 kcal/mol
DOCKED: USER        vdW + Hbond + desolv Energy     =  -5.46 kcal/mol
DOCKED: USER        Electrostatic Energy            =  +0.00 kcal/mol
DOCKED: USER        Moving Ligand-Fixed Receptor    =  -5.46 kcal/mol
DOCKED: USER        Moving Ligand-Moving Receptor   =  +0.00 kcal/mol
DOCKED: USER    (2) Final Total Internal Energy     =  -1.35 kcal/mol
DOCKED: USER    (3) Torsional Free Energy           =  +1.49 kcal/mol
DOCKED: USER    (4) Unbound System's Energy         =  -1.35 kcal/mol
DOCKED: USER
DOCKED: USER
DOCKED: REMARK  5 active torsions:
DOCKED: REMARK  status: ('A' for Active; 'I' for Inactive)
DOCKED: REMARK    1  A    between atoms: C_2  and  C_19 
DOCKED: REMARK    2  A    between atoms: C_2  and  C_11 
DOCKED: REMARK    3  A    between atoms: C_19  and  C_20 
DOCKED: REMARK    4  A    between atoms: C_20  and  C_21 
DOCKED: REMARK    5  A    between atoms: C_21  and  N_22 
DOCKED: USER                              x       y       z     vdW  Elec       q    Type
DOCKED: USER                           _______ _______ _______ _____ _____    ______ ____
DOCKED: ROOT
DOCKED: ATOM      1  O   UNL     1     -32.977 -22.498  -1.136 +0.00 -0.00    -0.346 OA 
DOCKED: ATOM      2  C   UNL     1     -33.702 -21.605  -0.231 -0.06 +0.00    +0.130 C  
DOCKED: ATOM      3  C   UNL     1     -34.272 -22.529   0.806 -0.11 +0.00    +0.004 A  
DOCKED: ATOM      4  C   UNL     1     -33.821 -23.822   0.578 -0.12 +0.00    +0.006 A  
DOCKED: ATOM      5  C   UNL     1     -32.925 -23.841  -0.600 -0.06 +0.00    +0.169 C  
DOCKED: ATOM      6  C   UNL     1     -35.112 -22.246   1.873 -0.18 -0.00    -0.001 A  
DOCKED: ATOM      7  C   UNL     1     -34.196 -24.871   1.400 -0.21 +0.00    +0.008 A  
DOCKED: ATOM      8  C   UNL     1     -35.503 -23.294   2.708 -0.27 +0.00    +0.010 A  
DOCKED: ATOM      9  C   UNL     1     -35.046 -24.600   2.473 -0.29 +0.00    +0.068 A  
DOCKED: ATOM     10  N   UNL     1     -35.786 -26.522   4.045 -2.62 -0.00    -0.191 NA 
DOCKED: ATOM     11  C   UNL     1     -35.455 -25.660   3.339 -0.40 +0.00    +0.101 C  
DOCKED: ENDROOT
DOCKED: BRANCH   2  12
DOCKED: ATOM     12  C   UNL     1     -32.714 -20.600   0.349 -0.01 +0.00    +0.038 C  
DOCKED: BRANCH  12  13
DOCKED: ATOM     13  C   UNL     1     -32.242 -21.020   1.740 -0.02 +0.00    +0.038 C  
DOCKED: BRANCH  13  14
DOCKED: ATOM     14  C   UNL     1     -30.768 -21.418   1.723 -0.00 +0.00    +0.251 C  
DOCKED: BRANCH  14  15
DOCKED: ATOM     15  N   UNL     1     -30.553 -22.532   0.808 -0.00 +0.00    +0.141 N  
DOCKED: ATOM     16  C   UNL     1     -29.644 -22.145  -0.272 -0.00 +0.00    +0.285 C  
DOCKED: ATOM     17  C   UNL     1     -30.023 -23.694   1.525 -0.00 +0.00    +0.285 C  
DOCKED: ENDBRANCH  14  15
DOCKED: ENDBRANCH  13  14
DOCKED: ENDBRANCH  12  13
DOCKED: ENDBRANCH   2  12
DOCKED: BRANCH   2  18
DOCKED: ATOM     18  C   UNL     1     -34.752 -20.922  -1.041 -0.12 +0.00    +0.006 A  
DOCKED: ATOM     19  C   UNL     1     -34.865 -21.191  -2.405 -0.16 +0.00    +0.001 A  
DOCKED: ATOM     20  C   UNL     1     -35.847 -20.551  -3.161 -0.22 +0.00    +0.029 A  
DOCKED: ATOM     21  C   UNL     1     -36.715 -19.644  -2.554 -0.17 +0.00    +0.140 A  
DOCKED: ATOM     22  C   UNL     1     -36.601 -19.376  -1.190 -0.19 +0.00    +0.029 A  
DOCKED: ATOM     23  F   UNL     1     -37.659 -19.032  -3.281 -0.12 -0.00    -0.204 F  
DOCKED: ATOM     24  C   UNL     1     -35.619 -20.015  -0.433 -0.14 +0.00    +0.001 A  
DOCKED: ENDBRANCH   2  18
DOCKED: TORSDOF 5
DOCKED: TER
DOCKED: ENDMDL
________________________________________________________________________________


    FINAL DOCKED STATE:
    ________________________


Run:   196 / 512
Time taken for this run:   0.002s

DOCKED: MODEL        196
DOCKED: USER    Run = 196
DOCKED: USER
DOCKED: USER    Estimated Free Energy of Binding    =  -4.78 kcal/mol  [=(1)+(2)+(3)-(4)]
DOCKED: USER
DOCKED: USER    (1) Final Intermolecular Energy     =  -6.28 kcal/mol
DOCKED: USER        vdW + Hbond + desolv Energy     =  -6.28 kcal/mol
DOCKED: USER        Electrostatic Energy            =  +0.00 kcal/mol
DOCKED: USER        Moving Ligand-Fixed Receptor    =  -6.28 kcal/mol
DOCKED: USER        Moving Ligand-Moving Receptor   =  +0.00 kcal/mol
DOCKED: USER    (2) Final Total Internal Energy     =  -1.32 kcal/mol
DOCKED: USER    (3) Torsional Free Energy           =  +1.49 kcal/mol
DOCKED: USER    (4) Unbound System's Energy         =  -1.32 kcal/mol
DOCKED: USER
DOCKED: USER
DOCKED: REMARK  5 active torsions:
DOCKED: REMARK  status: ('A' for Active; 'I' for Inactive)
DOCKED: REMARK    1  A    between atoms: C_2  and  C_19 
DOCKED: REMARK    2  A    between atoms: C_2  and  C_11 
DOCKED: REMARK    3  A    between atoms: C_19  and  C_20 
DOCKED: REMARK    4  A    between atoms: C_20  and  C_21 
DOCKED: REMARK    5  A    between atoms: C_21  and  N_22 
DOCKED: USER                              x       y       z     vdW  Elec       q    Type
DOCKED: USER                           _______ _______ _______ _____ _____    ______ ____
DOCKED: ROOT
DOCKED: ATOM      1  O   UNL     1     -42.674 -21.870   8.519 -0.01 -0.00    -0.346 OA 
DOCKED: ATOM      2  C   UNL     1     -41.595 -22.852   8.409 -0.13 +0.00    +0.130 C  
DOCKED: ATOM      3  C   UNL     1     -41.809 -23.472   7.058 -0.28 +0.00    +0.004 A  
DOCKED: ATOM      4  C   UNL     1     -42.850 -22.825   6.408 -0.28 +0.00    +0.006 A  
DOCKED: ATOM      5  C   UNL     1     -43.381 -21.740   7.264 -0.16 +0.00    +0.169 C  
DOCKED: ATOM      6  C   UNL     1     -41.130 -24.517   6.449 -0.40 -0.00    -0.001 A  
DOCKED: ATOM      7  C   UNL     1     -43.249 -23.200   5.136 -0.05 +0.00    +0.008 A  
DOCKED: ATOM      8  C   UNL     1     -41.523 -24.910   5.169 -0.35 +0.00    +0.010 A  
DOCKED: ATOM      9  C   UNL     1     -42.577 -24.254   4.516 -0.42 +0.00    +0.068 A  
DOCKED: ATOM     10  N   UNL     1     -43.278 -25.005   2.137 -2.19 -0.00    -0.191 NA 
DOCKED: ATOM     11  C   UNL     1     -42.964 -24.668   3.204 -0.50 +0.00    +0.101 C  
DOCKED: ENDROOT
DOCKED: BRANCH   2  12
DOCKED: ATOM     12  C   UNL     1     -40.263 -22.121   8.522 -0.16 +0.00    +0.038 C  
DOCKED: BRANCH  12  13
DOCKED: ATOM     13  C   UNL     1     -39.910 -21.403   7.220 -0.20 +0.00    +0.038 C  
DOCKED: BRANCH  13  14
DOCKED: ATOM     14  C   UNL     1     -39.612 -19.926   7.471 -0.10 +0.00    +0.251 C  
DOCKED: BRANCH  14  15
DOCKED: ATOM     15  N   UNL     1     -40.797 -19.250   7.988 -0.06 +0.00    +0.141 N  
DOCKED: ATOM     16  C   UNL     1     -40.419 -18.176   8.908 -0.01 +0.00    +0.285 C  
DOCKED: ATOM     17  C   UNL     1     -41.606 -18.717   6.891 -0.11 +0.00    +0.285 C  
DOCKED: ENDBRANCH  14  15
DOCKED: ENDBRANCH  13  14
DOCKED: ENDBRANCH  12  13
DOCKED: ENDBRANCH   2  12
DOCKED: BRANCH   2  18
DOCKED: ATOM     18  C   UNL     1     -41.773 -23.823   9.529 -0.15 +0.00    +0.006 A  
DOCKED: ATOM     19  C   UNL     1     -43.042 -24.052  10.058 -0.13 +0.00    +0.001 A  
DOCKED: ATOM     20  C   UNL     1     -43.207 -24.959  11.105 -0.14 +0.00    +0.029 A  
DOCKED: ATOM     21  C   UNL     1     -42.103 -25.636  11.621 -0.03 +0.00    +0.140 A  
DOCKED: ATOM     22  C   UNL     1     -40.833 -25.407  11.091 -0.22 +0.00    +0.029 A  
DOCKED: ATOM     23  F   UNL     1     -42.262 -26.508  12.625 -0.05 -0.00    -0.204 F  
DOCKED: ATOM     24  C   UNL     1     -40.668 -24.499  10.044 -0.16 +0.00    +0.001 A  
DOCKED: ENDBRANCH   2  18
DOCKED: TORSDOF 5
DOCKED: TER
DOCKED: ENDMDL
________________________________________________________________________________


    FINAL DOCKED STATE:
    ________________________


Run:   197 / 512
Time taken for this run:   0.002s

DOCKED: MODEL        197
DOCKED: USER    Run = 197
DOCKED: USER
DOCKED: USER    Estimated Free Energy of Binding    =  -4.43 kcal/mol  [=(1)+(2)+(3)-(4)]
DOCKED: USER
DOCKED: USER    (1) Final Intermolecular Energy     =  -5.92 kcal/mol
DOCKED: USER        vdW + Hbond + desolv Energy     =  -5.92 kcal/mol
DOCKED: USER        Electrostatic Energy            =  +0.00 kcal/mol
DOCKED: USER        Moving Ligand-Fixed Receptor    =  -5.92 kcal/mol
DOCKED: USER        Moving Ligand-Moving Receptor   =  +0.00 kcal/mol
DOCKED: USER    (2) Final Total Internal Energy     =  -1.44 kcal/mol
DOCKED: USER    (3) Torsional Free Energy           =  +1.49 kcal/mol
DOCKED: USER    (4) Unbound System's Energy         =  -1.44 kcal/mol
DOCKED: USER
DOCKED: USER
DOCKED: REMARK  5 active torsions:
DOCKED: REMARK  status: ('A' for Active; 'I' for Inactive)
DOCKED: REMARK    1  A    between atoms: C_2  and  C_19 
DOCKED: REMARK    2  A    between atoms: C_2  and  C_11 
DOCKED: REMARK    3  A    between atoms: C_19  and  C_20 
DOCKED: REMARK    4  A    between atoms: C_20  and  C_21 
DOCKED: REMARK    5  A    between atoms: C_21  and  N_22 
DOCKED: USER                              x       y       z     vdW  Elec       q    Type
DOCKED: USER                           _______ _______ _______ _____ _____    ______ ____
DOCKED: ROOT
DOCKED: ATOM      1  O   UNL     1     -39.424 -15.772   1.221 -0.10 -0.00    -0.346 OA 
DOCKED: ATOM      2  C   UNL     1     -38.091 -15.520   0.670 -0.18 +0.00    +0.130 C  
DOCKED: ATOM      3  C   UNL     1     -38.367 -14.888  -0.663 -0.23 +0.00    +0.004 A  
DOCKED: ATOM      4  C   UNL     1     -39.732 -14.693  -0.814 -0.18 +0.00    +0.006 A  
DOCKED: ATOM      5  C   UNL     1     -40.444 -15.164   0.395 -0.06 +0.00    +0.169 C  
DOCKED: ATOM      6  C   UNL     1     -37.479 -14.505  -1.658 -0.21 -0.00    -0.001 A  
DOCKED: ATOM      7  C   UNL     1     -40.256 -14.116  -1.959 -0.32 +0.00    +0.008 A  
DOCKED: ATOM      8  C   UNL     1     -37.992 -13.926  -2.820 -0.28 +0.00    +0.010 A  
DOCKED: ATOM      9  C   UNL     1     -39.373 -13.732  -2.969 -0.33 +0.00    +0.068 A  
DOCKED: ATOM     10  N   UNL     1     -40.291 -12.650  -5.137 -2.52 -0.00    -0.191 NA 
DOCKED: ATOM     11  C   UNL     1     -39.880 -13.136  -4.165 -0.34 +0.00    +0.101 C  
DOCKED: ENDROOT
DOCKED: BRANCH   2  12
DOCKED: ATOM     12  C   UNL     1     -37.342 -14.596   1.622 -0.12 +0.00    +0.038 C  
DOCKED: BRANCH  12  13
DOCKED: ATOM     13  C   UNL     1     -38.055 -14.486   2.968 -0.18 +0.00    +0.038 C  
DOCKED: BRANCH  13  14
DOCKED: ATOM     14  C   UNL     1     -37.561 -15.555   3.941 -0.06 +0.00    +0.251 C  
DOCKED: BRANCH  14  15
DOCKED: ATOM     15  N   UNL     1     -38.664 -16.046   4.759 -0.05 +0.00    +0.141 N  
DOCKED: ATOM     16  C   UNL     1     -39.804 -15.131   4.690 -0.05 +0.00    +0.285 C  
DOCKED: ATOM     17  C   UNL     1     -39.064 -17.388   4.333 -0.04 +0.00    +0.285 C  
DOCKED: ENDBRANCH  14  15
DOCKED: ENDBRANCH  13  14
DOCKED: ENDBRANCH  12  13
DOCKED: ENDBRANCH   2  12
DOCKED: BRANCH   2  18
DOCKED: ATOM     18  C   UNL     1     -37.409 -16.843   0.556 -0.11 +0.00    +0.006 A  
DOCKED: ATOM     19  C   UNL     1     -37.968 -17.849  -0.230 -0.19 +0.00    +0.001 A  
DOCKED: ATOM     20  C   UNL     1     -37.330 -19.086  -0.335 -0.15 +0.00    +0.029 A  
DOCKED: ATOM     21  C   UNL     1     -36.135 -19.314   0.345 -0.10 +0.00    +0.140 A  
DOCKED: ATOM     22  C   UNL     1     -35.576 -18.306   1.131 -0.03 +0.00    +0.029 A  
DOCKED: ATOM     23  F   UNL     1     -35.521 -20.500   0.242 -0.03 -0.00    -0.204 F  
DOCKED: ATOM     24  C   UNL     1     -36.214 -17.069   1.238 -0.05 +0.00    +0.001 A  
DOCKED: ENDBRANCH   2  18
DOCKED: TORSDOF 5
DOCKED: TER
DOCKED: ENDMDL
________________________________________________________________________________


    FINAL DOCKED STATE:
    ________________________


Run:   198 / 512
Time taken for this run:   0.002s

DOCKED: MODEL        198
DOCKED: USER    Run = 198
DOCKED: USER
DOCKED: USER    Estimated Free Energy of Binding    =  -5.49 kcal/mol  [=(1)+(2)+(3)-(4)]
DOCKED: USER
DOCKED: USER    (1) Final Intermolecular Energy     =  -6.98 kcal/mol
DOCKED: USER        vdW + Hbond + desolv Energy     =  -6.98 kcal/mol
DOCKED: USER        Electrostatic Energy            =  +0.00 kcal/mol
DOCKED: USER        Moving Ligand-Fixed Receptor    =  -6.98 kcal/mol
DOCKED: USER        Moving Ligand-Moving Receptor   =  +0.00 kcal/mol
DOCKED: USER    (2) Final Total Internal Energy     =  -1.38 kcal/mol
DOCKED: USER    (3) Torsional Free Energy           =  +1.49 kcal/mol
DOCKED: USER    (4) Unbound System's Energy         =  -1.38 kcal/mol
DOCKED: USER
DOCKED: USER
DOCKED: REMARK  5 active torsions:
DOCKED: REMARK  status: ('A' for Active; 'I' for Inactive)
DOCKED: REMARK    1  A    between atoms: C_2  and  C_19 
DOCKED: REMARK    2  A    between atoms: C_2  and  C_11 
DOCKED: REMARK    3  A    between atoms: C_19  and  C_20 
DOCKED: REMARK    4  A    between atoms: C_20  and  C_21 
DOCKED: REMARK    5  A    between atoms: C_21  and  N_22 
DOCKED: USER                              x       y       z     vdW  Elec       q    Type
DOCKED: USER                           _______ _______ _______ _____ _____    ______ ____
DOCKED: ROOT
DOCKED: ATOM      1  O   UNL     1     -41.219 -21.881   7.988 -0.04 -0.00    -0.346 OA 
DOCKED: ATOM      2  C   UNL     1     -41.393 -23.330   8.100 -0.18 +0.00    +0.130 C  
DOCKED: ATOM      3  C   UNL     1     -41.839 -23.746   6.729 -0.32 +0.00    +0.004 A  
DOCKED: ATOM      4  C   UNL     1     -41.816 -22.650   5.878 -0.34 +0.00    +0.006 A  
DOCKED: ATOM      5  C   UNL     1     -41.348 -21.454   6.612 -0.23 +0.00    +0.169 C  
DOCKED: ATOM      6  C   UNL     1     -42.225 -24.997   6.268 -0.28 -0.00    -0.001 A  
DOCKED: ATOM      7  C   UNL     1     -42.179 -22.764   4.547 +0.04 +0.00    +0.008 A  
DOCKED: ATOM      8  C   UNL     1     -42.597 -25.127   4.930 -0.48 +0.00    +0.010 A  
DOCKED: ATOM      9  C   UNL     1     -42.574 -24.016   4.073 -0.42 +0.00    +0.068 A  
DOCKED: ATOM     10  N   UNL     1     -43.268 -24.293   1.592 -3.13 -0.00    -0.191 NA 
DOCKED: ATOM     11  C   UNL     1     -42.957 -24.169   2.705 -0.42 +0.00    +0.101 C  
DOCKED: ENDROOT
DOCKED: BRANCH   2  12
DOCKED: ATOM     12  C   UNL     1     -40.058 -23.946   8.502 -0.21 +0.00    +0.038 C  
DOCKED: BRANCH  12  13
DOCKED: ATOM     13  C   UNL     1     -38.885 -23.086   8.036 -0.17 +0.00    +0.038 C  
DOCKED: BRANCH  13  14
DOCKED: ATOM     14  C   UNL     1     -37.944 -22.765   9.196 -0.11 +0.00    +0.251 C  
DOCKED: BRANCH  14  15
DOCKED: ATOM     15  N   UNL     1     -38.110 -21.378   9.614 -0.05 +0.00    +0.141 N  
DOCKED: ATOM     16  C   UNL     1     -38.267 -20.504   8.451 -0.06 +0.00    +0.285 C  
DOCKED: ATOM     17  C   UNL     1     -39.260 -21.243  10.510 -0.02 +0.00    +0.285 C  
DOCKED: ENDBRANCH  14  15
DOCKED: ENDBRANCH  13  14
DOCKED: ENDBRANCH  12  13
DOCKED: ENDBRANCH   2  12
DOCKED: BRANCH   2  18
DOCKED: ATOM     18  C   UNL     1     -42.431 -23.565   9.146 -0.12 +0.00    +0.006 A  
DOCKED: ATOM     19  C   UNL     1     -42.062 -24.068  10.393 -0.14 +0.00    +0.001 A  
DOCKED: ATOM     20  C   UNL     1     -43.034 -24.288  11.370 -0.10 +0.00    +0.029 A  
DOCKED: ATOM     21  C   UNL     1     -44.371 -24.003  11.100 -0.05 +0.00    +0.140 A  
DOCKED: ATOM     22  C   UNL     1     -44.739 -23.499   9.853 -0.07 +0.00    +0.029 A  
DOCKED: ATOM     23  F   UNL     1     -45.303 -24.212  12.039 +0.01 -0.00    -0.204 F  
DOCKED: ATOM     24  C   UNL     1     -43.768 -23.280   8.874 -0.10 +0.00    +0.001 A  
DOCKED: ENDBRANCH   2  18
DOCKED: TORSDOF 5
DOCKED: TER
DOCKED: ENDMDL
________________________________________________________________________________


    FINAL DOCKED STATE:
    ________________________


Run:   199 / 512
Time taken for this run:   0.002s

DOCKED: MODEL        199
DOCKED: USER    Run = 199
DOCKED: USER
DOCKED: USER    Estimated Free Energy of Binding    =  -3.69 kcal/mol  [=(1)+(2)+(3)-(4)]
DOCKED: USER
DOCKED: USER    (1) Final Intermolecular Energy     =  -5.18 kcal/mol
DOCKED: USER        vdW + Hbond + desolv Energy     =  -5.18 kcal/mol
DOCKED: USER        Electrostatic Energy            =  +0.00 kcal/mol
DOCKED: USER        Moving Ligand-Fixed Receptor    =  -5.18 kcal/mol
DOCKED: USER        Moving Ligand-Moving Receptor   =  +0.00 kcal/mol
DOCKED: USER    (2) Final Total Internal Energy     =  -1.33 kcal/mol
DOCKED: USER    (3) Torsional Free Energy           =  +1.49 kcal/mol
DOCKED: USER    (4) Unbound System's Energy         =  -1.33 kcal/mol
DOCKED: USER
DOCKED: USER
DOCKED: REMARK  5 active torsions:
DOCKED: REMARK  status: ('A' for Active; 'I' for Inactive)
DOCKED: REMARK    1  A    between atoms: C_2  and  C_19 
DOCKED: REMARK    2  A    between atoms: C_2  and  C_11 
DOCKED: REMARK    3  A    between atoms: C_19  and  C_20 
DOCKED: REMARK    4  A    between atoms: C_20  and  C_21 
DOCKED: REMARK    5  A    between atoms: C_21  and  N_22 
DOCKED: USER                              x       y       z     vdW  Elec       q    Type
DOCKED: USER                           _______ _______ _______ _____ _____    ______ ____
DOCKED: ROOT
DOCKED: ATOM      1  O   UNL     1     -44.015 -19.396   7.434 -0.08 -0.00    -0.346 OA 
DOCKED: ATOM      2  C   UNL     1     -42.706 -19.807   7.944 -0.11 +0.00    +0.130 C  
DOCKED: ATOM      3  C   UNL     1     -42.569 -21.228   7.480 -0.18 +0.00    +0.004 A  
DOCKED: ATOM      4  C   UNL     1     -43.652 -21.565   6.681 -0.19 +0.00    +0.006 A  
DOCKED: ATOM      5  C   UNL     1     -44.562 -20.404   6.552 -0.08 +0.00    +0.169 C  
DOCKED: ATOM      6  C   UNL     1     -41.560 -22.145   7.734 -0.18 -0.00    -0.001 A  
DOCKED: ATOM      7  C   UNL     1     -43.767 -22.823   6.116 -0.22 +0.00    +0.008 A  
DOCKED: ATOM      8  C   UNL     1     -41.663 -23.420   7.175 -0.27 +0.00    +0.010 A  
DOCKED: ATOM      9  C   UNL     1     -42.761 -23.757   6.370 -0.25 +0.00    +0.068 A  
DOCKED: ATOM     10  N   UNL     1     -42.919 -26.131   5.344 -2.62 -0.00    -0.191 NA 
DOCKED: ATOM     11  C   UNL     1     -42.849 -25.066   5.804 -0.32 +0.00    +0.101 C  
DOCKED: ENDROOT
DOCKED: BRANCH   2  12
DOCKED: ATOM     12  C   UNL     1     -41.647 -18.884   7.353 -0.14 +0.00    +0.038 C  
DOCKED: BRANCH  12  13
DOCKED: ATOM     13  C   UNL     1     -42.128 -17.435   7.317 -0.10 +0.00    +0.038 C  
DOCKED: BRANCH  13  14
DOCKED: ATOM     14  C   UNL     1     -42.777 -17.105   5.973 -0.13 +0.00    +0.251 C  
DOCKED: BRANCH  14  15
DOCKED: ATOM     15  N   UNL     1     -44.163 -16.695   6.166 -0.13 +0.00    +0.141 N  
DOCKED: ATOM     16  C   UNL     1     -44.291 -15.851   7.355 -0.02 +0.00    +0.285 C  
DOCKED: ATOM     17  C   UNL     1     -44.661 -15.988   4.985 -0.08 +0.00    +0.285 C  
DOCKED: ENDBRANCH  14  15
DOCKED: ENDBRANCH  13  14
DOCKED: ENDBRANCH  12  13
DOCKED: ENDBRANCH   2  12
DOCKED: BRANCH   2  18
DOCKED: ATOM     18  C   UNL     1     -42.759 -19.683   9.430 -0.03 +0.00    +0.006 A  
DOCKED: ATOM     19  C   UNL     1     -41.665 -20.073  10.201 -0.02 +0.00    +0.001 A  
DOCKED: ATOM     20  C   UNL     1     -41.716 -19.958  11.591 -0.00 +0.00    +0.029 A  
DOCKED: ATOM     21  C   UNL     1     -42.860 -19.452  12.207 +0.00 +0.00    +0.140 A  
DOCKED: ATOM     22  C   UNL     1     -43.953 -19.061  11.435 -0.00 +0.00    +0.029 A  
DOCKED: ATOM     23  F   UNL     1     -42.907 -19.339  13.541 +0.00 -0.00    -0.204 F  
DOCKED: ATOM     24  C   UNL     1     -43.904 -19.177  10.045 -0.02 +0.00    +0.001 A  
DOCKED: ENDBRANCH   2  18
DOCKED: TORSDOF 5
DOCKED: TER
DOCKED: ENDMDL
________________________________________________________________________________


    FINAL DOCKED STATE:
    ________________________


Run:   200 / 512
Time taken for this run:   0.002s

DOCKED: MODEL        200
DOCKED: USER    Run = 200
DOCKED: USER
DOCKED: USER    Estimated Free Energy of Binding    =  -4.74 kcal/mol  [=(1)+(2)+(3)-(4)]
DOCKED: USER
DOCKED: USER    (1) Final Intermolecular Energy     =  -6.23 kcal/mol
DOCKED: USER        vdW + Hbond + desolv Energy     =  -6.23 kcal/mol
DOCKED: USER        Electrostatic Energy            =  +0.00 kcal/mol
DOCKED: USER        Moving Ligand-Fixed Receptor    =  -6.23 kcal/mol
DOCKED: USER        Moving Ligand-Moving Receptor   =  +0.00 kcal/mol
DOCKED: USER    (2) Final Total Internal Energy     =  -1.22 kcal/mol
DOCKED: USER    (3) Torsional Free Energy           =  +1.49 kcal/mol
DOCKED: USER    (4) Unbound System's Energy         =  -1.22 kcal/mol
DOCKED: USER
DOCKED: USER
DOCKED: REMARK  5 active torsions:
DOCKED: REMARK  status: ('A' for Active; 'I' for Inactive)
DOCKED: REMARK    1  A    between atoms: C_2  and  C_19 
DOCKED: REMARK    2  A    between atoms: C_2  and  C_11 
DOCKED: REMARK    3  A    between atoms: C_19  and  C_20 
DOCKED: REMARK    4  A    between atoms: C_20  and  C_21 
DOCKED: REMARK    5  A    between atoms: C_21  and  N_22 
DOCKED: USER                              x       y       z     vdW  Elec       q    Type
DOCKED: USER                           _______ _______ _______ _____ _____    ______ ____
DOCKED: ROOT
DOCKED: ATOM      1  O   UNL     1     -42.041 -21.878   9.054 -0.01 -0.00    -0.346 OA 
DOCKED: ATOM      2  C   UNL     1     -41.184 -23.062   8.981 -0.12 +0.00    +0.130 C  
DOCKED: ATOM      3  C   UNL     1     -41.443 -23.610   7.607 -0.25 +0.00    +0.004 A  
DOCKED: ATOM      4  C   UNL     1     -42.288 -22.754   6.915 -0.25 +0.00    +0.006 A  
DOCKED: ATOM      5  C   UNL     1     -42.632 -21.591   7.765 -0.12 +0.00    +0.169 C  
DOCKED: ATOM      6  C   UNL     1     -40.960 -24.767   7.014 -0.39 -0.00    -0.001 A  
DOCKED: ATOM      7  C   UNL     1     -42.681 -23.025   5.616 -0.31 +0.00    +0.008 A  
DOCKED: ATOM      8  C   UNL     1     -41.351 -25.056   5.706 -0.42 +0.00    +0.010 A  
DOCKED: ATOM      9  C   UNL     1     -42.207 -24.189   5.010 -0.39 +0.00    +0.068 A  
DOCKED: ATOM     10  N   UNL     1     -42.909 -24.754   2.581 -1.91 -0.00    -0.191 NA 
DOCKED: ATOM     11  C   UNL     1     -42.595 -24.501   3.671 -0.52 +0.00    +0.101 C  
DOCKED: ENDROOT
DOCKED: BRANCH   2  12
DOCKED: ATOM     12  C   UNL     1     -39.738 -22.624   9.182 -0.15 +0.00    +0.038 C  
DOCKED: BRANCH  12  13
DOCKED: ATOM     13  C   UNL     1     -39.527 -21.178   8.739 -0.11 +0.00    +0.038 C  
DOCKED: BRANCH  13  14
DOCKED: ATOM     14  C   UNL     1     -38.387 -21.073   7.729 -0.05 +0.00    +0.251 C  
DOCKED: BRANCH  14  15
DOCKED: ATOM     15  N   UNL     1     -38.594 -19.931   6.846 -0.12 +0.00    +0.141 N  
DOCKED: ATOM     16  C   UNL     1     -39.933 -19.970   6.258 -0.12 +0.00    +0.285 C  
DOCKED: ATOM     17  C   UNL     1     -38.394 -18.676   7.572 -0.04 +0.00    +0.285 C  
DOCKED: ENDBRANCH  14  15
DOCKED: ENDBRANCH  13  14
DOCKED: ENDBRANCH  12  13
DOCKED: ENDBRANCH   2  12
DOCKED: BRANCH   2  18
DOCKED: ATOM     18  C   UNL     1     -41.623 -23.985  10.068 -0.15 +0.00    +0.006 A  
DOCKED: ATOM     19  C   UNL     1     -40.729 -24.916  10.595 -0.19 +0.00    +0.001 A  
DOCKED: ATOM     20  C   UNL     1     -41.141 -25.779  11.611 -0.24 +0.00    +0.029 A  
DOCKED: ATOM     21  C   UNL     1     -42.445 -25.710  12.098 -0.09 +0.00    +0.140 A  
DOCKED: ATOM     22  C   UNL     1     -43.339 -24.779  11.571 -0.13 +0.00    +0.029 A  
DOCKED: ATOM     23  F   UNL     1     -42.840 -26.538  13.075 -0.05 -0.00    -0.204 F  
DOCKED: ATOM     24  C   UNL     1     -42.928 -23.916  10.554 -0.11 +0.00    +0.001 A  
DOCKED: ENDBRANCH   2  18
DOCKED: TORSDOF 5
DOCKED: TER
DOCKED: ENDMDL
________________________________________________________________________________


    FINAL DOCKED STATE:
    ________________________


Run:   201 / 512
Time taken for this run:   0.002s

DOCKED: MODEL        201
DOCKED: USER    Run = 201
DOCKED: USER
DOCKED: USER    Estimated Free Energy of Binding    =  -3.45 kcal/mol  [=(1)+(2)+(3)-(4)]
DOCKED: USER
DOCKED: USER    (1) Final Intermolecular Energy     =  -4.94 kcal/mol
DOCKED: USER        vdW + Hbond + desolv Energy     =  -4.94 kcal/mol
DOCKED: USER        Electrostatic Energy            =  +0.00 kcal/mol
DOCKED: USER        Moving Ligand-Fixed Receptor    =  -4.94 kcal/mol
DOCKED: USER        Moving Ligand-Moving Receptor   =  +0.00 kcal/mol
DOCKED: USER    (2) Final Total Internal Energy     =  -1.42 kcal/mol
DOCKED: USER    (3) Torsional Free Energy           =  +1.49 kcal/mol
DOCKED: USER    (4) Unbound System's Energy         =  -1.42 kcal/mol
DOCKED: USER
DOCKED: USER
DOCKED: REMARK  5 active torsions:
DOCKED: REMARK  status: ('A' for Active; 'I' for Inactive)
DOCKED: REMARK    1  A    between atoms: C_2  and  C_19 
DOCKED: REMARK    2  A    between atoms: C_2  and  C_11 
DOCKED: REMARK    3  A    between atoms: C_19  and  C_20 
DOCKED: REMARK    4  A    between atoms: C_20  and  C_21 
DOCKED: REMARK    5  A    between atoms: C_21  and  N_22 
DOCKED: USER                              x       y       z     vdW  Elec       q    Type
DOCKED: USER                           _______ _______ _______ _____ _____    ______ ____
DOCKED: ROOT
DOCKED: ATOM      1  O   UNL     1     -40.364 -19.817   7.857 -0.03 -0.00    -0.346 OA 
DOCKED: ATOM      2  C   UNL     1     -39.889 -20.920   8.692 -0.08 +0.00    +0.130 C  
DOCKED: ATOM      3  C   UNL     1     -40.561 -22.129   8.108 -0.17 +0.00    +0.004 A  
DOCKED: ATOM      4  C   UNL     1     -41.270 -21.765   6.972 -0.25 +0.00    +0.006 A  
DOCKED: ATOM      5  C   UNL     1     -41.109 -20.316   6.721 -0.19 +0.00    +0.169 C  
DOCKED: ATOM      6  C   UNL     1     -40.537 -23.447   8.541 -0.21 -0.00    -0.001 A  
DOCKED: ATOM      7  C   UNL     1     -41.980 -22.699   6.236 -0.32 +0.00    +0.008 A  
DOCKED: ATOM      8  C   UNL     1     -41.251 -24.399   7.812 -0.29 +0.00    +0.010 A  
DOCKED: ATOM      9  C   UNL     1     -41.968 -24.027   6.665 -0.28 +0.00    +0.068 A  
DOCKED: ATOM     10  N   UNL     1     -43.279 -25.821   5.332 -2.55 -0.00    -0.191 NA 
DOCKED: ATOM     11  C   UNL     1     -42.692 -25.016   5.930 -0.33 +0.00    +0.101 C  
DOCKED: ENDROOT
DOCKED: BRANCH   2  12
DOCKED: ATOM     12  C   UNL     1     -38.369 -20.980   8.592 -0.11 +0.00    +0.038 C  
DOCKED: BRANCH  12  13
DOCKED: ATOM     13  C   UNL     1     -37.750 -19.586   8.670 -0.05 +0.00    +0.038 C  
DOCKED: BRANCH  13  14
DOCKED: ATOM     14  C   UNL     1     -36.785 -19.478   9.849 -0.01 +0.00    +0.251 C  
DOCKED: BRANCH  14  15
DOCKED: ATOM     15  N   UNL     1     -37.109 -18.313  10.664 -0.00 +0.00    +0.141 N  
DOCKED: ATOM     16  C   UNL     1     -37.940 -17.372   9.912 -0.00 +0.00    +0.285 C  
DOCKED: ATOM     17  C   UNL     1     -37.788 -18.718  11.896 -0.00 +0.00    +0.285 C  
DOCKED: ENDBRANCH  14  15
DOCKED: ENDBRANCH  13  14
DOCKED: ENDBRANCH  12  13
DOCKED: ENDBRANCH   2  12
DOCKED: BRANCH   2  18
DOCKED: ATOM     18  C   UNL     1     -40.326 -20.630  10.089 -0.03 +0.00    +0.006 A  
DOCKED: ATOM     19  C   UNL     1     -41.151 -19.537  10.347 -0.01 +0.00    +0.001 A  
DOCKED: ATOM     20  C   UNL     1     -41.559 -19.266  11.654 -0.00 +0.00    +0.029 A  
DOCKED: ATOM     21  C   UNL     1     -41.141 -20.089  12.700 +0.00 +0.00    +0.140 A  
DOCKED: ATOM     22  C   UNL     1     -40.316 -21.182  12.440 -0.01 +0.00    +0.029 A  
DOCKED: ATOM     23  F   UNL     1     -41.534 -19.830  13.954 +0.00 -0.00    -0.204 F  
DOCKED: ATOM     24  C   UNL     1     -39.907 -21.453  11.133 -0.02 +0.00    +0.001 A  
DOCKED: ENDBRANCH   2  18
DOCKED: TORSDOF 5
DOCKED: TER
DOCKED: ENDMDL
________________________________________________________________________________


    FINAL DOCKED STATE:
    ________________________


Run:   202 / 512
Time taken for this run:   0.002s

DOCKED: MODEL        202
DOCKED: USER    Run = 202
DOCKED: USER
DOCKED: USER    Estimated Free Energy of Binding    =  -4.01 kcal/mol  [=(1)+(2)+(3)-(4)]
DOCKED: USER
DOCKED: USER    (1) Final Intermolecular Energy     =  -5.50 kcal/mol
DOCKED: USER        vdW + Hbond + desolv Energy     =  -5.50 kcal/mol
DOCKED: USER        Electrostatic Energy            =  +0.00 kcal/mol
DOCKED: USER        Moving Ligand-Fixed Receptor    =  -5.50 kcal/mol
DOCKED: USER        Moving Ligand-Moving Receptor   =  +0.00 kcal/mol
DOCKED: USER    (2) Final Total Internal Energy     =  -1.45 kcal/mol
DOCKED: USER    (3) Torsional Free Energy           =  +1.49 kcal/mol
DOCKED: USER    (4) Unbound System's Energy         =  -1.45 kcal/mol
DOCKED: USER
DOCKED: USER
DOCKED: REMARK  5 active torsions:
DOCKED: REMARK  status: ('A' for Active; 'I' for Inactive)
DOCKED: REMARK    1  A    between atoms: C_2  and  C_19 
DOCKED: REMARK    2  A    between atoms: C_2  and  C_11 
DOCKED: REMARK    3  A    between atoms: C_19  and  C_20 
DOCKED: REMARK    4  A    between atoms: C_20  and  C_21 
DOCKED: REMARK    5  A    between atoms: C_21  and  N_22 
DOCKED: USER                              x       y       z     vdW  Elec       q    Type
DOCKED: USER                           _______ _______ _______ _____ _____    ______ ____
DOCKED: ROOT
DOCKED: ATOM      1  O   UNL     1     -38.256 -21.999   8.679 -0.08 -0.00    -0.346 OA 
DOCKED: ATOM      2  C   UNL     1     -39.349 -21.084   8.347 -0.11 +0.00    +0.130 C  
DOCKED: ATOM      3  C   UNL     1     -40.343 -21.956   7.635 -0.20 +0.00    +0.004 A  
DOCKED: ATOM      4  C   UNL     1     -39.909 -23.273   7.657 -0.25 +0.00    +0.006 A  
DOCKED: ATOM      5  C   UNL     1     -38.623 -23.367   8.383 -0.12 +0.00    +0.169 C  
DOCKED: ATOM      6  C   UNL     1     -41.542 -21.611   7.028 -0.24 -0.00    -0.001 A  
DOCKED: ATOM      7  C   UNL     1     -40.650 -24.286   7.072 -0.35 +0.00    +0.008 A  
DOCKED: ATOM      8  C   UNL     1     -42.299 -22.620   6.430 -0.29 +0.00    +0.010 A  
DOCKED: ATOM      9  C   UNL     1     -41.855 -23.951   6.453 -0.30 +0.00    +0.068 A  
DOCKED: ATOM     10  N   UNL     1     -43.287 -25.800   5.338 -2.56 -0.00    -0.191 NA 
DOCKED: ATOM     11  C   UNL     1     -42.645 -24.971   5.838 -0.36 +0.00    +0.101 C  
DOCKED: ENDROOT
DOCKED: BRANCH   2  12
DOCKED: ATOM     12  C   UNL     1     -39.895 -20.495   9.641 -0.04 +0.00    +0.038 C  
DOCKED: BRANCH  12  13
DOCKED: ATOM     13  C   UNL     1     -39.304 -21.194  10.864 -0.03 +0.00    +0.038 C  
DOCKED: BRANCH  13  14
DOCKED: ATOM     14  C   UNL     1     -37.902 -20.673  11.171 -0.01 +0.00    +0.251 C  
DOCKED: BRANCH  14  15
DOCKED: ATOM     15  N   UNL     1     -37.682 -19.390  10.512 -0.01 +0.00    +0.141 N  
DOCKED: ATOM     16  C   UNL     1     -38.035 -18.285  11.404 -0.00 +0.00    +0.285 C  
DOCKED: ATOM     17  C   UNL     1     -36.290 -19.266  10.077 -0.00 +0.00    +0.285 C  
DOCKED: ENDBRANCH  14  15
DOCKED: ENDBRANCH  13  14
DOCKED: ENDBRANCH  12  13
DOCKED: ENDBRANCH   2  12
DOCKED: BRANCH   2  18
DOCKED: ATOM     18  C   UNL     1     -38.776 -20.021   7.470 -0.12 +0.00    +0.006 A  
DOCKED: ATOM     19  C   UNL     1     -37.511 -20.188   6.908 -0.09 +0.00    +0.001 A  
DOCKED: ATOM     20  C   UNL     1     -36.977 -19.192   6.089 -0.10 +0.00    +0.029 A  
DOCKED: ATOM     21  C   UNL     1     -37.707 -18.033   5.833 -0.06 +0.00    +0.140 A  
DOCKED: ATOM     22  C   UNL     1     -38.973 -17.867   6.396 -0.08 +0.00    +0.029 A  
DOCKED: ATOM     23  F   UNL     1     -37.195 -17.078   5.046 -0.00 -0.00    -0.204 F  
DOCKED: ATOM     24  C   UNL     1     -39.508 -18.862   7.216 -0.10 +0.00    +0.001 A  
DOCKED: ENDBRANCH   2  18
DOCKED: TORSDOF 5
DOCKED: TER
DOCKED: ENDMDL
________________________________________________________________________________


    FINAL DOCKED STATE:
    ________________________


Run:   203 / 512
Time taken for this run:   0.002s

DOCKED: MODEL        203
DOCKED: USER    Run = 203
DOCKED: USER
DOCKED: USER    Estimated Free Energy of Binding    =  -4.11 kcal/mol  [=(1)+(2)+(3)-(4)]
DOCKED: USER
DOCKED: USER    (1) Final Intermolecular Energy     =  -5.60 kcal/mol
DOCKED: USER        vdW + Hbond + desolv Energy     =  -5.60 kcal/mol
DOCKED: USER        Electrostatic Energy            =  +0.00 kcal/mol
DOCKED: USER        Moving Ligand-Fixed Receptor    =  -5.60 kcal/mol
DOCKED: USER        Moving Ligand-Moving Receptor   =  +0.00 kcal/mol
DOCKED: USER    (2) Final Total Internal Energy     =  -1.03 kcal/mol
DOCKED: USER    (3) Torsional Free Energy           =  +1.49 kcal/mol
DOCKED: USER    (4) Unbound System's Energy         =  -1.03 kcal/mol
DOCKED: USER
DOCKED: USER
DOCKED: REMARK  5 active torsions:
DOCKED: REMARK  status: ('A' for Active; 'I' for Inactive)
DOCKED: REMARK    1  A    between atoms: C_2  and  C_19 
DOCKED: REMARK    2  A    between atoms: C_2  and  C_11 
DOCKED: REMARK    3  A    between atoms: C_19  and  C_20 
DOCKED: REMARK    4  A    between atoms: C_20  and  C_21 
DOCKED: REMARK    5  A    between atoms: C_21  and  N_22 
DOCKED: USER                              x       y       z     vdW  Elec       q    Type
DOCKED: USER                           _______ _______ _______ _____ _____    ______ ____
DOCKED: ROOT
DOCKED: ATOM      1  O   UNL     1     -38.605 -16.121   0.719 -0.07 -0.00    -0.346 OA 
DOCKED: ATOM      2  C   UNL     1     -37.360 -15.586   0.166 -0.14 +0.00    +0.130 C  
DOCKED: ATOM      3  C   UNL     1     -37.801 -14.855  -1.070 -0.22 +0.00    +0.004 A  
DOCKED: ATOM      4  C   UNL     1     -39.186 -14.876  -1.155 -0.31 +0.00    +0.006 A  
DOCKED: ATOM      5  C   UNL     1     -39.750 -15.600   0.006 -0.22 +0.00    +0.169 C  
DOCKED: ATOM      6  C   UNL     1     -37.038 -14.213  -2.034 -0.18 -0.00    -0.001 A  
DOCKED: ATOM      7  C   UNL     1     -39.853 -14.265  -2.203 -0.30 +0.00    +0.008 A  
DOCKED: ATOM      8  C   UNL     1     -37.696 -13.595  -3.099 -0.26 +0.00    +0.010 A  
DOCKED: ATOM      9  C   UNL     1     -39.096 -13.621  -3.183 -0.33 +0.00    +0.068 A  
DOCKED: ATOM     10  N   UNL     1     -40.284 -12.460  -5.171 -2.46 -0.00    -0.191 NA 
DOCKED: ATOM     11  C   UNL     1     -39.751 -12.981  -4.280 -0.41 +0.00    +0.101 C  
DOCKED: ENDROOT
DOCKED: BRANCH   2  12
DOCKED: ATOM     12  C   UNL     1     -36.726 -14.667   1.204 -0.15 +0.00    +0.038 C  
DOCKED: BRANCH  12  13
DOCKED: ATOM     13  C   UNL     1     -35.262 -14.382   0.875 -0.12 +0.00    +0.038 C  
DOCKED: BRANCH  13  14
DOCKED: ATOM     14  C   UNL     1     -34.578 -13.636   2.019 -0.06 +0.00    +0.251 C  
DOCKED: BRANCH  14  15
DOCKED: ATOM     15  N   UNL     1     -33.717 -14.542   2.771 -0.03 +0.00    +0.141 N  
DOCKED: ATOM     16  C   UNL     1     -34.174 -14.655   4.157 -0.03 +0.00    +0.285 C  
DOCKED: ATOM     17  C   UNL     1     -33.679 -15.861   2.139 -0.01 +0.00    +0.285 C  
DOCKED: ENDBRANCH  14  15
DOCKED: ENDBRANCH  13  14
DOCKED: ENDBRANCH  12  13
DOCKED: ENDBRANCH   2  12
DOCKED: BRANCH   2  18
DOCKED: ATOM     18  C   UNL     1     -36.478 -16.752  -0.132 -0.07 +0.00    +0.006 A  
DOCKED: ATOM     19  C   UNL     1     -35.764 -16.797  -1.329 -0.05 +0.00    +0.001 A  
DOCKED: ATOM     20  C   UNL     1     -34.940 -17.888  -1.607 -0.03 +0.00    +0.029 A  
DOCKED: ATOM     21  C   UNL     1     -34.830 -18.931  -0.688 -0.03 +0.00    +0.140 A  
DOCKED: ATOM     22  C   UNL     1     -35.544 -18.884   0.510 -0.05 +0.00    +0.029 A  
DOCKED: ATOM     23  F   UNL     1     -34.037 -19.977  -0.953 -0.00 -0.00    -0.204 F  
DOCKED: ATOM     24  C   UNL     1     -36.369 -17.794   0.788 -0.06 +0.00    +0.001 A  
DOCKED: ENDBRANCH   2  18
DOCKED: TORSDOF 5
DOCKED: TER
DOCKED: ENDMDL
________________________________________________________________________________


    FINAL DOCKED STATE:
    ________________________


Run:   204 / 512
Time taken for this run:   0.002s

DOCKED: MODEL        204
DOCKED: USER    Run = 204
DOCKED: USER
DOCKED: USER    Estimated Free Energy of Binding    =  -3.92 kcal/mol  [=(1)+(2)+(3)-(4)]
DOCKED: USER
DOCKED: USER    (1) Final Intermolecular Energy     =  -5.41 kcal/mol
DOCKED: USER        vdW + Hbond + desolv Energy     =  -5.41 kcal/mol
DOCKED: USER        Electrostatic Energy            =  +0.00 kcal/mol
DOCKED: USER        Moving Ligand-Fixed Receptor    =  -5.41 kcal/mol
DOCKED: USER        Moving Ligand-Moving Receptor   =  +0.00 kcal/mol
DOCKED: USER    (2) Final Total Internal Energy     =  -1.28 kcal/mol
DOCKED: USER    (3) Torsional Free Energy           =  +1.49 kcal/mol
DOCKED: USER    (4) Unbound System's Energy         =  -1.28 kcal/mol
DOCKED: USER
DOCKED: USER
DOCKED: REMARK  5 active torsions:
DOCKED: REMARK  status: ('A' for Active; 'I' for Inactive)
DOCKED: REMARK    1  A    between atoms: C_2  and  C_19 
DOCKED: REMARK    2  A    between atoms: C_2  and  C_11 
DOCKED: REMARK    3  A    between atoms: C_19  and  C_20 
DOCKED: REMARK    4  A    between atoms: C_20  and  C_21 
DOCKED: REMARK    5  A    between atoms: C_21  and  N_22 
DOCKED: USER                              x       y       z     vdW  Elec       q    Type
DOCKED: USER                           _______ _______ _______ _____ _____    ______ ____
DOCKED: ROOT
DOCKED: ATOM      1  O   UNL     1     -44.323 -19.697   8.107 -0.03 -0.00    -0.346 OA 
DOCKED: ATOM      2  C   UNL     1     -42.909 -19.713   7.730 -0.14 +0.00    +0.130 C  
DOCKED: ATOM      3  C   UNL     1     -42.698 -21.095   7.181 -0.21 +0.00    +0.004 A  
DOCKED: ATOM      4  C   UNL     1     -43.909 -21.772   7.144 -0.20 +0.00    +0.006 A  
DOCKED: ATOM      5  C   UNL     1     -44.991 -20.895   7.645 -0.14 +0.00    +0.169 C  
DOCKED: ATOM      6  C   UNL     1     -41.531 -21.700   6.739 -0.27 -0.00    -0.001 A  
DOCKED: ATOM      7  C   UNL     1     -43.995 -23.070   6.671 -0.23 +0.00    +0.008 A  
DOCKED: ATOM      8  C   UNL     1     -41.600 -23.010   6.264 -0.33 +0.00    +0.010 A  
DOCKED: ATOM      9  C   UNL     1     -42.826 -23.692   6.229 -0.26 +0.00    +0.068 A  
DOCKED: ATOM     10  N   UNL     1     -42.919 -26.122   5.335 -2.60 -0.00    -0.191 NA 
DOCKED: ATOM     11  C   UNL     1     -42.877 -25.032   5.737 -0.36 +0.00    +0.101 C  
DOCKED: ENDROOT
DOCKED: BRANCH   2  12
DOCKED: ATOM     12  C   UNL     1     -42.672 -18.621   6.694 -0.21 +0.00    +0.038 C  
DOCKED: BRANCH  12  13
DOCKED: ATOM     13  C   UNL     1     -43.990 -18.096   6.128 -0.16 +0.00    +0.038 C  
DOCKED: BRANCH  13  14
DOCKED: ATOM     14  C   UNL     1     -44.322 -16.717   6.697 -0.09 +0.00    +0.251 C  
DOCKED: BRANCH  14  15
DOCKED: ATOM     15  N   UNL     1     -43.133 -16.111   7.284 -0.04 +0.00    +0.141 N  
DOCKED: ATOM     16  C   UNL     1     -42.366 -15.390   6.266 -0.03 +0.00    +0.285 C  
DOCKED: ATOM     17  C   UNL     1     -43.500 -15.208   8.376 -0.00 +0.00    +0.285 C  
DOCKED: ENDBRANCH  14  15
DOCKED: ENDBRANCH  13  14
DOCKED: ENDBRANCH  12  13
DOCKED: ENDBRANCH   2  12
DOCKED: BRANCH   2  18
DOCKED: ATOM     18  C   UNL     1     -42.124 -19.456   8.973 -0.04 +0.00    +0.006 A  
DOCKED: ATOM     19  C   UNL     1     -40.938 -18.725   8.909 -0.03 +0.00    +0.001 A  
DOCKED: ATOM     20  C   UNL     1     -40.205 -18.485  10.072 -0.01 +0.00    +0.029 A  
DOCKED: ATOM     21  C   UNL     1     -40.658 -18.976  11.296 -0.00 +0.00    +0.140 A  
DOCKED: ATOM     22  C   UNL     1     -41.844 -19.706  11.359 -0.00 +0.00    +0.029 A  
DOCKED: ATOM     23  F   UNL     1     -39.955 -18.744  12.412 +0.00 -0.00    -0.204 F  
DOCKED: ATOM     24  C   UNL     1     -42.578 -19.947  10.196 -0.02 +0.00    +0.001 A  
DOCKED: ENDBRANCH   2  18
DOCKED: TORSDOF 5
DOCKED: TER
DOCKED: ENDMDL
________________________________________________________________________________


    FINAL DOCKED STATE:
    ________________________


Run:   205 / 512
Time taken for this run:   0.002s

DOCKED: MODEL        205
DOCKED: USER    Run = 205
DOCKED: USER
DOCKED: USER    Estimated Free Energy of Binding    =  -4.97 kcal/mol  [=(1)+(2)+(3)-(4)]
DOCKED: USER
DOCKED: USER    (1) Final Intermolecular Energy     =  -6.46 kcal/mol
DOCKED: USER        vdW + Hbond + desolv Energy     =  -6.46 kcal/mol
DOCKED: USER        Electrostatic Energy            =  +0.00 kcal/mol
DOCKED: USER        Moving Ligand-Fixed Receptor    =  -6.46 kcal/mol
DOCKED: USER        Moving Ligand-Moving Receptor   =  +0.00 kcal/mol
DOCKED: USER    (2) Final Total Internal Energy     =  -1.44 kcal/mol
DOCKED: USER    (3) Torsional Free Energy           =  +1.49 kcal/mol
DOCKED: USER    (4) Unbound System's Energy         =  -1.44 kcal/mol
DOCKED: USER
DOCKED: USER
DOCKED: REMARK  5 active torsions:
DOCKED: REMARK  status: ('A' for Active; 'I' for Inactive)
DOCKED: REMARK    1  A    between atoms: C_2  and  C_19 
DOCKED: REMARK    2  A    between atoms: C_2  and  C_11 
DOCKED: REMARK    3  A    between atoms: C_19  and  C_20 
DOCKED: REMARK    4  A    between atoms: C_20  and  C_21 
DOCKED: REMARK    5  A    between atoms: C_21  and  N_22 
DOCKED: USER                              x       y       z     vdW  Elec       q    Type
DOCKED: USER                           _______ _______ _______ _____ _____    ______ ____
DOCKED: ROOT
DOCKED: ATOM      1  O   UNL     1     -40.605 -24.699   8.579 -0.11 -0.00    -0.346 OA 
DOCKED: ATOM      2  C   UNL     1     -41.054 -23.350   8.231 -0.19 +0.00    +0.130 C  
DOCKED: ATOM      3  C   UNL     1     -41.578 -23.496   6.832 -0.31 +0.00    +0.004 A  
DOCKED: ATOM      4  C   UNL     1     -41.536 -24.830   6.454 -0.37 +0.00    +0.006 A  
DOCKED: ATOM      5  C   UNL     1     -41.000 -25.650   7.563 -0.03 +0.00    +0.169 C  
DOCKED: ATOM      6  C   UNL     1     -42.065 -22.526   5.967 -0.33 -0.00    -0.001 A  
DOCKED: ATOM      7  C   UNL     1     -41.971 -25.239   5.205 -0.46 +0.00    +0.008 A  
DOCKED: ATOM      8  C   UNL     1     -42.503 -22.922   4.703 +0.04 +0.00    +0.010 A  
DOCKED: ATOM      9  C   UNL     1     -42.457 -24.272   4.324 -0.42 +0.00    +0.068 A  
DOCKED: ATOM     10  N   UNL     1     -43.283 -24.974   1.970 -2.36 -0.00    -0.191 NA 
DOCKED: ATOM     11  C   UNL     1     -42.912 -24.659   3.026 -0.50 +0.00    +0.101 C  
DOCKED: ENDROOT
DOCKED: BRANCH   2  12
DOCKED: ATOM     12  C   UNL     1     -42.128 -22.927   9.226 -0.11 +0.00    +0.038 C  
DOCKED: BRANCH  12  13
DOCKED: ATOM     13  C   UNL     1     -43.428 -23.698   9.004 -0.14 +0.00    +0.038 C  
DOCKED: BRANCH  13  14
DOCKED: ATOM     14  C   UNL     1     -44.576 -22.751   8.659 -0.04 +0.00    +0.251 C  
DOCKED: BRANCH  14  15
DOCKED: ATOM     15  N   UNL     1     -45.446 -23.354   7.656 -0.12 +0.00    +0.141 N  
DOCKED: ATOM     16  C   UNL     1     -45.646 -22.439   6.531 -0.13 +0.00    +0.285 C  
DOCKED: ATOM     17  C   UNL     1     -44.889 -24.623   7.186 -0.08 +0.00    +0.285 C  
DOCKED: ENDBRANCH  14  15
DOCKED: ENDBRANCH  13  14
DOCKED: ENDBRANCH  12  13
DOCKED: ENDBRANCH   2  12
DOCKED: BRANCH   2  18
DOCKED: ATOM     18  C   UNL     1     -39.861 -22.458   8.315 -0.19 +0.00    +0.006 A  
DOCKED: ATOM     19  C   UNL     1     -40.022 -21.074   8.274 -0.13 +0.00    +0.001 A  
DOCKED: ATOM     20  C   UNL     1     -38.905 -20.240   8.352 -0.08 +0.00    +0.029 A  
DOCKED: ATOM     21  C   UNL     1     -37.630 -20.792   8.473 -0.07 +0.00    +0.140 A  
DOCKED: ATOM     22  C   UNL     1     -37.470 -22.177   8.514 -0.14 +0.00    +0.029 A  
DOCKED: ATOM     23  F   UNL     1     -36.559 -19.992   8.550 -0.01 -0.00    -0.204 F  
DOCKED: ATOM     24  C   UNL     1     -38.586 -23.011   8.435 -0.20 +0.00    +0.001 A  
DOCKED: ENDBRANCH   2  18
DOCKED: TORSDOF 5
DOCKED: TER
DOCKED: ENDMDL
________________________________________________________________________________


    FINAL DOCKED STATE:
    ________________________


Run:   206 / 512
Time taken for this run:   0.002s

DOCKED: MODEL        206
DOCKED: USER    Run = 206
DOCKED: USER
DOCKED: USER    Estimated Free Energy of Binding    =  -3.72 kcal/mol  [=(1)+(2)+(3)-(4)]
DOCKED: USER
DOCKED: USER    (1) Final Intermolecular Energy     =  -5.21 kcal/mol
DOCKED: USER        vdW + Hbond + desolv Energy     =  -5.21 kcal/mol
DOCKED: USER        Electrostatic Energy            =  +0.00 kcal/mol
DOCKED: USER        Moving Ligand-Fixed Receptor    =  -5.21 kcal/mol
DOCKED: USER        Moving Ligand-Moving Receptor   =  +0.00 kcal/mol
DOCKED: USER    (2) Final Total Internal Energy     =  -1.56 kcal/mol
DOCKED: USER    (3) Torsional Free Energy           =  +1.49 kcal/mol
DOCKED: USER    (4) Unbound System's Energy         =  -1.56 kcal/mol
DOCKED: USER
DOCKED: USER
DOCKED: REMARK  5 active torsions:
DOCKED: REMARK  status: ('A' for Active; 'I' for Inactive)
DOCKED: REMARK    1  A    between atoms: C_2  and  C_19 
DOCKED: REMARK    2  A    between atoms: C_2  and  C_11 
DOCKED: REMARK    3  A    between atoms: C_19  and  C_20 
DOCKED: REMARK    4  A    between atoms: C_20  and  C_21 
DOCKED: REMARK    5  A    between atoms: C_21  and  N_22 
DOCKED: USER                              x       y       z     vdW  Elec       q    Type
DOCKED: USER                           _______ _______ _______ _____ _____    ______ ____
DOCKED: ROOT
DOCKED: ATOM      1  O   UNL     1     -39.019 -22.081   9.277 -0.05 -0.00    -0.346 OA 
DOCKED: ATOM      2  C   UNL     1     -39.993 -21.202   8.628 -0.10 +0.00    +0.130 C  
DOCKED: ATOM      3  C   UNL     1     -40.773 -22.125   7.737 -0.20 +0.00    +0.004 A  
DOCKED: ATOM      4  C   UNL     1     -40.357 -23.433   7.941 -0.26 +0.00    +0.006 A  
DOCKED: ATOM      5  C   UNL     1     -39.298 -23.468   8.974 -0.11 +0.00    +0.169 C  
DOCKED: ATOM      6  C   UNL     1     -41.779 -21.832   6.828 -0.27 -0.00    -0.001 A  
DOCKED: ATOM      7  C   UNL     1     -40.924 -24.487   7.245 -0.36 +0.00    +0.008 A  
DOCKED: ATOM      8  C   UNL     1     -42.358 -22.883   6.115 -0.32 +0.00    +0.010 A  
DOCKED: ATOM      9  C   UNL     1     -41.933 -24.204   6.323 -0.31 +0.00    +0.068 A  
DOCKED: ATOM     10  N   UNL     1     -43.033 -26.132   4.987 -2.38 -0.00    -0.191 NA 
DOCKED: ATOM     11  C   UNL     1     -42.539 -25.267   5.586 -0.30 +0.00    +0.101 C  
DOCKED: ENDROOT
DOCKED: BRANCH   2  12
DOCKED: ATOM     12  C   UNL     1     -40.851 -20.552   9.706 -0.04 +0.00    +0.038 C  
DOCKED: BRANCH  12  13
DOCKED: ATOM     13  C   UNL     1     -40.158 -20.590  11.067 -0.01 +0.00    +0.038 C  
DOCKED: BRANCH  13  14
DOCKED: ATOM     14  C   UNL     1     -38.954 -19.651  11.098 -0.00 +0.00    +0.251 C  
DOCKED: BRANCH  14  15
DOCKED: ATOM     15  N   UNL     1     -37.723 -20.396  10.859 -0.01 +0.00    +0.141 N  
DOCKED: ATOM     16  C   UNL     1     -36.623 -19.486  10.537 -0.00 +0.00    +0.285 C  
DOCKED: ATOM     17  C   UNL     1     -37.382 -21.215  12.023 -0.00 +0.00    +0.285 C  
DOCKED: ENDBRANCH  14  15
DOCKED: ENDBRANCH  13  14
DOCKED: ENDBRANCH  12  13
DOCKED: ENDBRANCH   2  12
DOCKED: BRANCH   2  18
DOCKED: ATOM     18  C   UNL     1     -39.217 -20.178   7.867 -0.11 +0.00    +0.006 A  
DOCKED: ATOM     19  C   UNL     1     -38.007 -20.525   7.267 -0.09 +0.00    +0.001 A  
DOCKED: ATOM     20  C   UNL     1     -37.283 -19.566   6.557 -0.10 +0.00    +0.029 A  
DOCKED: ATOM     21  C   UNL     1     -37.770 -18.265   6.447 -0.05 +0.00    +0.140 A  
DOCKED: ATOM     22  C   UNL     1     -38.980 -17.919   7.047 -0.06 +0.00    +0.029 A  
DOCKED: ATOM     23  F   UNL     1     -37.075 -17.346   5.763 -0.00 -0.00    -0.204 F  
DOCKED: ATOM     24  C   UNL     1     -39.705 -18.876   7.759 -0.08 +0.00    +0.001 A  
DOCKED: ENDBRANCH   2  18
DOCKED: TORSDOF 5
DOCKED: TER
DOCKED: ENDMDL
________________________________________________________________________________


    FINAL DOCKED STATE:
    ________________________


Run:   207 / 512
Time taken for this run:   0.002s

DOCKED: MODEL        207
DOCKED: USER    Run = 207
DOCKED: USER
DOCKED: USER    Estimated Free Energy of Binding    =  -3.85 kcal/mol  [=(1)+(2)+(3)-(4)]
DOCKED: USER
DOCKED: USER    (1) Final Intermolecular Energy     =  -5.34 kcal/mol
DOCKED: USER        vdW + Hbond + desolv Energy     =  -5.34 kcal/mol
DOCKED: USER        Electrostatic Energy            =  +0.00 kcal/mol
DOCKED: USER        Moving Ligand-Fixed Receptor    =  -5.34 kcal/mol
DOCKED: USER        Moving Ligand-Moving Receptor   =  +0.00 kcal/mol
DOCKED: USER    (2) Final Total Internal Energy     =  -1.51 kcal/mol
DOCKED: USER    (3) Torsional Free Energy           =  +1.49 kcal/mol
DOCKED: USER    (4) Unbound System's Energy         =  -1.51 kcal/mol
DOCKED: USER
DOCKED: USER
DOCKED: REMARK  5 active torsions:
DOCKED: REMARK  status: ('A' for Active; 'I' for Inactive)
DOCKED: REMARK    1  A    between atoms: C_2  and  C_19 
DOCKED: REMARK    2  A    between atoms: C_2  and  C_11 
DOCKED: REMARK    3  A    between atoms: C_19  and  C_20 
DOCKED: REMARK    4  A    between atoms: C_20  and  C_21 
DOCKED: REMARK    5  A    between atoms: C_21  and  N_22 
DOCKED: USER                              x       y       z     vdW  Elec       q    Type
DOCKED: USER                           _______ _______ _______ _____ _____    ______ ____
DOCKED: ROOT
DOCKED: ATOM      1  O   UNL     1     -32.431 -21.971  -0.190 +0.01 -0.00    -0.346 OA 
DOCKED: ATOM      2  C   UNL     1     -33.678 -21.334   0.235 -0.05 +0.00    +0.130 C  
DOCKED: ATOM      3  C   UNL     1     -34.321 -22.359   1.124 -0.11 +0.00    +0.004 A  
DOCKED: ATOM      4  C   UNL     1     -33.467 -23.441   1.283 -0.08 +0.00    +0.006 A  
DOCKED: ATOM      5  C   UNL     1     -32.213 -23.206   0.532 -0.02 +0.00    +0.169 C  
DOCKED: ATOM      6  C   UNL     1     -35.558 -22.331   1.751 -0.24 -0.00    -0.001 A  
DOCKED: ATOM      7  C   UNL     1     -33.818 -24.528   2.065 -0.17 +0.00    +0.008 A  
DOCKED: ATOM      8  C   UNL     1     -35.929 -23.422   2.540 -0.29 +0.00    +0.010 A  
DOCKED: ATOM      9  C   UNL     1     -35.063 -24.514   2.696 -0.29 +0.00    +0.068 A  
DOCKED: ATOM     10  N   UNL     1     -35.779 -26.520   4.171 -2.66 -0.00    -0.191 NA 
DOCKED: ATOM     11  C   UNL     1     -35.458 -25.621   3.509 -0.37 +0.00    +0.101 C  
DOCKED: ENDROOT
DOCKED: BRANCH   2  12
DOCKED: ATOM     12  C   UNL     1     -33.335 -20.043   0.969 -0.02 +0.00    +0.038 C  
DOCKED: BRANCH  12  13
DOCKED: ATOM     13  C   UNL     1     -31.842 -19.732   0.881 -0.00 +0.00    +0.038 C  
DOCKED: BRANCH  13  14
DOCKED: ATOM     14  C   UNL     1     -31.529 -18.893  -0.356 -0.00 +0.00    +0.251 C  
DOCKED: BRANCH  14  15
DOCKED: ATOM     15  N   UNL     1     -30.445 -19.500  -1.120 +0.00 +0.00    +0.141 N  
DOCKED: ATOM     16  C   UNL     1     -29.701 -20.451  -0.292 +0.00 +0.00    +0.285 C  
DOCKED: ATOM     17  C   UNL     1     -30.966 -20.167  -2.314 -0.00 +0.00    +0.285 C  
DOCKED: ENDBRANCH  14  15
DOCKED: ENDBRANCH  13  14
DOCKED: ENDBRANCH  12  13
DOCKED: ENDBRANCH   2  12
DOCKED: BRANCH   2  18
DOCKED: ATOM     18  C   UNL     1     -34.469 -21.057  -1.000 -0.11 +0.00    +0.006 A  
DOCKED: ATOM     19  C   UNL     1     -34.050 -21.572  -2.226 -0.11 +0.00    +0.001 A  
DOCKED: ATOM     20  C   UNL     1     -34.790 -21.312  -3.380 -0.17 +0.00    +0.029 A  
DOCKED: ATOM     21  C   UNL     1     -35.948 -20.538  -3.306 -0.20 +0.00    +0.140 A  
DOCKED: ATOM     22  C   UNL     1     -36.367 -20.024  -2.079 -0.17 +0.00    +0.029 A  
DOCKED: ATOM     23  F   UNL     1     -36.659 -20.290  -4.413 -0.13 -0.00    -0.204 F  
DOCKED: ATOM     24  C   UNL     1     -35.627 -20.283  -0.924 -0.16 +0.00    +0.001 A  
DOCKED: ENDBRANCH   2  18
DOCKED: TORSDOF 5
DOCKED: TER
DOCKED: ENDMDL
________________________________________________________________________________


    FINAL DOCKED STATE:
    ________________________


Run:   208 / 512
Time taken for this run:   0.002s

DOCKED: MODEL        208
DOCKED: USER    Run = 208
DOCKED: USER
DOCKED: USER    Estimated Free Energy of Binding    =  -4.03 kcal/mol  [=(1)+(2)+(3)-(4)]
DOCKED: USER
DOCKED: USER    (1) Final Intermolecular Energy     =  -5.52 kcal/mol
DOCKED: USER        vdW + Hbond + desolv Energy     =  -5.52 kcal/mol
DOCKED: USER        Electrostatic Energy            =  +0.00 kcal/mol
DOCKED: USER        Moving Ligand-Fixed Receptor    =  -5.52 kcal/mol
DOCKED: USER        Moving Ligand-Moving Receptor   =  +0.00 kcal/mol
DOCKED: USER    (2) Final Total Internal Energy     =  -1.26 kcal/mol
DOCKED: USER    (3) Torsional Free Energy           =  +1.49 kcal/mol
DOCKED: USER    (4) Unbound System's Energy         =  -1.26 kcal/mol
DOCKED: USER
DOCKED: USER
DOCKED: REMARK  5 active torsions:
DOCKED: REMARK  status: ('A' for Active; 'I' for Inactive)
DOCKED: REMARK    1  A    between atoms: C_2  and  C_19 
DOCKED: REMARK    2  A    between atoms: C_2  and  C_11 
DOCKED: REMARK    3  A    between atoms: C_19  and  C_20 
DOCKED: REMARK    4  A    between atoms: C_20  and  C_21 
DOCKED: REMARK    5  A    between atoms: C_21  and  N_22 
DOCKED: USER                              x       y       z     vdW  Elec       q    Type
DOCKED: USER                           _______ _______ _______ _____ _____    ______ ____
DOCKED: ROOT
DOCKED: ATOM      1  O   UNL     1     -43.700 -19.373   7.616 -0.06 -0.00    -0.346 OA 
DOCKED: ATOM      2  C   UNL     1     -42.294 -19.576   7.263 -0.16 +0.00    +0.130 C  
DOCKED: ATOM      3  C   UNL     1     -42.238 -21.010   6.822 -0.23 +0.00    +0.004 A  
DOCKED: ATOM      4  C   UNL     1     -43.517 -21.548   6.818 -0.22 +0.00    +0.006 A  
DOCKED: ATOM      5  C   UNL     1     -44.496 -20.519   7.237 -0.18 +0.00    +0.169 C  
DOCKED: ATOM      6  C   UNL     1     -41.144 -21.775   6.445 -0.28 -0.00    -0.001 A  
DOCKED: ATOM      7  C   UNL     1     -43.746 -22.861   6.443 -0.24 +0.00    +0.008 A  
DOCKED: ATOM      8  C   UNL     1     -41.357 -23.102   6.068 -0.33 +0.00    +0.010 A  
DOCKED: ATOM      9  C   UNL     1     -42.652 -23.642   6.067 -0.28 +0.00    +0.068 A  
DOCKED: ATOM     10  N   UNL     1     -43.014 -26.107   5.357 -2.58 -0.00    -0.191 NA 
DOCKED: ATOM     11  C   UNL     1     -42.852 -25.002   5.676 -0.38 +0.00    +0.101 C  
DOCKED: ENDROOT
DOCKED: BRANCH   2  12
DOCKED: ATOM     12  C   UNL     1     -41.930 -18.599   6.151 -0.10 +0.00    +0.038 C  
DOCKED: BRANCH  12  13
DOCKED: ATOM     13  C   UNL     1     -43.056 -17.600   5.897 -0.15 +0.00    +0.038 C  
DOCKED: BRANCH  13  14
DOCKED: ATOM     14  C   UNL     1     -42.504 -16.266   5.398 -0.11 +0.00    +0.251 C  
DOCKED: BRANCH  14  15
DOCKED: ATOM     15  N   UNL     1     -42.428 -15.307   6.494 -0.04 +0.00    +0.141 N  
DOCKED: ATOM     16  C   UNL     1     -43.402 -15.635   7.536 -0.01 +0.00    +0.285 C  
DOCKED: ATOM     17  C   UNL     1     -41.077 -15.272   7.055 -0.01 +0.00    +0.285 C  
DOCKED: ENDBRANCH  14  15
DOCKED: ENDBRANCH  13  14
DOCKED: ENDBRANCH  12  13
DOCKED: ENDBRANCH   2  12
DOCKED: BRANCH   2  18
DOCKED: ATOM     18  C   UNL     1     -41.492 -19.314   8.494 -0.06 +0.00    +0.006 A  
DOCKED: ATOM     19  C   UNL     1     -41.500 -20.236   9.539 -0.03 +0.00    +0.001 A  
DOCKED: ATOM     20  C   UNL     1     -40.750 -19.990  10.690 -0.01 +0.00    +0.029 A  
DOCKED: ATOM     21  C   UNL     1     -39.994 -18.823  10.794 -0.00 +0.00    +0.140 A  
DOCKED: ATOM     22  C   UNL     1     -39.987 -17.901   9.747 -0.01 +0.00    +0.029 A  
DOCKED: ATOM     23  F   UNL     1     -39.273 -18.588  11.897 +0.00 -0.00    -0.204 F  
DOCKED: ATOM     24  C   UNL     1     -40.737 -18.146   8.596 -0.03 +0.00    +0.001 A  
DOCKED: ENDBRANCH   2  18
DOCKED: TORSDOF 5
DOCKED: TER
DOCKED: ENDMDL
________________________________________________________________________________


    FINAL DOCKED STATE:
    ________________________


Run:   209 / 512
Time taken for this run:   0.002s

DOCKED: MODEL        209
DOCKED: USER    Run = 209
DOCKED: USER
DOCKED: USER    Estimated Free Energy of Binding    =  -3.85 kcal/mol  [=(1)+(2)+(3)-(4)]
DOCKED: USER
DOCKED: USER    (1) Final Intermolecular Energy     =  -5.34 kcal/mol
DOCKED: USER        vdW + Hbond + desolv Energy     =  -5.34 kcal/mol
DOCKED: USER        Electrostatic Energy            =  +0.00 kcal/mol
DOCKED: USER        Moving Ligand-Fixed Receptor    =  -5.34 kcal/mol
DOCKED: USER        Moving Ligand-Moving Receptor   =  +0.00 kcal/mol
DOCKED: USER    (2) Final Total Internal Energy     =  -1.32 kcal/mol
DOCKED: USER    (3) Torsional Free Energy           =  +1.49 kcal/mol
DOCKED: USER    (4) Unbound System's Energy         =  -1.32 kcal/mol
DOCKED: USER
DOCKED: USER
DOCKED: REMARK  5 active torsions:
DOCKED: REMARK  status: ('A' for Active; 'I' for Inactive)
DOCKED: REMARK    1  A    between atoms: C_2  and  C_19 
DOCKED: REMARK    2  A    between atoms: C_2  and  C_11 
DOCKED: REMARK    3  A    between atoms: C_19  and  C_20 
DOCKED: REMARK    4  A    between atoms: C_20  and  C_21 
DOCKED: REMARK    5  A    between atoms: C_21  and  N_22 
DOCKED: USER                              x       y       z     vdW  Elec       q    Type
DOCKED: USER                           _______ _______ _______ _____ _____    ______ ____
DOCKED: ROOT
DOCKED: ATOM      1  O   UNL     1     -38.218 -21.997   8.647 -0.08 -0.00    -0.346 OA 
DOCKED: ATOM      2  C   UNL     1     -39.438 -21.189   8.645 -0.10 +0.00    +0.130 C  
DOCKED: ATOM      3  C   UNL     1     -40.435 -22.046   7.920 -0.19 +0.00    +0.004 A  
DOCKED: ATOM      4  C   UNL     1     -39.869 -23.279   7.631 -0.24 +0.00    +0.006 A  
DOCKED: ATOM      5  C   UNL     1     -38.483 -23.329   8.147 -0.03 +0.00    +0.169 C  
DOCKED: ATOM      6  C   UNL     1     -41.743 -21.761   7.556 -0.18 -0.00    -0.001 A  
DOCKED: ATOM      7  C   UNL     1     -40.583 -24.263   6.969 -0.34 +0.00    +0.008 A  
DOCKED: ATOM      8  C   UNL     1     -42.475 -22.741   6.884 -0.24 +0.00    +0.010 A  
DOCKED: ATOM      9  C   UNL     1     -41.898 -23.986   6.592 -0.29 +0.00    +0.068 A  
DOCKED: ATOM     10  N   UNL     1     -43.286 -25.785   5.347 -2.56 -0.00    -0.191 NA 
DOCKED: ATOM     11  C   UNL     1     -42.663 -24.978   5.905 -0.34 +0.00    +0.101 C  
DOCKED: ENDROOT
DOCKED: BRANCH   2  12
DOCKED: ATOM     12  C   UNL     1     -39.834 -20.910  10.090 -0.04 +0.00    +0.038 C  
DOCKED: BRANCH  12  13
DOCKED: ATOM     13  C   UNL     1     -40.733 -22.013  10.644 -0.05 +0.00    +0.038 C  
DOCKED: BRANCH  13  14
DOCKED: ATOM     14  C   UNL     1     -39.906 -23.192  11.153 -0.06 +0.00    +0.251 C  
DOCKED: BRANCH  14  15
DOCKED: ATOM     15  N   UNL     1     -38.754 -22.715  11.909 -0.04 +0.00    +0.141 N  
DOCKED: ATOM     16  C   UNL     1     -38.961 -22.911  13.344 -0.01 +0.00    +0.285 C  
DOCKED: ATOM     17  C   UNL     1     -37.534 -23.396  11.474 -0.06 +0.00    +0.285 C  
DOCKED: ENDBRANCH  14  15
DOCKED: ENDBRANCH  13  14
DOCKED: ENDBRANCH  12  13
DOCKED: ENDBRANCH   2  12
DOCKED: BRANCH   2  18
DOCKED: ATOM     18  C   UNL     1     -39.122 -19.924   7.919 -0.10 +0.00    +0.006 A  
DOCKED: ATOM     19  C   UNL     1     -39.102 -19.907   6.525 -0.16 +0.00    +0.001 A  
DOCKED: ATOM     20  C   UNL     1     -38.806 -18.724   5.847 -0.13 +0.00    +0.029 A  
DOCKED: ATOM     21  C   UNL     1     -38.532 -17.560   6.564 -0.04 +0.00    +0.140 A  
DOCKED: ATOM     22  C   UNL     1     -38.553 -17.578   7.958 -0.02 +0.00    +0.029 A  
DOCKED: ATOM     23  F   UNL     1     -38.250 -16.424   5.913 -0.00 -0.00    -0.204 F  
DOCKED: ATOM     24  C   UNL     1     -38.848 -18.761   8.637 -0.03 +0.00    +0.001 A  
DOCKED: ENDBRANCH   2  18
DOCKED: TORSDOF 5
DOCKED: TER
DOCKED: ENDMDL
________________________________________________________________________________


    FINAL DOCKED STATE:
    ________________________


Run:   210 / 512
Time taken for this run:   0.002s

DOCKED: MODEL        210
DOCKED: USER    Run = 210
DOCKED: USER
DOCKED: USER    Estimated Free Energy of Binding    =  -3.91 kcal/mol  [=(1)+(2)+(3)-(4)]
DOCKED: USER
DOCKED: USER    (1) Final Intermolecular Energy     =  -5.40 kcal/mol
DOCKED: USER        vdW + Hbond + desolv Energy     =  -5.40 kcal/mol
DOCKED: USER        Electrostatic Energy            =  +0.00 kcal/mol
DOCKED: USER        Moving Ligand-Fixed Receptor    =  -5.40 kcal/mol
DOCKED: USER        Moving Ligand-Moving Receptor   =  +0.00 kcal/mol
DOCKED: USER    (2) Final Total Internal Energy     =  -1.26 kcal/mol
DOCKED: USER    (3) Torsional Free Energy           =  +1.49 kcal/mol
DOCKED: USER    (4) Unbound System's Energy         =  -1.26 kcal/mol
DOCKED: USER
DOCKED: USER
DOCKED: REMARK  5 active torsions:
DOCKED: REMARK  status: ('A' for Active; 'I' for Inactive)
DOCKED: REMARK    1  A    between atoms: C_2  and  C_19 
DOCKED: REMARK    2  A    between atoms: C_2  and  C_11 
DOCKED: REMARK    3  A    between atoms: C_19  and  C_20 
DOCKED: REMARK    4  A    between atoms: C_20  and  C_21 
DOCKED: REMARK    5  A    between atoms: C_21  and  N_22 
DOCKED: USER                              x       y       z     vdW  Elec       q    Type
DOCKED: USER                           _______ _______ _______ _____ _____    ______ ____
DOCKED: ROOT
DOCKED: ATOM      1  O   UNL     1     -33.713 -20.386   1.425 +0.01 -0.00    -0.346 OA 
DOCKED: ATOM      2  C   UNL     1     -33.977 -21.302   0.314 -0.06 +0.00    +0.130 C  
DOCKED: ATOM      3  C   UNL     1     -34.383 -22.579   0.991 -0.12 +0.00    +0.004 A  
DOCKED: ATOM      4  C   UNL     1     -34.451 -22.380   2.362 -0.13 +0.00    +0.006 A  
DOCKED: ATOM      5  C   UNL     1     -34.114 -20.975   2.683 -0.05 +0.00    +0.169 C  
DOCKED: ATOM      6  C   UNL     1     -34.678 -23.816   0.436 -0.16 -0.00    -0.001 A  
DOCKED: ATOM      7  C   UNL     1     -34.811 -23.404   3.222 -0.23 +0.00    +0.008 A  
DOCKED: ATOM      8  C   UNL     1     -35.039 -24.859   1.290 -0.28 +0.00    +0.010 A  
DOCKED: ATOM      9  C   UNL     1     -35.105 -24.654   2.676 -0.30 +0.00    +0.068 A  
DOCKED: ATOM     10  N   UNL     1     -35.782 -26.611   4.233 -2.61 -0.00    -0.191 NA 
DOCKED: ATOM     11  C   UNL     1     -35.478 -25.733   3.535 -0.37 +0.00    +0.101 C  
DOCKED: ENDROOT
DOCKED: BRANCH   2  12
DOCKED: ATOM     12  C   UNL     1     -35.086 -20.708  -0.547 -0.14 +0.00    +0.038 C  
DOCKED: BRANCH  12  13
DOCKED: ATOM     13  C   UNL     1     -36.102 -19.946   0.301 -0.17 +0.00    +0.038 C  
DOCKED: BRANCH  13  14
DOCKED: ATOM     14  C   UNL     1     -37.248 -20.858   0.737 -0.21 +0.00    +0.251 C  
DOCKED: BRANCH  14  15
DOCKED: ATOM     15  N   UNL     1     -38.046 -20.210   1.771 -0.26 +0.00    +0.141 N  
DOCKED: ATOM     16  C   UNL     1     -37.193 -19.745   2.866 -0.12 +0.00    +0.285 C  
DOCKED: ATOM     17  C   UNL     1     -38.808 -19.093   1.211 -0.16 +0.00    +0.285 C  
DOCKED: ENDBRANCH  14  15
DOCKED: ENDBRANCH  13  14
DOCKED: ENDBRANCH  12  13
DOCKED: ENDBRANCH   2  12
DOCKED: BRANCH   2  18
DOCKED: ATOM     18  C   UNL     1     -32.707 -21.430  -0.458 -0.02 +0.00    +0.006 A  
DOCKED: ATOM     19  C   UNL     1     -31.583 -21.999   0.140 -0.01 +0.00    +0.001 A  
DOCKED: ATOM     20  C   UNL     1     -30.395 -22.118  -0.582 -0.00 +0.00    +0.029 A  
DOCKED: ATOM     21  C   UNL     1     -30.333 -21.670  -1.901 -0.00 +0.00    +0.140 A  
DOCKED: ATOM     22  C   UNL     1     -31.458 -21.102  -2.499 -0.00 +0.00    +0.029 A  
DOCKED: ATOM     23  F   UNL     1     -29.194 -21.786  -2.595 +0.00 -0.00    -0.204 F  
DOCKED: ATOM     24  C   UNL     1     -32.646 -20.981  -1.776 -0.02 +0.00    +0.001 A  
DOCKED: ENDBRANCH   2  18
DOCKED: TORSDOF 5
DOCKED: TER
DOCKED: ENDMDL
________________________________________________________________________________


    FINAL DOCKED STATE:
    ________________________


Run:   211 / 512
Time taken for this run:   0.002s

DOCKED: MODEL        211
DOCKED: USER    Run = 211
DOCKED: USER
DOCKED: USER    Estimated Free Energy of Binding    =  -5.58 kcal/mol  [=(1)+(2)+(3)-(4)]
DOCKED: USER
DOCKED: USER    (1) Final Intermolecular Energy     =  -7.07 kcal/mol
DOCKED: USER        vdW + Hbond + desolv Energy     =  -7.07 kcal/mol
DOCKED: USER        Electrostatic Energy            =  +0.00 kcal/mol
DOCKED: USER        Moving Ligand-Fixed Receptor    =  -7.07 kcal/mol
DOCKED: USER        Moving Ligand-Moving Receptor   =  +0.00 kcal/mol
DOCKED: USER    (2) Final Total Internal Energy     =  -1.18 kcal/mol
DOCKED: USER    (3) Torsional Free Energy           =  +1.49 kcal/mol
DOCKED: USER    (4) Unbound System's Energy         =  -1.18 kcal/mol
DOCKED: USER
DOCKED: USER
DOCKED: REMARK  5 active torsions:
DOCKED: REMARK  status: ('A' for Active; 'I' for Inactive)
DOCKED: REMARK    1  A    between atoms: C_2  and  C_19 
DOCKED: REMARK    2  A    between atoms: C_2  and  C_11 
DOCKED: REMARK    3  A    between atoms: C_19  and  C_20 
DOCKED: REMARK    4  A    between atoms: C_20  and  C_21 
DOCKED: REMARK    5  A    between atoms: C_21  and  N_22 
DOCKED: USER                              x       y       z     vdW  Elec       q    Type
DOCKED: USER                           _______ _______ _______ _____ _____    ______ ____
DOCKED: ROOT
DOCKED: ATOM      1  O   UNL     1     -40.859 -21.765   7.774 -0.06 -0.00    -0.346 OA 
DOCKED: ATOM      2  C   UNL     1     -40.676 -23.215   7.857 -0.22 +0.00    +0.130 C  
DOCKED: ATOM      3  C   UNL     1     -41.245 -23.724   6.564 -0.34 +0.00    +0.004 A  
DOCKED: ATOM      4  C   UNL     1     -41.619 -22.653   5.765 -0.32 +0.00    +0.006 A  
DOCKED: ATOM      5  C   UNL     1     -41.316 -21.380   6.457 -0.24 +0.00    +0.169 C  
DOCKED: ATOM      6  C   UNL     1     -41.408 -25.030   6.126 -0.41 -0.00    -0.001 A  
DOCKED: ATOM      7  C   UNL     1     -42.169 -22.848   4.510 -0.02 +0.00    +0.008 A  
DOCKED: ATOM      8  C   UNL     1     -41.966 -25.243   4.864 -0.47 +0.00    +0.010 A  
DOCKED: ATOM      9  C   UNL     1     -42.344 -24.158   4.060 -0.41 +0.00    +0.068 A  
DOCKED: ATOM     10  N   UNL     1     -43.371 -24.589   1.721 -2.86 -0.00    -0.191 NA 
DOCKED: ATOM     11  C   UNL     1     -42.911 -24.396   2.771 -0.45 +0.00    +0.101 C  
DOCKED: ENDROOT
DOCKED: BRANCH   2  12
DOCKED: ATOM     12  C   UNL     1     -39.187 -23.506   8.006 -0.22 +0.00    +0.038 C  
DOCKED: BRANCH  12  13
DOCKED: ATOM     13  C   UNL     1     -38.364 -22.219   7.992 -0.07 +0.00    +0.038 C  
DOCKED: BRANCH  13  14
DOCKED: ATOM     14  C   UNL     1     -38.598 -21.403   9.262 -0.06 +0.00    +0.251 C  
DOCKED: BRANCH  14  15
DOCKED: ATOM     15  N   UNL     1     -37.553 -21.678  10.241 -0.04 +0.00    +0.141 N  
DOCKED: ATOM     16  C   UNL     1     -38.083 -22.468  11.353 -0.03 +0.00    +0.285 C  
DOCKED: ATOM     17  C   UNL     1     -36.429 -22.375   9.614 -0.06 +0.00    +0.285 C  
DOCKED: ENDBRANCH  14  15
DOCKED: ENDBRANCH  13  14
DOCKED: ENDBRANCH  12  13
DOCKED: ENDBRANCH   2  12
DOCKED: BRANCH   2  18
DOCKED: ATOM     18  C   UNL     1     -41.438 -23.683   9.052 -0.16 +0.00    +0.006 A  
DOCKED: ATOM     19  C   UNL     1     -41.184 -24.944   9.590 -0.23 +0.00    +0.001 A  
DOCKED: ATOM     20  C   UNL     1     -41.897 -25.380  10.707 -0.16 +0.00    +0.029 A  
DOCKED: ATOM     21  C   UNL     1     -42.862 -24.556  11.284 -0.09 +0.00    +0.140 A  
DOCKED: ATOM     22  C   UNL     1     -43.115 -23.295  10.746 -0.06 +0.00    +0.029 A  
DOCKED: ATOM     23  F   UNL     1     -43.545 -24.974  12.358 -0.01 -0.00    -0.204 F  
DOCKED: ATOM     24  C   UNL     1     -42.402 -22.857   9.628 -0.08 +0.00    +0.001 A  
DOCKED: ENDBRANCH   2  18
DOCKED: TORSDOF 5
DOCKED: TER
DOCKED: ENDMDL
________________________________________________________________________________


    FINAL DOCKED STATE:
    ________________________


Run:   212 / 512
Time taken for this run:   0.002s

DOCKED: MODEL        212
DOCKED: USER    Run = 212
DOCKED: USER
DOCKED: USER    Estimated Free Energy of Binding    =  -4.99 kcal/mol  [=(1)+(2)+(3)-(4)]
DOCKED: USER
DOCKED: USER    (1) Final Intermolecular Energy     =  -6.48 kcal/mol
DOCKED: USER        vdW + Hbond + desolv Energy     =  -6.48 kcal/mol
DOCKED: USER        Electrostatic Energy            =  +0.00 kcal/mol
DOCKED: USER        Moving Ligand-Fixed Receptor    =  -6.48 kcal/mol
DOCKED: USER        Moving Ligand-Moving Receptor   =  +0.00 kcal/mol
DOCKED: USER    (2) Final Total Internal Energy     =  -1.08 kcal/mol
DOCKED: USER    (3) Torsional Free Energy           =  +1.49 kcal/mol
DOCKED: USER    (4) Unbound System's Energy         =  -1.08 kcal/mol
DOCKED: USER
DOCKED: USER
DOCKED: REMARK  5 active torsions:
DOCKED: REMARK  status: ('A' for Active; 'I' for Inactive)
DOCKED: REMARK    1  A    between atoms: C_2  and  C_19 
DOCKED: REMARK    2  A    between atoms: C_2  and  C_11 
DOCKED: REMARK    3  A    between atoms: C_19  and  C_20 
DOCKED: REMARK    4  A    between atoms: C_20  and  C_21 
DOCKED: REMARK    5  A    between atoms: C_21  and  N_22 
DOCKED: USER                              x       y       z     vdW  Elec       q    Type
DOCKED: USER                           _______ _______ _______ _____ _____    ______ ____
DOCKED: ROOT
DOCKED: ATOM      1  O   UNL     1     -40.521 -24.481   8.701 -0.09 -0.00    -0.346 OA 
DOCKED: ATOM      2  C   UNL     1     -40.774 -23.113   8.247 -0.19 +0.00    +0.130 C  
DOCKED: ATOM      3  C   UNL     1     -41.321 -23.291   6.860 -0.31 +0.00    +0.004 A  
DOCKED: ATOM      4  C   UNL     1     -41.472 -24.643   6.586 -0.39 +0.00    +0.006 A  
DOCKED: ATOM      5  C   UNL     1     -41.053 -25.442   7.759 -0.22 +0.00    +0.169 C  
DOCKED: ATOM      6  C   UNL     1     -41.669 -22.332   5.920 -0.31 -0.00    -0.001 A  
DOCKED: ATOM      7  C   UNL     1     -41.967 -25.081   5.370 -0.46 +0.00    +0.008 A  
DOCKED: ATOM      8  C   UNL     1     -42.166 -22.758   4.687 -0.07 +0.00    +0.010 A  
DOCKED: ATOM      9  C   UNL     1     -42.315 -24.126   4.414 -0.40 +0.00    +0.068 A  
DOCKED: ATOM     10  N   UNL     1     -43.245 -24.883   2.117 -2.24 -0.00    -0.191 NA 
DOCKED: ATOM     11  C   UNL     1     -42.827 -24.543   3.147 -0.51 +0.00    +0.101 C  
DOCKED: ENDROOT
DOCKED: BRANCH   2  12
DOCKED: ATOM     12  C   UNL     1     -41.771 -22.465   9.200 -0.10 +0.00    +0.038 C  
DOCKED: BRANCH  12  13
DOCKED: ATOM     13  C   UNL     1     -42.786 -23.482   9.720 -0.11 +0.00    +0.038 C  
DOCKED: BRANCH  13  14
DOCKED: ATOM     14  C   UNL     1     -42.251 -24.211  10.951 -0.08 +0.00    +0.251 C  
DOCKED: BRANCH  14  15
DOCKED: ATOM     15  N   UNL     1     -43.338 -24.879  11.657 -0.10 +0.00    +0.141 N  
DOCKED: ATOM     16  C   UNL     1     -43.652 -24.177  12.903 -0.02 +0.00    +0.285 C  
DOCKED: ATOM     17  C   UNL     1     -44.528 -24.964  10.809 -0.06 +0.00    +0.285 C  
DOCKED: ENDBRANCH  14  15
DOCKED: ENDBRANCH  13  14
DOCKED: ENDBRANCH  12  13
DOCKED: ENDBRANCH   2  12
DOCKED: BRANCH   2  18
DOCKED: ATOM     18  C   UNL     1     -39.465 -22.397   8.268 -0.19 +0.00    +0.006 A  
DOCKED: ATOM     19  C   UNL     1     -39.432 -21.004   8.210 -0.13 +0.00    +0.001 A  
DOCKED: ATOM     20  C   UNL     1     -38.207 -20.336   8.230 -0.09 +0.00    +0.029 A  
DOCKED: ATOM     21  C   UNL     1     -37.019 -21.060   8.309 -0.08 +0.00    +0.140 A  
DOCKED: ATOM     22  C   UNL     1     -37.053 -22.453   8.367 -0.15 +0.00    +0.029 A  
DOCKED: ATOM     23  F   UNL     1     -35.843 -20.418   8.330 -0.01 -0.00    -0.204 F  
DOCKED: ATOM     24  C   UNL     1     -38.277 -23.123   8.347 -0.19 +0.00    +0.001 A  
DOCKED: ENDBRANCH   2  18
DOCKED: TORSDOF 5
DOCKED: TER
DOCKED: ENDMDL
________________________________________________________________________________


    FINAL DOCKED STATE:
    ________________________


Run:   213 / 512
Time taken for this run:   0.002s

DOCKED: MODEL        213
DOCKED: USER    Run = 213
DOCKED: USER
DOCKED: USER    Estimated Free Energy of Binding    =  -3.68 kcal/mol  [=(1)+(2)+(3)-(4)]
DOCKED: USER
DOCKED: USER    (1) Final Intermolecular Energy     =  -5.17 kcal/mol
DOCKED: USER        vdW + Hbond + desolv Energy     =  -5.17 kcal/mol
DOCKED: USER        Electrostatic Energy            =  +0.00 kcal/mol
DOCKED: USER        Moving Ligand-Fixed Receptor    =  -5.17 kcal/mol
DOCKED: USER        Moving Ligand-Moving Receptor   =  +0.00 kcal/mol
DOCKED: USER    (2) Final Total Internal Energy     =  -1.39 kcal/mol
DOCKED: USER    (3) Torsional Free Energy           =  +1.49 kcal/mol
DOCKED: USER    (4) Unbound System's Energy         =  -1.39 kcal/mol
DOCKED: USER
DOCKED: USER
DOCKED: REMARK  5 active torsions:
DOCKED: REMARK  status: ('A' for Active; 'I' for Inactive)
DOCKED: REMARK    1  A    between atoms: C_2  and  C_19 
DOCKED: REMARK    2  A    between atoms: C_2  and  C_11 
DOCKED: REMARK    3  A    between atoms: C_19  and  C_20 
DOCKED: REMARK    4  A    between atoms: C_20  and  C_21 
DOCKED: REMARK    5  A    between atoms: C_21  and  N_22 
DOCKED: USER                              x       y       z     vdW  Elec       q    Type
DOCKED: USER                           _______ _______ _______ _____ _____    ______ ____
DOCKED: ROOT
DOCKED: ATOM      1  O   UNL     1     -34.778 -11.860  -1.181 -0.05 -0.00    -0.346 OA 
DOCKED: ATOM      2  C   UNL     1     -34.883 -13.275  -1.538 -0.08 +0.00    +0.130 C  
DOCKED: ATOM      3  C   UNL     1     -36.145 -13.350  -2.348 -0.14 +0.00    +0.004 A  
DOCKED: ATOM      4  C   UNL     1     -36.657 -12.073  -2.532 -0.23 +0.00    +0.006 A  
DOCKED: ATOM      5  C   UNL     1     -35.777 -11.079  -1.878 -0.18 +0.00    +0.169 C  
DOCKED: ATOM      6  C   UNL     1     -36.782 -14.457  -2.888 -0.16 -0.00    -0.001 A  
DOCKED: ATOM      7  C   UNL     1     -37.819 -11.861  -3.254 -0.30 +0.00    +0.008 A  
DOCKED: ATOM      8  C   UNL     1     -37.957 -14.260  -3.615 -0.22 +0.00    +0.010 A  
DOCKED: ATOM      9  C   UNL     1     -38.473 -12.968  -3.797 -0.35 +0.00    +0.068 A  
DOCKED: ATOM     10  N   UNL     1     -40.653 -12.636  -5.157 -2.56 -0.00    -0.191 NA 
DOCKED: ATOM     11  C   UNL     1     -39.676 -12.785  -4.546 -0.38 +0.00    +0.101 C  
DOCKED: ENDROOT
DOCKED: BRANCH   2  12
DOCKED: ATOM     12  C   UNL     1     -33.643 -13.666  -2.334 -0.03 +0.00    +0.038 C  
DOCKED: BRANCH  12  13
DOCKED: ATOM     13  C   UNL     1     -32.716 -12.470  -2.542 -0.02 +0.00    +0.038 C  
DOCKED: BRANCH  13  14
DOCKED: ATOM     14  C   UNL     1     -33.046 -11.739  -3.843 -0.01 +0.00    +0.251 C  
DOCKED: BRANCH  14  15
DOCKED: ATOM     15  N   UNL     1     -33.774 -12.620  -4.748 -0.02 +0.00    +0.141 N  
DOCKED: ATOM     16  C   UNL     1     -34.837 -11.886  -5.437 -0.05 +0.00    +0.285 C  
DOCKED: ATOM     17  C   UNL     1     -32.863 -13.226  -5.721 +0.01 +0.00    +0.285 C  
DOCKED: ENDBRANCH  14  15
DOCKED: ENDBRANCH  13  14
DOCKED: ENDBRANCH  12  13
DOCKED: ENDBRANCH   2  12
DOCKED: BRANCH   2  18
DOCKED: ATOM     18  C   UNL     1     -34.966 -14.042  -0.260 -0.10 +0.00    +0.006 A  
DOCKED: ATOM     19  C   UNL     1     -34.804 -13.384   0.959 -0.09 +0.00    +0.001 A  
DOCKED: ATOM     20  C   UNL     1     -34.881 -14.103   2.153 -0.09 +0.00    +0.029 A  
DOCKED: ATOM     21  C   UNL     1     -35.121 -15.476   2.126 -0.05 +0.00    +0.140 A  
DOCKED: ATOM     22  C   UNL     1     -35.283 -16.133   0.907 -0.04 +0.00    +0.029 A  
DOCKED: ATOM     23  F   UNL     1     -35.197 -16.164   3.272 -0.00 -0.00    -0.204 F  
DOCKED: ATOM     24  C   UNL     1     -35.205 -15.415  -0.288 -0.05 +0.00    +0.001 A  
DOCKED: ENDBRANCH   2  18
DOCKED: TORSDOF 5
DOCKED: TER
DOCKED: ENDMDL
________________________________________________________________________________


    FINAL DOCKED STATE:
    ________________________


Run:   214 / 512
Time taken for this run:   0.002s

DOCKED: MODEL        214
DOCKED: USER    Run = 214
DOCKED: USER
DOCKED: USER    Estimated Free Energy of Binding    =  -4.84 kcal/mol  [=(1)+(2)+(3)-(4)]
DOCKED: USER
DOCKED: USER    (1) Final Intermolecular Energy     =  -6.33 kcal/mol
DOCKED: USER        vdW + Hbond + desolv Energy     =  -6.33 kcal/mol
DOCKED: USER        Electrostatic Energy            =  +0.00 kcal/mol
DOCKED: USER        Moving Ligand-Fixed Receptor    =  -6.33 kcal/mol
DOCKED: USER        Moving Ligand-Moving Receptor   =  +0.00 kcal/mol
DOCKED: USER    (2) Final Total Internal Energy     =  -1.10 kcal/mol
DOCKED: USER    (3) Torsional Free Energy           =  +1.49 kcal/mol
DOCKED: USER    (4) Unbound System's Energy         =  -1.10 kcal/mol
DOCKED: USER
DOCKED: USER
DOCKED: REMARK  5 active torsions:
DOCKED: REMARK  status: ('A' for Active; 'I' for Inactive)
DOCKED: REMARK    1  A    between atoms: C_2  and  C_19 
DOCKED: REMARK    2  A    between atoms: C_2  and  C_11 
DOCKED: REMARK    3  A    between atoms: C_19  and  C_20 
DOCKED: REMARK    4  A    between atoms: C_20  and  C_21 
DOCKED: REMARK    5  A    between atoms: C_21  and  N_22 
DOCKED: USER                              x       y       z     vdW  Elec       q    Type
DOCKED: USER                           _______ _______ _______ _____ _____    ______ ____
DOCKED: ROOT
DOCKED: ATOM      1  O   UNL     1     -39.714 -15.865   1.391 -0.10 -0.00    -0.346 OA 
DOCKED: ATOM      2  C   UNL     1     -38.371 -15.796   0.812 -0.19 +0.00    +0.130 C  
DOCKED: ATOM      3  C   UNL     1     -38.587 -15.140  -0.520 -0.26 +0.00    +0.004 A  
DOCKED: ATOM      4  C   UNL     1     -39.917 -14.765  -0.647 -0.19 +0.00    +0.006 A  
DOCKED: ATOM      5  C   UNL     1     -40.660 -15.130   0.580 -0.05 +0.00    +0.169 C  
DOCKED: ATOM      6  C   UNL     1     -37.676 -14.884  -1.535 -0.23 -0.00    -0.001 A  
DOCKED: ATOM      7  C   UNL     1     -40.382 -14.130  -1.786 -0.27 +0.00    +0.008 A  
DOCKED: ATOM      8  C   UNL     1     -38.130 -14.248  -2.692 -0.28 +0.00    +0.010 A  
DOCKED: ATOM      9  C   UNL     1     -39.476 -13.873  -2.816 -0.29 +0.00    +0.068 A  
DOCKED: ATOM     10  N   UNL     1     -40.285 -12.690  -4.974 -2.33 -0.00    -0.191 NA 
DOCKED: ATOM     11  C   UNL     1     -39.923 -13.221  -4.007 -0.34 +0.00    +0.101 C  
DOCKED: ENDROOT
DOCKED: BRANCH   2  12
DOCKED: ATOM     12  C   UNL     1     -37.486 -14.975   1.743 -0.18 +0.00    +0.038 C  
DOCKED: BRANCH  12  13
DOCKED: ATOM     13  C   UNL     1     -37.972 -15.055   3.188 -0.15 +0.00    +0.038 C  
DOCKED: BRANCH  13  14
DOCKED: ATOM     14  C   UNL     1     -38.556 -13.721   3.647 -0.09 +0.00    +0.251 C  
DOCKED: BRANCH  14  15
DOCKED: ATOM     15  N   UNL     1     -39.807 -13.934   4.365 -0.11 +0.00    +0.141 N  
DOCKED: ATOM     16  C   UNL     1     -40.078 -12.818   5.273 -0.09 +0.00    +0.285 C  
DOCKED: ATOM     17  C   UNL     1     -40.917 -14.107   3.427 -0.14 +0.00    +0.285 C  
DOCKED: ENDBRANCH  14  15
DOCKED: ENDBRANCH  13  14
DOCKED: ENDBRANCH  12  13
DOCKED: ENDBRANCH   2  12
DOCKED: BRANCH   2  18
DOCKED: ATOM     18  C   UNL     1     -37.874 -17.199   0.696 -0.14 +0.00    +0.006 A  
DOCKED: ATOM     19  C   UNL     1     -38.664 -18.257   1.145 -0.22 +0.00    +0.001 A  
DOCKED: ATOM     20  C   UNL     1     -38.198 -19.568   1.036 -0.25 +0.00    +0.029 A  
DOCKED: ATOM     21  C   UNL     1     -36.945 -19.818   0.479 -0.17 +0.00    +0.140 A  
DOCKED: ATOM     22  C   UNL     1     -36.156 -18.759   0.030 -0.10 +0.00    +0.029 A  
DOCKED: ATOM     23  F   UNL     1     -36.499 -21.077   0.372 -0.08 -0.00    -0.204 F  
DOCKED: ATOM     24  C   UNL     1     -36.621 -17.448   0.139 -0.08 +0.00    +0.001 A  
DOCKED: ENDBRANCH   2  18
DOCKED: TORSDOF 5
DOCKED: TER
DOCKED: ENDMDL
________________________________________________________________________________


    FINAL DOCKED STATE:
    ________________________


Run:   215 / 512
Time taken for this run:   0.002s

DOCKED: MODEL        215
DOCKED: USER    Run = 215
DOCKED: USER
DOCKED: USER    Estimated Free Energy of Binding    =  -4.46 kcal/mol  [=(1)+(2)+(3)-(4)]
DOCKED: USER
DOCKED: USER    (1) Final Intermolecular Energy     =  -5.95 kcal/mol
DOCKED: USER        vdW + Hbond + desolv Energy     =  -5.95 kcal/mol
DOCKED: USER        Electrostatic Energy            =  +0.00 kcal/mol
DOCKED: USER        Moving Ligand-Fixed Receptor    =  -5.95 kcal/mol
DOCKED: USER        Moving Ligand-Moving Receptor   =  +0.00 kcal/mol
DOCKED: USER    (2) Final Total Internal Energy     =  -1.37 kcal/mol
DOCKED: USER    (3) Torsional Free Energy           =  +1.49 kcal/mol
DOCKED: USER    (4) Unbound System's Energy         =  -1.37 kcal/mol
DOCKED: USER
DOCKED: USER
DOCKED: REMARK  5 active torsions:
DOCKED: REMARK  status: ('A' for Active; 'I' for Inactive)
DOCKED: REMARK    1  A    between atoms: C_2  and  C_19 
DOCKED: REMARK    2  A    between atoms: C_2  and  C_11 
DOCKED: REMARK    3  A    between atoms: C_19  and  C_20 
DOCKED: REMARK    4  A    between atoms: C_20  and  C_21 
DOCKED: REMARK    5  A    between atoms: C_21  and  N_22 
DOCKED: USER                              x       y       z     vdW  Elec       q    Type
DOCKED: USER                           _______ _______ _______ _____ _____    ______ ____
DOCKED: ROOT
DOCKED: ATOM      1  O   UNL     1     -40.707 -19.364   6.752 -0.07 -0.00    -0.346 OA 
DOCKED: ATOM      2  C   UNL     1     -42.036 -19.459   7.358 -0.15 +0.00    +0.130 C  
DOCKED: ATOM      3  C   UNL     1     -42.496 -20.842   7.000 -0.22 +0.00    +0.004 A  
DOCKED: ATOM      4  C   UNL     1     -41.478 -21.518   6.344 -0.27 +0.00    +0.006 A  
DOCKED: ATOM      5  C   UNL     1     -40.286 -20.648   6.234 -0.11 +0.00    +0.169 C  
DOCKED: ATOM      6  C   UNL     1     -43.715 -21.457   7.247 -0.20 -0.00    -0.001 A  
DOCKED: ATOM      7  C   UNL     1     -41.642 -22.822   5.909 -0.33 +0.00    +0.008 A  
DOCKED: ATOM      8  C   UNL     1     -43.898 -22.770   6.810 -0.22 +0.00    +0.010 A  
DOCKED: ATOM      9  C   UNL     1     -42.866 -23.450   6.145 -0.26 +0.00    +0.068 A  
DOCKED: ATOM     10  N   UNL     1     -43.237 -25.888   5.353 -2.55 -0.00    -0.191 NA 
DOCKED: ATOM     11  C   UNL     1     -43.071 -24.794   5.708 -0.36 +0.00    +0.101 C  
DOCKED: ENDROOT
DOCKED: BRANCH   2  12
DOCKED: ATOM     12  C   UNL     1     -41.897 -19.250   8.862 -0.05 +0.00    +0.038 C  
DOCKED: BRANCH  12  13
DOCKED: ATOM     13  C   UNL     1     -40.437 -19.342   9.304 -0.03 +0.00    +0.038 C  
DOCKED: BRANCH  13  14
DOCKED: ATOM     14  C   UNL     1     -40.016 -20.795   9.513 -0.03 +0.00    +0.251 C  
DOCKED: BRANCH  14  15
DOCKED: ATOM     15  N   UNL     1     -41.128 -21.573  10.048 -0.03 +0.00    +0.141 N  
DOCKED: ATOM     16  C   UNL     1     -41.013 -22.977   9.650 -0.05 +0.00    +0.285 C  
DOCKED: ATOM     17  C   UNL     1     -41.180 -21.462  11.506 -0.00 +0.00    +0.285 C  
DOCKED: ENDBRANCH  14  15
DOCKED: ENDBRANCH  13  14
DOCKED: ENDBRANCH  12  13
DOCKED: ENDBRANCH   2  12
DOCKED: BRANCH   2  18
DOCKED: ATOM     18  C   UNL     1     -42.874 -18.389   6.742 -0.19 +0.00    +0.006 A  
DOCKED: ATOM     19  C   UNL     1     -44.240 -18.330   7.015 -0.20 +0.00    +0.001 A  
DOCKED: ATOM     20  C   UNL     1     -45.022 -17.329   6.437 -0.17 +0.00    +0.029 A  
DOCKED: ATOM     21  C   UNL     1     -44.438 -16.390   5.589 -0.12 +0.00    +0.140 A  
DOCKED: ATOM     22  C   UNL     1     -43.072 -16.449   5.317 -0.16 +0.00    +0.029 A  
DOCKED: ATOM     23  F   UNL     1     -45.189 -15.428   5.036 -0.02 -0.00    -0.204 F  
DOCKED: ATOM     24  C   UNL     1     -42.288 -17.450   5.893 -0.16 +0.00    +0.001 A  
DOCKED: ENDBRANCH   2  18
DOCKED: TORSDOF 5
DOCKED: TER
DOCKED: ENDMDL
________________________________________________________________________________


    FINAL DOCKED STATE:
    ________________________


Run:   216 / 512
Time taken for this run:   0.002s

DOCKED: MODEL        216
DOCKED: USER    Run = 216
DOCKED: USER
DOCKED: USER    Estimated Free Energy of Binding    =  -3.85 kcal/mol  [=(1)+(2)+(3)-(4)]
DOCKED: USER
DOCKED: USER    (1) Final Intermolecular Energy     =  -5.34 kcal/mol
DOCKED: USER        vdW + Hbond + desolv Energy     =  -5.34 kcal/mol
DOCKED: USER        Electrostatic Energy            =  +0.00 kcal/mol
DOCKED: USER        Moving Ligand-Fixed Receptor    =  -5.34 kcal/mol
DOCKED: USER        Moving Ligand-Moving Receptor   =  +0.00 kcal/mol
DOCKED: USER    (2) Final Total Internal Energy     =  -1.25 kcal/mol
DOCKED: USER    (3) Torsional Free Energy           =  +1.49 kcal/mol
DOCKED: USER    (4) Unbound System's Energy         =  -1.25 kcal/mol
DOCKED: USER
DOCKED: USER
DOCKED: REMARK  5 active torsions:
DOCKED: REMARK  status: ('A' for Active; 'I' for Inactive)
DOCKED: REMARK    1  A    between atoms: C_2  and  C_19 
DOCKED: REMARK    2  A    between atoms: C_2  and  C_11 
DOCKED: REMARK    3  A    between atoms: C_19  and  C_20 
DOCKED: REMARK    4  A    between atoms: C_20  and  C_21 
DOCKED: REMARK    5  A    between atoms: C_21  and  N_22 
DOCKED: USER                              x       y       z     vdW  Elec       q    Type
DOCKED: USER                           _______ _______ _______ _____ _____    ______ ____
DOCKED: ROOT
DOCKED: ATOM      1  O   UNL     1     -34.450 -12.706  -1.985 -0.01 -0.00    -0.346 OA 
DOCKED: ATOM      2  C   UNL     1     -34.349 -12.299  -3.387 -0.04 +0.00    +0.130 C  
DOCKED: ATOM      3  C   UNL     1     -35.758 -12.410  -3.896 -0.13 +0.00    +0.004 A  
DOCKED: ATOM      4  C   UNL     1     -36.607 -12.744  -2.850 -0.19 +0.00    +0.006 A  
DOCKED: ATOM      5  C   UNL     1     -35.834 -12.863  -1.594 -0.13 +0.00    +0.169 C  
DOCKED: ATOM      6  C   UNL     1     -36.249 -12.219  -5.179 -0.20 -0.00    -0.001 A  
DOCKED: ATOM      7  C   UNL     1     -37.968 -12.902  -3.050 -0.31 +0.00    +0.008 A  
DOCKED: ATOM      8  C   UNL     1     -37.619 -12.379  -5.397 -0.32 +0.00    +0.010 A  
DOCKED: ATOM      9  C   UNL     1     -38.473 -12.719  -4.338 -0.37 +0.00    +0.068 A  
DOCKED: ATOM     10  N   UNL     1     -41.011 -13.004  -4.776 -2.43 -0.00    -0.191 NA 
DOCKED: ATOM     11  C   UNL     1     -39.873 -12.877  -4.580 -0.31 +0.00    +0.101 C  
DOCKED: ENDROOT
DOCKED: BRANCH   2  12
DOCKED: ATOM     12  C   UNL     1     -33.811 -10.874  -3.437 -0.08 +0.00    +0.038 C  
DOCKED: BRANCH  12  13
DOCKED: ATOM     13  C   UNL     1     -34.884  -9.858  -3.051 -0.16 +0.00    +0.038 C  
DOCKED: BRANCH  13  14
DOCKED: ATOM     14  C   UNL     1     -35.087  -9.822  -1.537 -0.10 +0.00    +0.251 C  
DOCKED: BRANCH  14  15
DOCKED: ATOM     15  N   UNL     1     -36.180  -8.921  -1.193 -0.19 +0.00    +0.141 N  
DOCKED: ATOM     16  C   UNL     1     -37.473  -9.574  -1.403 -0.20 +0.00    +0.285 C  
DOCKED: ATOM     17  C   UNL     1     -36.058  -8.469   0.194 -0.13 +0.00    +0.285 C  
DOCKED: ENDBRANCH  14  15
DOCKED: ENDBRANCH  13  14
DOCKED: ENDBRANCH  12  13
DOCKED: ENDBRANCH   2  12
DOCKED: BRANCH   2  18
DOCKED: ATOM     18  C   UNL     1     -33.414 -13.252  -4.052 -0.02 +0.00    +0.006 A  
DOCKED: ATOM     19  C   UNL     1     -32.194 -12.797  -4.552 -0.01 +0.00    +0.001 A  
DOCKED: ATOM     20  C   UNL     1     -31.321 -13.689  -5.175 -0.00 +0.00    +0.029 A  
DOCKED: ATOM     21  C   UNL     1     -31.667 -15.034  -5.295 -0.00 +0.00    +0.140 A  
DOCKED: ATOM     22  C   UNL     1     -32.886 -15.489  -4.795 -0.00 +0.00    +0.029 A  
DOCKED: ATOM     23  F   UNL     1     -30.827 -15.891  -5.891 +0.00 -0.00    -0.204 F  
DOCKED: ATOM     24  C   UNL     1     -33.761 -14.597  -4.173 -0.01 +0.00    +0.001 A  
DOCKED: ENDBRANCH   2  18
DOCKED: TORSDOF 5
DOCKED: TER
DOCKED: ENDMDL
________________________________________________________________________________


    FINAL DOCKED STATE:
    ________________________


Run:   217 / 512
Time taken for this run:   0.002s

DOCKED: MODEL        217
DOCKED: USER    Run = 217
DOCKED: USER
DOCKED: USER    Estimated Free Energy of Binding    =  -3.46 kcal/mol  [=(1)+(2)+(3)-(4)]
DOCKED: USER
DOCKED: USER    (1) Final Intermolecular Energy     =  -4.95 kcal/mol
DOCKED: USER        vdW + Hbond + desolv Energy     =  -4.95 kcal/mol
DOCKED: USER        Electrostatic Energy            =  +0.00 kcal/mol
DOCKED: USER        Moving Ligand-Fixed Receptor    =  -4.95 kcal/mol
DOCKED: USER        Moving Ligand-Moving Receptor   =  +0.00 kcal/mol
DOCKED: USER    (2) Final Total Internal Energy     =  -1.40 kcal/mol
DOCKED: USER    (3) Torsional Free Energy           =  +1.49 kcal/mol
DOCKED: USER    (4) Unbound System's Energy         =  -1.40 kcal/mol
DOCKED: USER
DOCKED: USER
DOCKED: REMARK  5 active torsions:
DOCKED: REMARK  status: ('A' for Active; 'I' for Inactive)
DOCKED: REMARK    1  A    between atoms: C_2  and  C_19 
DOCKED: REMARK    2  A    between atoms: C_2  and  C_11 
DOCKED: REMARK    3  A    between atoms: C_19  and  C_20 
DOCKED: REMARK    4  A    between atoms: C_20  and  C_21 
DOCKED: REMARK    5  A    between atoms: C_21  and  N_22 
DOCKED: USER                              x       y       z     vdW  Elec       q    Type
DOCKED: USER                           _______ _______ _______ _____ _____    ______ ____
DOCKED: ROOT
DOCKED: ATOM      1  O   UNL     1     -34.966 -11.188  -2.231 -0.05 -0.00    -0.346 OA 
DOCKED: ATOM      2  C   UNL     1     -34.811 -11.737  -3.578 -0.08 +0.00    +0.130 C  
DOCKED: ATOM      3  C   UNL     1     -36.195 -12.189  -3.944 -0.17 +0.00    +0.004 A  
DOCKED: ATOM      4  C   UNL     1     -37.084 -11.829  -2.941 -0.25 +0.00    +0.006 A  
DOCKED: ATOM      5  C   UNL     1     -36.363 -11.114  -1.864 -0.21 +0.00    +0.169 C  
DOCKED: ATOM      6  C   UNL     1     -36.635 -12.855  -5.079 -0.20 -0.00    -0.001 A  
DOCKED: ATOM      7  C   UNL     1     -38.433 -12.124  -3.034 -0.30 +0.00    +0.008 A  
DOCKED: ATOM      8  C   UNL     1     -37.992 -13.163  -5.185 -0.33 +0.00    +0.010 A  
DOCKED: ATOM      9  C   UNL     1     -38.887 -12.799  -4.168 -0.40 +0.00    +0.068 A  
DOCKED: ATOM     10  N   UNL     1     -41.400 -13.382  -4.400 -2.48 -0.00    -0.191 NA 
DOCKED: ATOM     11  C   UNL     1     -40.273 -13.121  -4.296 -0.13 +0.00    +0.101 C  
DOCKED: ENDROOT
DOCKED: BRANCH   2  12
DOCKED: ATOM     12  C   UNL     1     -34.285 -10.636  -4.491 -0.13 +0.00    +0.038 C  
DOCKED: BRANCH  12  13
DOCKED: ATOM     13  C   UNL     1     -34.105  -9.322  -3.733 -0.13 +0.00    +0.038 C  
DOCKED: BRANCH  13  14
DOCKED: ATOM     14  C   UNL     1     -32.649  -9.123  -3.316 -0.01 +0.00    +0.251 C  
DOCKED: BRANCH  14  15
DOCKED: ATOM     15  N   UNL     1     -32.538  -9.090  -1.863 -0.01 +0.00    +0.141 N  
DOCKED: ATOM     16  C   UNL     1     -31.975 -10.344  -1.360 +0.00 +0.00    +0.285 C  
DOCKED: ATOM     17  C   UNL     1     -31.716  -7.957  -1.434 +0.00 +0.00    +0.285 C  
DOCKED: ENDBRANCH  14  15
DOCKED: ENDBRANCH  13  14
DOCKED: ENDBRANCH  12  13
DOCKED: ENDBRANCH   2  12
DOCKED: BRANCH   2  18
DOCKED: ATOM     18  C   UNL     1     -33.838 -12.865  -3.480 -0.03 +0.00    +0.006 A  
DOCKED: ATOM     19  C   UNL     1     -33.771 -13.627  -2.314 -0.02 +0.00    +0.001 A  
DOCKED: ATOM     20  C   UNL     1     -32.861 -14.681  -2.223 -0.01 +0.00    +0.029 A  
DOCKED: ATOM     21  C   UNL     1     -32.021 -14.972  -3.297 -0.00 +0.00    +0.140 A  
DOCKED: ATOM     22  C   UNL     1     -32.089 -14.209  -4.463 -0.00 +0.00    +0.029 A  
DOCKED: ATOM     23  F   UNL     1     -31.149 -15.984  -3.210 +0.00 -0.00    -0.204 F  
DOCKED: ATOM     24  C   UNL     1     -32.999 -13.154  -4.555 -0.01 +0.00    +0.001 A  
DOCKED: ENDBRANCH   2  18
DOCKED: TORSDOF 5
DOCKED: TER
DOCKED: ENDMDL
________________________________________________________________________________


    FINAL DOCKED STATE:
    ________________________


Run:   218 / 512
Time taken for this run:   0.002s

DOCKED: MODEL        218
DOCKED: USER    Run = 218
DOCKED: USER
DOCKED: USER    Estimated Free Energy of Binding    =  -4.59 kcal/mol  [=(1)+(2)+(3)-(4)]
DOCKED: USER
DOCKED: USER    (1) Final Intermolecular Energy     =  -6.08 kcal/mol
DOCKED: USER        vdW + Hbond + desolv Energy     =  -6.08 kcal/mol
DOCKED: USER        Electrostatic Energy            =  +0.00 kcal/mol
DOCKED: USER        Moving Ligand-Fixed Receptor    =  -6.08 kcal/mol
DOCKED: USER        Moving Ligand-Moving Receptor   =  +0.00 kcal/mol
DOCKED: USER    (2) Final Total Internal Energy     =  -1.38 kcal/mol
DOCKED: USER    (3) Torsional Free Energy           =  +1.49 kcal/mol
DOCKED: USER    (4) Unbound System's Energy         =  -1.38 kcal/mol
DOCKED: USER
DOCKED: USER
DOCKED: REMARK  5 active torsions:
DOCKED: REMARK  status: ('A' for Active; 'I' for Inactive)
DOCKED: REMARK    1  A    between atoms: C_2  and  C_19 
DOCKED: REMARK    2  A    between atoms: C_2  and  C_11 
DOCKED: REMARK    3  A    between atoms: C_19  and  C_20 
DOCKED: REMARK    4  A    between atoms: C_20  and  C_21 
DOCKED: REMARK    5  A    between atoms: C_21  and  N_22 
DOCKED: USER                              x       y       z     vdW  Elec       q    Type
DOCKED: USER                           _______ _______ _______ _____ _____    ______ ____
DOCKED: ROOT
DOCKED: ATOM      1  O   UNL     1     -41.414 -19.061   6.868 -0.07 -0.00    -0.346 OA 
DOCKED: ATOM      2  C   UNL     1     -42.776 -19.262   7.366 -0.16 +0.00    +0.130 C  
DOCKED: ATOM      3  C   UNL     1     -43.091 -20.680   6.989 -0.22 +0.00    +0.004 A  
DOCKED: ATOM      4  C   UNL     1     -41.970 -21.273   6.425 -0.25 +0.00    +0.006 A  
DOCKED: ATOM      5  C   UNL     1     -40.849 -20.308   6.401 -0.16 +0.00    +0.169 C  
DOCKED: ATOM      6  C   UNL     1     -44.271 -21.393   7.144 -0.21 -0.00    -0.001 A  
DOCKED: ATOM      7  C   UNL     1     -41.991 -22.589   5.994 -0.33 +0.00    +0.008 A  
DOCKED: ATOM      8  C   UNL     1     -44.309 -22.719   6.711 -0.22 +0.00    +0.010 A  
DOCKED: ATOM      9  C   UNL     1     -43.175 -23.314   6.139 -0.24 +0.00    +0.068 A  
DOCKED: ATOM     10  N   UNL     1     -43.279 -25.779   5.349 -2.56 -0.00    -0.191 NA 
DOCKED: ATOM     11  C   UNL     1     -43.232 -24.673   5.703 -0.35 +0.00    +0.101 C  
DOCKED: ENDROOT
DOCKED: BRANCH   2  12
DOCKED: ATOM     12  C   UNL     1     -42.776 -19.034   8.873 -0.05 +0.00    +0.038 C  
DOCKED: BRANCH  12  13
DOCKED: ATOM     13  C   UNL     1     -42.359 -20.295   9.627 -0.04 +0.00    +0.038 C  
DOCKED: BRANCH  13  14
DOCKED: ATOM     14  C   UNL     1     -40.839 -20.434   9.668 -0.02 +0.00    +0.251 C  
DOCKED: BRANCH  14  15
DOCKED: ATOM     15  N   UNL     1     -40.462 -21.814   9.950 -0.04 +0.00    +0.141 N  
DOCKED: ATOM     16  C   UNL     1     -41.606 -22.709   9.767 -0.03 +0.00    +0.285 C  
DOCKED: ATOM     17  C   UNL     1     -39.350 -22.230   9.094 -0.09 +0.00    +0.285 C  
DOCKED: ENDBRANCH  14  15
DOCKED: ENDBRANCH  13  14
DOCKED: ENDBRANCH  12  13
DOCKED: ENDBRANCH   2  12
DOCKED: BRANCH   2  18
DOCKED: ATOM     18  C   UNL     1     -43.646 -18.268   6.671 -0.21 +0.00    +0.006 A  
DOCKED: ATOM     19  C   UNL     1     -43.071 -17.236   5.931 -0.17 +0.00    +0.001 A  
DOCKED: ATOM     20  C   UNL     1     -43.886 -16.308   5.282 -0.15 +0.00    +0.029 A  
DOCKED: ATOM     21  C   UNL     1     -45.273 -16.413   5.374 -0.08 +0.00    +0.140 A  
DOCKED: ATOM     22  C   UNL     1     -45.847 -17.446   6.114 -0.18 +0.00    +0.029 A  
DOCKED: ATOM     23  F   UNL     1     -46.055 -15.523   4.749 -0.03 -0.00    -0.204 F  
DOCKED: ATOM     24  C   UNL     1     -45.033 -18.375   6.764 -0.21 +0.00    +0.001 A  
DOCKED: ENDBRANCH   2  18
DOCKED: TORSDOF 5
DOCKED: TER
DOCKED: ENDMDL
________________________________________________________________________________


    FINAL DOCKED STATE:
    ________________________


Run:   219 / 512
Time taken for this run:   0.002s

DOCKED: MODEL        219
DOCKED: USER    Run = 219
DOCKED: USER
DOCKED: USER    Estimated Free Energy of Binding    =  -4.20 kcal/mol  [=(1)+(2)+(3)-(4)]
DOCKED: USER
DOCKED: USER    (1) Final Intermolecular Energy     =  -5.69 kcal/mol
DOCKED: USER        vdW + Hbond + desolv Energy     =  -5.69 kcal/mol
DOCKED: USER        Electrostatic Energy            =  +0.00 kcal/mol
DOCKED: USER        Moving Ligand-Fixed Receptor    =  -5.69 kcal/mol
DOCKED: USER        Moving Ligand-Moving Receptor   =  +0.00 kcal/mol
DOCKED: USER    (2) Final Total Internal Energy     =  -1.48 kcal/mol
DOCKED: USER    (3) Torsional Free Energy           =  +1.49 kcal/mol
DOCKED: USER    (4) Unbound System's Energy         =  -1.48 kcal/mol
DOCKED: USER
DOCKED: USER
DOCKED: REMARK  5 active torsions:
DOCKED: REMARK  status: ('A' for Active; 'I' for Inactive)
DOCKED: REMARK    1  A    between atoms: C_2  and  C_19 
DOCKED: REMARK    2  A    between atoms: C_2  and  C_11 
DOCKED: REMARK    3  A    between atoms: C_19  and  C_20 
DOCKED: REMARK    4  A    between atoms: C_20  and  C_21 
DOCKED: REMARK    5  A    between atoms: C_21  and  N_22 
DOCKED: USER                              x       y       z     vdW  Elec       q    Type
DOCKED: USER                           _______ _______ _______ _____ _____    ______ ____
DOCKED: ROOT
DOCKED: ATOM      1  O   UNL     1     -38.866 -21.299   8.628 -0.05 -0.00    -0.346 OA 
DOCKED: ATOM      2  C   UNL     1     -39.900 -20.571   7.891 -0.12 +0.00    +0.130 C  
DOCKED: ATOM      3  C   UNL     1     -40.687 -21.654   7.211 -0.23 +0.00    +0.004 A  
DOCKED: ATOM      4  C   UNL     1     -40.214 -22.896   7.611 -0.24 +0.00    +0.006 A  
DOCKED: ATOM      5  C   UNL     1     -39.107 -22.724   8.579 -0.16 +0.00    +0.169 C  
DOCKED: ATOM      6  C   UNL     1     -41.743 -21.549   6.319 -0.27 -0.00    -0.001 A  
DOCKED: ATOM      7  C   UNL     1     -40.774 -24.069   7.133 -0.34 +0.00    +0.008 A  
DOCKED: ATOM      8  C   UNL     1     -42.316 -22.722   5.824 -0.32 +0.00    +0.010 A  
DOCKED: ATOM      9  C   UNL     1     -41.833 -23.975   6.230 -0.31 +0.00    +0.068 A  
DOCKED: ATOM     10  N   UNL     1     -42.922 -26.133   5.296 -2.59 -0.00    -0.191 NA 
DOCKED: ATOM     11  C   UNL     1     -42.433 -25.166   5.714 -0.30 +0.00    +0.101 C  
DOCKED: ENDROOT
DOCKED: BRANCH   2  12
DOCKED: ATOM     12  C   UNL     1     -40.731 -19.772   8.888 -0.05 +0.00    +0.038 C  
DOCKED: BRANCH  12  13
DOCKED: ATOM     13  C   UNL     1     -39.908 -18.659   9.533 -0.02 +0.00    +0.038 C  
DOCKED: BRANCH  13  14
DOCKED: ATOM     14  C   UNL     1     -39.098 -19.189  10.715 -0.00 +0.00    +0.251 C  
DOCKED: BRANCH  14  15
DOCKED: ATOM     15  N   UNL     1     -37.757 -18.616  10.709 -0.00 +0.00    +0.141 N  
DOCKED: ATOM     16  C   UNL     1     -36.747 -19.666  10.846 -0.00 +0.00    +0.285 C  
DOCKED: ATOM     17  C   UNL     1     -37.529 -17.849   9.483 -0.00 +0.00    +0.285 C  
DOCKED: ENDBRANCH  14  15
DOCKED: ENDBRANCH  13  14
DOCKED: ENDBRANCH  12  13
DOCKED: ENDBRANCH   2  12
DOCKED: BRANCH   2  18
DOCKED: ATOM     18  C   UNL     1     -39.199 -19.670   6.930 -0.15 +0.00    +0.006 A  
DOCKED: ATOM     19  C   UNL     1     -39.923 -18.718   6.213 -0.14 +0.00    +0.001 A  
DOCKED: ATOM     20  C   UNL     1     -39.266 -17.877   5.314 -0.10 +0.00    +0.029 A  
DOCKED: ATOM     21  C   UNL     1     -37.888 -17.988   5.135 -0.07 +0.00    +0.140 A  
DOCKED: ATOM     22  C   UNL     1     -37.165 -18.940   5.853 -0.10 +0.00    +0.029 A  
DOCKED: ATOM     23  F   UNL     1     -37.257 -17.179   4.273 -0.00 -0.00    -0.204 F  
DOCKED: ATOM     24  C   UNL     1     -37.821 -19.783   6.752 -0.12 +0.00    +0.001 A  
DOCKED: ENDBRANCH   2  18
DOCKED: TORSDOF 5
DOCKED: TER
DOCKED: ENDMDL
________________________________________________________________________________


    FINAL DOCKED STATE:
    ________________________


Run:   220 / 512
Time taken for this run:   0.002s

DOCKED: MODEL        220
DOCKED: USER    Run = 220
DOCKED: USER
DOCKED: USER    Estimated Free Energy of Binding    =  -5.07 kcal/mol  [=(1)+(2)+(3)-(4)]
DOCKED: USER
DOCKED: USER    (1) Final Intermolecular Energy     =  -6.56 kcal/mol
DOCKED: USER        vdW + Hbond + desolv Energy     =  -6.56 kcal/mol
DOCKED: USER        Electrostatic Energy            =  +0.00 kcal/mol
DOCKED: USER        Moving Ligand-Fixed Receptor    =  -6.56 kcal/mol
DOCKED: USER        Moving Ligand-Moving Receptor   =  +0.00 kcal/mol
DOCKED: USER    (2) Final Total Internal Energy     =  -1.23 kcal/mol
DOCKED: USER    (3) Torsional Free Energy           =  +1.49 kcal/mol
DOCKED: USER    (4) Unbound System's Energy         =  -1.23 kcal/mol
DOCKED: USER
DOCKED: USER
DOCKED: REMARK  5 active torsions:
DOCKED: REMARK  status: ('A' for Active; 'I' for Inactive)
DOCKED: REMARK    1  A    between atoms: C_2  and  C_19 
DOCKED: REMARK    2  A    between atoms: C_2  and  C_11 
DOCKED: REMARK    3  A    between atoms: C_19  and  C_20 
DOCKED: REMARK    4  A    between atoms: C_20  and  C_21 
DOCKED: REMARK    5  A    between atoms: C_21  and  N_22 
DOCKED: USER                              x       y       z     vdW  Elec       q    Type
DOCKED: USER                           _______ _______ _______ _____ _____    ______ ____
DOCKED: ROOT
DOCKED: ATOM      1  O   UNL     1     -41.384 -21.523   7.871 -0.04 -0.00    -0.346 OA 
DOCKED: ATOM      2  C   UNL     1     -40.787 -22.858   7.926 -0.20 +0.00    +0.130 C  
DOCKED: ATOM      3  C   UNL     1     -41.268 -23.519   6.667 -0.32 +0.00    +0.004 A  
DOCKED: ATOM      4  C   UNL     1     -41.985 -22.608   5.905 -0.33 +0.00    +0.006 A  
DOCKED: ATOM      5  C   UNL     1     -42.017 -21.296   6.590 -0.22 +0.00    +0.169 C  
DOCKED: ATOM      6  C   UNL     1     -41.077 -24.821   6.225 -0.42 -0.00    -0.001 A  
DOCKED: ATOM      7  C   UNL     1     -42.536 -22.963   4.685 +0.02 +0.00    +0.008 A  
DOCKED: ATOM      8  C   UNL     1     -41.630 -25.195   5.000 -0.39 +0.00    +0.010 A  
DOCKED: ATOM      9  C   UNL     1     -42.356 -24.271   4.234 -0.42 +0.00    +0.068 A  
DOCKED: ATOM     10  N   UNL     1     -43.365 -24.998   1.961 -2.38 -0.00    -0.191 NA 
DOCKED: ATOM     11  C   UNL     1     -42.913 -24.672   2.980 -0.48 +0.00    +0.101 C  
DOCKED: ENDROOT
DOCKED: BRANCH   2  12
DOCKED: ATOM     12  C   UNL     1     -39.272 -22.708   7.975 -0.21 +0.00    +0.038 C  
DOCKED: BRANCH  12  13
DOCKED: ATOM     13  C   UNL     1     -38.863 -21.253   8.194 -0.14 +0.00    +0.038 C  
DOCKED: BRANCH  13  14
DOCKED: ATOM     14  C   UNL     1     -38.839 -20.484   6.875 -0.04 +0.00    +0.251 C  
DOCKED: BRANCH  14  15
DOCKED: ATOM     15  N   UNL     1     -38.923 -19.050   7.121 -0.08 +0.00    +0.141 N  
DOCKED: ATOM     16  C   UNL     1     -39.232 -18.331   5.884 -0.09 +0.00    +0.285 C  
DOCKED: ATOM     17  C   UNL     1     -39.932 -18.760   8.142 -0.03 +0.00    +0.285 C  
DOCKED: ENDBRANCH  14  15
DOCKED: ENDBRANCH  13  14
DOCKED: ENDBRANCH  12  13
DOCKED: ENDBRANCH   2  12
DOCKED: BRANCH   2  18
DOCKED: ATOM     18  C   UNL     1     -41.304 -23.516   9.162 -0.15 +0.00    +0.006 A  
DOCKED: ATOM     19  C   UNL     1     -42.099 -22.797  10.054 -0.07 +0.00    +0.001 A  
DOCKED: ATOM     20  C   UNL     1     -42.580 -23.413  11.209 -0.06 +0.00    +0.029 A  
DOCKED: ATOM     21  C   UNL     1     -42.268 -24.746  11.471 -0.11 +0.00    +0.140 A  
DOCKED: ATOM     22  C   UNL     1     -41.473 -25.465  10.578 -0.19 +0.00    +0.029 A  
DOCKED: ATOM     23  F   UNL     1     -42.732 -25.338  12.579 -0.02 -0.00    -0.204 F  
DOCKED: ATOM     24  C   UNL     1     -40.990 -24.849   9.422 -0.19 +0.00    +0.001 A  
DOCKED: ENDBRANCH   2  18
DOCKED: TORSDOF 5
DOCKED: TER
DOCKED: ENDMDL
________________________________________________________________________________


    FINAL DOCKED STATE:
    ________________________


Run:   221 / 512
Time taken for this run:   0.002s

DOCKED: MODEL        221
DOCKED: USER    Run = 221
DOCKED: USER
DOCKED: USER    Estimated Free Energy of Binding    =  -4.46 kcal/mol  [=(1)+(2)+(3)-(4)]
DOCKED: USER
DOCKED: USER    (1) Final Intermolecular Energy     =  -5.95 kcal/mol
DOCKED: USER        vdW + Hbond + desolv Energy     =  -5.95 kcal/mol
DOCKED: USER        Electrostatic Energy            =  +0.00 kcal/mol
DOCKED: USER        Moving Ligand-Fixed Receptor    =  -5.95 kcal/mol
DOCKED: USER        Moving Ligand-Moving Receptor   =  +0.00 kcal/mol
DOCKED: USER    (2) Final Total Internal Energy     =  -1.30 kcal/mol
DOCKED: USER    (3) Torsional Free Energy           =  +1.49 kcal/mol
DOCKED: USER    (4) Unbound System's Energy         =  -1.30 kcal/mol
DOCKED: USER
DOCKED: USER
DOCKED: REMARK  5 active torsions:
DOCKED: REMARK  status: ('A' for Active; 'I' for Inactive)
DOCKED: REMARK    1  A    between atoms: C_2  and  C_19 
DOCKED: REMARK    2  A    between atoms: C_2  and  C_11 
DOCKED: REMARK    3  A    between atoms: C_19  and  C_20 
DOCKED: REMARK    4  A    between atoms: C_20  and  C_21 
DOCKED: REMARK    5  A    between atoms: C_21  and  N_22 
DOCKED: USER                              x       y       z     vdW  Elec       q    Type
DOCKED: USER                           _______ _______ _______ _____ _____    ______ ____
DOCKED: ROOT
DOCKED: ATOM      1  O   UNL     1     -40.739 -24.648   9.013 -0.09 -0.00    -0.346 OA 
DOCKED: ATOM      2  C   UNL     1     -41.253 -23.310   8.716 -0.14 +0.00    +0.130 C  
DOCKED: ATOM      3  C   UNL     1     -41.686 -23.402   7.282 -0.26 +0.00    +0.004 A  
DOCKED: ATOM      4  C   UNL     1     -41.537 -24.706   6.831 -0.36 +0.00    +0.006 A  
DOCKED: ATOM      5  C   UNL     1     -41.015 -25.558   7.923 -0.20 +0.00    +0.169 C  
DOCKED: ATOM      6  C   UNL     1     -42.184 -22.413   6.446 -0.30 -0.00    -0.001 A  
DOCKED: ATOM      7  C   UNL     1     -41.874 -25.064   5.537 -0.43 +0.00    +0.008 A  
DOCKED: ATOM      8  C   UNL     1     -42.524 -22.757   5.137 -0.12 +0.00    +0.010 A  
DOCKED: ATOM      9  C   UNL     1     -42.370 -24.076   4.685 -0.39 +0.00    +0.068 A  
DOCKED: ATOM     10  N   UNL     1     -43.015 -24.683   2.250 -2.05 -0.00    -0.191 NA 
DOCKED: ATOM     11  C   UNL     1     -42.725 -24.411   3.342 -0.51 +0.00    +0.101 C  
DOCKED: ENDROOT
DOCKED: BRANCH   2  12
DOCKED: ATOM     12  C   UNL     1     -42.406 -23.014   9.667 -0.09 +0.00    +0.038 C  
DOCKED: BRANCH  12  13
DOCKED: ATOM     13  C   UNL     1     -43.616 -23.898   9.368 -0.14 +0.00    +0.038 C  
DOCKED: BRANCH  13  14
DOCKED: ATOM     14  C   UNL     1     -43.512 -25.236  10.098 -0.02 +0.00    +0.251 C  
DOCKED: BRANCH  14  15
DOCKED: ATOM     15  N   UNL     1     -43.090 -25.030  11.478 -0.12 +0.00    +0.141 N  
DOCKED: ATOM     16  C   UNL     1     -44.057 -25.617  12.407 -0.10 +0.00    +0.285 C  
DOCKED: ATOM     17  C   UNL     1     -41.761 -25.600  11.702 -0.10 +0.00    +0.285 C  
DOCKED: ENDBRANCH  14  15
DOCKED: ENDBRANCH  13  14
DOCKED: ENDBRANCH  12  13
DOCKED: ENDBRANCH   2  12
DOCKED: BRANCH   2  18
DOCKED: ATOM     18  C   UNL     1     -40.126 -22.354   8.923 -0.14 +0.00    +0.006 A  
DOCKED: ATOM     19  C   UNL     1     -39.113 -22.254   7.970 -0.16 +0.00    +0.001 A  
DOCKED: ATOM     20  C   UNL     1     -38.060 -21.360   8.165 -0.12 +0.00    +0.029 A  
DOCKED: ATOM     21  C   UNL     1     -38.020 -20.568   9.311 -0.04 +0.00    +0.140 A  
DOCKED: ATOM     22  C   UNL     1     -39.033 -20.669  10.264 -0.03 +0.00    +0.029 A  
DOCKED: ATOM     23  F   UNL     1     -37.010 -19.709   9.497 -0.00 -0.00    -0.204 F  
DOCKED: ATOM     24  C   UNL     1     -40.087 -21.563  10.070 -0.05 +0.00    +0.001 A  
DOCKED: ENDBRANCH   2  18
DOCKED: TORSDOF 5
DOCKED: TER
DOCKED: ENDMDL
________________________________________________________________________________


    FINAL DOCKED STATE:
    ________________________


Run:   222 / 512
Time taken for this run:   0.002s

DOCKED: MODEL        222
DOCKED: USER    Run = 222
DOCKED: USER
DOCKED: USER    Estimated Free Energy of Binding    =  -4.05 kcal/mol  [=(1)+(2)+(3)-(4)]
DOCKED: USER
DOCKED: USER    (1) Final Intermolecular Energy     =  -5.54 kcal/mol
DOCKED: USER        vdW + Hbond + desolv Energy     =  -5.54 kcal/mol
DOCKED: USER        Electrostatic Energy            =  +0.00 kcal/mol
DOCKED: USER        Moving Ligand-Fixed Receptor    =  -5.54 kcal/mol
DOCKED: USER        Moving Ligand-Moving Receptor   =  +0.00 kcal/mol
DOCKED: USER    (2) Final Total Internal Energy     =  -1.51 kcal/mol
DOCKED: USER    (3) Torsional Free Energy           =  +1.49 kcal/mol
DOCKED: USER    (4) Unbound System's Energy         =  -1.51 kcal/mol
DOCKED: USER
DOCKED: USER
DOCKED: REMARK  5 active torsions:
DOCKED: REMARK  status: ('A' for Active; 'I' for Inactive)
DOCKED: REMARK    1  A    between atoms: C_2  and  C_19 
DOCKED: REMARK    2  A    between atoms: C_2  and  C_11 
DOCKED: REMARK    3  A    between atoms: C_19  and  C_20 
DOCKED: REMARK    4  A    between atoms: C_20  and  C_21 
DOCKED: REMARK    5  A    between atoms: C_21  and  N_22 
DOCKED: USER                              x       y       z     vdW  Elec       q    Type
DOCKED: USER                           _______ _______ _______ _____ _____    ______ ____
DOCKED: ROOT
DOCKED: ATOM      1  O   UNL     1     -43.530 -19.314   7.351 -0.09 -0.00    -0.346 OA 
DOCKED: ATOM      2  C   UNL     1     -42.101 -19.611   7.240 -0.16 +0.00    +0.130 C  
DOCKED: ATOM      3  C   UNL     1     -42.064 -21.057   6.837 -0.24 +0.00    +0.004 A  
DOCKED: ATOM      4  C   UNL     1     -43.357 -21.516   6.628 -0.20 +0.00    +0.006 A  
DOCKED: ATOM      5  C   UNL     1     -44.324 -20.421   6.862 -0.20 +0.00    +0.169 C  
DOCKED: ATOM      6  C   UNL     1     -40.974 -21.895   6.659 -0.27 -0.00    -0.001 A  
DOCKED: ATOM      7  C   UNL     1     -43.603 -22.822   6.241 -0.23 +0.00    +0.008 A  
DOCKED: ATOM      8  C   UNL     1     -41.206 -23.216   6.273 -0.31 +0.00    +0.010 A  
DOCKED: ATOM      9  C   UNL     1     -42.514 -23.677   6.064 -0.29 +0.00    +0.068 A  
DOCKED: ATOM     10  N   UNL     1     -42.910 -26.134   5.342 -2.62 -0.00    -0.191 NA 
DOCKED: ATOM     11  C   UNL     1     -42.732 -25.032   5.667 -0.37 +0.00    +0.101 C  
DOCKED: ENDROOT
DOCKED: BRANCH   2  12
DOCKED: ATOM     12  C   UNL     1     -41.497 -18.687   6.190 -0.07 +0.00    +0.038 C  
DOCKED: BRANCH  12  13
DOCKED: ATOM     13  C   UNL     1     -42.380 -17.463   5.950 -0.17 +0.00    +0.038 C  
DOCKED: BRANCH  13  14
DOCKED: ATOM     14  C   UNL     1     -42.476 -16.601   7.208 -0.05 +0.00    +0.251 C  
DOCKED: BRANCH  14  15
DOCKED: ATOM     15  N   UNL     1     -43.848 -16.149   7.408 -0.04 +0.00    +0.141 N  
DOCKED: ATOM     16  C   UNL     1     -44.748 -16.788   6.447 -0.09 +0.00    +0.285 C  
DOCKED: ATOM     17  C   UNL     1     -44.288 -16.426   8.777 -0.00 +0.00    +0.285 C  
DOCKED: ENDBRANCH  14  15
DOCKED: ENDBRANCH  13  14
DOCKED: ENDBRANCH  12  13
DOCKED: ENDBRANCH   2  12
DOCKED: BRANCH   2  18
DOCKED: ATOM     18  C   UNL     1     -41.499 -19.366   8.583 -0.06 +0.00    +0.006 A  
DOCKED: ATOM     19  C   UNL     1     -40.182 -18.919   8.686 -0.04 +0.00    +0.001 A  
DOCKED: ATOM     20  C   UNL     1     -39.620 -18.691   9.942 -0.01 +0.00    +0.029 A  
DOCKED: ATOM     21  C   UNL     1     -40.376 -18.908  11.094 -0.00 +0.00    +0.140 A  
DOCKED: ATOM     22  C   UNL     1     -41.693 -19.354  10.991 -0.00 +0.00    +0.029 A  
DOCKED: ATOM     23  F   UNL     1     -39.837 -18.687  12.300 -0.00 -0.00    -0.204 F  
DOCKED: ATOM     24  C   UNL     1     -42.256 -19.584   9.734 -0.02 +0.00    +0.001 A  
DOCKED: ENDBRANCH   2  18
DOCKED: TORSDOF 5
DOCKED: TER
DOCKED: ENDMDL
________________________________________________________________________________


    FINAL DOCKED STATE:
    ________________________


Run:   223 / 512
Time taken for this run:   0.002s

DOCKED: MODEL        223
DOCKED: USER    Run = 223
DOCKED: USER
DOCKED: USER    Estimated Free Energy of Binding    =  -4.45 kcal/mol  [=(1)+(2)+(3)-(4)]
DOCKED: USER
DOCKED: USER    (1) Final Intermolecular Energy     =  -5.94 kcal/mol
DOCKED: USER        vdW + Hbond + desolv Energy     =  -5.94 kcal/mol
DOCKED: USER        Electrostatic Energy            =  +0.00 kcal/mol
DOCKED: USER        Moving Ligand-Fixed Receptor    =  -5.94 kcal/mol
DOCKED: USER        Moving Ligand-Moving Receptor   =  +0.00 kcal/mol
DOCKED: USER    (2) Final Total Internal Energy     =  -1.33 kcal/mol
DOCKED: USER    (3) Torsional Free Energy           =  +1.49 kcal/mol
DOCKED: USER    (4) Unbound System's Energy         =  -1.33 kcal/mol
DOCKED: USER
DOCKED: USER
DOCKED: REMARK  5 active torsions:
DOCKED: REMARK  status: ('A' for Active; 'I' for Inactive)
DOCKED: REMARK    1  A    between atoms: C_2  and  C_19 
DOCKED: REMARK    2  A    between atoms: C_2  and  C_11 
DOCKED: REMARK    3  A    between atoms: C_19  and  C_20 
DOCKED: REMARK    4  A    between atoms: C_20  and  C_21 
DOCKED: REMARK    5  A    between atoms: C_21  and  N_22 
DOCKED: USER                              x       y       z     vdW  Elec       q    Type
DOCKED: USER                           _______ _______ _______ _____ _____    ______ ____
DOCKED: ROOT
DOCKED: ATOM      1  O   UNL     1     -40.877 -19.429   6.695 -0.08 -0.00    -0.346 OA 
DOCKED: ATOM      2  C   UNL     1     -42.153 -19.646   7.379 -0.15 +0.00    +0.130 C  
DOCKED: ATOM      3  C   UNL     1     -42.514 -21.061   7.026 -0.22 +0.00    +0.004 A  
DOCKED: ATOM      4  C   UNL     1     -41.483 -21.638   6.298 -0.28 +0.00    +0.006 A  
DOCKED: ATOM      5  C   UNL     1     -40.380 -20.665   6.131 -0.09 +0.00    +0.169 C  
DOCKED: ATOM      6  C   UNL     1     -43.657 -21.782   7.336 -0.19 -0.00    -0.001 A  
DOCKED: ATOM      7  C   UNL     1     -41.561 -22.946   5.852 -0.33 +0.00    +0.008 A  
DOCKED: ATOM      8  C   UNL     1     -43.753 -23.101   6.889 -0.21 +0.00    +0.010 A  
DOCKED: ATOM      9  C   UNL     1     -42.709 -23.680   6.152 -0.27 +0.00    +0.068 A  
DOCKED: ATOM     10  N   UNL     1     -42.916 -26.133   5.343 -2.62 -0.00    -0.191 NA 
DOCKED: ATOM     11  C   UNL     1     -42.824 -25.033   5.705 -0.37 +0.00    +0.101 C  
DOCKED: ENDROOT
DOCKED: BRANCH   2  12
DOCKED: ATOM     12  C   UNL     1     -41.939 -19.443   8.874 -0.05 +0.00    +0.038 C  
DOCKED: BRANCH  12  13
DOCKED: ATOM     13  C   UNL     1     -41.335 -18.072   9.169 -0.02 +0.00    +0.038 C  
DOCKED: BRANCH  13  14
DOCKED: ATOM     14  C   UNL     1     -42.092 -17.369  10.295 -0.00 +0.00    +0.251 C  
DOCKED: BRANCH  14  15
DOCKED: ATOM     15  N   UNL     1     -43.470 -17.110   9.895 -0.01 +0.00    +0.141 N  
DOCKED: ATOM     16  C   UNL     1     -44.405 -17.732  10.833 -0.00 +0.00    +0.285 C  
DOCKED: ATOM     17  C   UNL     1     -43.720 -15.670   9.809 -0.00 +0.00    +0.285 C  
DOCKED: ENDBRANCH  14  15
DOCKED: ENDBRANCH  13  14
DOCKED: ENDBRANCH  12  13
DOCKED: ENDBRANCH   2  12
DOCKED: BRANCH   2  18
DOCKED: ATOM     18  C   UNL     1     -43.116 -18.647   6.832 -0.20 +0.00    +0.006 A  
DOCKED: ATOM     19  C   UNL     1     -44.478 -18.771   7.103 -0.21 +0.00    +0.001 A  
DOCKED: ATOM     20  C   UNL     1     -45.378 -17.836   6.591 -0.19 +0.00    +0.029 A  
DOCKED: ATOM     21  C   UNL     1     -44.916 -16.778   5.809 -0.11 +0.00    +0.140 A  
DOCKED: ATOM     22  C   UNL     1     -43.553 -16.655   5.538 -0.14 +0.00    +0.029 A  
DOCKED: ATOM     23  F   UNL     1     -45.780 -15.880   5.319 -0.02 -0.00    -0.204 F  
DOCKED: ATOM     24  C   UNL     1     -42.652 -17.590   6.050 -0.17 +0.00    +0.001 A  
DOCKED: ENDBRANCH   2  18
DOCKED: TORSDOF 5
DOCKED: TER
DOCKED: ENDMDL
________________________________________________________________________________


    FINAL DOCKED STATE:
    ________________________


Run:   224 / 512
Time taken for this run:   0.002s

DOCKED: MODEL        224
DOCKED: USER    Run = 224
DOCKED: USER
DOCKED: USER    Estimated Free Energy of Binding    =  -4.04 kcal/mol  [=(1)+(2)+(3)-(4)]
DOCKED: USER
DOCKED: USER    (1) Final Intermolecular Energy     =  -5.53 kcal/mol
DOCKED: USER        vdW + Hbond + desolv Energy     =  -5.53 kcal/mol
DOCKED: USER        Electrostatic Energy            =  +0.00 kcal/mol
DOCKED: USER        Moving Ligand-Fixed Receptor    =  -5.53 kcal/mol
DOCKED: USER        Moving Ligand-Moving Receptor   =  +0.00 kcal/mol
DOCKED: USER    (2) Final Total Internal Energy     =  -1.18 kcal/mol
DOCKED: USER    (3) Torsional Free Energy           =  +1.49 kcal/mol
DOCKED: USER    (4) Unbound System's Energy         =  -1.18 kcal/mol
DOCKED: USER
DOCKED: USER
DOCKED: REMARK  5 active torsions:
DOCKED: REMARK  status: ('A' for Active; 'I' for Inactive)
DOCKED: REMARK    1  A    between atoms: C_2  and  C_19 
DOCKED: REMARK    2  A    between atoms: C_2  and  C_11 
DOCKED: REMARK    3  A    between atoms: C_19  and  C_20 
DOCKED: REMARK    4  A    between atoms: C_20  and  C_21 
DOCKED: REMARK    5  A    between atoms: C_21  and  N_22 
DOCKED: USER                              x       y       z     vdW  Elec       q    Type
DOCKED: USER                           _______ _______ _______ _____ _____    ______ ____
DOCKED: ROOT
DOCKED: ATOM      1  O   UNL     1     -33.090 -23.106  -1.529 -0.00 -0.00    -0.346 OA 
DOCKED: ATOM      2  C   UNL     1     -33.600 -22.090  -0.608 -0.07 +0.00    +0.130 C  
DOCKED: ATOM      3  C   UNL     1     -34.163 -22.887   0.533 -0.12 +0.00    +0.004 A  
DOCKED: ATOM      4  C   UNL     1     -33.899 -24.235   0.335 -0.13 +0.00    +0.006 A  
DOCKED: ATOM      5  C   UNL     1     -33.144 -24.420  -0.925 -0.08 +0.00    +0.169 C  
DOCKED: ATOM      6  C   UNL     1     -34.843 -22.453   1.661 -0.16 -0.00    -0.001 A  
DOCKED: ATOM      7  C   UNL     1     -34.307 -25.191   1.249 -0.23 +0.00    +0.008 A  
DOCKED: ATOM      8  C   UNL     1     -35.266 -23.406   2.590 -0.27 +0.00    +0.010 A  
DOCKED: ATOM      9  C   UNL     1     -34.998 -24.767   2.386 -0.29 +0.00    +0.068 A  
DOCKED: ATOM     10  N   UNL     1     -35.792 -26.508   4.133 -2.65 -0.00    -0.191 NA 
DOCKED: ATOM     11  C   UNL     1     -35.436 -25.728   3.349 -0.41 +0.00    +0.101 C  
DOCKED: ENDROOT
DOCKED: BRANCH   2  12
DOCKED: ATOM     12  C   UNL     1     -32.441 -21.192  -0.190 -0.01 +0.00    +0.038 C  
DOCKED: BRANCH  12  13
DOCKED: ATOM     13  C   UNL     1     -32.682 -20.576   1.187 -0.02 +0.00    +0.038 C  
DOCKED: BRANCH  13  14
DOCKED: ATOM     14  C   UNL     1     -31.513 -20.860   2.128 -0.00 +0.00    +0.251 C  
DOCKED: BRANCH  14  15
DOCKED: ATOM     15  N   UNL     1     -31.091 -22.250   2.008 -0.01 +0.00    +0.141 N  
DOCKED: ATOM     16  C   UNL     1     -29.652 -22.333   1.749 +0.00 +0.00    +0.285 C  
DOCKED: ATOM     17  C   UNL     1     -31.432 -22.999   3.218 -0.00 +0.00    +0.285 C  
DOCKED: ENDBRANCH  14  15
DOCKED: ENDBRANCH  13  14
DOCKED: ENDBRANCH  12  13
DOCKED: ENDBRANCH   2  12
DOCKED: BRANCH   2  18
DOCKED: ATOM     18  C   UNL     1     -34.641 -21.316  -1.346 -0.13 +0.00    +0.006 A  
DOCKED: ATOM     19  C   UNL     1     -35.351 -20.307  -0.695 -0.14 +0.00    +0.001 A  
DOCKED: ATOM     20  C   UNL     1     -36.325 -19.585  -1.386 -0.19 +0.00    +0.029 A  
DOCKED: ATOM     21  C   UNL     1     -36.586 -19.871  -2.725 -0.17 +0.00    +0.140 A  
DOCKED: ATOM     22  C   UNL     1     -35.875 -20.879  -3.375 -0.20 +0.00    +0.029 A  
DOCKED: ATOM     23  F   UNL     1     -37.520 -19.176  -3.389 -0.11 -0.00    -0.204 F  
DOCKED: ATOM     24  C   UNL     1     -34.902 -21.603  -2.685 -0.14 +0.00    +0.001 A  
DOCKED: ENDBRANCH   2  18
DOCKED: TORSDOF 5
DOCKED: TER
DOCKED: ENDMDL
________________________________________________________________________________


    FINAL DOCKED STATE:
    ________________________


Run:   225 / 512
Time taken for this run:   0.002s

DOCKED: MODEL        225
DOCKED: USER    Run = 225
DOCKED: USER
DOCKED: USER    Estimated Free Energy of Binding    =  -3.76 kcal/mol  [=(1)+(2)+(3)-(4)]
DOCKED: USER
DOCKED: USER    (1) Final Intermolecular Energy     =  -5.25 kcal/mol
DOCKED: USER        vdW + Hbond + desolv Energy     =  -5.25 kcal/mol
DOCKED: USER        Electrostatic Energy            =  +0.00 kcal/mol
DOCKED: USER        Moving Ligand-Fixed Receptor    =  -5.25 kcal/mol
DOCKED: USER        Moving Ligand-Moving Receptor   =  +0.00 kcal/mol
DOCKED: USER    (2) Final Total Internal Energy     =  -1.45 kcal/mol
DOCKED: USER    (3) Torsional Free Energy           =  +1.49 kcal/mol
DOCKED: USER    (4) Unbound System's Energy         =  -1.45 kcal/mol
DOCKED: USER
DOCKED: USER
DOCKED: REMARK  5 active torsions:
DOCKED: REMARK  status: ('A' for Active; 'I' for Inactive)
DOCKED: REMARK    1  A    between atoms: C_2  and  C_19 
DOCKED: REMARK    2  A    between atoms: C_2  and  C_11 
DOCKED: REMARK    3  A    between atoms: C_19  and  C_20 
DOCKED: REMARK    4  A    between atoms: C_20  and  C_21 
DOCKED: REMARK    5  A    between atoms: C_21  and  N_22 
DOCKED: USER                              x       y       z     vdW  Elec       q    Type
DOCKED: USER                           _______ _______ _______ _____ _____    ______ ____
DOCKED: ROOT
DOCKED: ATOM      1  O   UNL     1     -40.119 -22.562  10.174 -0.02 -0.00    -0.346 OA 
DOCKED: ATOM      2  C   UNL     1     -39.893 -21.829   8.927 -0.11 +0.00    +0.130 C  
DOCKED: ATOM      3  C   UNL     1     -40.603 -22.654   7.892 -0.21 +0.00    +0.004 A  
DOCKED: ATOM      4  C   UNL     1     -41.268 -23.705   8.508 -0.19 +0.00    +0.006 A  
DOCKED: ATOM      5  C   UNL     1     -41.059 -23.642   9.972 -0.11 +0.00    +0.169 C  
DOCKED: ATOM      6  C   UNL     1     -40.664 -22.482   6.517 -0.19 -0.00    -0.001 A  
DOCKED: ATOM      7  C   UNL     1     -42.009 -24.616   7.776 -0.27 +0.00    +0.008 A  
DOCKED: ATOM      8  C   UNL     1     -41.404 -23.396   5.764 -0.33 +0.00    +0.010 A  
DOCKED: ATOM      9  C   UNL     1     -42.073 -24.457   6.391 -0.31 +0.00    +0.068 A  
DOCKED: ATOM     10  N   UNL     1     -43.442 -26.132   4.965 -2.15 -0.00    -0.191 NA 
DOCKED: ATOM     11  C   UNL     1     -42.828 -25.381   5.605 -0.28 +0.00    +0.101 C  
DOCKED: ENDROOT
DOCKED: BRANCH   2  12
DOCKED: ATOM     12  C   UNL     1     -40.480 -20.431   9.075 -0.06 +0.00    +0.038 C  
DOCKED: BRANCH  12  13
DOCKED: ATOM     13  C   UNL     1     -41.987 -20.483   9.322 -0.05 +0.00    +0.038 C  
DOCKED: BRANCH  13  14
DOCKED: ATOM     14  C   UNL     1     -42.763 -20.068   8.073 -0.08 +0.00    +0.251 C  
DOCKED: BRANCH  14  15
DOCKED: ATOM     15  N   UNL     1     -44.080 -20.694   8.063 -0.09 +0.00    +0.141 N  
DOCKED: ATOM     16  C   UNL     1     -44.144 -21.746   7.048 -0.12 +0.00    +0.285 C  
DOCKED: ATOM     17  C   UNL     1     -44.400 -21.242   9.382 -0.01 +0.00    +0.285 C  
DOCKED: ENDBRANCH  14  15
DOCKED: ENDBRANCH  13  14
DOCKED: ENDBRANCH  12  13
DOCKED: ENDBRANCH   2  12
DOCKED: BRANCH   2  18
DOCKED: ATOM     18  C   UNL     1     -38.417 -21.774   8.714 -0.14 +0.00    +0.006 A  
DOCKED: ATOM     19  C   UNL     1     -37.790 -20.547   8.498 -0.09 +0.00    +0.001 A  
DOCKED: ATOM     20  C   UNL     1     -36.410 -20.497   8.299 -0.07 +0.00    +0.029 A  
DOCKED: ATOM     21  C   UNL     1     -35.659 -21.671   8.317 -0.07 +0.00    +0.140 A  
DOCKED: ATOM     22  C   UNL     1     -36.287 -22.898   8.533 -0.16 +0.00    +0.029 A  
DOCKED: ATOM     23  F   UNL     1     -34.334 -21.622   8.128 -0.00 -0.00    -0.204 F  
DOCKED: ATOM     24  C   UNL     1     -37.668 -22.949   8.732 -0.18 +0.00    +0.001 A  
DOCKED: ENDBRANCH   2  18
DOCKED: TORSDOF 5
DOCKED: TER
DOCKED: ENDMDL
________________________________________________________________________________


    FINAL DOCKED STATE:
    ________________________


Run:   226 / 512
Time taken for this run:   0.002s

DOCKED: MODEL        226
DOCKED: USER    Run = 226
DOCKED: USER
DOCKED: USER    Estimated Free Energy of Binding    =  -4.33 kcal/mol  [=(1)+(2)+(3)-(4)]
DOCKED: USER
DOCKED: USER    (1) Final Intermolecular Energy     =  -5.82 kcal/mol
DOCKED: USER        vdW + Hbond + desolv Energy     =  -5.82 kcal/mol
DOCKED: USER        Electrostatic Energy            =  +0.00 kcal/mol
DOCKED: USER        Moving Ligand-Fixed Receptor    =  -5.82 kcal/mol
DOCKED: USER        Moving Ligand-Moving Receptor   =  +0.00 kcal/mol
DOCKED: USER    (2) Final Total Internal Energy     =  -1.24 kcal/mol
DOCKED: USER    (3) Torsional Free Energy           =  +1.49 kcal/mol
DOCKED: USER    (4) Unbound System's Energy         =  -1.24 kcal/mol
DOCKED: USER
DOCKED: USER
DOCKED: REMARK  5 active torsions:
DOCKED: REMARK  status: ('A' for Active; 'I' for Inactive)
DOCKED: REMARK    1  A    between atoms: C_2  and  C_19 
DOCKED: REMARK    2  A    between atoms: C_2  and  C_11 
DOCKED: REMARK    3  A    between atoms: C_19  and  C_20 
DOCKED: REMARK    4  A    between atoms: C_20  and  C_21 
DOCKED: REMARK    5  A    between atoms: C_21  and  N_22 
DOCKED: USER                              x       y       z     vdW  Elec       q    Type
DOCKED: USER                           _______ _______ _______ _____ _____    ______ ____
DOCKED: ROOT
DOCKED: ATOM      1  O   UNL     1     -38.187 -22.000   8.552 -0.08 -0.00    -0.346 OA 
DOCKED: ATOM      2  C   UNL     1     -39.234 -21.070   8.126 -0.12 +0.00    +0.130 C  
DOCKED: ATOM      3  C   UNL     1     -40.245 -21.952   7.452 -0.21 +0.00    +0.004 A  
DOCKED: ATOM      4  C   UNL     1     -39.865 -23.281   7.579 -0.23 +0.00    +0.006 A  
DOCKED: ATOM      5  C   UNL     1     -38.602 -23.370   8.345 -0.12 +0.00    +0.169 C  
DOCKED: ATOM      6  C   UNL     1     -41.414 -21.607   6.790 -0.27 -0.00    -0.001 A  
DOCKED: ATOM      7  C   UNL     1     -40.632 -24.304   7.049 -0.35 +0.00    +0.008 A  
DOCKED: ATOM      8  C   UNL     1     -42.196 -22.627   6.245 -0.31 +0.00    +0.010 A  
DOCKED: ATOM      9  C   UNL     1     -41.807 -23.969   6.375 -0.31 +0.00    +0.068 A  
DOCKED: ATOM     10  N   UNL     1     -43.284 -25.838   5.357 -2.56 -0.00    -0.191 NA 
DOCKED: ATOM     11  C   UNL     1     -42.621 -24.999   5.813 -0.36 +0.00    +0.101 C  
DOCKED: ENDROOT
DOCKED: BRANCH   2  12
DOCKED: ATOM     12  C   UNL     1     -39.788 -20.368   9.360 -0.05 +0.00    +0.038 C  
DOCKED: BRANCH  12  13
DOCKED: ATOM     13  C   UNL     1     -39.782 -21.292  10.576 -0.04 +0.00    +0.038 C  
DOCKED: BRANCH  13  14
DOCKED: ATOM     14  C   UNL     1     -41.193 -21.771  10.910 -0.01 +0.00    +0.251 C  
DOCKED: BRANCH  14  15
DOCKED: ATOM     15  N   UNL     1     -41.140 -23.000  11.692 -0.03 +0.00    +0.141 N  
DOCKED: ATOM     16  C   UNL     1     -40.726 -24.127  10.856 -0.09 +0.00    +0.285 C  
DOCKED: ATOM     17  C   UNL     1     -40.230 -22.849  12.828 -0.01 +0.00    +0.285 C  
DOCKED: ENDBRANCH  14  15
DOCKED: ENDBRANCH  13  14
DOCKED: ENDBRANCH  12  13
DOCKED: ENDBRANCH   2  12
DOCKED: BRANCH   2  18
DOCKED: ATOM     18  C   UNL     1     -38.598 -20.096   7.192 -0.13 +0.00    +0.006 A  
DOCKED: ATOM     19  C   UNL     1     -37.214 -20.095   7.022 -0.11 +0.00    +0.001 A  
DOCKED: ATOM     20  C   UNL     1     -36.621 -19.183   6.148 -0.09 +0.00    +0.029 A  
DOCKED: ATOM     21  C   UNL     1     -37.411 -18.274   5.446 -0.07 +0.00    +0.140 A  
DOCKED: ATOM     22  C   UNL     1     -38.796 -18.276   5.617 -0.12 +0.00    +0.029 A  
DOCKED: ATOM     23  F   UNL     1     -36.842 -17.400   4.607 -0.00 -0.00    -0.204 F  
DOCKED: ATOM     24  C   UNL     1     -39.390 -19.187   6.491 -0.15 +0.00    +0.001 A  
DOCKED: ENDBRANCH   2  18
DOCKED: TORSDOF 5
DOCKED: TER
DOCKED: ENDMDL
________________________________________________________________________________


    FINAL DOCKED STATE:
    ________________________


Run:   227 / 512
Time taken for this run:   0.002s

DOCKED: MODEL        227
DOCKED: USER    Run = 227
DOCKED: USER
DOCKED: USER    Estimated Free Energy of Binding    =  -5.39 kcal/mol  [=(1)+(2)+(3)-(4)]
DOCKED: USER
DOCKED: USER    (1) Final Intermolecular Energy     =  -6.88 kcal/mol
DOCKED: USER        vdW + Hbond + desolv Energy     =  -6.88 kcal/mol
DOCKED: USER        Electrostatic Energy            =  +0.00 kcal/mol
DOCKED: USER        Moving Ligand-Fixed Receptor    =  -6.88 kcal/mol
DOCKED: USER        Moving Ligand-Moving Receptor   =  +0.00 kcal/mol
DOCKED: USER    (2) Final Total Internal Energy     =  -1.09 kcal/mol
DOCKED: USER    (3) Torsional Free Energy           =  +1.49 kcal/mol
DOCKED: USER    (4) Unbound System's Energy         =  -1.09 kcal/mol
DOCKED: USER
DOCKED: USER
DOCKED: REMARK  5 active torsions:
DOCKED: REMARK  status: ('A' for Active; 'I' for Inactive)
DOCKED: REMARK    1  A    between atoms: C_2  and  C_19 
DOCKED: REMARK    2  A    between atoms: C_2  and  C_11 
DOCKED: REMARK    3  A    between atoms: C_19  and  C_20 
DOCKED: REMARK    4  A    between atoms: C_20  and  C_21 
DOCKED: REMARK    5  A    between atoms: C_21  and  N_22 
DOCKED: USER                              x       y       z     vdW  Elec       q    Type
DOCKED: USER                           _______ _______ _______ _____ _____    ______ ____
DOCKED: ROOT
DOCKED: ATOM      1  O   UNL     1     -41.142 -22.332   8.104 -0.04 -0.00    -0.346 OA 
DOCKED: ATOM      2  C   UNL     1     -42.262 -23.259   8.271 -0.13 +0.00    +0.130 C  
DOCKED: ATOM      3  C   UNL     1     -42.660 -23.599   6.864 -0.25 +0.00    +0.004 A  
DOCKED: ATOM      4  C   UNL     1     -41.775 -23.008   5.973 -0.35 +0.00    +0.006 A  
DOCKED: ATOM      5  C   UNL     1     -40.739 -22.257   6.717 -0.20 +0.00    +0.169 C  
DOCKED: ATOM      6  C   UNL     1     -43.713 -24.379   6.409 -0.28 -0.00    -0.001 A  
DOCKED: ATOM      7  C   UNL     1     -41.914 -23.170   4.605 -0.16 +0.00    +0.008 A  
DOCKED: ATOM      8  C   UNL     1     -43.869 -24.549   5.032 -0.38 +0.00    +0.010 A  
DOCKED: ATOM      9  C   UNL     1     -42.973 -23.948   4.135 -0.37 +0.00    +0.068 A  
DOCKED: ATOM     10  N   UNL     1     -43.288 -24.288   1.586 -3.16 -0.00    -0.191 NA 
DOCKED: ATOM     11  C   UNL     1     -43.147 -24.135   2.729 -0.33 +0.00    +0.101 C  
DOCKED: ENDROOT
DOCKED: BRANCH   2  12
DOCKED: ATOM     12  C   UNL     1     -41.775 -24.469   9.059 -0.24 +0.00    +0.038 C  
DOCKED: BRANCH  12  13
DOCKED: ATOM     13  C   UNL     1     -40.415 -24.204   9.702 -0.14 +0.00    +0.038 C  
DOCKED: BRANCH  13  14
DOCKED: ATOM     14  C   UNL     1     -40.533 -24.129  11.224 -0.10 +0.00    +0.251 C  
DOCKED: BRANCH  14  15
DOCKED: ATOM     15  N   UNL     1     -40.256 -25.431  11.819 -0.20 +0.00    +0.141 N  
DOCKED: ATOM     16  C   UNL     1     -39.372 -25.292  12.977 -0.11 +0.00    +0.285 C  
DOCKED: ATOM     17  C   UNL     1     -41.502 -26.095  12.208 -0.12 +0.00    +0.285 C  
DOCKED: ENDBRANCH  14  15
DOCKED: ENDBRANCH  13  14
DOCKED: ENDBRANCH  12  13
DOCKED: ENDBRANCH   2  12
DOCKED: BRANCH   2  18
DOCKED: ATOM     18  C   UNL     1     -43.328 -22.526   9.015 -0.08 +0.00    +0.006 A  
DOCKED: ATOM     19  C   UNL     1     -43.918 -21.394   8.452 -0.10 +0.00    +0.001 A  
DOCKED: ATOM     20  C   UNL     1     -44.914 -20.709   9.149 -0.05 +0.00    +0.029 A  
DOCKED: ATOM     21  C   UNL     1     -45.319 -21.156  10.406 -0.01 +0.00    +0.140 A  
DOCKED: ATOM     22  C   UNL     1     -44.729 -22.288  10.968 -0.03 +0.00    +0.029 A  
DOCKED: ATOM     23  F   UNL     1     -46.276 -20.500  11.074 +0.01 -0.00    -0.204 F  
DOCKED: ATOM     24  C   UNL     1     -43.732 -22.974  10.272 -0.06 +0.00    +0.001 A  
DOCKED: ENDBRANCH   2  18
DOCKED: TORSDOF 5
DOCKED: TER
DOCKED: ENDMDL
________________________________________________________________________________


    FINAL DOCKED STATE:
    ________________________


Run:   228 / 512
Time taken for this run:   0.002s

DOCKED: MODEL        228
DOCKED: USER    Run = 228
DOCKED: USER
DOCKED: USER    Estimated Free Energy of Binding    =  -4.34 kcal/mol  [=(1)+(2)+(3)-(4)]
DOCKED: USER
DOCKED: USER    (1) Final Intermolecular Energy     =  -5.83 kcal/mol
DOCKED: USER        vdW + Hbond + desolv Energy     =  -5.83 kcal/mol
DOCKED: USER        Electrostatic Energy            =  +0.00 kcal/mol
DOCKED: USER        Moving Ligand-Fixed Receptor    =  -5.83 kcal/mol
DOCKED: USER        Moving Ligand-Moving Receptor   =  +0.00 kcal/mol
DOCKED: USER    (2) Final Total Internal Energy     =  -1.09 kcal/mol
DOCKED: USER    (3) Torsional Free Energy           =  +1.49 kcal/mol
DOCKED: USER    (4) Unbound System's Energy         =  -1.09 kcal/mol
DOCKED: USER
DOCKED: USER
DOCKED: REMARK  5 active torsions:
DOCKED: REMARK  status: ('A' for Active; 'I' for Inactive)
DOCKED: REMARK    1  A    between atoms: C_2  and  C_19 
DOCKED: REMARK    2  A    between atoms: C_2  and  C_11 
DOCKED: REMARK    3  A    between atoms: C_19  and  C_20 
DOCKED: REMARK    4  A    between atoms: C_20  and  C_21 
DOCKED: REMARK    5  A    between atoms: C_21  and  N_22 
DOCKED: USER                              x       y       z     vdW  Elec       q    Type
DOCKED: USER                           _______ _______ _______ _____ _____    ______ ____
DOCKED: ROOT
DOCKED: ATOM      1  O   UNL     1     -34.935 -15.632  -2.182 +0.01 -0.00    -0.346 OA 
DOCKED: ATOM      2  C   UNL     1     -36.112 -15.712  -1.315 -0.07 +0.00    +0.130 C  
DOCKED: ATOM      3  C   UNL     1     -37.171 -14.970  -2.078 -0.19 +0.00    +0.004 A  
DOCKED: ATOM      4  C   UNL     1     -36.677 -14.594  -3.319 -0.15 +0.00    +0.006 A  
DOCKED: ATOM      5  C   UNL     1     -35.282 -15.066  -3.467 -0.04 +0.00    +0.169 C  
DOCKED: ATOM      6  C   UNL     1     -38.472 -14.661  -1.707 -0.29 -0.00    -0.001 A  
DOCKED: ATOM      7  C   UNL     1     -37.458 -13.898  -4.225 -0.23 +0.00    +0.008 A  
DOCKED: ATOM      8  C   UNL     1     -39.271 -13.956  -2.609 -0.35 +0.00    +0.010 A  
DOCKED: ATOM      9  C   UNL     1     -38.766 -13.577  -3.862 -0.27 +0.00    +0.068 A  
DOCKED: ATOM     10  N   UNL     1     -40.278 -12.273  -5.514 -2.54 -0.00    -0.191 NA 
DOCKED: ATOM     11  C   UNL     1     -39.600 -12.857  -4.773 -0.37 +0.00    +0.101 C  
DOCKED: ENDROOT
DOCKED: BRANCH   2  12
DOCKED: ATOM     12  C   UNL     1     -36.455 -17.182  -1.102 -0.11 +0.00    +0.038 C  
DOCKED: BRANCH  12  13
DOCKED: ATOM     13  C   UNL     1     -35.336 -18.093  -1.602 -0.06 +0.00    +0.038 C  
DOCKED: BRANCH  13  14
DOCKED: ATOM     14  C   UNL     1     -35.461 -18.342  -3.104 -0.07 +0.00    +0.251 C  
DOCKED: BRANCH  14  15
DOCKED: ATOM     15  N   UNL     1     -36.318 -19.494  -3.358 -0.22 +0.00    +0.141 N  
DOCKED: ATOM     16  C   UNL     1     -36.392 -19.776  -4.792 -0.20 +0.00    +0.285 C  
DOCKED: ATOM     17  C   UNL     1     -35.831 -20.669  -2.634 -0.12 +0.00    +0.285 C  
DOCKED: ENDBRANCH  14  15
DOCKED: ENDBRANCH  13  14
DOCKED: ENDBRANCH  12  13
DOCKED: ENDBRANCH   2  12
DOCKED: BRANCH   2  18
DOCKED: ATOM     18  C   UNL     1     -35.752 -15.051  -0.027 -0.10 +0.00    +0.006 A  
DOCKED: ATOM     19  C   UNL     1     -34.546 -14.360   0.087 -0.08 +0.00    +0.001 A  
DOCKED: ATOM     20  C   UNL     1     -34.210 -13.742   1.292 -0.08 +0.00    +0.029 A  
DOCKED: ATOM     21  C   UNL     1     -35.079 -13.815   2.380 -0.02 +0.00    +0.140 A  
DOCKED: ATOM     22  C   UNL     1     -36.285 -14.506   2.264 -0.10 +0.00    +0.029 A  
DOCKED: ATOM     23  F   UNL     1     -34.757 -13.220   3.536 -0.03 -0.00    -0.204 F  
DOCKED: ATOM     24  C   UNL     1     -36.622 -15.125   1.060 -0.14 +0.00    +0.001 A  
DOCKED: ENDBRANCH   2  18
DOCKED: TORSDOF 5
DOCKED: TER
DOCKED: ENDMDL
________________________________________________________________________________


    FINAL DOCKED STATE:
    ________________________


Run:   229 / 512
Time taken for this run:   0.002s

DOCKED: MODEL        229
DOCKED: USER    Run = 229
DOCKED: USER
DOCKED: USER    Estimated Free Energy of Binding    =  -5.70 kcal/mol  [=(1)+(2)+(3)-(4)]
DOCKED: USER
DOCKED: USER    (1) Final Intermolecular Energy     =  -7.19 kcal/mol
DOCKED: USER        vdW + Hbond + desolv Energy     =  -7.19 kcal/mol
DOCKED: USER        Electrostatic Energy            =  +0.00 kcal/mol
DOCKED: USER        Moving Ligand-Fixed Receptor    =  -7.19 kcal/mol
DOCKED: USER        Moving Ligand-Moving Receptor   =  +0.00 kcal/mol
DOCKED: USER    (2) Final Total Internal Energy     =  -1.00 kcal/mol
DOCKED: USER    (3) Torsional Free Energy           =  +1.49 kcal/mol
DOCKED: USER    (4) Unbound System's Energy         =  -1.00 kcal/mol
DOCKED: USER
DOCKED: USER
DOCKED: REMARK  5 active torsions:
DOCKED: REMARK  status: ('A' for Active; 'I' for Inactive)
DOCKED: REMARK    1  A    between atoms: C_2  and  C_19 
DOCKED: REMARK    2  A    between atoms: C_2  and  C_11 
DOCKED: REMARK    3  A    between atoms: C_19  and  C_20 
DOCKED: REMARK    4  A    between atoms: C_20  and  C_21 
DOCKED: REMARK    5  A    between atoms: C_21  and  N_22 
DOCKED: USER                              x       y       z     vdW  Elec       q    Type
DOCKED: USER                           _______ _______ _______ _____ _____    ______ ____
DOCKED: ROOT
DOCKED: ATOM      1  O   UNL     1     -41.183 -22.154   7.518 -0.07 -0.00    -0.346 OA 
DOCKED: ATOM      2  C   UNL     1     -42.049 -23.301   7.792 -0.17 +0.00    +0.130 C  
DOCKED: ATOM      3  C   UNL     1     -42.504 -23.741   6.430 -0.30 +0.00    +0.004 A  
DOCKED: ATOM      4  C   UNL     1     -41.867 -22.983   5.458 -0.35 +0.00    +0.006 A  
DOCKED: ATOM      5  C   UNL     1     -40.951 -22.012   6.097 -0.11 +0.00    +0.169 C  
DOCKED: ATOM      6  C   UNL     1     -43.400 -24.740   6.080 -0.32 -0.00    -0.001 A  
DOCKED: ATOM      7  C   UNL     1     -42.106 -23.192   4.110 -0.13 +0.00    +0.008 A  
DOCKED: ATOM      8  C   UNL     1     -43.656 -24.960   4.726 -0.43 +0.00    +0.010 A  
DOCKED: ATOM      9  C   UNL     1     -43.011 -24.190   3.746 -0.41 +0.00    +0.068 A  
DOCKED: ATOM     10  N   UNL     1     -43.504 -24.629   1.240 -3.21 -0.00    -0.191 NA 
DOCKED: ATOM     11  C   UNL     1     -43.283 -24.432   2.364 -0.28 +0.00    +0.101 C  
DOCKED: ENDROOT
DOCKED: BRANCH   2  12
DOCKED: ATOM     12  C   UNL     1     -41.229 -24.363   8.515 -0.27 +0.00    +0.038 C  
DOCKED: BRANCH  12  13
DOCKED: ATOM     13  C   UNL     1     -42.128 -25.365   9.237 -0.27 +0.00    +0.038 C  
DOCKED: BRANCH  13  14
DOCKED: ATOM     14  C   UNL     1     -42.298 -24.991  10.708 -0.12 +0.00    +0.251 C  
DOCKED: BRANCH  14  15
DOCKED: ATOM     15  N   UNL     1     -41.023 -25.096  11.408 -0.18 +0.00    +0.141 N  
DOCKED: ATOM     16  C   UNL     1     -40.672 -23.820  12.035 -0.05 +0.00    +0.285 C  
DOCKED: ATOM     17  C   UNL     1     -41.073 -26.158  12.414 -0.17 +0.00    +0.285 C  
DOCKED: ENDBRANCH  14  15
DOCKED: ENDBRANCH  13  14
DOCKED: ENDBRANCH  12  13
DOCKED: ENDBRANCH   2  12
DOCKED: BRANCH   2  18
DOCKED: ATOM     18  C   UNL     1     -43.167 -22.809   8.648 -0.10 +0.00    +0.006 A  
DOCKED: ATOM     19  C   UNL     1     -42.912 -21.897   9.671 -0.05 +0.00    +0.001 A  
DOCKED: ATOM     20  C   UNL     1     -43.959 -21.438  10.472 -0.02 +0.00    +0.029 A  
DOCKED: ATOM     21  C   UNL     1     -45.259 -21.890  10.247 -0.01 +0.00    +0.140 A  
DOCKED: ATOM     22  C   UNL     1     -45.513 -22.802   9.223 -0.08 +0.00    +0.029 A  
DOCKED: ATOM     23  F   UNL     1     -46.264 -21.448  11.014 +0.01 -0.00    -0.204 F  
DOCKED: ATOM     24  C   UNL     1     -44.466 -23.262   8.422 -0.12 +0.00    +0.001 A  
DOCKED: ENDBRANCH   2  18
DOCKED: TORSDOF 5
DOCKED: TER
DOCKED: ENDMDL
________________________________________________________________________________


    FINAL DOCKED STATE:
    ________________________


Run:   230 / 512
Time taken for this run:   0.002s

DOCKED: MODEL        230
DOCKED: USER    Run = 230
DOCKED: USER
DOCKED: USER    Estimated Free Energy of Binding    =  -3.95 kcal/mol  [=(1)+(2)+(3)-(4)]
DOCKED: USER
DOCKED: USER    (1) Final Intermolecular Energy     =  -5.44 kcal/mol
DOCKED: USER        vdW + Hbond + desolv Energy     =  -5.44 kcal/mol
DOCKED: USER        Electrostatic Energy            =  +0.00 kcal/mol
DOCKED: USER        Moving Ligand-Fixed Receptor    =  -5.44 kcal/mol
DOCKED: USER        Moving Ligand-Moving Receptor   =  +0.00 kcal/mol
DOCKED: USER    (2) Final Total Internal Energy     =  -1.33 kcal/mol
DOCKED: USER    (3) Torsional Free Energy           =  +1.49 kcal/mol
DOCKED: USER    (4) Unbound System's Energy         =  -1.33 kcal/mol
DOCKED: USER
DOCKED: USER
DOCKED: REMARK  5 active torsions:
DOCKED: REMARK  status: ('A' for Active; 'I' for Inactive)
DOCKED: REMARK    1  A    between atoms: C_2  and  C_19 
DOCKED: REMARK    2  A    between atoms: C_2  and  C_11 
DOCKED: REMARK    3  A    between atoms: C_19  and  C_20 
DOCKED: REMARK    4  A    between atoms: C_20  and  C_21 
DOCKED: REMARK    5  A    between atoms: C_21  and  N_22 
DOCKED: USER                              x       y       z     vdW  Elec       q    Type
DOCKED: USER                           _______ _______ _______ _____ _____    ______ ____
DOCKED: ROOT
DOCKED: ATOM      1  O   UNL     1     -40.567 -19.651   7.559 -0.04 -0.00    -0.346 OA 
DOCKED: ATOM      2  C   UNL     1     -39.625 -20.704   7.941 -0.12 +0.00    +0.130 C  
DOCKED: ATOM      3  C   UNL     1     -40.280 -21.966   7.460 -0.21 +0.00    +0.004 A  
DOCKED: ATOM      4  C   UNL     1     -41.441 -21.654   6.766 -0.27 +0.00    +0.006 A  
DOCKED: ATOM      5  C   UNL     1     -41.625 -20.186   6.729 -0.18 +0.00    +0.169 C  
DOCKED: ATOM      6  C   UNL     1     -39.876 -23.284   7.613 -0.24 -0.00    -0.001 A  
DOCKED: ATOM      7  C   UNL     1     -42.235 -22.642   6.209 -0.31 +0.00    +0.008 A  
DOCKED: ATOM      8  C   UNL     1     -40.668 -24.291   7.061 -0.35 +0.00    +0.010 A  
DOCKED: ATOM      9  C   UNL     1     -41.842 -23.972   6.363 -0.31 +0.00    +0.068 A  
DOCKED: ATOM     10  N   UNL     1     -43.287 -25.867   5.346 -2.56 -0.00    -0.191 NA 
DOCKED: ATOM     11  C   UNL     1     -42.639 -25.017   5.803 -0.35 +0.00    +0.101 C  
DOCKED: ENDROOT
DOCKED: BRANCH   2  12
DOCKED: ATOM     12  C   UNL     1     -38.291 -20.429   7.255 -0.12 +0.00    +0.038 C  
DOCKED: BRANCH  12  13
DOCKED: ATOM     13  C   UNL     1     -38.470 -19.542   6.025 -0.15 +0.00    +0.038 C  
DOCKED: BRANCH  13  14
DOCKED: ATOM     14  C   UNL     1     -38.161 -18.082   6.350 -0.05 +0.00    +0.251 C  
DOCKED: BRANCH  14  15
DOCKED: ATOM     15  N   UNL     1     -37.324 -17.994   7.541 -0.02 +0.00    +0.141 N  
DOCKED: ATOM     16  C   UNL     1     -36.185 -17.105   7.306 -0.00 +0.00    +0.285 C  
DOCKED: ATOM     17  C   UNL     1     -38.105 -17.526   8.687 -0.00 +0.00    +0.285 C  
DOCKED: ENDBRANCH  14  15
DOCKED: ENDBRANCH  13  14
DOCKED: ENDBRANCH  12  13
DOCKED: ENDBRANCH   2  12
DOCKED: BRANCH   2  18
DOCKED: ATOM     18  C   UNL     1     -39.488 -20.649   9.426 -0.05 +0.00    +0.006 A  
DOCKED: ATOM     19  C   UNL     1     -38.439 -21.319  10.054 -0.05 +0.00    +0.001 A  
DOCKED: ATOM     20  C   UNL     1     -38.312 -21.268  11.443 -0.02 +0.00    +0.029 A  
DOCKED: ATOM     21  C   UNL     1     -39.234 -20.546  12.200 -0.00 +0.00    +0.140 A  
DOCKED: ATOM     22  C   UNL     1     -40.283 -19.876  11.571 -0.00 +0.00    +0.029 A  
DOCKED: ATOM     23  F   UNL     1     -39.111 -20.496  13.533 +0.00 -0.00    -0.204 F  
DOCKED: ATOM     24  C   UNL     1     -40.410 -19.927  10.182 -0.02 +0.00    +0.001 A  
DOCKED: ENDBRANCH   2  18
DOCKED: TORSDOF 5
DOCKED: TER
DOCKED: ENDMDL
________________________________________________________________________________


    FINAL DOCKED STATE:
    ________________________


Run:   231 / 512
Time taken for this run:   0.002s

DOCKED: MODEL        231
DOCKED: USER    Run = 231
DOCKED: USER
DOCKED: USER    Estimated Free Energy of Binding    =  -5.15 kcal/mol  [=(1)+(2)+(3)-(4)]
DOCKED: USER
DOCKED: USER    (1) Final Intermolecular Energy     =  -6.64 kcal/mol
DOCKED: USER        vdW + Hbond + desolv Energy     =  -6.64 kcal/mol
DOCKED: USER        Electrostatic Energy            =  +0.00 kcal/mol
DOCKED: USER        Moving Ligand-Fixed Receptor    =  -6.64 kcal/mol
DOCKED: USER        Moving Ligand-Moving Receptor   =  +0.00 kcal/mol
DOCKED: USER    (2) Final Total Internal Energy     =  -1.09 kcal/mol
DOCKED: USER    (3) Torsional Free Energy           =  +1.49 kcal/mol
DOCKED: USER    (4) Unbound System's Energy         =  -1.09 kcal/mol
DOCKED: USER
DOCKED: USER
DOCKED: REMARK  5 active torsions:
DOCKED: REMARK  status: ('A' for Active; 'I' for Inactive)
DOCKED: REMARK    1  A    between atoms: C_2  and  C_19 
DOCKED: REMARK    2  A    between atoms: C_2  and  C_11 
DOCKED: REMARK    3  A    between atoms: C_19  and  C_20 
DOCKED: REMARK    4  A    between atoms: C_20  and  C_21 
DOCKED: REMARK    5  A    between atoms: C_21  and  N_22 
DOCKED: USER                              x       y       z     vdW  Elec       q    Type
DOCKED: USER                           _______ _______ _______ _____ _____    ______ ____
DOCKED: ROOT
DOCKED: ATOM      1  O   UNL     1     -40.564 -23.923   8.017 -0.11 -0.00    -0.346 OA 
DOCKED: ATOM      2  C   UNL     1     -41.965 -23.510   8.100 -0.16 +0.00    +0.130 C  
DOCKED: ATOM      3  C   UNL     1     -42.494 -23.753   6.716 -0.28 +0.00    +0.004 A  
DOCKED: ATOM      4  C   UNL     1     -41.514 -24.356   5.940 -0.40 +0.00    +0.006 A  
DOCKED: ATOM      5  C   UNL     1     -40.291 -24.562   6.748 -0.22 +0.00    +0.169 C  
DOCKED: ATOM      6  C   UNL     1     -43.747 -23.475   6.189 -0.27 -0.00    -0.001 A  
DOCKED: ATOM      7  C   UNL     1     -41.748 -24.694   4.618 -0.31 +0.00    +0.008 A  
DOCKED: ATOM      8  C   UNL     1     -43.997 -23.806   4.856 -0.26 +0.00    +0.010 A  
DOCKED: ATOM      9  C   UNL     1     -43.002 -24.413   4.075 -0.42 +0.00    +0.068 A  
DOCKED: ATOM     10  N   UNL     1     -43.500 -25.019   1.606 -2.73 -0.00    -0.191 NA 
DOCKED: ATOM     11  C   UNL     1     -43.277 -24.746   2.713 -0.32 +0.00    +0.101 C  
DOCKED: ENDROOT
DOCKED: BRANCH   2  12
DOCKED: ATOM     12  C   UNL     1     -42.657 -24.362   9.158 -0.20 +0.00    +0.038 C  
DOCKED: BRANCH  12  13
DOCKED: ATOM     13  C   UNL     1     -41.890 -24.341  10.479 -0.18 +0.00    +0.038 C  
DOCKED: BRANCH  13  14
DOCKED: ATOM     14  C   UNL     1     -41.531 -25.756  10.928 -0.00 +0.00    +0.251 C  
DOCKED: BRANCH  14  15
DOCKED: ATOM     15  N   UNL     1     -40.702 -25.712  12.126 -0.21 +0.00    +0.141 N  
DOCKED: ATOM     16  C   UNL     1     -39.526 -24.868  11.909 -0.10 +0.00    +0.285 C  
DOCKED: ATOM     17  C   UNL     1     -41.473 -25.224  13.270 -0.07 +0.00    +0.285 C  
DOCKED: ENDBRANCH  14  15
DOCKED: ENDBRANCH  13  14
DOCKED: ENDBRANCH  12  13
DOCKED: ENDBRANCH   2  12
DOCKED: BRANCH   2  18
DOCKED: ATOM     18  C   UNL     1     -41.973 -22.067   8.480 -0.10 +0.00    +0.006 A  
DOCKED: ATOM     19  C   UNL     1     -42.979 -21.571   9.309 -0.05 +0.00    +0.001 A  
DOCKED: ATOM     20  C   UNL     1     -42.985 -20.221   9.663 -0.03 +0.00    +0.029 A  
DOCKED: ATOM     21  C   UNL     1     -41.986 -19.371   9.190 -0.02 +0.00    +0.140 A  
DOCKED: ATOM     22  C   UNL     1     -40.981 -19.869   8.362 -0.07 +0.00    +0.029 A  
DOCKED: ATOM     23  F   UNL     1     -41.992 -18.076   9.532 +0.00 -0.00    -0.204 F  
DOCKED: ATOM     24  C   UNL     1     -40.974 -21.219   8.006 -0.14 +0.00    +0.001 A  
DOCKED: ENDBRANCH   2  18
DOCKED: TORSDOF 5
DOCKED: TER
DOCKED: ENDMDL
________________________________________________________________________________


    FINAL DOCKED STATE:
    ________________________


Run:   232 / 512
Time taken for this run:   0.002s

DOCKED: MODEL        232
DOCKED: USER    Run = 232
DOCKED: USER
DOCKED: USER    Estimated Free Energy of Binding    =  -3.94 kcal/mol  [=(1)+(2)+(3)-(4)]
DOCKED: USER
DOCKED: USER    (1) Final Intermolecular Energy     =  -5.43 kcal/mol
DOCKED: USER        vdW + Hbond + desolv Energy     =  -5.43 kcal/mol
DOCKED: USER        Electrostatic Energy            =  +0.00 kcal/mol
DOCKED: USER        Moving Ligand-Fixed Receptor    =  -5.43 kcal/mol
DOCKED: USER        Moving Ligand-Moving Receptor   =  +0.00 kcal/mol
DOCKED: USER    (2) Final Total Internal Energy     =  -1.33 kcal/mol
DOCKED: USER    (3) Torsional Free Energy           =  +1.49 kcal/mol
DOCKED: USER    (4) Unbound System's Energy         =  -1.33 kcal/mol
DOCKED: USER
DOCKED: USER
DOCKED: REMARK  5 active torsions:
DOCKED: REMARK  status: ('A' for Active; 'I' for Inactive)
DOCKED: REMARK    1  A    between atoms: C_2  and  C_19 
DOCKED: REMARK    2  A    between atoms: C_2  and  C_11 
DOCKED: REMARK    3  A    between atoms: C_19  and  C_20 
DOCKED: REMARK    4  A    between atoms: C_20  and  C_21 
DOCKED: REMARK    5  A    between atoms: C_21  and  N_22 
DOCKED: USER                              x       y       z     vdW  Elec       q    Type
DOCKED: USER                           _______ _______ _______ _____ _____    ______ ____
DOCKED: ROOT
DOCKED: ATOM      1  O   UNL     1     -32.781 -21.516  -0.268 +0.01 -0.00    -0.346 OA 
DOCKED: ATOM      2  C   UNL     1     -34.147 -21.081   0.027 -0.07 +0.00    +0.130 C  
DOCKED: ATOM      3  C   UNL     1     -34.702 -22.190   0.874 -0.13 +0.00    +0.004 A  
DOCKED: ATOM      4  C   UNL     1     -33.708 -23.122   1.133 -0.09 +0.00    +0.006 A  
DOCKED: ATOM      5  C   UNL     1     -32.441 -22.697   0.497 -0.02 +0.00    +0.169 C  
DOCKED: ATOM      6  C   UNL     1     -35.982 -22.353   1.384 -0.28 -0.00    -0.001 A  
DOCKED: ATOM      7  C   UNL     1     -33.957 -24.246   1.903 -0.16 +0.00    +0.008 A  
DOCKED: ATOM      8  C   UNL     1     -36.250 -23.484   2.158 -0.31 +0.00    +0.010 A  
DOCKED: ATOM      9  C   UNL     1     -35.242 -24.425   2.416 -0.29 +0.00    +0.068 A  
DOCKED: ATOM     10  N   UNL     1     -35.772 -26.509   3.861 -2.55 -0.00    -0.191 NA 
DOCKED: ATOM     11  C   UNL     1     -35.534 -25.575   3.212 -0.39 +0.00    +0.101 C  
DOCKED: ENDROOT
DOCKED: BRANCH   2  12
DOCKED: ATOM     12  C   UNL     1     -34.081 -19.748   0.763 -0.03 +0.00    +0.038 C  
DOCKED: BRANCH  12  13
DOCKED: ATOM     13  C   UNL     1     -32.649 -19.221   0.833 -0.01 +0.00    +0.038 C  
DOCKED: BRANCH  13  14
DOCKED: ATOM     14  C   UNL     1     -32.070 -19.387   2.237 -0.00 +0.00    +0.251 C  
DOCKED: BRANCH  14  15
DOCKED: ATOM     15  N   UNL     1     -30.655 -19.728   2.165 -0.00 +0.00    +0.141 N  
DOCKED: ATOM     16  C   UNL     1     -30.359 -20.884   3.013 +0.00 +0.00    +0.285 C  
DOCKED: ATOM     17  C   UNL     1     -30.258 -19.998   0.782 +0.00 +0.00    +0.285 C  
DOCKED: ENDBRANCH  14  15
DOCKED: ENDBRANCH  13  14
DOCKED: ENDBRANCH  12  13
DOCKED: ENDBRANCH   2  12
DOCKED: BRANCH   2  18
DOCKED: ATOM     18  C   UNL     1     -34.852 -20.940  -1.281 -0.13 +0.00    +0.006 A  
DOCKED: ATOM     19  C   UNL     1     -35.750 -19.892  -1.478 -0.17 +0.00    +0.001 A  
DOCKED: ATOM     20  C   UNL     1     -36.409 -19.762  -2.702 -0.23 +0.00    +0.029 A  
DOCKED: ATOM     21  C   UNL     1     -36.168 -20.678  -3.725 -0.20 +0.00    +0.140 A  
DOCKED: ATOM     22  C   UNL     1     -35.269 -21.725  -3.526 -0.13 +0.00    +0.029 A  
DOCKED: ATOM     23  F   UNL     1     -36.799 -20.551  -4.899 -0.13 -0.00    -0.204 F  
DOCKED: ATOM     24  C   UNL     1     -34.610 -21.857  -2.303 -0.12 +0.00    +0.001 A  
DOCKED: ENDBRANCH   2  18
DOCKED: TORSDOF 5
DOCKED: TER
DOCKED: ENDMDL
________________________________________________________________________________


    FINAL DOCKED STATE:
    ________________________


Run:   233 / 512
Time taken for this run:   0.002s

DOCKED: MODEL        233
DOCKED: USER    Run = 233
DOCKED: USER
DOCKED: USER    Estimated Free Energy of Binding    =  -4.56 kcal/mol  [=(1)+(2)+(3)-(4)]
DOCKED: USER
DOCKED: USER    (1) Final Intermolecular Energy     =  -6.05 kcal/mol
DOCKED: USER        vdW + Hbond + desolv Energy     =  -6.05 kcal/mol
DOCKED: USER        Electrostatic Energy            =  +0.00 kcal/mol
DOCKED: USER        Moving Ligand-Fixed Receptor    =  -6.05 kcal/mol
DOCKED: USER        Moving Ligand-Moving Receptor   =  +0.00 kcal/mol
DOCKED: USER    (2) Final Total Internal Energy     =  -1.32 kcal/mol
DOCKED: USER    (3) Torsional Free Energy           =  +1.49 kcal/mol
DOCKED: USER    (4) Unbound System's Energy         =  -1.32 kcal/mol
DOCKED: USER
DOCKED: USER
DOCKED: REMARK  5 active torsions:
DOCKED: REMARK  status: ('A' for Active; 'I' for Inactive)
DOCKED: REMARK    1  A    between atoms: C_2  and  C_19 
DOCKED: REMARK    2  A    between atoms: C_2  and  C_11 
DOCKED: REMARK    3  A    between atoms: C_19  and  C_20 
DOCKED: REMARK    4  A    between atoms: C_20  and  C_21 
DOCKED: REMARK    5  A    between atoms: C_21  and  N_22 
DOCKED: USER                              x       y       z     vdW  Elec       q    Type
DOCKED: USER                           _______ _______ _______ _____ _____    ______ ____
DOCKED: ROOT
DOCKED: ATOM      1  O   UNL     1     -39.242 -15.875   1.110 -0.09 -0.00    -0.346 OA 
DOCKED: ATOM      2  C   UNL     1     -37.926 -15.611   0.526 -0.17 +0.00    +0.130 C  
DOCKED: ATOM      3  C   UNL     1     -38.241 -14.952  -0.785 -0.23 +0.00    +0.004 A  
DOCKED: ATOM      4  C   UNL     1     -39.611 -14.755  -0.893 -0.22 +0.00    +0.006 A  
DOCKED: ATOM      5  C   UNL     1     -40.286 -15.252   0.327 -0.18 +0.00    +0.169 C  
DOCKED: ATOM      6  C   UNL     1     -37.383 -14.547  -1.797 -0.21 -0.00    -0.001 A  
DOCKED: ATOM      7  C   UNL     1     -40.167 -14.156  -2.009 -0.33 +0.00    +0.008 A  
DOCKED: ATOM      8  C   UNL     1     -37.929 -13.946  -2.932 -0.27 +0.00    +0.010 A  
DOCKED: ATOM      9  C   UNL     1     -39.315 -13.750  -3.037 -0.32 +0.00    +0.068 A  
DOCKED: ATOM     10  N   UNL     1     -40.296 -12.626  -5.155 -2.54 -0.00    -0.191 NA 
DOCKED: ATOM     11  C   UNL     1     -39.856 -13.131  -4.205 -0.34 +0.00    +0.101 C  
DOCKED: ENDROOT
DOCKED: BRANCH   2  12
DOCKED: ATOM     12  C   UNL     1     -37.150 -14.705   1.475 -0.14 +0.00    +0.038 C  
DOCKED: BRANCH  12  13
DOCKED: ATOM     13  C   UNL     1     -37.996 -14.308   2.683 -0.11 +0.00    +0.038 C  
DOCKED: BRANCH  13  14
DOCKED: ATOM     14  C   UNL     1     -38.078 -15.450   3.695 -0.08 +0.00    +0.251 C  
DOCKED: BRANCH  14  15
DOCKED: ATOM     15  N   UNL     1     -39.396 -15.480   4.319 -0.07 +0.00    +0.141 N  
DOCKED: ATOM     16  C   UNL     1     -40.057 -16.761   4.065 -0.02 +0.00    +0.285 C  
DOCKED: ATOM     17  C   UNL     1     -39.289 -15.241   5.760 -0.02 +0.00    +0.285 C  
DOCKED: ENDBRANCH  14  15
DOCKED: ENDBRANCH  13  14
DOCKED: ENDBRANCH  12  13
DOCKED: ENDBRANCH   2  12
DOCKED: BRANCH   2  18
DOCKED: ATOM     18  C   UNL     1     -37.248 -16.930   0.366 -0.11 +0.00    +0.006 A  
DOCKED: ATOM     19  C   UNL     1     -35.858 -16.991   0.263 -0.04 +0.00    +0.001 A  
DOCKED: ATOM     20  C   UNL     1     -35.225 -18.225   0.113 -0.03 +0.00    +0.029 A  
DOCKED: ATOM     21  C   UNL     1     -35.981 -19.396   0.066 -0.10 +0.00    +0.140 A  
DOCKED: ATOM     22  C   UNL     1     -37.370 -19.334   0.169 -0.19 +0.00    +0.029 A  
DOCKED: ATOM     23  F   UNL     1     -35.372 -20.580  -0.077 -0.04 -0.00    -0.204 F  
DOCKED: ATOM     24  C   UNL     1     -38.005 -18.100   0.319 -0.19 +0.00    +0.001 A  
DOCKED: ENDBRANCH   2  18
DOCKED: TORSDOF 5
DOCKED: TER
DOCKED: ENDMDL
________________________________________________________________________________


    FINAL DOCKED STATE:
    ________________________


Run:   234 / 512
Time taken for this run:   0.002s

DOCKED: MODEL        234
DOCKED: USER    Run = 234
DOCKED: USER
DOCKED: USER    Estimated Free Energy of Binding    =  -4.33 kcal/mol  [=(1)+(2)+(3)-(4)]
DOCKED: USER
DOCKED: USER    (1) Final Intermolecular Energy     =  -5.82 kcal/mol
DOCKED: USER        vdW + Hbond + desolv Energy     =  -5.82 kcal/mol
DOCKED: USER        Electrostatic Energy            =  +0.00 kcal/mol
DOCKED: USER        Moving Ligand-Fixed Receptor    =  -5.82 kcal/mol
DOCKED: USER        Moving Ligand-Moving Receptor   =  +0.00 kcal/mol
DOCKED: USER    (2) Final Total Internal Energy     =  -0.85 kcal/mol
DOCKED: USER    (3) Torsional Free Energy           =  +1.49 kcal/mol
DOCKED: USER    (4) Unbound System's Energy         =  -0.85 kcal/mol
DOCKED: USER
DOCKED: USER
DOCKED: REMARK  5 active torsions:
DOCKED: REMARK  status: ('A' for Active; 'I' for Inactive)
DOCKED: REMARK    1  A    between atoms: C_2  and  C_19 
DOCKED: REMARK    2  A    between atoms: C_2  and  C_11 
DOCKED: REMARK    3  A    between atoms: C_19  and  C_20 
DOCKED: REMARK    4  A    between atoms: C_20  and  C_21 
DOCKED: REMARK    5  A    between atoms: C_21  and  N_22 
DOCKED: USER                              x       y       z     vdW  Elec       q    Type
DOCKED: USER                           _______ _______ _______ _____ _____    ______ ____
DOCKED: ROOT
DOCKED: ATOM      1  O   UNL     1     -39.682 -20.632   8.597 -0.03 -0.00    -0.346 OA 
DOCKED: ATOM      2  C   UNL     1     -40.729 -20.085   7.733 -0.12 +0.00    +0.130 C  
DOCKED: ATOM      3  C   UNL     1     -41.326 -21.297   7.079 -0.23 +0.00    +0.004 A  
DOCKED: ATOM      4  C   UNL     1     -40.748 -22.444   7.605 -0.22 +0.00    +0.006 A  
DOCKED: ATOM      5  C   UNL     1     -39.752 -22.077   8.637 -0.13 +0.00    +0.169 C  
DOCKED: ATOM      6  C   UNL     1     -42.311 -21.378   6.105 -0.18 -0.00    -0.001 A  
DOCKED: ATOM      7  C   UNL     1     -41.128 -23.704   7.175 -0.31 +0.00    +0.008 A  
DOCKED: ATOM      8  C   UNL     1     -42.701 -22.642   5.659 -0.20 +0.00    +0.010 A  
DOCKED: ATOM      9  C   UNL     1     -42.113 -23.799   6.192 -0.30 +0.00    +0.068 A  
DOCKED: ATOM     10  N   UNL     1     -42.865 -26.129   5.344 -2.58 -0.00    -0.191 NA 
DOCKED: ATOM     11  C   UNL     1     -42.527 -25.083   5.724 -0.34 +0.00    +0.101 C  
DOCKED: ENDROOT
DOCKED: BRANCH   2  12
DOCKED: ATOM     12  C   UNL     1     -41.725 -19.328   8.603 -0.06 +0.00    +0.038 C  
DOCKED: BRANCH  12  13
DOCKED: ATOM     13  C   UNL     1     -43.153 -19.491   8.086 -0.12 +0.00    +0.038 C  
DOCKED: BRANCH  13  14
DOCKED: ATOM     14  C   UNL     1     -43.470 -18.452   7.012 -0.15 +0.00    +0.251 C  
DOCKED: BRANCH  14  15
DOCKED: ATOM     15  N   UNL     1     -44.632 -17.660   7.400 -0.09 +0.00    +0.141 N  
DOCKED: ATOM     16  C   UNL     1     -45.824 -18.105   6.676 -0.12 +0.00    +0.285 C  
DOCKED: ATOM     17  C   UNL     1     -44.854 -17.744   8.844 -0.01 +0.00    +0.285 C  
DOCKED: ENDBRANCH  14  15
DOCKED: ENDBRANCH  13  14
DOCKED: ENDBRANCH  12  13
DOCKED: ENDBRANCH   2  12
DOCKED: BRANCH   2  18
DOCKED: ATOM     18  C   UNL     1     -40.059 -19.170   6.762 -0.15 +0.00    +0.006 A  
DOCKED: ATOM     19  C   UNL     1     -39.226 -19.693   5.774 -0.13 +0.00    +0.001 A  
DOCKED: ATOM     20  C   UNL     1     -38.600 -18.837   4.867 -0.12 +0.00    +0.029 A  
DOCKED: ATOM     21  C   UNL     1     -38.809 -17.461   4.949 -0.07 +0.00    +0.140 A  
DOCKED: ATOM     22  C   UNL     1     -39.642 -16.939   5.937 -0.07 +0.00    +0.029 A  
DOCKED: ATOM     23  F   UNL     1     -38.209 -16.640   4.077 -0.01 -0.00    -0.204 F  
DOCKED: ATOM     24  C   UNL     1     -40.268 -17.794   6.846 -0.09 +0.00    +0.001 A  
DOCKED: ENDBRANCH   2  18
DOCKED: TORSDOF 5
DOCKED: TER
DOCKED: ENDMDL
________________________________________________________________________________


    FINAL DOCKED STATE:
    ________________________


Run:   235 / 512
Time taken for this run:   0.002s

DOCKED: MODEL        235
DOCKED: USER    Run = 235
DOCKED: USER
DOCKED: USER    Estimated Free Energy of Binding    =  -4.57 kcal/mol  [=(1)+(2)+(3)-(4)]
DOCKED: USER
DOCKED: USER    (1) Final Intermolecular Energy     =  -6.06 kcal/mol
DOCKED: USER        vdW + Hbond + desolv Energy     =  -6.06 kcal/mol
DOCKED: USER        Electrostatic Energy            =  +0.00 kcal/mol
DOCKED: USER        Moving Ligand-Fixed Receptor    =  -6.06 kcal/mol
DOCKED: USER        Moving Ligand-Moving Receptor   =  +0.00 kcal/mol
DOCKED: USER    (2) Final Total Internal Energy     =  -1.11 kcal/mol
DOCKED: USER    (3) Torsional Free Energy           =  +1.49 kcal/mol
DOCKED: USER    (4) Unbound System's Energy         =  -1.11 kcal/mol
DOCKED: USER
DOCKED: USER
DOCKED: REMARK  5 active torsions:
DOCKED: REMARK  status: ('A' for Active; 'I' for Inactive)
DOCKED: REMARK    1  A    between atoms: C_2  and  C_19 
DOCKED: REMARK    2  A    between atoms: C_2  and  C_11 
DOCKED: REMARK    3  A    between atoms: C_19  and  C_20 
DOCKED: REMARK    4  A    between atoms: C_20  and  C_21 
DOCKED: REMARK    5  A    between atoms: C_21  and  N_22 
DOCKED: USER                              x       y       z     vdW  Elec       q    Type
DOCKED: USER                           _______ _______ _______ _____ _____    ______ ____
DOCKED: ROOT
DOCKED: ATOM      1  O   UNL     1     -39.462 -22.018   9.421 -0.04 -0.00    -0.346 OA 
DOCKED: ATOM      2  C   UNL     1     -39.824 -21.198   8.264 -0.12 +0.00    +0.130 C  
DOCKED: ATOM      3  C   UNL     1     -40.596 -22.138   7.385 -0.23 +0.00    +0.004 A  
DOCKED: ATOM      4  C   UNL     1     -40.757 -23.356   8.031 -0.23 +0.00    +0.006 A  
DOCKED: ATOM      5  C   UNL     1     -40.124 -23.303   9.368 -0.13 +0.00    +0.169 C  
DOCKED: ATOM      6  C   UNL     1     -41.124 -21.929   6.119 -0.25 -0.00    -0.001 A  
DOCKED: ATOM      7  C   UNL     1     -41.443 -24.401   7.437 -0.31 +0.00    +0.008 A  
DOCKED: ATOM      8  C   UNL     1     -41.815 -22.976   5.505 -0.35 +0.00    +0.010 A  
DOCKED: ATOM      9  C   UNL     1     -41.974 -24.205   6.162 -0.32 +0.00    +0.068 A  
DOCKED: ATOM     10  N   UNL     1     -43.266 -26.125   4.996 -2.37 -0.00    -0.191 NA 
DOCKED: ATOM     11  C   UNL     1     -42.686 -25.264   5.518 -0.34 +0.00    +0.101 C  
DOCKED: ENDROOT
DOCKED: BRANCH   2  12
DOCKED: ATOM     12  C   UNL     1     -40.658 -20.019   8.750 -0.06 +0.00    +0.038 C  
DOCKED: BRANCH  12  13
DOCKED: ATOM     13  C   UNL     1     -42.133 -20.196   8.393 -0.09 +0.00    +0.038 C  
DOCKED: BRANCH  13  14
DOCKED: ATOM     14  C   UNL     1     -42.537 -19.265   7.251 -0.14 +0.00    +0.251 C  
DOCKED: BRANCH  14  15
DOCKED: ATOM     15  N   UNL     1     -43.942 -19.461   6.911 -0.20 +0.00    +0.141 N  
DOCKED: ATOM     16  C   UNL     1     -44.265 -20.887   6.852 -0.14 +0.00    +0.285 C  
DOCKED: ATOM     17  C   UNL     1     -44.806 -18.784   7.879 -0.07 +0.00    +0.285 C  
DOCKED: ENDBRANCH  14  15
DOCKED: ENDBRANCH  13  14
DOCKED: ENDBRANCH  12  13
DOCKED: ENDBRANCH   2  12
DOCKED: BRANCH   2  18
DOCKED: ATOM     18  C   UNL     1     -38.549 -20.735   7.642 -0.12 +0.00    +0.006 A  
DOCKED: ATOM     19  C   UNL     1     -37.334 -21.281   8.053 -0.12 +0.00    +0.001 A  
DOCKED: ATOM     20  C   UNL     1     -36.143 -20.847   7.471 -0.10 +0.00    +0.029 A  
DOCKED: ATOM     21  C   UNL     1     -36.168 -19.869   6.478 -0.08 +0.00    +0.140 A  
DOCKED: ATOM     22  C   UNL     1     -37.384 -19.323   6.066 -0.11 +0.00    +0.029 A  
DOCKED: ATOM     23  F   UNL     1     -35.024 -19.453   5.917 -0.01 -0.00    -0.204 F  
DOCKED: ATOM     24  C   UNL     1     -38.576 -19.756   6.649 -0.14 +0.00    +0.001 A  
DOCKED: ENDBRANCH   2  18
DOCKED: TORSDOF 5
DOCKED: TER
DOCKED: ENDMDL
________________________________________________________________________________


    FINAL DOCKED STATE:
    ________________________


Run:   236 / 512
Time taken for this run:   0.002s

DOCKED: MODEL        236
DOCKED: USER    Run = 236
DOCKED: USER
DOCKED: USER    Estimated Free Energy of Binding    =  -4.58 kcal/mol  [=(1)+(2)+(3)-(4)]
DOCKED: USER
DOCKED: USER    (1) Final Intermolecular Energy     =  -6.07 kcal/mol
DOCKED: USER        vdW + Hbond + desolv Energy     =  -6.07 kcal/mol
DOCKED: USER        Electrostatic Energy            =  +0.00 kcal/mol
DOCKED: USER        Moving Ligand-Fixed Receptor    =  -6.07 kcal/mol
DOCKED: USER        Moving Ligand-Moving Receptor   =  +0.00 kcal/mol
DOCKED: USER    (2) Final Total Internal Energy     =  -1.38 kcal/mol
DOCKED: USER    (3) Torsional Free Energy           =  +1.49 kcal/mol
DOCKED: USER    (4) Unbound System's Energy         =  -1.38 kcal/mol
DOCKED: USER
DOCKED: USER
DOCKED: REMARK  5 active torsions:
DOCKED: REMARK  status: ('A' for Active; 'I' for Inactive)
DOCKED: REMARK    1  A    between atoms: C_2  and  C_19 
DOCKED: REMARK    2  A    between atoms: C_2  and  C_11 
DOCKED: REMARK    3  A    between atoms: C_19  and  C_20 
DOCKED: REMARK    4  A    between atoms: C_20  and  C_21 
DOCKED: REMARK    5  A    between atoms: C_21  and  N_22 
DOCKED: USER                              x       y       z     vdW  Elec       q    Type
DOCKED: USER                           _______ _______ _______ _____ _____    ______ ____
DOCKED: ROOT
DOCKED: ATOM      1  O   UNL     1     -44.217 -22.687   8.356 -0.00 -0.00    -0.346 OA 
DOCKED: ATOM      2  C   UNL     1     -42.807 -22.515   8.003 -0.11 +0.00    +0.130 C  
DOCKED: ATOM      3  C   UNL     1     -42.729 -22.999   6.584 -0.27 +0.00    +0.004 A  
DOCKED: ATOM      4  C   UNL     1     -44.001 -23.316   6.129 -0.26 +0.00    +0.006 A  
DOCKED: ATOM      5  C   UNL     1     -44.996 -23.055   7.194 -0.16 +0.00    +0.169 C  
DOCKED: ATOM      6  C   UNL     1     -41.623 -23.138   5.759 -0.35 -0.00    -0.001 A  
DOCKED: ATOM      7  C   UNL     1     -44.210 -23.784   4.843 -0.22 +0.00    +0.008 A  
DOCKED: ATOM      8  C   UNL     1     -41.817 -23.612   4.461 -0.06 +0.00    +0.010 A  
DOCKED: ATOM      9  C   UNL     1     -43.104 -23.933   4.005 -0.35 +0.00    +0.068 A  
DOCKED: ATOM     10  N   UNL     1     -43.430 -24.806   1.587 -2.87 -0.00    -0.191 NA 
DOCKED: ATOM     11  C   UNL     1     -43.284 -24.415   2.672 -0.27 +0.00    +0.101 C  
DOCKED: ENDROOT
DOCKED: BRANCH   2  12
DOCKED: ATOM     12  C   UNL     1     -42.450 -21.040   8.147 -0.12 +0.00    +0.038 C  
DOCKED: BRANCH  12  13
DOCKED: ATOM     13  C   UNL     1     -43.695 -20.157   8.088 -0.13 +0.00    +0.038 C  
DOCKED: BRANCH  13  14
DOCKED: ATOM     14  C   UNL     1     -44.417 -20.135   9.434 -0.01 +0.00    +0.251 C  
DOCKED: BRANCH  14  15
DOCKED: ATOM     15  N   UNL     1     -43.465 -20.315  10.523 -0.01 +0.00    +0.141 N  
DOCKED: ATOM     16  C   UNL     1     -43.172 -19.034  11.169 +0.00 +0.00    +0.285 C  
DOCKED: ATOM     17  C   UNL     1     -43.979 -21.272  11.504 +0.00 +0.00    +0.285 C  
DOCKED: ENDBRANCH  14  15
DOCKED: ENDBRANCH  13  14
DOCKED: ENDBRANCH  12  13
DOCKED: ENDBRANCH   2  12
DOCKED: BRANCH   2  18
DOCKED: ATOM     18  C   UNL     1     -42.015 -23.355   8.949 -0.13 +0.00    +0.006 A  
DOCKED: ATOM     19  C   UNL     1     -40.985 -22.782   9.695 -0.10 +0.00    +0.001 A  
DOCKED: ATOM     20  C   UNL     1     -40.245 -23.569  10.578 -0.12 +0.00    +0.029 A  
DOCKED: ATOM     21  C   UNL     1     -40.536 -24.925  10.715 -0.08 +0.00    +0.140 A  
DOCKED: ATOM     22  C   UNL     1     -41.566 -25.497   9.969 -0.17 +0.00    +0.029 A  
DOCKED: ATOM     23  F   UNL     1     -39.827 -25.680  11.565 -0.06 -0.00    -0.204 F  
DOCKED: ATOM     24  C   UNL     1     -42.307 -24.711   9.084 -0.22 +0.00    +0.001 A  
DOCKED: ENDBRANCH   2  18
DOCKED: TORSDOF 5
DOCKED: TER
DOCKED: ENDMDL
________________________________________________________________________________


    FINAL DOCKED STATE:
    ________________________


Run:   237 / 512
Time taken for this run:   0.002s

DOCKED: MODEL        237
DOCKED: USER    Run = 237
DOCKED: USER
DOCKED: USER    Estimated Free Energy of Binding    =  -3.71 kcal/mol  [=(1)+(2)+(3)-(4)]
DOCKED: USER
DOCKED: USER    (1) Final Intermolecular Energy     =  -5.21 kcal/mol
DOCKED: USER        vdW + Hbond + desolv Energy     =  -5.21 kcal/mol
DOCKED: USER        Electrostatic Energy            =  +0.00 kcal/mol
DOCKED: USER        Moving Ligand-Fixed Receptor    =  -5.21 kcal/mol
DOCKED: USER        Moving Ligand-Moving Receptor   =  +0.00 kcal/mol
DOCKED: USER    (2) Final Total Internal Energy     =  -1.26 kcal/mol
DOCKED: USER    (3) Torsional Free Energy           =  +1.49 kcal/mol
DOCKED: USER    (4) Unbound System's Energy         =  -1.26 kcal/mol
DOCKED: USER
DOCKED: USER
DOCKED: REMARK  5 active torsions:
DOCKED: REMARK  status: ('A' for Active; 'I' for Inactive)
DOCKED: REMARK    1  A    between atoms: C_2  and  C_19 
DOCKED: REMARK    2  A    between atoms: C_2  and  C_11 
DOCKED: REMARK    3  A    between atoms: C_19  and  C_20 
DOCKED: REMARK    4  A    between atoms: C_20  and  C_21 
DOCKED: REMARK    5  A    between atoms: C_21  and  N_22 
DOCKED: USER                              x       y       z     vdW  Elec       q    Type
DOCKED: USER                           _______ _______ _______ _____ _____    ______ ____
DOCKED: ROOT
DOCKED: ATOM      1  O   UNL     1     -34.730 -11.113  -1.099 -0.05 -0.00    -0.346 OA 
DOCKED: ATOM      2  C   UNL     1     -34.271 -11.125  -2.489 -0.07 +0.00    +0.130 C  
DOCKED: ATOM      3  C   UNL     1     -35.504 -11.471  -3.272 -0.15 +0.00    +0.004 A  
DOCKED: ATOM      4  C   UNL     1     -36.596 -11.541  -2.417 -0.24 +0.00    +0.006 A  
DOCKED: ATOM      5  C   UNL     1     -36.169 -11.238  -1.032 -0.07 +0.00    +0.169 C  
DOCKED: ATOM      6  C   UNL     1     -35.651 -11.694  -4.633 -0.17 -0.00    -0.001 A  
DOCKED: ATOM      7  C   UNL     1     -37.863 -11.838  -2.889 -0.30 +0.00    +0.008 A  
DOCKED: ATOM      8  C   UNL     1     -36.922 -11.999  -5.124 -0.25 +0.00    +0.010 A  
DOCKED: ATOM      9  C   UNL     1     -38.022 -12.071  -4.256 -0.31 +0.00    +0.068 A  
DOCKED: ATOM     10  N   UNL     1     -40.367 -12.635  -5.201 -2.55 -0.00    -0.191 NA 
DOCKED: ATOM     11  C   UNL     1     -39.315 -12.383  -4.777 -0.39 +0.00    +0.101 C  
DOCKED: ENDROOT
DOCKED: BRANCH   2  12
DOCKED: ATOM     12  C   UNL     1     -33.720  -9.745  -2.827 -0.08 +0.00    +0.038 C  
DOCKED: BRANCH  12  13
DOCKED: ATOM     13  C   UNL     1     -34.816  -8.682  -2.783 -0.17 +0.00    +0.038 C  
DOCKED: BRANCH  13  14
DOCKED: ATOM     14  C   UNL     1     -34.755  -7.883  -1.483 -0.05 +0.00    +0.251 C  
DOCKED: BRANCH  14  15
DOCKED: ATOM     15  N   UNL     1     -36.079  -7.385  -1.131 -0.11 +0.00    +0.141 N  
DOCKED: ATOM     16  C   UNL     1     -36.210  -5.971  -1.487 -0.05 +0.00    +0.285 C  
DOCKED: ATOM     17  C   UNL     1     -37.120  -8.173  -1.793 -0.15 +0.00    +0.285 C  
DOCKED: ENDBRANCH  14  15
DOCKED: ENDBRANCH  13  14
DOCKED: ENDBRANCH  12  13
DOCKED: ENDBRANCH   2  12
DOCKED: BRANCH   2  18
DOCKED: ATOM     18  C   UNL     1     -33.208 -12.168  -2.588 -0.02 +0.00    +0.006 A  
DOCKED: ATOM     19  C   UNL     1     -32.000 -11.874  -3.220 -0.01 +0.00    +0.001 A  
DOCKED: ATOM     20  C   UNL     1     -31.008 -12.851  -3.312 -0.00 +0.00    +0.029 A  
DOCKED: ATOM     21  C   UNL     1     -31.223 -14.118  -2.773 -0.00 +0.00    +0.140 A  
DOCKED: ATOM     22  C   UNL     1     -32.432 -14.411  -2.141 -0.00 +0.00    +0.029 A  
DOCKED: ATOM     23  F   UNL     1     -30.270 -15.054  -2.860 +0.00 -0.00    -0.204 F  
DOCKED: ATOM     24  C   UNL     1     -33.426 -13.435  -2.048 -0.02 +0.00    +0.001 A  
DOCKED: ENDBRANCH   2  18
DOCKED: TORSDOF 5
DOCKED: TER
DOCKED: ENDMDL
________________________________________________________________________________


    FINAL DOCKED STATE:
    ________________________


Run:   238 / 512
Time taken for this run:   0.002s

DOCKED: MODEL        238
DOCKED: USER    Run = 238
DOCKED: USER
DOCKED: USER    Estimated Free Energy of Binding    =  -5.64 kcal/mol  [=(1)+(2)+(3)-(4)]
DOCKED: USER
DOCKED: USER    (1) Final Intermolecular Energy     =  -7.14 kcal/mol
DOCKED: USER        vdW + Hbond + desolv Energy     =  -7.14 kcal/mol
DOCKED: USER        Electrostatic Energy            =  +0.00 kcal/mol
DOCKED: USER        Moving Ligand-Fixed Receptor    =  -7.14 kcal/mol
DOCKED: USER        Moving Ligand-Moving Receptor   =  +0.00 kcal/mol
DOCKED: USER    (2) Final Total Internal Energy     =  -0.94 kcal/mol
DOCKED: USER    (3) Torsional Free Energy           =  +1.49 kcal/mol
DOCKED: USER    (4) Unbound System's Energy         =  -0.94 kcal/mol
DOCKED: USER
DOCKED: USER
DOCKED: REMARK  5 active torsions:
DOCKED: REMARK  status: ('A' for Active; 'I' for Inactive)
DOCKED: REMARK    1  A    between atoms: C_2  and  C_19 
DOCKED: REMARK    2  A    between atoms: C_2  and  C_11 
DOCKED: REMARK    3  A    between atoms: C_19  and  C_20 
DOCKED: REMARK    4  A    between atoms: C_20  and  C_21 
DOCKED: REMARK    5  A    between atoms: C_21  and  N_22 
DOCKED: USER                              x       y       z     vdW  Elec       q    Type
DOCKED: USER                           _______ _______ _______ _____ _____    ______ ____
DOCKED: ROOT
DOCKED: ATOM      1  O   UNL     1     -44.735 -23.356   8.416 -0.00 -0.00    -0.346 OA 
DOCKED: ATOM      2  C   UNL     1     -43.336 -22.997   8.182 -0.11 +0.00    +0.130 C  
DOCKED: ATOM      3  C   UNL     1     -43.122 -23.309   6.729 -0.24 +0.00    +0.004 A  
DOCKED: ATOM      4  C   UNL     1     -44.321 -23.708   6.156 -0.28 +0.00    +0.006 A  
DOCKED: ATOM      5  C   UNL     1     -45.399 -23.674   7.170 -0.16 +0.00    +0.169 C  
DOCKED: ATOM      6  C   UNL     1     -41.961 -23.236   5.973 -0.36 -0.00    -0.001 A  
DOCKED: ATOM      7  C   UNL     1     -44.401 -24.049   4.816 -0.30 +0.00    +0.008 A  
DOCKED: ATOM      8  C   UNL     1     -42.025 -23.581   4.622 -0.30 +0.00    +0.010 A  
DOCKED: ATOM      9  C   UNL     1     -43.239 -23.985   4.047 -0.34 +0.00    +0.068 A  
DOCKED: ATOM     10  N   UNL     1     -43.323 -24.614   1.535 -3.00 -0.00    -0.191 NA 
DOCKED: ATOM     11  C   UNL     1     -43.285 -24.332   2.661 -0.26 +0.00    +0.101 C  
DOCKED: ENDROOT
DOCKED: BRANCH   2  12
DOCKED: ATOM     12  C   UNL     1     -43.158 -21.517   8.503 -0.10 +0.00    +0.038 C  
DOCKED: BRANCH  12  13
DOCKED: ATOM     13  C   UNL     1     -43.383 -20.648   7.267 -0.22 +0.00    +0.038 C  
DOCKED: BRANCH  13  14
DOCKED: ATOM     14  C   UNL     1     -43.752 -19.219   7.661 -0.11 +0.00    +0.251 C  
DOCKED: BRANCH  14  15
DOCKED: ATOM     15  N   UNL     1     -43.877 -18.382   6.473 -0.21 +0.00    +0.141 N  
DOCKED: ATOM     16  C   UNL     1     -45.279 -18.034   6.234 -0.05 +0.00    +0.285 C  
DOCKED: ATOM     17  C   UNL     1     -43.069 -17.170   6.609 -0.11 +0.00    +0.285 C  
DOCKED: ENDBRANCH  14  15
DOCKED: ENDBRANCH  13  14
DOCKED: ENDBRANCH  12  13
DOCKED: ENDBRANCH   2  12
DOCKED: BRANCH   2  18
DOCKED: ATOM     18  C   UNL     1     -42.510 -23.848   9.088 -0.14 +0.00    +0.006 A  
DOCKED: ATOM     19  C   UNL     1     -41.887 -24.992   8.592 -0.28 +0.00    +0.001 A  
DOCKED: ATOM     20  C   UNL     1     -41.115 -25.787   9.441 -0.09 +0.00    +0.029 A  
DOCKED: ATOM     21  C   UNL     1     -40.967 -25.436  10.782 -0.16 +0.00    +0.140 A  
DOCKED: ATOM     22  C   UNL     1     -41.590 -24.291  11.276 -0.13 +0.00    +0.029 A  
DOCKED: ATOM     23  F   UNL     1     -40.224 -26.198  11.595 -0.09 -0.00    -0.204 F  
DOCKED: ATOM     24  C   UNL     1     -42.363 -23.495  10.429 -0.09 +0.00    +0.001 A  
DOCKED: ENDBRANCH   2  18
DOCKED: TORSDOF 5
DOCKED: TER
DOCKED: ENDMDL
________________________________________________________________________________


    FINAL DOCKED STATE:
    ________________________


Run:   239 / 512
Time taken for this run:   0.002s

DOCKED: MODEL        239
DOCKED: USER    Run = 239
DOCKED: USER
DOCKED: USER    Estimated Free Energy of Binding    =  -3.95 kcal/mol  [=(1)+(2)+(3)-(4)]
DOCKED: USER
DOCKED: USER    (1) Final Intermolecular Energy     =  -5.45 kcal/mol
DOCKED: USER        vdW + Hbond + desolv Energy     =  -5.45 kcal/mol
DOCKED: USER        Electrostatic Energy            =  +0.00 kcal/mol
DOCKED: USER        Moving Ligand-Fixed Receptor    =  -5.45 kcal/mol
DOCKED: USER        Moving Ligand-Moving Receptor   =  +0.00 kcal/mol
DOCKED: USER    (2) Final Total Internal Energy     =  -1.49 kcal/mol
DOCKED: USER    (3) Torsional Free Energy           =  +1.49 kcal/mol
DOCKED: USER    (4) Unbound System's Energy         =  -1.49 kcal/mol
DOCKED: USER
DOCKED: USER
DOCKED: REMARK  5 active torsions:
DOCKED: REMARK  status: ('A' for Active; 'I' for Inactive)
DOCKED: REMARK    1  A    between atoms: C_2  and  C_19 
DOCKED: REMARK    2  A    between atoms: C_2  and  C_11 
DOCKED: REMARK    3  A    between atoms: C_19  and  C_20 
DOCKED: REMARK    4  A    between atoms: C_20  and  C_21 
DOCKED: REMARK    5  A    between atoms: C_21  and  N_22 
DOCKED: USER                              x       y       z     vdW  Elec       q    Type
DOCKED: USER                           _______ _______ _______ _____ _____    ______ ____
DOCKED: ROOT
DOCKED: ATOM      1  O   UNL     1     -32.383 -22.604  -0.956 +0.01 -0.00    -0.346 OA 
DOCKED: ATOM      2  C   UNL     1     -33.422 -21.759  -0.366 -0.05 +0.00    +0.130 C  
DOCKED: ATOM      3  C   UNL     1     -34.093 -22.659   0.631 -0.10 +0.00    +0.004 A  
DOCKED: ATOM      4  C   UNL     1     -33.426 -23.874   0.686 -0.09 +0.00    +0.006 A  
DOCKED: ATOM      5  C   UNL     1     -32.277 -23.860  -0.247 -0.03 +0.00    +0.169 C  
DOCKED: ATOM      6  C   UNL     1     -35.198 -22.416   1.434 -0.20 -0.00    -0.001 A  
DOCKED: ATOM      7  C   UNL     1     -33.840 -24.885   1.537 -0.18 +0.00    +0.008 A  
DOCKED: ATOM      8  C   UNL     1     -35.631 -23.428   2.294 -0.30 +0.00    +0.010 A  
DOCKED: ATOM      9  C   UNL     1     -34.955 -24.656   2.345 -0.28 +0.00    +0.068 A  
DOCKED: ATOM     10  N   UNL     1     -35.781 -26.510   3.955 -2.59 -0.00    -0.191 NA 
DOCKED: ATOM     11  C   UNL     1     -35.411 -25.679   3.232 -0.42 +0.00    +0.101 C  
DOCKED: ENDROOT
DOCKED: BRANCH   2  12
DOCKED: ATOM     12  C   UNL     1     -32.754 -20.551   0.280 -0.01 +0.00    +0.038 C  
DOCKED: BRANCH  12  13
DOCKED: ATOM     13  C   UNL     1     -31.751 -20.976   1.351 -0.01 +0.00    +0.038 C  
DOCKED: BRANCH  13  14
DOCKED: ATOM     14  C   UNL     1     -32.335 -20.801   2.751 -0.01 +0.00    +0.251 C  
DOCKED: BRANCH  14  15
DOCKED: ATOM     15  N   UNL     1     -32.633 -22.099   3.343 -0.03 +0.00    +0.141 N  
DOCKED: ATOM     16  C   UNL     1     -31.415 -22.900   3.472 -0.00 +0.00    +0.285 C  
DOCKED: ATOM     17  C   UNL     1     -33.274 -21.936   4.649 -0.03 +0.00    +0.285 C  
DOCKED: ENDBRANCH  14  15
DOCKED: ENDBRANCH  13  14
DOCKED: ENDBRANCH  12  13
DOCKED: ENDBRANCH   2  12
DOCKED: BRANCH   2  18
DOCKED: ATOM     18  C   UNL     1     -34.329 -21.343  -1.476 -0.11 +0.00    +0.006 A  
DOCKED: ATOM     19  C   UNL     1     -34.232 -21.959  -2.723 -0.14 +0.00    +0.001 A  
DOCKED: ATOM     20  C   UNL     1     -35.080 -21.568  -3.760 -0.19 +0.00    +0.029 A  
DOCKED: ATOM     21  C   UNL     1     -36.023 -20.564  -3.549 -0.20 +0.00    +0.140 A  
DOCKED: ATOM     22  C   UNL     1     -36.120 -19.949  -2.301 -0.21 +0.00    +0.029 A  
DOCKED: ATOM     23  F   UNL     1     -36.838 -20.191  -4.544 -0.13 -0.00    -0.204 F  
DOCKED: ATOM     24  C   UNL     1     -35.272 -20.338  -1.263 -0.14 +0.00    +0.001 A  
DOCKED: ENDBRANCH   2  18
DOCKED: TORSDOF 5
DOCKED: TER
DOCKED: ENDMDL
________________________________________________________________________________


    FINAL DOCKED STATE:
    ________________________


Run:   240 / 512
Time taken for this run:   0.002s

DOCKED: MODEL        240
DOCKED: USER    Run = 240
DOCKED: USER
DOCKED: USER    Estimated Free Energy of Binding    =  -3.50 kcal/mol  [=(1)+(2)+(3)-(4)]
DOCKED: USER
DOCKED: USER    (1) Final Intermolecular Energy     =  -4.99 kcal/mol
DOCKED: USER        vdW + Hbond + desolv Energy     =  -4.99 kcal/mol
DOCKED: USER        Electrostatic Energy            =  +0.00 kcal/mol
DOCKED: USER        Moving Ligand-Fixed Receptor    =  -4.99 kcal/mol
DOCKED: USER        Moving Ligand-Moving Receptor   =  +0.00 kcal/mol
DOCKED: USER    (2) Final Total Internal Energy     =  -1.44 kcal/mol
DOCKED: USER    (3) Torsional Free Energy           =  +1.49 kcal/mol
DOCKED: USER    (4) Unbound System's Energy         =  -1.44 kcal/mol
DOCKED: USER
DOCKED: USER
DOCKED: REMARK  5 active torsions:
DOCKED: REMARK  status: ('A' for Active; 'I' for Inactive)
DOCKED: REMARK    1  A    between atoms: C_2  and  C_19 
DOCKED: REMARK    2  A    between atoms: C_2  and  C_11 
DOCKED: REMARK    3  A    between atoms: C_19  and  C_20 
DOCKED: REMARK    4  A    between atoms: C_20  and  C_21 
DOCKED: REMARK    5  A    between atoms: C_21  and  N_22 
DOCKED: USER                              x       y       z     vdW  Elec       q    Type
DOCKED: USER                           _______ _______ _______ _____ _____    ______ ____
DOCKED: ROOT
DOCKED: ATOM      1  O   UNL     1     -36.154 -15.820  -0.608 -0.01 -0.00    -0.346 OA 
DOCKED: ATOM      2  C   UNL     1     -35.697 -14.441  -0.782 -0.10 +0.00    +0.130 C  
DOCKED: ATOM      3  C   UNL     1     -36.678 -13.858  -1.757 -0.16 +0.00    +0.004 A  
DOCKED: ATOM      4  C   UNL     1     -37.673 -14.786  -2.031 -0.23 +0.00    +0.006 A  
DOCKED: ATOM      5  C   UNL     1     -37.430 -16.025  -1.258 -0.16 +0.00    +0.169 C  
DOCKED: ATOM      6  C   UNL     1     -36.696 -12.602  -2.346 -0.21 -0.00    -0.001 A  
DOCKED: ATOM      7  C   UNL     1     -38.710 -14.496  -2.900 -0.15 +0.00    +0.008 A  
DOCKED: ATOM      8  C   UNL     1     -37.733 -12.295  -3.229 -0.32 +0.00    +0.010 A  
DOCKED: ATOM      9  C   UNL     1     -38.736 -13.238  -3.504 -0.35 +0.00    +0.068 A  
DOCKED: ATOM     10  N   UNL     1     -40.650 -12.635  -5.142 -2.55 -0.00    -0.191 NA 
DOCKED: ATOM     11  C   UNL     1     -39.791 -12.905  -4.408 -0.38 +0.00    +0.101 C  
DOCKED: ENDROOT
DOCKED: BRANCH   2  12
DOCKED: ATOM     12  C   UNL     1     -35.725 -13.748   0.575 -0.09 +0.00    +0.038 C  
DOCKED: BRANCH  12  13
DOCKED: ATOM     13  C   UNL     1     -35.671 -14.759   1.718 -0.12 +0.00    +0.038 C  
DOCKED: BRANCH  13  14
DOCKED: ATOM     14  C   UNL     1     -34.473 -14.495   2.629 -0.06 +0.00    +0.251 C  
DOCKED: BRANCH  14  15
DOCKED: ATOM     15  N   UNL     1     -33.575 -15.643   2.631 -0.01 +0.00    +0.141 N  
DOCKED: ATOM     16  C   UNL     1     -34.179 -16.772   1.921 -0.00 +0.00    +0.285 C  
DOCKED: ATOM     17  C   UNL     1     -32.289 -15.293   2.026 -0.00 +0.00    +0.285 C  
DOCKED: ENDBRANCH  14  15
DOCKED: ENDBRANCH  13  14
DOCKED: ENDBRANCH  12  13
DOCKED: ENDBRANCH   2  12
DOCKED: BRANCH   2  18
DOCKED: ATOM     18  C   UNL     1     -34.308 -14.507  -1.324 -0.03 +0.00    +0.006 A  
DOCKED: ATOM     19  C   UNL     1     -33.384 -13.516  -0.996 -0.03 +0.00    +0.001 A  
DOCKED: ATOM     20  C   UNL     1     -32.086 -13.578  -1.503 -0.01 +0.00    +0.029 A  
DOCKED: ATOM     21  C   UNL     1     -31.714 -14.631  -2.337 -0.00 +0.00    +0.140 A  
DOCKED: ATOM     22  C   UNL     1     -32.638 -15.623  -2.665 -0.00 +0.00    +0.029 A  
DOCKED: ATOM     23  F   UNL     1     -30.467 -14.692  -2.823 +0.00 -0.00    -0.204 F  
DOCKED: ATOM     24  C   UNL     1     -33.937 -15.561  -2.158 -0.01 +0.00    +0.001 A  
DOCKED: ENDBRANCH   2  18
DOCKED: TORSDOF 5
DOCKED: TER
DOCKED: ENDMDL
________________________________________________________________________________


    FINAL DOCKED STATE:
    ________________________


Run:   241 / 512
Time taken for this run:   0.002s

DOCKED: MODEL        241
DOCKED: USER    Run = 241
DOCKED: USER
DOCKED: USER    Estimated Free Energy of Binding    =  -4.14 kcal/mol  [=(1)+(2)+(3)-(4)]
DOCKED: USER
DOCKED: USER    (1) Final Intermolecular Energy     =  -5.63 kcal/mol
DOCKED: USER        vdW + Hbond + desolv Energy     =  -5.63 kcal/mol
DOCKED: USER        Electrostatic Energy            =  +0.00 kcal/mol
DOCKED: USER        Moving Ligand-Fixed Receptor    =  -5.63 kcal/mol
DOCKED: USER        Moving Ligand-Moving Receptor   =  +0.00 kcal/mol
DOCKED: USER    (2) Final Total Internal Energy     =  -1.43 kcal/mol
DOCKED: USER    (3) Torsional Free Energy           =  +1.49 kcal/mol
DOCKED: USER    (4) Unbound System's Energy         =  -1.43 kcal/mol
DOCKED: USER
DOCKED: USER
DOCKED: REMARK  5 active torsions:
DOCKED: REMARK  status: ('A' for Active; 'I' for Inactive)
DOCKED: REMARK    1  A    between atoms: C_2  and  C_19 
DOCKED: REMARK    2  A    between atoms: C_2  and  C_11 
DOCKED: REMARK    3  A    between atoms: C_19  and  C_20 
DOCKED: REMARK    4  A    between atoms: C_20  and  C_21 
DOCKED: REMARK    5  A    between atoms: C_21  and  N_22 
DOCKED: USER                              x       y       z     vdW  Elec       q    Type
DOCKED: USER                           _______ _______ _______ _____ _____    ______ ____
DOCKED: ROOT
DOCKED: ATOM      1  O   UNL     1     -33.144 -20.952   0.277 +0.01 -0.00    -0.346 OA 
DOCKED: ATOM      2  C   UNL     1     -34.595 -20.773   0.360 -0.07 +0.00    +0.130 C  
DOCKED: ATOM      3  C   UNL     1     -35.064 -21.988   1.107 -0.16 +0.00    +0.004 A  
DOCKED: ATOM      4  C   UNL     1     -33.970 -22.739   1.512 -0.10 +0.00    +0.006 A  
DOCKED: ATOM      5  C   UNL     1     -32.719 -22.078   1.080 -0.02 +0.00    +0.169 C  
DOCKED: ATOM      6  C   UNL     1     -36.356 -22.390   1.413 -0.30 -0.00    -0.001 A  
DOCKED: ATOM      7  C   UNL     1     -34.128 -23.913   2.229 -0.16 +0.00    +0.008 A  
DOCKED: ATOM      8  C   UNL     1     -36.532 -23.574   2.132 -0.26 +0.00    +0.010 A  
DOCKED: ATOM      9  C   UNL     1     -35.423 -24.331   2.538 -0.30 +0.00    +0.068 A  
DOCKED: ATOM     10  N   UNL     1     -35.784 -26.521   3.875 -2.56 -0.00    -0.191 NA 
DOCKED: ATOM     11  C   UNL     1     -35.622 -25.539   3.275 -0.35 +0.00    +0.101 C  
DOCKED: ENDROOT
DOCKED: BRANCH   2  12
DOCKED: ATOM     12  C   UNL     1     -34.879 -19.473   1.103 -0.05 +0.00    +0.038 C  
DOCKED: BRANCH  12  13
DOCKED: ATOM     13  C   UNL     1     -33.900 -19.266   2.257 -0.02 +0.00    +0.038 C  
DOCKED: BRANCH  13  14
DOCKED: ATOM     14  C   UNL     1     -34.558 -19.583   3.599 -0.03 +0.00    +0.251 C  
DOCKED: BRANCH  14  15
DOCKED: ATOM     15  N   UNL     1     -33.578 -20.134   4.527 -0.02 +0.00    +0.141 N  
DOCKED: ATOM     16  C   UNL     1     -34.043 -21.410   5.072 -0.05 +0.00    +0.285 C  
DOCKED: ATOM     17  C   UNL     1     -32.283 -20.306   3.866 -0.00 +0.00    +0.285 C  
DOCKED: ENDBRANCH  14  15
DOCKED: ENDBRANCH  13  14
DOCKED: ENDBRANCH  12  13
DOCKED: ENDBRANCH   2  12
DOCKED: BRANCH   2  18
DOCKED: ATOM     18  C   UNL     1     -35.108 -20.717  -1.040 -0.14 +0.00    +0.006 A  
DOCKED: ATOM     19  C   UNL     1     -36.083 -19.783  -1.388 -0.19 +0.00    +0.001 A  
DOCKED: ATOM     20  C   UNL     1     -36.562 -19.731  -2.697 -0.23 +0.00    +0.029 A  
DOCKED: ATOM     21  C   UNL     1     -36.066 -20.613  -3.656 -0.21 +0.00    +0.140 A  
DOCKED: ATOM     22  C   UNL     1     -35.091 -21.547  -3.308 -0.17 +0.00    +0.029 A  
DOCKED: ATOM     23  F   UNL     1     -36.525 -20.562  -4.913 -0.12 -0.00    -0.204 F  
DOCKED: ATOM     24  C   UNL     1     -34.611 -21.600  -1.998 -0.13 +0.00    +0.001 A  
DOCKED: ENDBRANCH   2  18
DOCKED: TORSDOF 5
DOCKED: TER
DOCKED: ENDMDL
________________________________________________________________________________


    FINAL DOCKED STATE:
    ________________________


Run:   242 / 512
Time taken for this run:   0.002s

DOCKED: MODEL        242
DOCKED: USER    Run = 242
DOCKED: USER
DOCKED: USER    Estimated Free Energy of Binding    =  -4.63 kcal/mol  [=(1)+(2)+(3)-(4)]
DOCKED: USER
DOCKED: USER    (1) Final Intermolecular Energy     =  -6.12 kcal/mol
DOCKED: USER        vdW + Hbond + desolv Energy     =  -6.12 kcal/mol
DOCKED: USER        Electrostatic Energy            =  +0.00 kcal/mol
DOCKED: USER        Moving Ligand-Fixed Receptor    =  -6.12 kcal/mol
DOCKED: USER        Moving Ligand-Moving Receptor   =  +0.00 kcal/mol
DOCKED: USER    (2) Final Total Internal Energy     =  -1.32 kcal/mol
DOCKED: USER    (3) Torsional Free Energy           =  +1.49 kcal/mol
DOCKED: USER    (4) Unbound System's Energy         =  -1.32 kcal/mol
DOCKED: USER
DOCKED: USER
DOCKED: REMARK  5 active torsions:
DOCKED: REMARK  status: ('A' for Active; 'I' for Inactive)
DOCKED: REMARK    1  A    between atoms: C_2  and  C_19 
DOCKED: REMARK    2  A    between atoms: C_2  and  C_11 
DOCKED: REMARK    3  A    between atoms: C_19  and  C_20 
DOCKED: REMARK    4  A    between atoms: C_20  and  C_21 
DOCKED: REMARK    5  A    between atoms: C_21  and  N_22 
DOCKED: USER                              x       y       z     vdW  Elec       q    Type
DOCKED: USER                           _______ _______ _______ _____ _____    ______ ____
DOCKED: ROOT
DOCKED: ATOM      1  O   UNL     1     -41.619 -21.811   9.010 -0.01 -0.00    -0.346 OA 
DOCKED: ATOM      2  C   UNL     1     -40.732 -22.968   8.883 -0.14 +0.00    +0.130 C  
DOCKED: ATOM      3  C   UNL     1     -41.086 -23.547   7.544 -0.28 +0.00    +0.004 A  
DOCKED: ATOM      4  C   UNL     1     -42.015 -22.731   6.913 -0.26 +0.00    +0.006 A  
DOCKED: ATOM      5  C   UNL     1     -42.325 -21.566   7.772 -0.12 +0.00    +0.169 C  
DOCKED: ATOM      6  C   UNL     1     -40.616 -24.698   6.928 -0.39 -0.00    -0.001 A  
DOCKED: ATOM      7  C   UNL     1     -42.506 -23.037   5.655 -0.33 +0.00    +0.008 A  
DOCKED: ATOM      8  C   UNL     1     -41.106 -25.023   5.662 -0.33 +0.00    +0.010 A  
DOCKED: ATOM      9  C   UNL     1     -42.045 -24.196   5.029 -0.37 +0.00    +0.068 A  
DOCKED: ATOM     10  N   UNL     1     -42.929 -24.824   2.675 -1.85 -0.00    -0.191 NA 
DOCKED: ATOM     11  C   UNL     1     -42.533 -24.543   3.731 -0.53 +0.00    +0.101 C  
DOCKED: ENDROOT
DOCKED: BRANCH   2  12
DOCKED: ATOM     12  C   UNL     1     -39.290 -22.480   8.955 -0.17 +0.00    +0.038 C  
DOCKED: BRANCH  12  13
DOCKED: ATOM     13  C   UNL     1     -39.218 -20.955   8.987 -0.09 +0.00    +0.038 C  
DOCKED: BRANCH  13  14
DOCKED: ATOM     14  C   UNL     1     -38.247 -20.428   7.933 -0.08 +0.00    +0.251 C  
DOCKED: BRANCH  14  15
DOCKED: ATOM     15  N   UNL     1     -38.896 -19.418   7.105 -0.10 +0.00    +0.141 N  
DOCKED: ATOM     16  C   UNL     1     -39.739 -20.048   6.088 -0.09 +0.00    +0.285 C  
DOCKED: ATOM     17  C   UNL     1     -39.691 -18.508   7.931 -0.03 +0.00    +0.285 C  
DOCKED: ENDBRANCH  14  15
DOCKED: ENDBRANCH  13  14
DOCKED: ENDBRANCH  12  13
DOCKED: ENDBRANCH   2  12
DOCKED: BRANCH   2  18
DOCKED: ATOM     18  C   UNL     1     -41.047 -23.887  10.016 -0.15 +0.00    +0.006 A  
DOCKED: ATOM     19  C   UNL     1     -40.074 -24.172  10.973 -0.14 +0.00    +0.001 A  
DOCKED: ATOM     20  C   UNL     1     -40.370 -25.031  12.032 -0.19 +0.00    +0.029 A  
DOCKED: ATOM     21  C   UNL     1     -41.637 -25.603  12.132 -0.16 +0.00    +0.140 A  
DOCKED: ATOM     22  C   UNL     1     -42.610 -25.317  11.174 -0.09 +0.00    +0.029 A  
DOCKED: ATOM     23  F   UNL     1     -41.922 -26.426  13.149 -0.05 -0.00    -0.204 F  
DOCKED: ATOM     24  C   UNL     1     -42.315 -24.458  10.115 -0.17 +0.00    +0.001 A  
DOCKED: ENDBRANCH   2  18
DOCKED: TORSDOF 5
DOCKED: TER
DOCKED: ENDMDL
________________________________________________________________________________


    FINAL DOCKED STATE:
    ________________________


Run:   243 / 512
Time taken for this run:   0.002s

DOCKED: MODEL        243
DOCKED: USER    Run = 243
DOCKED: USER
DOCKED: USER    Estimated Free Energy of Binding    =  -3.79 kcal/mol  [=(1)+(2)+(3)-(4)]
DOCKED: USER
DOCKED: USER    (1) Final Intermolecular Energy     =  -5.28 kcal/mol
DOCKED: USER        vdW + Hbond + desolv Energy     =  -5.28 kcal/mol
DOCKED: USER        Electrostatic Energy            =  +0.00 kcal/mol
DOCKED: USER        Moving Ligand-Fixed Receptor    =  -5.28 kcal/mol
DOCKED: USER        Moving Ligand-Moving Receptor   =  +0.00 kcal/mol
DOCKED: USER    (2) Final Total Internal Energy     =  -1.38 kcal/mol
DOCKED: USER    (3) Torsional Free Energy           =  +1.49 kcal/mol
DOCKED: USER    (4) Unbound System's Energy         =  -1.38 kcal/mol
DOCKED: USER
DOCKED: USER
DOCKED: REMARK  5 active torsions:
DOCKED: REMARK  status: ('A' for Active; 'I' for Inactive)
DOCKED: REMARK    1  A    between atoms: C_2  and  C_19 
DOCKED: REMARK    2  A    between atoms: C_2  and  C_11 
DOCKED: REMARK    3  A    between atoms: C_19  and  C_20 
DOCKED: REMARK    4  A    between atoms: C_20  and  C_21 
DOCKED: REMARK    5  A    between atoms: C_21  and  N_22 
DOCKED: USER                              x       y       z     vdW  Elec       q    Type
DOCKED: USER                           _______ _______ _______ _____ _____    ______ ____
DOCKED: ROOT
DOCKED: ATOM      1  O   UNL     1     -41.496 -20.699   9.787 -0.00 -0.00    -0.346 OA 
DOCKED: ATOM      2  C   UNL     1     -41.038 -20.322   8.449 -0.07 +0.00    +0.130 C  
DOCKED: ATOM      3  C   UNL     1     -41.432 -21.489   7.592 -0.18 +0.00    +0.004 A  
DOCKED: ATOM      4  C   UNL     1     -42.151 -22.403   8.349 -0.11 +0.00    +0.006 A  
DOCKED: ATOM      5  C   UNL     1     -42.291 -21.907   9.736 -0.03 +0.00    +0.169 C  
DOCKED: ATOM      6  C   UNL     1     -41.185 -21.719   6.246 -0.27 -0.00    -0.001 A  
DOCKED: ATOM      7  C   UNL     1     -42.641 -23.573   7.793 -0.18 +0.00    +0.008 A  
DOCKED: ATOM      8  C   UNL     1     -41.669 -22.895   5.672 -0.33 +0.00    +0.010 A  
DOCKED: ATOM      9  C   UNL     1     -42.393 -23.817   6.442 -0.27 +0.00    +0.068 A  
DOCKED: ATOM     10  N   UNL     1     -43.281 -25.990   5.344 -2.55 -0.00    -0.191 NA 
DOCKED: ATOM     11  C   UNL     1     -42.883 -25.016   5.836 -0.35 +0.00    +0.101 C  
DOCKED: ENDROOT
DOCKED: BRANCH   2  12
DOCKED: ATOM     12  C   UNL     1     -41.734 -19.028   8.047 -0.09 +0.00    +0.038 C  
DOCKED: BRANCH  12  13
DOCKED: ATOM     13  C   UNL     1     -43.026 -19.306   7.281 -0.20 +0.00    +0.038 C  
DOCKED: BRANCH  13  14
DOCKED: ATOM     14  C   UNL     1     -44.241 -19.222   8.202 -0.06 +0.00    +0.251 C  
DOCKED: BRANCH  14  15
DOCKED: ATOM     15  N   UNL     1     -44.960 -20.490   8.211 -0.08 +0.00    +0.141 N  
DOCKED: ATOM     16  C   UNL     1     -46.223 -20.363   8.939 -0.02 +0.00    +0.285 C  
DOCKED: ATOM     17  C   UNL     1     -45.207 -20.952   6.844 -0.12 +0.00    +0.285 C  
DOCKED: ENDBRANCH  14  15
DOCKED: ENDBRANCH  13  14
DOCKED: ENDBRANCH  12  13
DOCKED: ENDBRANCH   2  12
DOCKED: BRANCH   2  18
DOCKED: ATOM     18  C   UNL     1     -39.559 -20.134   8.532 -0.07 +0.00    +0.006 A  
DOCKED: ATOM     19  C   UNL     1     -38.930 -20.100   9.775 -0.03 +0.00    +0.001 A  
DOCKED: ATOM     20  C   UNL     1     -37.547 -19.924   9.851 -0.02 +0.00    +0.029 A  
DOCKED: ATOM     21  C   UNL     1     -36.797 -19.784   8.684 -0.03 +0.00    +0.140 A  
DOCKED: ATOM     22  C   UNL     1     -37.428 -19.819   7.440 -0.09 +0.00    +0.029 A  
DOCKED: ATOM     23  F   UNL     1     -35.471 -19.617   8.756 -0.00 -0.00    -0.204 F  
DOCKED: ATOM     24  C   UNL     1     -38.811 -19.994   7.364 -0.13 +0.00    +0.001 A  
DOCKED: ENDBRANCH   2  18
DOCKED: TORSDOF 5
DOCKED: TER
DOCKED: ENDMDL
________________________________________________________________________________


    FINAL DOCKED STATE:
    ________________________


Run:   244 / 512
Time taken for this run:   0.002s

DOCKED: MODEL        244
DOCKED: USER    Run = 244
DOCKED: USER
DOCKED: USER    Estimated Free Energy of Binding    =  -4.69 kcal/mol  [=(1)+(2)+(3)-(4)]
DOCKED: USER
DOCKED: USER    (1) Final Intermolecular Energy     =  -6.18 kcal/mol
DOCKED: USER        vdW + Hbond + desolv Energy     =  -6.18 kcal/mol
DOCKED: USER        Electrostatic Energy            =  +0.00 kcal/mol
DOCKED: USER        Moving Ligand-Fixed Receptor    =  -6.18 kcal/mol
DOCKED: USER        Moving Ligand-Moving Receptor   =  +0.00 kcal/mol
DOCKED: USER    (2) Final Total Internal Energy     =  -1.11 kcal/mol
DOCKED: USER    (3) Torsional Free Energy           =  +1.49 kcal/mol
DOCKED: USER    (4) Unbound System's Energy         =  -1.11 kcal/mol
DOCKED: USER
DOCKED: USER
DOCKED: REMARK  5 active torsions:
DOCKED: REMARK  status: ('A' for Active; 'I' for Inactive)
DOCKED: REMARK    1  A    between atoms: C_2  and  C_19 
DOCKED: REMARK    2  A    between atoms: C_2  and  C_11 
DOCKED: REMARK    3  A    between atoms: C_19  and  C_20 
DOCKED: REMARK    4  A    between atoms: C_20  and  C_21 
DOCKED: REMARK    5  A    between atoms: C_21  and  N_22 
DOCKED: USER                              x       y       z     vdW  Elec       q    Type
DOCKED: USER                           _______ _______ _______ _____ _____    ______ ____
DOCKED: ROOT
DOCKED: ATOM      1  O   UNL     1     -41.614 -22.343   8.024 -0.03 -0.00    -0.346 OA 
DOCKED: ATOM      2  C   UNL     1     -43.066 -22.522   7.987 -0.11 +0.00    +0.130 C  
DOCKED: ATOM      3  C   UNL     1     -43.327 -23.064   6.611 -0.24 +0.00    +0.004 A  
DOCKED: ATOM      4  C   UNL     1     -42.121 -23.280   5.958 -0.35 +0.00    +0.006 A  
DOCKED: ATOM      5  C   UNL     1     -40.996 -22.914   6.847 -0.25 +0.00    +0.169 C  
DOCKED: ATOM      6  C   UNL     1     -44.534 -23.353   5.992 -0.27 -0.00    -0.001 A  
DOCKED: ATOM      7  C   UNL     1     -42.080 -23.785   4.670 -0.37 +0.00    +0.008 A  
DOCKED: ATOM      8  C   UNL     1     -44.509 -23.859   4.691 -0.20 +0.00    +0.010 A  
DOCKED: ATOM      9  C   UNL     1     -43.289 -24.074   4.034 -0.35 +0.00    +0.068 A  
DOCKED: ATOM     10  N   UNL     1     -43.279 -25.019   1.621 -2.55 -0.00    -0.191 NA 
DOCKED: ATOM     11  C   UNL     1     -43.283 -24.594   2.703 -0.29 +0.00    +0.101 C  
DOCKED: ENDROOT
DOCKED: BRANCH   2  12
DOCKED: ATOM     12  C   UNL     1     -43.460 -23.495   9.092 -0.12 +0.00    +0.038 C  
DOCKED: BRANCH  12  13
DOCKED: ATOM     13  C   UNL     1     -42.718 -23.191  10.392 -0.08 +0.00    +0.038 C  
DOCKED: BRANCH  13  14
DOCKED: ATOM     14  C   UNL     1     -41.449 -24.034  10.511 -0.09 +0.00    +0.251 C  
DOCKED: BRANCH  14  15
DOCKED: ATOM     15  N   UNL     1     -41.776 -25.380  10.967 -0.19 +0.00    +0.141 N  
DOCKED: ATOM     16  C   UNL     1     -40.565 -26.094  11.375 -0.08 +0.00    +0.285 C  
DOCKED: ATOM     17  C   UNL     1     -42.734 -25.332  12.072 -0.09 +0.00    +0.285 C  
DOCKED: ENDBRANCH  14  15
DOCKED: ENDBRANCH  13  14
DOCKED: ENDBRANCH  12  13
DOCKED: ENDBRANCH   2  12
DOCKED: BRANCH   2  18
DOCKED: ATOM     18  C   UNL     1     -43.677 -21.179   8.209 -0.11 +0.00    +0.006 A  
DOCKED: ATOM     19  C   UNL     1     -43.029 -20.034   7.746 -0.15 +0.00    +0.001 A  
DOCKED: ATOM     20  C   UNL     1     -43.602 -18.779   7.955 -0.10 +0.00    +0.029 A  
DOCKED: ATOM     21  C   UNL     1     -44.820 -18.670   8.624 -0.04 +0.00    +0.140 A  
DOCKED: ATOM     22  C   UNL     1     -45.467 -19.816   9.086 -0.05 +0.00    +0.029 A  
DOCKED: ATOM     23  F   UNL     1     -45.370 -17.465   8.822 +0.01 -0.00    -0.204 F  
DOCKED: ATOM     24  C   UNL     1     -44.895 -21.072   8.878 -0.07 +0.00    +0.001 A  
DOCKED: ENDBRANCH   2  18
DOCKED: TORSDOF 5
DOCKED: TER
DOCKED: ENDMDL
________________________________________________________________________________


    FINAL DOCKED STATE:
    ________________________


Run:   245 / 512
Time taken for this run:   0.002s

DOCKED: MODEL        245
DOCKED: USER    Run = 245
DOCKED: USER
DOCKED: USER    Estimated Free Energy of Binding    =  -4.32 kcal/mol  [=(1)+(2)+(3)-(4)]
DOCKED: USER
DOCKED: USER    (1) Final Intermolecular Energy     =  -5.81 kcal/mol
DOCKED: USER        vdW + Hbond + desolv Energy     =  -5.81 kcal/mol
DOCKED: USER        Electrostatic Energy            =  +0.00 kcal/mol
DOCKED: USER        Moving Ligand-Fixed Receptor    =  -5.81 kcal/mol
DOCKED: USER        Moving Ligand-Moving Receptor   =  +0.00 kcal/mol
DOCKED: USER    (2) Final Total Internal Energy     =  -1.33 kcal/mol
DOCKED: USER    (3) Torsional Free Energy           =  +1.49 kcal/mol
DOCKED: USER    (4) Unbound System's Energy         =  -1.33 kcal/mol
DOCKED: USER
DOCKED: USER
DOCKED: REMARK  5 active torsions:
DOCKED: REMARK  status: ('A' for Active; 'I' for Inactive)
DOCKED: REMARK    1  A    between atoms: C_2  and  C_19 
DOCKED: REMARK    2  A    between atoms: C_2  and  C_11 
DOCKED: REMARK    3  A    between atoms: C_19  and  C_20 
DOCKED: REMARK    4  A    between atoms: C_20  and  C_21 
DOCKED: REMARK    5  A    between atoms: C_21  and  N_22 
DOCKED: USER                              x       y       z     vdW  Elec       q    Type
DOCKED: USER                           _______ _______ _______ _____ _____    ______ ____
DOCKED: ROOT
DOCKED: ATOM      1  O   UNL     1     -40.172 -21.194   9.679 -0.01 -0.00    -0.346 OA 
DOCKED: ATOM      2  C   UNL     1     -40.225 -20.598   8.343 -0.09 +0.00    +0.130 C  
DOCKED: ATOM      3  C   UNL     1     -40.870 -21.660   7.501 -0.20 +0.00    +0.004 A  
DOCKED: ATOM      4  C   UNL     1     -41.251 -22.726   8.304 -0.16 +0.00    +0.006 A  
DOCKED: ATOM      5  C   UNL     1     -40.904 -22.441   9.714 -0.06 +0.00    +0.169 C  
DOCKED: ATOM      6  C   UNL     1     -41.109 -21.678   6.134 -0.25 -0.00    -0.001 A  
DOCKED: ATOM      7  C   UNL     1     -41.878 -23.840   7.773 -0.22 +0.00    +0.008 A  
DOCKED: ATOM      8  C   UNL     1     -41.736 -22.797   5.583 -0.33 +0.00    +0.010 A  
DOCKED: ATOM      9  C   UNL     1     -42.118 -23.872   6.399 -0.29 +0.00    +0.068 A  
DOCKED: ATOM     10  N   UNL     1     -43.284 -25.932   5.344 -2.56 -0.00    -0.191 NA 
DOCKED: ATOM     11  C   UNL     1     -42.761 -25.008   5.817 -0.36 +0.00    +0.101 C  
DOCKED: ENDROOT
DOCKED: BRANCH   2  12
DOCKED: ATOM     12  C   UNL     1     -41.051 -19.319   8.419 -0.07 +0.00    +0.038 C  
DOCKED: BRANCH  12  13
DOCKED: ATOM     13  C   UNL     1     -42.547 -19.616   8.340 -0.09 +0.00    +0.038 C  
DOCKED: BRANCH  13  14
DOCKED: ATOM     14  C   UNL     1     -43.142 -19.094   7.033 -0.16 +0.00    +0.251 C  
DOCKED: BRANCH  14  15
DOCKED: ATOM     15  N   UNL     1     -44.317 -19.875   6.664 -0.22 +0.00    +0.141 N  
DOCKED: ATOM     16  C   UNL     1     -44.415 -21.081   7.487 -0.11 +0.00    +0.285 C  
DOCKED: ATOM     17  C   UNL     1     -45.533 -19.071   6.796 -0.14 +0.00    +0.285 C  
DOCKED: ENDBRANCH  14  15
DOCKED: ENDBRANCH  13  14
DOCKED: ENDBRANCH  12  13
DOCKED: ENDBRANCH   2  12
DOCKED: BRANCH   2  18
DOCKED: ATOM     18  C   UNL     1     -38.819 -20.308   7.938 -0.11 +0.00    +0.006 A  
DOCKED: ATOM     19  C   UNL     1     -37.859 -21.319   7.979 -0.12 +0.00    +0.001 A  
DOCKED: ATOM     20  C   UNL     1     -36.544 -21.046   7.600 -0.10 +0.00    +0.029 A  
DOCKED: ATOM     21  C   UNL     1     -36.191 -19.764   7.181 -0.06 +0.00    +0.140 A  
DOCKED: ATOM     22  C   UNL     1     -37.151 -18.753   7.141 -0.06 +0.00    +0.029 A  
DOCKED: ATOM     23  F   UNL     1     -34.929 -19.503   6.816 -0.00 -0.00    -0.204 F  
DOCKED: ATOM     24  C   UNL     1     -38.467 -19.025   7.520 -0.08 +0.00    +0.001 A  
DOCKED: ENDBRANCH   2  18
DOCKED: TORSDOF 5
DOCKED: TER
DOCKED: ENDMDL
________________________________________________________________________________


    FINAL DOCKED STATE:
    ________________________


Run:   246 / 512
Time taken for this run:   0.002s

DOCKED: MODEL        246
DOCKED: USER    Run = 246
DOCKED: USER
DOCKED: USER    Estimated Free Energy of Binding    =  -4.19 kcal/mol  [=(1)+(2)+(3)-(4)]
DOCKED: USER
DOCKED: USER    (1) Final Intermolecular Energy     =  -5.68 kcal/mol
DOCKED: USER        vdW + Hbond + desolv Energy     =  -5.68 kcal/mol
DOCKED: USER        Electrostatic Energy            =  +0.00 kcal/mol
DOCKED: USER        Moving Ligand-Fixed Receptor    =  -5.68 kcal/mol
DOCKED: USER        Moving Ligand-Moving Receptor   =  +0.00 kcal/mol
DOCKED: USER    (2) Final Total Internal Energy     =  -1.53 kcal/mol
DOCKED: USER    (3) Torsional Free Energy           =  +1.49 kcal/mol
DOCKED: USER    (4) Unbound System's Energy         =  -1.53 kcal/mol
DOCKED: USER
DOCKED: USER
DOCKED: REMARK  5 active torsions:
DOCKED: REMARK  status: ('A' for Active; 'I' for Inactive)
DOCKED: REMARK    1  A    between atoms: C_2  and  C_19 
DOCKED: REMARK    2  A    between atoms: C_2  and  C_11 
DOCKED: REMARK    3  A    between atoms: C_19  and  C_20 
DOCKED: REMARK    4  A    between atoms: C_20  and  C_21 
DOCKED: REMARK    5  A    between atoms: C_21  and  N_22 
DOCKED: USER                              x       y       z     vdW  Elec       q    Type
DOCKED: USER                           _______ _______ _______ _____ _____    ______ ____
DOCKED: ROOT
DOCKED: ATOM      1  O   UNL     1     -39.176 -20.834   8.335 -0.05 -0.00    -0.346 OA 
DOCKED: ATOM      2  C   UNL     1     -40.318 -20.230   7.649 -0.13 +0.00    +0.130 C  
DOCKED: ATOM      3  C   UNL     1     -41.031 -21.401   7.037 -0.24 +0.00    +0.004 A  
DOCKED: ATOM      4  C   UNL     1     -40.415 -22.581   7.431 -0.23 +0.00    +0.006 A  
DOCKED: ATOM      5  C   UNL     1     -39.276 -22.277   8.328 -0.16 +0.00    +0.169 C  
DOCKED: ATOM      6  C   UNL     1     -42.143 -21.423   6.208 -0.23 -0.00    -0.001 A  
DOCKED: ATOM      7  C   UNL     1     -40.882 -23.814   7.010 -0.32 +0.00    +0.008 A  
DOCKED: ATOM      8  C   UNL     1     -42.624 -22.658   5.771 -0.27 +0.00    +0.010 A  
DOCKED: ATOM      9  C   UNL     1     -41.996 -23.848   6.171 -0.31 +0.00    +0.068 A  
DOCKED: ATOM     10  N   UNL     1     -42.917 -26.124   5.345 -2.61 -0.00    -0.191 NA 
DOCKED: ATOM     11  C   UNL     1     -42.503 -25.103   5.715 -0.33 +0.00    +0.101 C  
DOCKED: ENDROOT
DOCKED: BRANCH   2  12
DOCKED: ATOM     12  C   UNL     1     -41.165 -19.492   8.678 -0.06 +0.00    +0.038 C  
DOCKED: BRANCH  12  13
DOCKED: ATOM     13  C   UNL     1     -40.348 -19.134   9.918 -0.02 +0.00    +0.038 C  
DOCKED: BRANCH  13  14
DOCKED: ATOM     14  C   UNL     1     -39.668 -17.776   9.756 -0.00 +0.00    +0.251 C  
DOCKED: BRANCH  14  15
DOCKED: ATOM     15  N   UNL     1     -38.308 -17.947   9.258 -0.01 +0.00    +0.141 N  
DOCKED: ATOM     16  C   UNL     1     -37.555 -16.697   9.374 -0.00 +0.00    +0.285 C  
DOCKED: ATOM     17  C   UNL     1     -37.624 -19.020   9.982 -0.00 +0.00    +0.285 C  
DOCKED: ENDBRANCH  14  15
DOCKED: ENDBRANCH  13  14
DOCKED: ENDBRANCH  12  13
DOCKED: ENDBRANCH   2  12
DOCKED: BRANCH   2  18
DOCKED: ATOM     18  C   UNL     1     -39.767 -19.289   6.630 -0.16 +0.00    +0.006 A  
DOCKED: ATOM     19  C   UNL     1     -38.707 -19.686   5.816 -0.12 +0.00    +0.001 A  
DOCKED: ATOM     20  C   UNL     1     -38.193 -18.804   4.864 -0.14 +0.00    +0.029 A  
DOCKED: ATOM     21  C   UNL     1     -38.738 -17.529   4.728 -0.07 +0.00    +0.140 A  
DOCKED: ATOM     22  C   UNL     1     -39.799 -17.132   5.543 -0.09 +0.00    +0.029 A  
DOCKED: ATOM     23  F   UNL     1     -38.246 -16.684   3.813 -0.01 -0.00    -0.204 F  
DOCKED: ATOM     24  C   UNL     1     -40.314 -18.013   6.495 -0.11 +0.00    +0.001 A  
DOCKED: ENDBRANCH   2  18
DOCKED: TORSDOF 5
DOCKED: TER
DOCKED: ENDMDL
________________________________________________________________________________


    FINAL DOCKED STATE:
    ________________________


Run:   247 / 512
Time taken for this run:   0.002s

DOCKED: MODEL        247
DOCKED: USER    Run = 247
DOCKED: USER
DOCKED: USER    Estimated Free Energy of Binding    =  -4.94 kcal/mol  [=(1)+(2)+(3)-(4)]
DOCKED: USER
DOCKED: USER    (1) Final Intermolecular Energy     =  -6.43 kcal/mol
DOCKED: USER        vdW + Hbond + desolv Energy     =  -6.43 kcal/mol
DOCKED: USER        Electrostatic Energy            =  +0.00 kcal/mol
DOCKED: USER        Moving Ligand-Fixed Receptor    =  -6.43 kcal/mol
DOCKED: USER        Moving Ligand-Moving Receptor   =  +0.00 kcal/mol
DOCKED: USER    (2) Final Total Internal Energy     =  -1.35 kcal/mol
DOCKED: USER    (3) Torsional Free Energy           =  +1.49 kcal/mol
DOCKED: USER    (4) Unbound System's Energy         =  -1.35 kcal/mol
DOCKED: USER
DOCKED: USER
DOCKED: REMARK  5 active torsions:
DOCKED: REMARK  status: ('A' for Active; 'I' for Inactive)
DOCKED: REMARK    1  A    between atoms: C_2  and  C_19 
DOCKED: REMARK    2  A    between atoms: C_2  and  C_11 
DOCKED: REMARK    3  A    between atoms: C_19  and  C_20 
DOCKED: REMARK    4  A    between atoms: C_20  and  C_21 
DOCKED: REMARK    5  A    between atoms: C_21  and  N_22 
DOCKED: USER                              x       y       z     vdW  Elec       q    Type
DOCKED: USER                           _______ _______ _______ _____ _____    ______ ____
DOCKED: ROOT
DOCKED: ATOM      1  O   UNL     1     -41.553 -21.711   7.631 -0.05 -0.00    -0.346 OA 
DOCKED: ATOM      2  C   UNL     1     -42.905 -22.252   7.786 -0.13 +0.00    +0.130 C  
DOCKED: ATOM      3  C   UNL     1     -43.200 -22.870   6.450 -0.26 +0.00    +0.004 A  
DOCKED: ATOM      4  C   UNL     1     -42.076 -22.790   5.640 -0.34 +0.00    +0.006 A  
DOCKED: ATOM      5  C   UNL     1     -40.972 -22.133   6.376 -0.20 +0.00    +0.169 C  
DOCKED: ATOM      6  C   UNL     1     -44.365 -23.468   5.993 -0.28 -0.00    -0.001 A  
DOCKED: ATOM      7  C   UNL     1     -42.079 -23.295   4.351 -0.21 +0.00    +0.008 A  
DOCKED: ATOM      8  C   UNL     1     -44.386 -23.978   4.694 -0.26 +0.00    +0.010 A  
DOCKED: ATOM      9  C   UNL     1     -43.248 -23.893   3.878 -0.31 +0.00    +0.068 A  
DOCKED: ATOM     10  N   UNL     1     -43.318 -24.856   1.473 -2.79 -0.00    -0.191 NA 
DOCKED: ATOM     11  C   UNL     1     -43.287 -24.423   2.552 -0.26 +0.00    +0.101 C  
DOCKED: ENDROOT
DOCKED: BRANCH   2  12
DOCKED: ATOM     12  C   UNL     1     -42.891 -23.268   8.921 -0.12 +0.00    +0.038 C  
DOCKED: BRANCH  12  13
DOCKED: ATOM     13  C   UNL     1     -42.310 -24.605   8.465 -0.26 +0.00    +0.038 C  
DOCKED: BRANCH  13  14
DOCKED: ATOM     14  C   UNL     1     -40.802 -24.660   8.706 -0.11 +0.00    +0.251 C  
DOCKED: BRANCH  14  15
DOCKED: ATOM     15  N   UNL     1     -40.430 -23.764   9.794 -0.11 +0.00    +0.141 N  
DOCKED: ATOM     16  C   UNL     1     -40.269 -24.508  11.044 -0.09 +0.00    +0.285 C  
DOCKED: ATOM     17  C   UNL     1     -39.197 -23.044   9.470 -0.09 +0.00    +0.285 C  
DOCKED: ENDBRANCH  14  15
DOCKED: ENDBRANCH  13  14
DOCKED: ENDBRANCH  12  13
DOCKED: ENDBRANCH   2  12
DOCKED: BRANCH   2  18
DOCKED: ATOM     18  C   UNL     1     -43.801 -21.101   8.105 -0.12 +0.00    +0.006 A  
DOCKED: ATOM     19  C   UNL     1     -43.437 -19.809   7.727 -0.16 +0.00    +0.001 A  
DOCKED: ATOM     20  C   UNL     1     -44.275 -18.735   8.025 -0.10 +0.00    +0.029 A  
DOCKED: ATOM     21  C   UNL     1     -45.475 -18.953   8.700 -0.04 +0.00    +0.140 A  
DOCKED: ATOM     22  C   UNL     1     -45.839 -20.245   9.078 -0.06 +0.00    +0.029 A  
DOCKED: ATOM     23  F   UNL     1     -46.281 -17.921   8.985 +0.01 -0.00    -0.204 F  
DOCKED: ATOM     24  C   UNL     1     -45.000 -21.321   8.780 -0.08 +0.00    +0.001 A  
DOCKED: ENDBRANCH   2  18
DOCKED: TORSDOF 5
DOCKED: TER
DOCKED: ENDMDL
________________________________________________________________________________


    FINAL DOCKED STATE:
    ________________________


Run:   248 / 512
Time taken for this run:   0.002s

DOCKED: MODEL        248
DOCKED: USER    Run = 248
DOCKED: USER
DOCKED: USER    Estimated Free Energy of Binding    =  -5.29 kcal/mol  [=(1)+(2)+(3)-(4)]
DOCKED: USER
DOCKED: USER    (1) Final Intermolecular Energy     =  -6.78 kcal/mol
DOCKED: USER        vdW + Hbond + desolv Energy     =  -6.78 kcal/mol
DOCKED: USER        Electrostatic Energy            =  +0.00 kcal/mol
DOCKED: USER        Moving Ligand-Fixed Receptor    =  -6.78 kcal/mol
DOCKED: USER        Moving Ligand-Moving Receptor   =  +0.00 kcal/mol
DOCKED: USER    (2) Final Total Internal Energy     =  -0.69 kcal/mol
DOCKED: USER    (3) Torsional Free Energy           =  +1.49 kcal/mol
DOCKED: USER    (4) Unbound System's Energy         =  -0.69 kcal/mol
DOCKED: USER
DOCKED: USER
DOCKED: REMARK  5 active torsions:
DOCKED: REMARK  status: ('A' for Active; 'I' for Inactive)
DOCKED: REMARK    1  A    between atoms: C_2  and  C_19 
DOCKED: REMARK    2  A    between atoms: C_2  and  C_11 
DOCKED: REMARK    3  A    between atoms: C_19  and  C_20 
DOCKED: REMARK    4  A    between atoms: C_20  and  C_21 
DOCKED: REMARK    5  A    between atoms: C_21  and  N_22 
DOCKED: USER                              x       y       z     vdW  Elec       q    Type
DOCKED: USER                           _______ _______ _______ _____ _____    ______ ____
DOCKED: ROOT
DOCKED: ATOM      1  O   UNL     1     -44.290 -23.929   8.214 -0.03 -0.00    -0.346 OA 
DOCKED: ATOM      2  C   UNL     1     -43.254 -22.987   7.787 -0.13 +0.00    +0.130 C  
DOCKED: ATOM      3  C   UNL     1     -43.097 -23.266   6.320 -0.28 +0.00    +0.004 A  
DOCKED: ATOM      4  C   UNL     1     -44.036 -24.206   5.920 -0.31 +0.00    +0.006 A  
DOCKED: ATOM      5  C   UNL     1     -44.876 -24.599   7.074 -0.16 +0.00    +0.169 C  
DOCKED: ATOM      6  C   UNL     1     -42.202 -22.723   5.410 -0.31 -0.00    -0.001 A  
DOCKED: ATOM      7  C   UNL     1     -44.110 -24.637   4.607 -0.36 +0.00    +0.008 A  
DOCKED: ATOM      8  C   UNL     1     -42.261 -23.150   4.082 -0.16 +0.00    +0.010 A  
DOCKED: ATOM      9  C   UNL     1     -43.211 -24.102   3.683 -0.35 +0.00    +0.068 A  
DOCKED: ATOM     10  N   UNL     1     -43.297 -24.870   1.210 -2.82 -0.00    -0.191 NA 
DOCKED: ATOM     11  C   UNL     1     -43.258 -24.526   2.319 -0.27 +0.00    +0.101 C  
DOCKED: ENDROOT
DOCKED: BRANCH   2  12
DOCKED: ATOM     12  C   UNL     1     -43.742 -21.571   8.072 -0.14 +0.00    +0.038 C  
DOCKED: BRANCH  12  13
DOCKED: ATOM     13  C   UNL     1     -43.587 -20.671   6.848 -0.25 +0.00    +0.038 C  
DOCKED: BRANCH  13  14
DOCKED: ATOM     14  C   UNL     1     -42.499 -19.622   7.072 -0.15 +0.00    +0.251 C  
DOCKED: BRANCH  14  15
DOCKED: ATOM     15  N   UNL     1     -43.069 -18.420   7.668 -0.08 +0.00    +0.141 N  
DOCKED: ATOM     16  C   UNL     1     -42.501 -17.219   7.053 -0.08 +0.00    +0.285 C  
DOCKED: ATOM     17  C   UNL     1     -44.527 -18.418   7.532 -0.10 +0.00    +0.285 C  
DOCKED: ENDBRANCH  14  15
DOCKED: ENDBRANCH  13  14
DOCKED: ENDBRANCH  12  13
DOCKED: ENDBRANCH   2  12
DOCKED: BRANCH   2  18
DOCKED: ATOM     18  C   UNL     1     -42.026 -23.302   8.574 -0.14 +0.00    +0.006 A  
DOCKED: ATOM     19  C   UNL     1     -42.133 -23.966   9.795 -0.14 +0.00    +0.001 A  
DOCKED: ATOM     20  C   UNL     1     -40.984 -24.259  10.530 -0.16 +0.00    +0.029 A  
DOCKED: ATOM     21  C   UNL     1     -39.731 -23.890  10.043 -0.00 +0.00    +0.140 A  
DOCKED: ATOM     22  C   UNL     1     -39.625 -23.226   8.821 -0.18 +0.00    +0.029 A  
DOCKED: ATOM     23  F   UNL     1     -38.628 -24.174  10.748 +0.03 -0.00    -0.204 F  
DOCKED: ATOM     24  C   UNL     1     -40.774 -22.932   8.085 -0.21 +0.00    +0.001 A  
DOCKED: ENDBRANCH   2  18
DOCKED: TORSDOF 5
DOCKED: TER
DOCKED: ENDMDL
________________________________________________________________________________


    FINAL DOCKED STATE:
    ________________________


Run:   249 / 512
Time taken for this run:   0.002s

DOCKED: MODEL        249
DOCKED: USER    Run = 249
DOCKED: USER
DOCKED: USER    Estimated Free Energy of Binding    =  -5.44 kcal/mol  [=(1)+(2)+(3)-(4)]
DOCKED: USER
DOCKED: USER    (1) Final Intermolecular Energy     =  -6.93 kcal/mol
DOCKED: USER        vdW + Hbond + desolv Energy     =  -6.93 kcal/mol
DOCKED: USER        Electrostatic Energy            =  +0.00 kcal/mol
DOCKED: USER        Moving Ligand-Fixed Receptor    =  -6.93 kcal/mol
DOCKED: USER        Moving Ligand-Moving Receptor   =  +0.00 kcal/mol
DOCKED: USER    (2) Final Total Internal Energy     =  -1.10 kcal/mol
DOCKED: USER    (3) Torsional Free Energy           =  +1.49 kcal/mol
DOCKED: USER    (4) Unbound System's Energy         =  -1.10 kcal/mol
DOCKED: USER
DOCKED: USER
DOCKED: REMARK  5 active torsions:
DOCKED: REMARK  status: ('A' for Active; 'I' for Inactive)
DOCKED: REMARK    1  A    between atoms: C_2  and  C_19 
DOCKED: REMARK    2  A    between atoms: C_2  and  C_11 
DOCKED: REMARK    3  A    between atoms: C_19  and  C_20 
DOCKED: REMARK    4  A    between atoms: C_20  and  C_21 
DOCKED: REMARK    5  A    between atoms: C_21  and  N_22 
DOCKED: USER                              x       y       z     vdW  Elec       q    Type
DOCKED: USER                           _______ _______ _______ _____ _____    ______ ____
DOCKED: ROOT
DOCKED: ATOM      1  O   UNL     1     -41.369 -21.887   8.055 -0.03 -0.00    -0.346 OA 
DOCKED: ATOM      2  C   UNL     1     -40.734 -23.204   7.999 -0.21 +0.00    +0.130 C  
DOCKED: ATOM      3  C   UNL     1     -41.235 -23.790   6.711 -0.33 +0.00    +0.004 A  
DOCKED: ATOM      4  C   UNL     1     -42.000 -22.849   6.036 -0.34 +0.00    +0.006 A  
DOCKED: ATOM      5  C   UNL     1     -42.047 -21.590   6.813 -0.22 +0.00    +0.169 C  
DOCKED: ATOM      6  C   UNL     1     -41.022 -25.051   6.174 -0.42 -0.00    -0.001 A  
DOCKED: ATOM      7  C   UNL     1     -42.578 -23.135   4.811 -0.24 +0.00    +0.008 A  
DOCKED: ATOM      8  C   UNL     1     -41.602 -25.356   4.941 -0.37 +0.00    +0.010 A  
DOCKED: ATOM      9  C   UNL     1     -42.376 -24.402   4.263 -0.43 +0.00    +0.068 A  
DOCKED: ATOM     10  N   UNL     1     -43.434 -24.999   1.975 -2.38 -0.00    -0.191 NA 
DOCKED: ATOM     11  C   UNL     1     -42.960 -24.732   3.002 -0.47 +0.00    +0.101 C  
DOCKED: ENDROOT
DOCKED: BRANCH   2  12
DOCKED: ATOM     12  C   UNL     1     -39.222 -23.012   8.015 -0.22 +0.00    +0.038 C  
DOCKED: BRANCH  12  13
DOCKED: ATOM     13  C   UNL     1     -38.848 -21.532   7.965 -0.15 +0.00    +0.038 C  
DOCKED: BRANCH  13  14
DOCKED: ATOM     14  C   UNL     1     -38.608 -20.979   9.368 -0.04 +0.00    +0.251 C  
DOCKED: BRANCH  14  15
DOCKED: ATOM     15  N   UNL     1     -37.180 -20.801   9.606 -0.03 +0.00    +0.141 N  
DOCKED: ATOM     16  C   UNL     1     -36.467 -22.068   9.435 -0.05 +0.00    +0.285 C  
DOCKED: ATOM     17  C   UNL     1     -36.630 -19.785   8.707 -0.02 +0.00    +0.285 C  
DOCKED: ENDBRANCH  14  15
DOCKED: ENDBRANCH  13  14
DOCKED: ENDBRANCH  12  13
DOCKED: ENDBRANCH   2  12
DOCKED: BRANCH   2  18
DOCKED: ATOM     18  C   UNL     1     -41.194 -23.961   9.200 -0.18 +0.00    +0.006 A  
DOCKED: ATOM     19  C   UNL     1     -40.308 -24.211  10.247 -0.13 +0.00    +0.001 A  
DOCKED: ATOM     20  C   UNL     1     -40.739 -24.920  11.370 -0.20 +0.00    +0.029 A  
DOCKED: ATOM     21  C   UNL     1     -42.054 -25.377  11.443 -0.12 +0.00    +0.140 A  
DOCKED: ATOM     22  C   UNL     1     -42.939 -25.126  10.396 -0.10 +0.00    +0.029 A  
DOCKED: ATOM     23  F   UNL     1     -42.468 -26.055  12.521 -0.04 -0.00    -0.204 F  
DOCKED: ATOM     24  C   UNL     1     -42.509 -24.418   9.272 -0.19 +0.00    +0.001 A  
DOCKED: ENDBRANCH   2  18
DOCKED: TORSDOF 5
DOCKED: TER
DOCKED: ENDMDL
________________________________________________________________________________


    FINAL DOCKED STATE:
    ________________________


Run:   250 / 512
Time taken for this run:   0.002s

DOCKED: MODEL        250
DOCKED: USER    Run = 250
DOCKED: USER
DOCKED: USER    Estimated Free Energy of Binding    =  -4.91 kcal/mol  [=(1)+(2)+(3)-(4)]
DOCKED: USER
DOCKED: USER    (1) Final Intermolecular Energy     =  -6.40 kcal/mol
DOCKED: USER        vdW + Hbond + desolv Energy     =  -6.40 kcal/mol
DOCKED: USER        Electrostatic Energy            =  +0.00 kcal/mol
DOCKED: USER        Moving Ligand-Fixed Receptor    =  -6.40 kcal/mol
DOCKED: USER        Moving Ligand-Moving Receptor   =  +0.00 kcal/mol
DOCKED: USER    (2) Final Total Internal Energy     =  -1.01 kcal/mol
DOCKED: USER    (3) Torsional Free Energy           =  +1.49 kcal/mol
DOCKED: USER    (4) Unbound System's Energy         =  -1.01 kcal/mol
DOCKED: USER
DOCKED: USER
DOCKED: REMARK  5 active torsions:
DOCKED: REMARK  status: ('A' for Active; 'I' for Inactive)
DOCKED: REMARK    1  A    between atoms: C_2  and  C_19 
DOCKED: REMARK    2  A    between atoms: C_2  and  C_11 
DOCKED: REMARK    3  A    between atoms: C_19  and  C_20 
DOCKED: REMARK    4  A    between atoms: C_20  and  C_21 
DOCKED: REMARK    5  A    between atoms: C_21  and  N_22 
DOCKED: USER                              x       y       z     vdW  Elec       q    Type
DOCKED: USER                           _______ _______ _______ _____ _____    ______ ____
DOCKED: ROOT
DOCKED: ATOM      1  O   UNL     1     -44.468 -22.908   8.095 -0.01 -0.00    -0.346 OA 
DOCKED: ATOM      2  C   UNL     1     -43.232 -22.271   7.639 -0.14 +0.00    +0.130 C  
DOCKED: ATOM      3  C   UNL     1     -43.063 -22.778   6.236 -0.27 +0.00    +0.004 A  
DOCKED: ATOM      4  C   UNL     1     -44.162 -23.549   5.882 -0.28 +0.00    +0.006 A  
DOCKED: ATOM      5  C   UNL     1     -45.126 -23.593   7.004 -0.17 +0.00    +0.169 C  
DOCKED: ATOM      6  C   UNL     1     -42.025 -22.566   5.341 -0.27 -0.00    -0.001 A  
DOCKED: ATOM      7  C   UNL     1     -44.259 -24.133   4.631 -0.29 +0.00    +0.008 A  
DOCKED: ATOM      8  C   UNL     1     -42.106 -23.153   4.077 -0.10 +0.00    +0.010 A  
DOCKED: ATOM      9  C   UNL     1     -43.218 -23.932   3.724 -0.32 +0.00    +0.068 A  
DOCKED: ATOM     10  N   UNL     1     -43.340 -25.002   1.367 -2.69 -0.00    -0.191 NA 
DOCKED: ATOM     11  C   UNL     1     -43.285 -24.523   2.425 -0.28 +0.00    +0.101 C  
DOCKED: ENDROOT
DOCKED: BRANCH   2  12
DOCKED: ATOM     12  C   UNL     1     -43.415 -20.759   7.705 -0.18 +0.00    +0.038 C  
DOCKED: BRANCH  12  13
DOCKED: ATOM     13  C   UNL     1     -44.768 -20.337   7.136 -0.24 +0.00    +0.038 C  
DOCKED: BRANCH  13  14
DOCKED: ATOM     14  C   UNL     1     -45.054 -18.866   7.433 -0.12 +0.00    +0.251 C  
DOCKED: BRANCH  14  15
DOCKED: ATOM     15  N   UNL     1     -44.124 -18.011   6.705 -0.17 +0.00    +0.141 N  
DOCKED: ATOM     16  C   UNL     1     -44.850 -17.053   5.869 -0.05 +0.00    +0.285 C  
DOCKED: ATOM     17  C   UNL     1     -43.237 -17.306   7.632 -0.05 +0.00    +0.285 C  
DOCKED: ENDBRANCH  14  15
DOCKED: ENDBRANCH  13  14
DOCKED: ENDBRANCH  12  13
DOCKED: ENDBRANCH   2  12
DOCKED: BRANCH   2  18
DOCKED: ATOM     18  C   UNL     1     -42.145 -22.722   8.556 -0.11 +0.00    +0.006 A  
DOCKED: ATOM     19  C   UNL     1     -41.180 -21.815   8.993 -0.08 +0.00    +0.001 A  
DOCKED: ATOM     20  C   UNL     1     -40.164 -22.238   9.850 -0.08 +0.00    +0.029 A  
DOCKED: ATOM     21  C   UNL     1     -40.113 -23.567  10.269 -0.09 +0.00    +0.140 A  
DOCKED: ATOM     22  C   UNL     1     -41.079 -24.474   9.832 -0.19 +0.00    +0.029 A  
DOCKED: ATOM     23  F   UNL     1     -39.139 -23.973  11.093 -0.03 -0.00    -0.204 F  
DOCKED: ATOM     24  C   UNL     1     -42.095 -24.051   8.974 -0.18 +0.00    +0.001 A  
DOCKED: ENDBRANCH   2  18
DOCKED: TORSDOF 5
DOCKED: TER
DOCKED: ENDMDL
________________________________________________________________________________


    FINAL DOCKED STATE:
    ________________________


Run:   251 / 512
Time taken for this run:   0.002s

DOCKED: MODEL        251
DOCKED: USER    Run = 251
DOCKED: USER
DOCKED: USER    Estimated Free Energy of Binding    =  -3.59 kcal/mol  [=(1)+(2)+(3)-(4)]
DOCKED: USER
DOCKED: USER    (1) Final Intermolecular Energy     =  -5.08 kcal/mol
DOCKED: USER        vdW + Hbond + desolv Energy     =  -5.08 kcal/mol
DOCKED: USER        Electrostatic Energy            =  +0.00 kcal/mol
DOCKED: USER        Moving Ligand-Fixed Receptor    =  -5.08 kcal/mol
DOCKED: USER        Moving Ligand-Moving Receptor   =  +0.00 kcal/mol
DOCKED: USER    (2) Final Total Internal Energy     =  -1.17 kcal/mol
DOCKED: USER    (3) Torsional Free Energy           =  +1.49 kcal/mol
DOCKED: USER    (4) Unbound System's Energy         =  -1.17 kcal/mol
DOCKED: USER
DOCKED: USER
DOCKED: REMARK  5 active torsions:
DOCKED: REMARK  status: ('A' for Active; 'I' for Inactive)
DOCKED: REMARK    1  A    between atoms: C_2  and  C_19 
DOCKED: REMARK    2  A    between atoms: C_2  and  C_11 
DOCKED: REMARK    3  A    between atoms: C_19  and  C_20 
DOCKED: REMARK    4  A    between atoms: C_20  and  C_21 
DOCKED: REMARK    5  A    between atoms: C_21  and  N_22 
DOCKED: USER                              x       y       z     vdW  Elec       q    Type
DOCKED: USER                           _______ _______ _______ _____ _____    ______ ____
DOCKED: ROOT
DOCKED: ATOM      1  O   UNL     1     -33.644 -21.281  -0.337 +0.01 -0.00    -0.346 OA 
DOCKED: ATOM      2  C   UNL     1     -33.394 -22.550  -1.022 -0.08 +0.00    +0.130 C  
DOCKED: ATOM      3  C   UNL     1     -33.851 -23.587  -0.036 -0.12 +0.00    +0.004 A  
DOCKED: ATOM      4  C   UNL     1     -34.414 -22.964   1.069 -0.13 +0.00    +0.006 A  
DOCKED: ATOM      5  C   UNL     1     -34.383 -21.495   0.888 -0.07 +0.00    +0.169 C  
DOCKED: ATOM      6  C   UNL     1     -33.783 -24.970  -0.115 -0.15 -0.00    -0.001 A  
DOCKED: ATOM      7  C   UNL     1     -34.923 -23.697   2.128 -0.24 +0.00    +0.008 A  
DOCKED: ATOM      8  C   UNL     1     -34.287 -25.723   0.946 -0.25 +0.00    +0.010 A  
DOCKED: ATOM      9  C   UNL     1     -34.855 -25.089   2.062 -0.28 +0.00    +0.068 A  
DOCKED: ATOM     10  N   UNL     1     -35.787 -26.517   4.013 -2.61 -0.00    -0.191 NA 
DOCKED: ATOM     11  C   UNL     1     -35.368 -25.877   3.138 -0.41 +0.00    +0.101 C  
DOCKED: ENDROOT
DOCKED: BRANCH   2  12
DOCKED: ATOM     12  C   UNL     1     -34.199 -22.567  -2.316 -0.12 +0.00    +0.038 C  
DOCKED: BRANCH  12  13
DOCKED: ATOM     13  C   UNL     1     -34.442 -21.153  -2.839 -0.14 +0.00    +0.038 C  
DOCKED: BRANCH  13  14
DOCKED: ATOM     14  C   UNL     1     -35.776 -20.603  -2.339 -0.14 +0.00    +0.251 C  
DOCKED: BRANCH  14  15
DOCKED: ATOM     15  N   UNL     1     -35.553 -19.513  -1.396 -0.11 +0.00    +0.141 N  
DOCKED: ATOM     16  C   UNL     1     -35.468 -18.232  -2.099 -0.05 +0.00    +0.285 C  
DOCKED: ATOM     17  C   UNL     1     -36.620 -19.473  -0.394 -0.14 +0.00    +0.285 C  
DOCKED: ENDBRANCH  14  15
DOCKED: ENDBRANCH  13  14
DOCKED: ENDBRANCH  12  13
DOCKED: ENDBRANCH   2  12
DOCKED: BRANCH   2  18
DOCKED: ATOM     18  C   UNL     1     -31.929 -22.616  -1.298 -0.02 +0.00    +0.006 A  
DOCKED: ATOM     19  C   UNL     1     -31.146 -23.589  -0.679 -0.01 +0.00    +0.001 A  
DOCKED: ATOM     20  C   UNL     1     -29.777 -23.649  -0.937 -0.00 +0.00    +0.029 A  
DOCKED: ATOM     21  C   UNL     1     -29.192 -22.737  -1.814 +0.00 +0.00    +0.140 A  
DOCKED: ATOM     22  C   UNL     1     -29.976 -21.763  -2.433 -0.00 +0.00    +0.029 A  
DOCKED: ATOM     23  F   UNL     1     -27.877 -22.796  -2.064 +0.00 -0.00    -0.204 F  
DOCKED: ATOM     24  C   UNL     1     -31.346 -21.702  -2.175 -0.00 +0.00    +0.001 A  
DOCKED: ENDBRANCH   2  18
DOCKED: TORSDOF 5
DOCKED: TER
DOCKED: ENDMDL
________________________________________________________________________________


    FINAL DOCKED STATE:
    ________________________


Run:   252 / 512
Time taken for this run:   0.002s

DOCKED: MODEL        252
DOCKED: USER    Run = 252
DOCKED: USER
DOCKED: USER    Estimated Free Energy of Binding    =  -4.56 kcal/mol  [=(1)+(2)+(3)-(4)]
DOCKED: USER
DOCKED: USER    (1) Final Intermolecular Energy     =  -6.05 kcal/mol
DOCKED: USER        vdW + Hbond + desolv Energy     =  -6.05 kcal/mol
DOCKED: USER        Electrostatic Energy            =  +0.00 kcal/mol
DOCKED: USER        Moving Ligand-Fixed Receptor    =  -6.05 kcal/mol
DOCKED: USER        Moving Ligand-Moving Receptor   =  +0.00 kcal/mol
DOCKED: USER    (2) Final Total Internal Energy     =  -1.33 kcal/mol
DOCKED: USER    (3) Torsional Free Energy           =  +1.49 kcal/mol
DOCKED: USER    (4) Unbound System's Energy         =  -1.33 kcal/mol
DOCKED: USER
DOCKED: USER
DOCKED: REMARK  5 active torsions:
DOCKED: REMARK  status: ('A' for Active; 'I' for Inactive)
DOCKED: REMARK    1  A    between atoms: C_2  and  C_19 
DOCKED: REMARK    2  A    between atoms: C_2  and  C_11 
DOCKED: REMARK    3  A    between atoms: C_19  and  C_20 
DOCKED: REMARK    4  A    between atoms: C_20  and  C_21 
DOCKED: REMARK    5  A    between atoms: C_21  and  N_22 
DOCKED: USER                              x       y       z     vdW  Elec       q    Type
DOCKED: USER                           _______ _______ _______ _____ _____    ______ ____
DOCKED: ROOT
DOCKED: ATOM      1  O   UNL     1     -39.282 -16.152   1.182 -0.08 -0.00    -0.346 OA 
DOCKED: ATOM      2  C   UNL     1     -37.985 -16.057   0.511 -0.16 +0.00    +0.130 C  
DOCKED: ATOM      3  C   UNL     1     -38.292 -15.321  -0.761 -0.25 +0.00    +0.004 A  
DOCKED: ATOM      4  C   UNL     1     -39.624 -14.932  -0.766 -0.28 +0.00    +0.006 A  
DOCKED: ATOM      5  C   UNL     1     -40.278 -15.366   0.489 -0.22 +0.00    +0.169 C  
DOCKED: ATOM      6  C   UNL     1     -37.456 -15.010  -1.824 -0.21 -0.00    -0.001 A  
DOCKED: ATOM      7  C   UNL     1     -40.165 -14.228  -1.828 -0.26 +0.00    +0.008 A  
DOCKED: ATOM      8  C   UNL     1     -37.988 -14.304  -2.904 -0.26 +0.00    +0.010 A  
DOCKED: ATOM      9  C   UNL     1     -39.335 -13.915  -2.906 -0.27 +0.00    +0.068 A  
DOCKED: ATOM     10  N   UNL     1     -40.289 -12.601  -4.925 -2.26 -0.00    -0.191 NA 
DOCKED: ATOM     11  C   UNL     1     -39.862 -13.191  -4.020 -0.36 +0.00    +0.101 C  
DOCKED: ENDROOT
DOCKED: BRANCH   2  12
DOCKED: ATOM     12  C   UNL     1     -37.026 -15.297   1.419 -0.15 +0.00    +0.038 C  
DOCKED: BRANCH  12  13
DOCKED: ATOM     13  C   UNL     1     -37.773 -14.326   2.331 -0.03 +0.00    +0.038 C  
DOCKED: BRANCH  13  14
DOCKED: ATOM     14  C   UNL     1     -37.684 -14.763   3.791 -0.10 +0.00    +0.251 C  
DOCKED: BRANCH  14  15
DOCKED: ATOM     15  N   UNL     1     -38.216 -16.112   3.950 -0.06 +0.00    +0.141 N  
DOCKED: ATOM     16  C   UNL     1     -37.151 -17.047   4.317 -0.03 +0.00    +0.285 C  
DOCKED: ATOM     17  C   UNL     1     -39.278 -16.132   4.958 -0.04 +0.00    +0.285 C  
DOCKED: ENDBRANCH  14  15
DOCKED: ENDBRANCH  13  14
DOCKED: ENDBRANCH  12  13
DOCKED: ENDBRANCH   2  12
DOCKED: BRANCH   2  18
DOCKED: ATOM     18  C   UNL     1     -37.512 -17.453   0.276 -0.13 +0.00    +0.006 A  
DOCKED: ATOM     19  C   UNL     1     -36.477 -17.695  -0.627 -0.10 +0.00    +0.001 A  
DOCKED: ATOM     20  C   UNL     1     -36.036 -19.000  -0.846 -0.13 +0.00    +0.029 A  
DOCKED: ATOM     21  C   UNL     1     -36.629 -20.061  -0.163 -0.17 +0.00    +0.140 A  
DOCKED: ATOM     22  C   UNL     1     -37.664 -19.818   0.740 -0.25 +0.00    +0.029 A  
DOCKED: ATOM     23  F   UNL     1     -36.204 -21.314  -0.372 -0.04 -0.00    -0.204 F  
DOCKED: ATOM     24  C   UNL     1     -38.106 -18.512   0.959 -0.20 +0.00    +0.001 A  
DOCKED: ENDBRANCH   2  18
DOCKED: TORSDOF 5
DOCKED: TER
DOCKED: ENDMDL
________________________________________________________________________________


    FINAL DOCKED STATE:
    ________________________


Run:   253 / 512
Time taken for this run:   0.002s

DOCKED: MODEL        253
DOCKED: USER    Run = 253
DOCKED: USER
DOCKED: USER    Estimated Free Energy of Binding    =  -5.37 kcal/mol  [=(1)+(2)+(3)-(4)]
DOCKED: USER
DOCKED: USER    (1) Final Intermolecular Energy     =  -6.86 kcal/mol
DOCKED: USER        vdW + Hbond + desolv Energy     =  -6.86 kcal/mol
DOCKED: USER        Electrostatic Energy            =  +0.00 kcal/mol
DOCKED: USER        Moving Ligand-Fixed Receptor    =  -6.86 kcal/mol
DOCKED: USER        Moving Ligand-Moving Receptor   =  +0.00 kcal/mol
DOCKED: USER    (2) Final Total Internal Energy     =  -0.96 kcal/mol
DOCKED: USER    (3) Torsional Free Energy           =  +1.49 kcal/mol
DOCKED: USER    (4) Unbound System's Energy         =  -0.96 kcal/mol
DOCKED: USER
DOCKED: USER
DOCKED: REMARK  5 active torsions:
DOCKED: REMARK  status: ('A' for Active; 'I' for Inactive)
DOCKED: REMARK    1  A    between atoms: C_2  and  C_19 
DOCKED: REMARK    2  A    between atoms: C_2  and  C_11 
DOCKED: REMARK    3  A    between atoms: C_19  and  C_20 
DOCKED: REMARK    4  A    between atoms: C_20  and  C_21 
DOCKED: REMARK    5  A    between atoms: C_21  and  N_22 
DOCKED: USER                              x       y       z     vdW  Elec       q    Type
DOCKED: USER                           _______ _______ _______ _____ _____    ______ ____
DOCKED: ROOT
DOCKED: ATOM      1  O   UNL     1     -44.273 -22.756   8.129 -0.01 -0.00    -0.346 OA 
DOCKED: ATOM      2  C   UNL     1     -42.835 -22.785   7.856 -0.13 +0.00    +0.130 C  
DOCKED: ATOM      3  C   UNL     1     -42.748 -23.295   6.447 -0.28 +0.00    +0.004 A  
DOCKED: ATOM      4  C   UNL     1     -44.024 -23.440   5.922 -0.27 +0.00    +0.006 A  
DOCKED: ATOM      5  C   UNL     1     -45.030 -23.029   6.927 -0.18 +0.00    +0.169 C  
DOCKED: ATOM      6  C   UNL     1     -41.627 -23.597   5.686 -0.36 -0.00    -0.001 A  
DOCKED: ATOM      7  C   UNL     1     -44.225 -23.891   4.629 -0.26 +0.00    +0.008 A  
DOCKED: ATOM      8  C   UNL     1     -41.813 -24.058   4.382 -0.14 +0.00    +0.010 A  
DOCKED: ATOM      9  C   UNL     1     -43.106 -24.203   3.856 -0.40 +0.00    +0.068 A  
DOCKED: ATOM     10  N   UNL     1     -43.415 -25.057   1.429 -2.66 -0.00    -0.191 NA 
DOCKED: ATOM     11  C   UNL     1     -43.276 -24.675   2.518 -0.29 +0.00    +0.101 C  
DOCKED: ENDROOT
DOCKED: BRANCH   2  12
DOCKED: ATOM     12  C   UNL     1     -42.286 -21.372   8.011 -0.14 +0.00    +0.038 C  
DOCKED: BRANCH  12  13
DOCKED: ATOM     13  C   UNL     1     -42.696 -20.483   6.838 -0.25 +0.00    +0.038 C  
DOCKED: BRANCH  13  14
DOCKED: ATOM     14  C   UNL     1     -42.893 -19.037   7.288 -0.14 +0.00    +0.251 C  
DOCKED: BRANCH  14  15
DOCKED: ATOM     15  N   UNL     1     -41.699 -18.250   7.002 -0.11 +0.00    +0.141 N  
DOCKED: ATOM     16  C   UNL     1     -40.600 -19.116   6.573 -0.11 +0.00    +0.285 C  
DOCKED: ATOM     17  C   UNL     1     -41.979 -17.241   5.979 -0.11 +0.00    +0.285 C  
DOCKED: ENDBRANCH  14  15
DOCKED: ENDBRANCH  13  14
DOCKED: ENDBRANCH  12  13
DOCKED: ENDBRANCH   2  12
DOCKED: BRANCH   2  18
DOCKED: ATOM     18  C   UNL     1     -42.221 -23.714   8.850 -0.15 +0.00    +0.006 A  
DOCKED: ATOM     19  C   UNL     1     -41.941 -25.031   8.491 -0.28 +0.00    +0.001 A  
DOCKED: ATOM     20  C   UNL     1     -41.367 -25.899   9.422 -0.10 +0.00    +0.029 A  
DOCKED: ATOM     21  C   UNL     1     -41.074 -25.447  10.708 -0.18 +0.00    +0.140 A  
DOCKED: ATOM     22  C   UNL     1     -41.354 -24.129  11.065 -0.13 +0.00    +0.029 A  
DOCKED: ATOM     23  F   UNL     1     -40.521 -26.279  11.600 -0.10 -0.00    -0.204 F  
DOCKED: ATOM     24  C   UNL     1     -41.929 -23.260  10.136 -0.09 +0.00    +0.001 A  
DOCKED: ENDBRANCH   2  18
DOCKED: TORSDOF 5
DOCKED: TER
DOCKED: ENDMDL
________________________________________________________________________________


    FINAL DOCKED STATE:
    ________________________


Run:   254 / 512
Time taken for this run:   0.002s

DOCKED: MODEL        254
DOCKED: USER    Run = 254
DOCKED: USER
DOCKED: USER    Estimated Free Energy of Binding    =  -3.52 kcal/mol  [=(1)+(2)+(3)-(4)]
DOCKED: USER
DOCKED: USER    (1) Final Intermolecular Energy     =  -5.01 kcal/mol
DOCKED: USER        vdW + Hbond + desolv Energy     =  -5.01 kcal/mol
DOCKED: USER        Electrostatic Energy            =  +0.00 kcal/mol
DOCKED: USER        Moving Ligand-Fixed Receptor    =  -5.01 kcal/mol
DOCKED: USER        Moving Ligand-Moving Receptor   =  +0.00 kcal/mol
DOCKED: USER    (2) Final Total Internal Energy     =  -1.25 kcal/mol
DOCKED: USER    (3) Torsional Free Energy           =  +1.49 kcal/mol
DOCKED: USER    (4) Unbound System's Energy         =  -1.25 kcal/mol
DOCKED: USER
DOCKED: USER
DOCKED: REMARK  5 active torsions:
DOCKED: REMARK  status: ('A' for Active; 'I' for Inactive)
DOCKED: REMARK    1  A    between atoms: C_2  and  C_19 
DOCKED: REMARK    2  A    between atoms: C_2  and  C_11 
DOCKED: REMARK    3  A    between atoms: C_19  and  C_20 
DOCKED: REMARK    4  A    between atoms: C_20  and  C_21 
DOCKED: REMARK    5  A    between atoms: C_21  and  N_22 
DOCKED: USER                              x       y       z     vdW  Elec       q    Type
DOCKED: USER                           _______ _______ _______ _____ _____    ______ ____
DOCKED: ROOT
DOCKED: ATOM      1  O   UNL     1     -40.058 -22.201  11.007 -0.01 -0.00    -0.346 OA 
DOCKED: ATOM      2  C   UNL     1     -39.059 -22.557   9.999 -0.09 +0.00    +0.130 C  
DOCKED: ATOM      3  C   UNL     1     -39.855 -23.259   8.936 -0.19 +0.00    +0.004 A  
DOCKED: ATOM      4  C   UNL     1     -41.205 -23.211   9.256 -0.13 +0.00    +0.006 A  
DOCKED: ATOM      5  C   UNL     1     -41.395 -22.474  10.525 -0.04 +0.00    +0.169 C  
DOCKED: ATOM      6  C   UNL     1     -39.421 -23.880   7.775 -0.13 -0.00    -0.001 A  
DOCKED: ATOM      7  C   UNL     1     -42.161 -23.781   8.433 -0.17 +0.00    +0.008 A  
DOCKED: ATOM      8  C   UNL     1     -40.372 -24.464   6.937 -0.33 +0.00    +0.010 A  
DOCKED: ATOM      9  C   UNL     1     -41.736 -24.415   7.264 -0.26 +0.00    +0.068 A  
DOCKED: ATOM     10  N   UNL     1     -43.476 -25.505   5.685 -2.00 -0.00    -0.191 NA 
DOCKED: ATOM     11  C   UNL     1     -42.695 -25.016   6.394 -0.21 +0.00    +0.101 C  
DOCKED: ENDROOT
DOCKED: BRANCH   2  12
DOCKED: ATOM     12  C   UNL     1     -38.401 -21.277   9.498 -0.08 +0.00    +0.038 C  
DOCKED: BRANCH  12  13
DOCKED: ATOM     13  C   UNL     1     -39.299 -20.539   8.508 -0.10 +0.00    +0.038 C  
DOCKED: BRANCH  13  14
DOCKED: ATOM     14  C   UNL     1     -38.624 -20.409   7.144 -0.07 +0.00    +0.251 C  
DOCKED: BRANCH  14  15
DOCKED: ATOM     15  N   UNL     1     -39.591 -19.990   6.137 -0.17 +0.00    +0.141 N  
DOCKED: ATOM     16  C   UNL     1     -40.886 -19.701   6.754 -0.13 +0.00    +0.285 C  
DOCKED: ATOM     17  C   UNL     1     -39.102 -18.816   5.410 -0.07 +0.00    +0.285 C  
DOCKED: ENDBRANCH  14  15
DOCKED: ENDBRANCH  13  14
DOCKED: ENDBRANCH  12  13
DOCKED: ENDBRANCH   2  12
DOCKED: BRANCH   2  18
DOCKED: ATOM     18  C   UNL     1     -38.066 -23.449  10.665 -0.09 +0.00    +0.006 A  
DOCKED: ATOM     19  C   UNL     1     -38.453 -24.237  11.748 -0.12 +0.00    +0.001 A  
DOCKED: ATOM     20  C   UNL     1     -37.522 -25.071  12.370 -0.15 +0.00    +0.029 A  
DOCKED: ATOM     21  C   UNL     1     -36.208 -25.115  11.909 -0.14 +0.00    +0.140 A  
DOCKED: ATOM     22  C   UNL     1     -35.821 -24.327  10.825 -0.13 +0.00    +0.029 A  
DOCKED: ATOM     23  F   UNL     1     -35.315 -25.916  12.505 -0.07 -0.00    -0.204 F  
DOCKED: ATOM     24  C   UNL     1     -36.751 -23.492  10.202 -0.12 +0.00    +0.001 A  
DOCKED: ENDBRANCH   2  18
DOCKED: TORSDOF 5
DOCKED: TER
DOCKED: ENDMDL
________________________________________________________________________________


    FINAL DOCKED STATE:
    ________________________


Run:   255 / 512
Time taken for this run:   0.002s

DOCKED: MODEL        255
DOCKED: USER    Run = 255
DOCKED: USER
DOCKED: USER    Estimated Free Energy of Binding    =  -3.75 kcal/mol  [=(1)+(2)+(3)-(4)]
DOCKED: USER
DOCKED: USER    (1) Final Intermolecular Energy     =  -5.24 kcal/mol
DOCKED: USER        vdW + Hbond + desolv Energy     =  -5.24 kcal/mol
DOCKED: USER        Electrostatic Energy            =  +0.00 kcal/mol
DOCKED: USER        Moving Ligand-Fixed Receptor    =  -5.24 kcal/mol
DOCKED: USER        Moving Ligand-Moving Receptor   =  +0.00 kcal/mol
DOCKED: USER    (2) Final Total Internal Energy     =  -1.26 kcal/mol
DOCKED: USER    (3) Torsional Free Energy           =  +1.49 kcal/mol
DOCKED: USER    (4) Unbound System's Energy         =  -1.26 kcal/mol
DOCKED: USER
DOCKED: USER
DOCKED: REMARK  5 active torsions:
DOCKED: REMARK  status: ('A' for Active; 'I' for Inactive)
DOCKED: REMARK    1  A    between atoms: C_2  and  C_19 
DOCKED: REMARK    2  A    between atoms: C_2  and  C_11 
DOCKED: REMARK    3  A    between atoms: C_19  and  C_20 
DOCKED: REMARK    4  A    between atoms: C_20  and  C_21 
DOCKED: REMARK    5  A    between atoms: C_21  and  N_22 
DOCKED: USER                              x       y       z     vdW  Elec       q    Type
DOCKED: USER                           _______ _______ _______ _____ _____    ______ ____
DOCKED: ROOT
DOCKED: ATOM      1  O   UNL     1     -40.486 -21.167   9.916 -0.01 -0.00    -0.346 OA 
DOCKED: ATOM      2  C   UNL     1     -39.427 -21.954   9.283 -0.10 +0.00    +0.130 C  
DOCKED: ATOM      3  C   UNL     1     -40.170 -22.898   8.382 -0.20 +0.00    +0.004 A  
DOCKED: ATOM      4  C   UNL     1     -41.525 -22.602   8.412 -0.13 +0.00    +0.006 A  
DOCKED: ATOM      5  C   UNL     1     -41.769 -21.452   9.312 -0.04 +0.00    +0.169 C  
DOCKED: ATOM      6  C   UNL     1     -39.684 -23.928   7.590 -0.22 -0.00    -0.001 A  
DOCKED: ATOM      7  C   UNL     1     -42.437 -23.324   7.661 -0.18 +0.00    +0.008 A  
DOCKED: ATOM      8  C   UNL     1     -40.591 -24.667   6.829 -0.38 +0.00    +0.010 A  
DOCKED: ATOM      9  C   UNL     1     -41.961 -24.366   6.865 -0.27 +0.00    +0.068 A  
DOCKED: ATOM     10  N   UNL     1     -43.617 -25.756   5.437 -2.33 -0.00    -0.191 NA 
DOCKED: ATOM     11  C   UNL     1     -42.874 -25.133   6.078 -0.17 +0.00    +0.101 C  
DOCKED: ENDROOT
DOCKED: BRANCH   2  12
DOCKED: ATOM     12  C   UNL     1     -38.509 -21.005   8.521 -0.12 +0.00    +0.038 C  
DOCKED: BRANCH  12  13
DOCKED: ATOM     13  C   UNL     1     -39.116 -20.602   7.179 -0.15 +0.00    +0.038 C  
DOCKED: BRANCH  13  14
DOCKED: ATOM     14  C   UNL     1     -39.410 -19.103   7.137 -0.09 +0.00    +0.251 C  
DOCKED: BRANCH  14  15
DOCKED: ATOM     15  N   UNL     1     -40.758 -18.865   6.635 -0.12 +0.00    +0.141 N  
DOCKED: ATOM     16  C   UNL     1     -41.477 -20.129   6.466 -0.12 +0.00    +0.285 C  
DOCKED: ATOM     17  C   UNL     1     -41.495 -17.979   7.538 -0.06 +0.00    +0.285 C  
DOCKED: ENDBRANCH  14  15
DOCKED: ENDBRANCH  13  14
DOCKED: ENDBRANCH  12  13
DOCKED: ENDBRANCH   2  12
DOCKED: BRANCH   2  18
DOCKED: ATOM     18  C   UNL     1     -38.690 -22.653  10.376 -0.09 +0.00    +0.006 A  
DOCKED: ATOM     19  C   UNL     1     -39.351 -23.584  11.177 -0.11 +0.00    +0.001 A  
DOCKED: ATOM     20  C   UNL     1     -38.661 -24.237  12.199 -0.12 +0.00    +0.029 A  
DOCKED: ATOM     21  C   UNL     1     -37.313 -23.959  12.419 -0.07 +0.00    +0.140 A  
DOCKED: ATOM     22  C   UNL     1     -36.653 -23.027  11.618 -0.06 +0.00    +0.029 A  
DOCKED: ATOM     23  F   UNL     1     -36.650 -24.586  13.399 -0.01 -0.00    -0.204 F  
DOCKED: ATOM     24  C   UNL     1     -37.342 -22.374  10.595 -0.07 +0.00    +0.001 A  
DOCKED: ENDBRANCH   2  18
DOCKED: TORSDOF 5
DOCKED: TER
DOCKED: ENDMDL
________________________________________________________________________________


    FINAL DOCKED STATE:
    ________________________


Run:   256 / 512
Time taken for this run:   0.002s

DOCKED: MODEL        256
DOCKED: USER    Run = 256
DOCKED: USER
DOCKED: USER    Estimated Free Energy of Binding    =  -3.95 kcal/mol  [=(1)+(2)+(3)-(4)]
DOCKED: USER
DOCKED: USER    (1) Final Intermolecular Energy     =  -5.44 kcal/mol
DOCKED: USER        vdW + Hbond + desolv Energy     =  -5.44 kcal/mol
DOCKED: USER        Electrostatic Energy            =  +0.00 kcal/mol
DOCKED: USER        Moving Ligand-Fixed Receptor    =  -5.44 kcal/mol
DOCKED: USER        Moving Ligand-Moving Receptor   =  +0.00 kcal/mol
DOCKED: USER    (2) Final Total Internal Energy     =  -1.47 kcal/mol
DOCKED: USER    (3) Torsional Free Energy           =  +1.49 kcal/mol
DOCKED: USER    (4) Unbound System's Energy         =  -1.47 kcal/mol
DOCKED: USER
DOCKED: USER
DOCKED: REMARK  5 active torsions:
DOCKED: REMARK  status: ('A' for Active; 'I' for Inactive)
DOCKED: REMARK    1  A    between atoms: C_2  and  C_19 
DOCKED: REMARK    2  A    between atoms: C_2  and  C_11 
DOCKED: REMARK    3  A    between atoms: C_19  and  C_20 
DOCKED: REMARK    4  A    between atoms: C_20  and  C_21 
DOCKED: REMARK    5  A    between atoms: C_21  and  N_22 
DOCKED: USER                              x       y       z     vdW  Elec       q    Type
DOCKED: USER                           _______ _______ _______ _____ _____    ______ ____
DOCKED: ROOT
DOCKED: ATOM      1  O   UNL     1     -33.086 -20.955   0.335 +0.01 -0.00    -0.346 OA 
DOCKED: ATOM      2  C   UNL     1     -34.543 -20.830   0.303 -0.08 +0.00    +0.130 C  
DOCKED: ATOM      3  C   UNL     1     -35.024 -22.039   1.053 -0.15 +0.00    +0.004 A  
DOCKED: ATOM      4  C   UNL     1     -33.937 -22.734   1.564 -0.09 +0.00    +0.006 A  
DOCKED: ATOM      5  C   UNL     1     -32.681 -22.038   1.205 -0.02 +0.00    +0.169 C  
DOCKED: ATOM      6  C   UNL     1     -36.320 -22.482   1.275 -0.28 -0.00    -0.001 A  
DOCKED: ATOM      7  C   UNL     1     -34.106 -23.890   2.306 -0.16 +0.00    +0.008 A  
DOCKED: ATOM      8  C   UNL     1     -36.506 -23.649   2.018 -0.27 +0.00    +0.010 A  
DOCKED: ATOM      9  C   UNL     1     -35.404 -24.349   2.531 -0.30 +0.00    +0.068 A  
DOCKED: ATOM     10  N   UNL     1     -35.786 -26.509   3.910 -2.58 -0.00    -0.191 NA 
DOCKED: ATOM     11  C   UNL     1     -35.615 -25.541   3.291 -0.35 +0.00    +0.101 C  
DOCKED: ENDROOT
DOCKED: BRANCH   2  12
DOCKED: ATOM     12  C   UNL     1     -34.931 -19.520   0.978 -0.05 +0.00    +0.038 C  
DOCKED: BRANCH  12  13
DOCKED: ATOM     13  C   UNL     1     -33.733 -18.580   1.098 -0.01 +0.00    +0.038 C  
DOCKED: BRANCH  13  14
DOCKED: ATOM     14  C   UNL     1     -33.559 -17.747  -0.170 -0.00 +0.00    +0.251 C  
DOCKED: BRANCH  14  15
DOCKED: ATOM     15  N   UNL     1     -32.321 -18.109  -0.849 -0.00 +0.00    +0.141 N  
DOCKED: ATOM     16  C   UNL     1     -32.353 -17.677  -2.247 -0.00 +0.00    +0.285 C  
DOCKED: ATOM     17  C   UNL     1     -31.167 -17.524  -0.163 +0.00 +0.00    +0.285 C  
DOCKED: ENDBRANCH  14  15
DOCKED: ENDBRANCH  13  14
DOCKED: ENDBRANCH  12  13
DOCKED: ENDBRANCH   2  12
DOCKED: BRANCH   2  18
DOCKED: ATOM     18  C   UNL     1     -34.950 -20.837  -1.133 -0.13 +0.00    +0.006 A  
DOCKED: ATOM     19  C   UNL     1     -34.210 -21.565  -2.063 -0.12 +0.00    +0.001 A  
DOCKED: ATOM     20  C   UNL     1     -34.591 -21.570  -3.406 -0.16 +0.00    +0.029 A  
DOCKED: ATOM     21  C   UNL     1     -35.712 -20.849  -3.815 -0.20 +0.00    +0.140 A  
DOCKED: ATOM     22  C   UNL     1     -36.453 -20.122  -2.883 -0.21 +0.00    +0.029 A  
DOCKED: ATOM     23  F   UNL     1     -36.079 -20.855  -5.103 -0.09 -0.00    -0.204 F  
DOCKED: ATOM     24  C   UNL     1     -36.072 -20.115  -1.540 -0.19 +0.00    +0.001 A  
DOCKED: ENDBRANCH   2  18
DOCKED: TORSDOF 5
DOCKED: TER
DOCKED: ENDMDL
________________________________________________________________________________


    FINAL DOCKED STATE:
    ________________________


Run:   257 / 512
Time taken for this run:   0.002s

DOCKED: MODEL        257
DOCKED: USER    Run = 257
DOCKED: USER
DOCKED: USER    Estimated Free Energy of Binding    =  -5.88 kcal/mol  [=(1)+(2)+(3)-(4)]
DOCKED: USER
DOCKED: USER    (1) Final Intermolecular Energy     =  -7.37 kcal/mol
DOCKED: USER        vdW + Hbond + desolv Energy     =  -7.37 kcal/mol
DOCKED: USER        Electrostatic Energy            =  +0.00 kcal/mol
DOCKED: USER        Moving Ligand-Fixed Receptor    =  -7.37 kcal/mol
DOCKED: USER        Moving Ligand-Moving Receptor   =  +0.00 kcal/mol
DOCKED: USER    (2) Final Total Internal Energy     =  -1.30 kcal/mol
DOCKED: USER    (3) Torsional Free Energy           =  +1.49 kcal/mol
DOCKED: USER    (4) Unbound System's Energy         =  -1.30 kcal/mol
DOCKED: USER
DOCKED: USER
DOCKED: REMARK  5 active torsions:
DOCKED: REMARK  status: ('A' for Active; 'I' for Inactive)
DOCKED: REMARK    1  A    between atoms: C_2  and  C_19 
DOCKED: REMARK    2  A    between atoms: C_2  and  C_11 
DOCKED: REMARK    3  A    between atoms: C_19  and  C_20 
DOCKED: REMARK    4  A    between atoms: C_20  and  C_21 
DOCKED: REMARK    5  A    between atoms: C_21  and  N_22 
DOCKED: USER                              x       y       z     vdW  Elec       q    Type
DOCKED: USER                           _______ _______ _______ _____ _____    ______ ____
DOCKED: ROOT
DOCKED: ATOM      1  O   UNL     1     -40.929 -22.062   7.928 -0.06 -0.00    -0.346 OA 
DOCKED: ATOM      2  C   UNL     1     -40.673 -23.501   7.857 -0.24 +0.00    +0.130 C  
DOCKED: ATOM      3  C   UNL     1     -41.232 -23.899   6.521 -0.35 +0.00    +0.004 A  
DOCKED: ATOM      4  C   UNL     1     -41.669 -22.771   5.842 -0.33 +0.00    +0.006 A  
DOCKED: ATOM      5  C   UNL     1     -41.421 -21.564   6.662 -0.23 +0.00    +0.169 C  
DOCKED: ATOM      6  C   UNL     1     -41.336 -25.159   5.949 -0.38 -0.00    -0.001 A  
DOCKED: ATOM      7  C   UNL     1     -42.225 -22.861   4.578 -0.03 +0.00    +0.008 A  
DOCKED: ATOM      8  C   UNL     1     -41.898 -25.267   4.676 -0.45 +0.00    +0.010 A  
DOCKED: ATOM      9  C   UNL     1     -42.340 -24.123   3.994 -0.40 +0.00    +0.068 A  
DOCKED: ATOM     10  N   UNL     1     -43.374 -24.358   1.630 -3.07 -0.00    -0.191 NA 
DOCKED: ATOM     11  C   UNL     1     -42.911 -24.253   2.690 -0.44 +0.00    +0.101 C  
DOCKED: ENDROOT
DOCKED: BRANCH   2  12
DOCKED: ATOM     12  C   UNL     1     -39.170 -23.730   7.963 -0.15 +0.00    +0.038 C  
DOCKED: BRANCH  12  13
DOCKED: ATOM     13  C   UNL     1     -38.434 -22.439   8.316 -0.18 +0.00    +0.038 C  
DOCKED: BRANCH  13  14
DOCKED: ATOM     14  C   UNL     1     -37.709 -22.569   9.655 -0.09 +0.00    +0.251 C  
DOCKED: BRANCH  14  15
DOCKED: ATOM     15  N   UNL     1     -38.530 -22.026  10.730 -0.04 +0.00    +0.141 N  
DOCKED: ATOM     16  C   UNL     1     -37.790 -22.024  11.993 -0.01 +0.00    +0.285 C  
DOCKED: ATOM     17  C   UNL     1     -38.978 -20.671  10.403 -0.01 +0.00    +0.285 C  
DOCKED: ENDBRANCH  14  15
DOCKED: ENDBRANCH  13  14
DOCKED: ENDBRANCH  12  13
DOCKED: ENDBRANCH   2  12
DOCKED: BRANCH   2  18
DOCKED: ATOM     18  C   UNL     1     -41.396 -24.130   9.001 -0.20 +0.00    +0.006 A  
DOCKED: ATOM     19  C   UNL     1     -40.803 -24.167  10.263 -0.17 +0.00    +0.001 A  
DOCKED: ATOM     20  C   UNL     1     -41.480 -24.756  11.332 -0.17 +0.00    +0.029 A  
DOCKED: ATOM     21  C   UNL     1     -42.746 -25.305  11.138 -0.03 +0.00    +0.140 A  
DOCKED: ATOM     22  C   UNL     1     -43.338 -25.267   9.876 -0.08 +0.00    +0.029 A  
DOCKED: ATOM     23  F   UNL     1     -43.396 -25.868  12.165 -0.03 -0.00    -0.204 F  
DOCKED: ATOM     24  C   UNL     1     -42.662 -24.679   8.805 -0.22 +0.00    +0.001 A  
DOCKED: ENDBRANCH   2  18
DOCKED: TORSDOF 5
DOCKED: TER
DOCKED: ENDMDL
________________________________________________________________________________


    FINAL DOCKED STATE:
    ________________________


Run:   258 / 512
Time taken for this run:   0.002s

DOCKED: MODEL        258
DOCKED: USER    Run = 258
DOCKED: USER
DOCKED: USER    Estimated Free Energy of Binding    =  -3.99 kcal/mol  [=(1)+(2)+(3)-(4)]
DOCKED: USER
DOCKED: USER    (1) Final Intermolecular Energy     =  -5.48 kcal/mol
DOCKED: USER        vdW + Hbond + desolv Energy     =  -5.48 kcal/mol
DOCKED: USER        Electrostatic Energy            =  +0.00 kcal/mol
DOCKED: USER        Moving Ligand-Fixed Receptor    =  -5.48 kcal/mol
DOCKED: USER        Moving Ligand-Moving Receptor   =  +0.00 kcal/mol
DOCKED: USER    (2) Final Total Internal Energy     =  -1.50 kcal/mol
DOCKED: USER    (3) Torsional Free Energy           =  +1.49 kcal/mol
DOCKED: USER    (4) Unbound System's Energy         =  -1.50 kcal/mol
DOCKED: USER
DOCKED: USER
DOCKED: REMARK  5 active torsions:
DOCKED: REMARK  status: ('A' for Active; 'I' for Inactive)
DOCKED: REMARK    1  A    between atoms: C_2  and  C_19 
DOCKED: REMARK    2  A    between atoms: C_2  and  C_11 
DOCKED: REMARK    3  A    between atoms: C_19  and  C_20 
DOCKED: REMARK    4  A    between atoms: C_20  and  C_21 
DOCKED: REMARK    5  A    between atoms: C_21  and  N_22 
DOCKED: USER                              x       y       z     vdW  Elec       q    Type
DOCKED: USER                           _______ _______ _______ _____ _____    ______ ____
DOCKED: ROOT
DOCKED: ATOM      1  O   UNL     1     -37.705 -15.779   0.517 -0.06 -0.00    -0.346 OA 
DOCKED: ATOM      2  C   UNL     1     -36.614 -15.406  -0.384 -0.11 +0.00    +0.130 C  
DOCKED: ATOM      3  C   UNL     1     -37.314 -14.777  -1.554 -0.20 +0.00    +0.004 A  
DOCKED: ATOM      4  C   UNL     1     -38.675 -14.696  -1.296 -0.26 +0.00    +0.006 A  
DOCKED: ATOM      5  C   UNL     1     -38.965 -15.246   0.047 -0.24 +0.00    +0.169 C  
DOCKED: ATOM      6  C   UNL     1     -36.786 -14.303  -2.746 -0.16 -0.00    -0.001 A  
DOCKED: ATOM      7  C   UNL     1     -39.551 -14.147  -2.216 -0.35 +0.00    +0.008 A  
DOCKED: ATOM      8  C   UNL     1     -37.658 -13.750  -3.686 -0.26 +0.00    +0.010 A  
DOCKED: ATOM      9  C   UNL     1     -39.034 -13.672  -3.422 -0.28 +0.00    +0.068 A  
DOCKED: ATOM     10  N   UNL     1     -40.623 -12.636  -5.186 -2.56 -0.00    -0.191 NA 
DOCKED: ATOM     11  C   UNL     1     -39.910 -13.101  -4.395 -0.31 +0.00    +0.101 C  
DOCKED: ENDROOT
DOCKED: BRANCH   2  12
DOCKED: ATOM     12  C   UNL     1     -35.693 -14.437   0.348 -0.14 +0.00    +0.038 C  
DOCKED: BRANCH  12  13
DOCKED: ATOM     13  C   UNL     1     -36.144 -14.223   1.791 -0.02 +0.00    +0.038 C  
DOCKED: BRANCH  13  14
DOCKED: ATOM     14  C   UNL     1     -35.324 -15.078   2.755 -0.06 +0.00    +0.251 C  
DOCKED: BRANCH  14  15
DOCKED: ATOM     15  N   UNL     1     -36.193 -15.989   3.490 -0.03 +0.00    +0.141 N  
DOCKED: ATOM     16  C   UNL     1     -37.517 -15.395   3.683 -0.07 +0.00    +0.285 C  
DOCKED: ATOM     17  C   UNL     1     -36.308 -17.269   2.791 -0.02 +0.00    +0.285 C  
DOCKED: ENDBRANCH  14  15
DOCKED: ENDBRANCH  13  14
DOCKED: ENDBRANCH  12  13
DOCKED: ENDBRANCH   2  12
DOCKED: BRANCH   2  18
DOCKED: ATOM     18  C   UNL     1     -35.896 -16.664  -0.744 -0.05 +0.00    +0.006 A  
DOCKED: ATOM     19  C   UNL     1     -36.475 -17.566  -1.635 -0.13 +0.00    +0.001 A  
DOCKED: ATOM     20  C   UNL     1     -35.803 -18.742  -1.970 -0.12 +0.00    +0.029 A  
DOCKED: ATOM     21  C   UNL     1     -34.553 -19.013  -1.415 -0.03 +0.00    +0.140 A  
DOCKED: ATOM     22  C   UNL     1     -33.974 -18.110  -0.525 -0.01 +0.00    +0.029 A  
DOCKED: ATOM     23  F   UNL     1     -33.907 -20.141  -1.739 -0.01 -0.00    -0.204 F  
DOCKED: ATOM     24  C   UNL     1     -34.646 -16.933  -0.188 -0.01 +0.00    +0.001 A  
DOCKED: ENDBRANCH   2  18
DOCKED: TORSDOF 5
DOCKED: TER
DOCKED: ENDMDL
________________________________________________________________________________


    FINAL DOCKED STATE:
    ________________________


Run:   259 / 512
Time taken for this run:   0.002s

DOCKED: MODEL        259
DOCKED: USER    Run = 259
DOCKED: USER
DOCKED: USER    Estimated Free Energy of Binding    =  -4.09 kcal/mol  [=(1)+(2)+(3)-(4)]
DOCKED: USER
DOCKED: USER    (1) Final Intermolecular Energy     =  -5.59 kcal/mol
DOCKED: USER        vdW + Hbond + desolv Energy     =  -5.59 kcal/mol
DOCKED: USER        Electrostatic Energy            =  +0.00 kcal/mol
DOCKED: USER        Moving Ligand-Fixed Receptor    =  -5.59 kcal/mol
DOCKED: USER        Moving Ligand-Moving Receptor   =  +0.00 kcal/mol
DOCKED: USER    (2) Final Total Internal Energy     =  -1.50 kcal/mol
DOCKED: USER    (3) Torsional Free Energy           =  +1.49 kcal/mol
DOCKED: USER    (4) Unbound System's Energy         =  -1.50 kcal/mol
DOCKED: USER
DOCKED: USER
DOCKED: REMARK  5 active torsions:
DOCKED: REMARK  status: ('A' for Active; 'I' for Inactive)
DOCKED: REMARK    1  A    between atoms: C_2  and  C_19 
DOCKED: REMARK    2  A    between atoms: C_2  and  C_11 
DOCKED: REMARK    3  A    between atoms: C_19  and  C_20 
DOCKED: REMARK    4  A    between atoms: C_20  and  C_21 
DOCKED: REMARK    5  A    between atoms: C_21  and  N_22 
DOCKED: USER                              x       y       z     vdW  Elec       q    Type
DOCKED: USER                           _______ _______ _______ _____ _____    ______ ____
DOCKED: ROOT
DOCKED: ATOM      1  O   UNL     1     -43.900 -19.418   7.587 -0.07 -0.00    -0.346 OA 
DOCKED: ATOM      2  C   UNL     1     -42.478 -19.592   7.286 -0.17 +0.00    +0.130 C  
DOCKED: ATOM      3  C   UNL     1     -42.376 -21.024   6.847 -0.23 +0.00    +0.004 A  
DOCKED: ATOM      4  C   UNL     1     -43.644 -21.588   6.794 -0.21 +0.00    +0.006 A  
DOCKED: ATOM      5  C   UNL     1     -44.658 -20.580   7.176 -0.18 +0.00    +0.169 C  
DOCKED: ATOM      6  C   UNL     1     -41.254 -21.766   6.509 -0.29 -0.00    -0.001 A  
DOCKED: ATOM      7  C   UNL     1     -43.831 -22.904   6.409 -0.24 +0.00    +0.008 A  
DOCKED: ATOM      8  C   UNL     1     -41.426 -23.096   6.123 -0.34 +0.00    +0.010 A  
DOCKED: ATOM      9  C   UNL     1     -42.709 -23.662   6.073 -0.28 +0.00    +0.068 A  
DOCKED: ATOM     10  N   UNL     1     -42.994 -26.133   5.347 -2.60 -0.00    -0.191 NA 
DOCKED: ATOM     11  C   UNL     1     -42.866 -25.025   5.673 -0.37 +0.00    +0.101 C  
DOCKED: ENDROOT
DOCKED: BRANCH   2  12
DOCKED: ATOM     12  C   UNL     1     -42.092 -18.606   6.190 -0.12 +0.00    +0.038 C  
DOCKED: BRANCH  12  13
DOCKED: ATOM     13  C   UNL     1     -43.131 -17.495   6.049 -0.19 +0.00    +0.038 C  
DOCKED: BRANCH  13  14
DOCKED: ATOM     14  C   UNL     1     -43.027 -16.497   7.200 -0.05 +0.00    +0.251 C  
DOCKED: BRANCH  14  15
DOCKED: ATOM     15  N   UNL     1     -44.353 -16.031   7.590 -0.03 +0.00    +0.141 N  
DOCKED: ATOM     16  C   UNL     1     -45.345 -16.393   6.576 -0.07 +0.00    +0.285 C  
DOCKED: ATOM     17  C   UNL     1     -44.732 -16.585   8.891 -0.00 +0.00    +0.285 C  
DOCKED: ENDBRANCH  14  15
DOCKED: ENDBRANCH  13  14
DOCKED: ENDBRANCH  12  13
DOCKED: ENDBRANCH   2  12
DOCKED: BRANCH   2  18
DOCKED: ATOM     18  C   UNL     1     -41.729 -19.317   8.547 -0.06 +0.00    +0.006 A  
DOCKED: ATOM     19  C   UNL     1     -42.182 -19.842   9.756 -0.02 +0.00    +0.001 A  
DOCKED: ATOM     20  C   UNL     1     -41.481 -19.583  10.934 -0.00 +0.00    +0.029 A  
DOCKED: ATOM     21  C   UNL     1     -40.328 -18.801  10.902 -0.00 +0.00    +0.140 A  
DOCKED: ATOM     22  C   UNL     1     -39.874 -18.276   9.692 -0.01 +0.00    +0.029 A  
DOCKED: ATOM     23  F   UNL     1     -39.653 -18.554  12.032 -0.00 -0.00    -0.204 F  
DOCKED: ATOM     24  C   UNL     1     -40.575 -18.534   8.513 -0.04 +0.00    +0.001 A  
DOCKED: ENDBRANCH   2  18
DOCKED: TORSDOF 5
DOCKED: TER
DOCKED: ENDMDL
________________________________________________________________________________


    FINAL DOCKED STATE:
    ________________________


Run:   260 / 512
Time taken for this run:   0.002s

DOCKED: MODEL        260
DOCKED: USER    Run = 260
DOCKED: USER
DOCKED: USER    Estimated Free Energy of Binding    =  -4.23 kcal/mol  [=(1)+(2)+(3)-(4)]
DOCKED: USER
DOCKED: USER    (1) Final Intermolecular Energy     =  -5.72 kcal/mol
DOCKED: USER        vdW + Hbond + desolv Energy     =  -5.72 kcal/mol
DOCKED: USER        Electrostatic Energy            =  +0.00 kcal/mol
DOCKED: USER        Moving Ligand-Fixed Receptor    =  -5.72 kcal/mol
DOCKED: USER        Moving Ligand-Moving Receptor   =  +0.00 kcal/mol
DOCKED: USER    (2) Final Total Internal Energy     =  -1.43 kcal/mol
DOCKED: USER    (3) Torsional Free Energy           =  +1.49 kcal/mol
DOCKED: USER    (4) Unbound System's Energy         =  -1.43 kcal/mol
DOCKED: USER
DOCKED: USER
DOCKED: REMARK  5 active torsions:
DOCKED: REMARK  status: ('A' for Active; 'I' for Inactive)
DOCKED: REMARK    1  A    between atoms: C_2  and  C_19 
DOCKED: REMARK    2  A    between atoms: C_2  and  C_11 
DOCKED: REMARK    3  A    between atoms: C_19  and  C_20 
DOCKED: REMARK    4  A    between atoms: C_20  and  C_21 
DOCKED: REMARK    5  A    between atoms: C_21  and  N_22 
DOCKED: USER                              x       y       z     vdW  Elec       q    Type
DOCKED: USER                           _______ _______ _______ _____ _____    ______ ____
DOCKED: ROOT
DOCKED: ATOM      1  O   UNL     1     -33.058 -20.940   0.364 +0.01 -0.00    -0.346 OA 
DOCKED: ATOM      2  C   UNL     1     -34.487 -20.687   0.550 -0.06 +0.00    +0.130 C  
DOCKED: ATOM      3  C   UNL     1     -34.978 -21.910   1.269 -0.14 +0.00    +0.004 A  
DOCKED: ATOM      4  C   UNL     1     -33.906 -22.739   1.567 -0.09 +0.00    +0.006 A  
DOCKED: ATOM      5  C   UNL     1     -32.648 -22.126   1.084 -0.02 +0.00    +0.169 C  
DOCKED: ATOM      6  C   UNL     1     -36.269 -22.256   1.640 -0.31 -0.00    -0.001 A  
DOCKED: ATOM      7  C   UNL     1     -34.085 -23.937   2.237 -0.16 +0.00    +0.008 A  
DOCKED: ATOM      8  C   UNL     1     -36.467 -23.463   2.313 -0.25 +0.00    +0.010 A  
DOCKED: ATOM      9  C   UNL     1     -35.381 -24.298   2.611 -0.30 +0.00    +0.068 A  
DOCKED: ATOM     10  N   UNL     1     -35.782 -26.529   3.866 -2.55 -0.00    -0.191 NA 
DOCKED: ATOM     11  C   UNL     1     -35.602 -25.529   3.302 -0.34 +0.00    +0.101 C  
DOCKED: ENDROOT
DOCKED: BRANCH   2  12
DOCKED: ATOM     12  C   UNL     1     -34.649 -19.412   1.369 -0.04 +0.00    +0.038 C  
DOCKED: BRANCH  12  13
DOCKED: ATOM     13  C   UNL     1     -33.766 -19.435   2.615 -0.02 +0.00    +0.038 C  
DOCKED: BRANCH  13  14
DOCKED: ATOM     14  C   UNL     1     -34.584 -19.145   3.873 -0.02 +0.00    +0.251 C  
DOCKED: BRANCH  14  15
DOCKED: ATOM     15  N   UNL     1     -35.523 -20.230   4.128 -0.09 +0.00    +0.141 N  
DOCKED: ATOM     16  C   UNL     1     -35.208 -20.899   5.391 -0.07 +0.00    +0.285 C  
DOCKED: ATOM     17  C   UNL     1     -36.898 -19.727   4.150 -0.09 +0.00    +0.285 C  
DOCKED: ENDBRANCH  14  15
DOCKED: ENDBRANCH  13  14
DOCKED: ENDBRANCH  12  13
DOCKED: ENDBRANCH   2  12
DOCKED: BRANCH   2  18
DOCKED: ATOM     18  C   UNL     1     -35.083 -20.533  -0.810 -0.13 +0.00    +0.006 A  
DOCKED: ATOM     19  C   UNL     1     -34.650 -21.346  -1.856 -0.14 +0.00    +0.001 A  
DOCKED: ATOM     20  C   UNL     1     -35.208 -21.200  -3.127 -0.18 +0.00    +0.029 A  
DOCKED: ATOM     21  C   UNL     1     -36.198 -20.244  -3.349 -0.21 +0.00    +0.140 A  
DOCKED: ATOM     22  C   UNL     1     -36.631 -19.432  -2.301 -0.21 +0.00    +0.029 A  
DOCKED: ATOM     23  F   UNL     1     -36.735 -20.106  -4.568 -0.13 -0.00    -0.204 F  
DOCKED: ATOM     24  C   UNL     1     -36.073 -19.576  -1.030 -0.17 +0.00    +0.001 A  
DOCKED: ENDBRANCH   2  18
DOCKED: TORSDOF 5
DOCKED: TER
DOCKED: ENDMDL
________________________________________________________________________________


    FINAL DOCKED STATE:
    ________________________


Run:   261 / 512
Time taken for this run:   0.002s

DOCKED: MODEL        261
DOCKED: USER    Run = 261
DOCKED: USER
DOCKED: USER    Estimated Free Energy of Binding    =  -4.26 kcal/mol  [=(1)+(2)+(3)-(4)]
DOCKED: USER
DOCKED: USER    (1) Final Intermolecular Energy     =  -5.76 kcal/mol
DOCKED: USER        vdW + Hbond + desolv Energy     =  -5.76 kcal/mol
DOCKED: USER        Electrostatic Energy            =  +0.00 kcal/mol
DOCKED: USER        Moving Ligand-Fixed Receptor    =  -5.76 kcal/mol
DOCKED: USER        Moving Ligand-Moving Receptor   =  +0.00 kcal/mol
DOCKED: USER    (2) Final Total Internal Energy     =  -1.29 kcal/mol
DOCKED: USER    (3) Torsional Free Energy           =  +1.49 kcal/mol
DOCKED: USER    (4) Unbound System's Energy         =  -1.29 kcal/mol
DOCKED: USER
DOCKED: USER
DOCKED: REMARK  5 active torsions:
DOCKED: REMARK  status: ('A' for Active; 'I' for Inactive)
DOCKED: REMARK    1  A    between atoms: C_2  and  C_19 
DOCKED: REMARK    2  A    between atoms: C_2  and  C_11 
DOCKED: REMARK    3  A    between atoms: C_19  and  C_20 
DOCKED: REMARK    4  A    between atoms: C_20  and  C_21 
DOCKED: REMARK    5  A    between atoms: C_21  and  N_22 
DOCKED: USER                              x       y       z     vdW  Elec       q    Type
DOCKED: USER                           _______ _______ _______ _____ _____    ______ ____
DOCKED: ROOT
DOCKED: ATOM      1  O   UNL     1     -42.814 -24.352   8.568 -0.07 -0.00    -0.346 OA 
DOCKED: ATOM      2  C   UNL     1     -42.430 -23.104   7.908 -0.14 +0.00    +0.130 C  
DOCKED: ATOM      3  C   UNL     1     -42.578 -23.409   6.445 -0.29 +0.00    +0.004 A  
DOCKED: ATOM      4  C   UNL     1     -43.106 -24.682   6.286 -0.31 +0.00    +0.006 A  
DOCKED: ATOM      5  C   UNL     1     -43.353 -25.294   7.611 -0.11 +0.00    +0.169 C  
DOCKED: ATOM      6  C   UNL     1     -42.280 -22.619   5.345 -0.24 -0.00    -0.001 A  
DOCKED: ATOM      7  C   UNL     1     -43.350 -25.209   5.029 -0.41 +0.00    +0.008 A  
DOCKED: ATOM      8  C   UNL     1     -42.516 -23.138   4.070 -0.06 +0.00    +0.010 A  
DOCKED: ATOM      9  C   UNL     1     -43.048 -24.426   3.914 -0.42 +0.00    +0.068 A  
DOCKED: ATOM     10  N   UNL     1     -43.478 -25.356   1.534 -2.29 -0.00    -0.191 NA 
DOCKED: ATOM     11  C   UNL     1     -43.285 -24.939   2.601 -0.33 +0.00    +0.101 C  
DOCKED: ENDROOT
DOCKED: BRANCH   2  12
DOCKED: ATOM     12  C   UNL     1     -43.367 -21.999   8.381 -0.11 +0.00    +0.038 C  
DOCKED: BRANCH  12  13
DOCKED: ATOM     13  C   UNL     1     -44.445 -22.546   9.315 -0.08 +0.00    +0.038 C  
DOCKED: BRANCH  13  14
DOCKED: ATOM     14  C   UNL     1     -44.651 -21.625  10.516 -0.00 +0.00    +0.251 C  
DOCKED: BRANCH  14  15
DOCKED: ATOM     15  N   UNL     1     -43.367 -21.150  11.017 -0.01 +0.00    +0.141 N  
DOCKED: ATOM     16  C   UNL     1     -43.495 -19.799  11.565 -0.00 +0.00    +0.285 C  
DOCKED: ATOM     17  C   UNL     1     -42.841 -22.062  12.034 -0.00 +0.00    +0.285 C  
DOCKED: ENDBRANCH  14  15
DOCKED: ENDBRANCH  13  14
DOCKED: ENDBRANCH  12  13
DOCKED: ENDBRANCH   2  12
DOCKED: BRANCH   2  18
DOCKED: ATOM     18  C   UNL     1     -41.019 -22.818   8.302 -0.17 +0.00    +0.006 A  
DOCKED: ATOM     19  C   UNL     1     -40.711 -21.644   8.988 -0.09 +0.00    +0.001 A  
DOCKED: ATOM     20  C   UNL     1     -39.391 -21.378   9.356 -0.07 +0.00    +0.029 A  
DOCKED: ATOM     21  C   UNL     1     -38.383 -22.286   9.038 -0.11 +0.00    +0.140 A  
DOCKED: ATOM     22  C   UNL     1     -38.691 -23.461   8.352 -0.14 +0.00    +0.029 A  
DOCKED: ATOM     23  F   UNL     1     -37.116 -22.032   9.392 -0.02 -0.00    -0.204 F  
DOCKED: ATOM     24  C   UNL     1     -40.011 -23.727   7.983 -0.27 +0.00    +0.001 A  
DOCKED: ENDBRANCH   2  18
DOCKED: TORSDOF 5
DOCKED: TER
DOCKED: ENDMDL
________________________________________________________________________________


    FINAL DOCKED STATE:
    ________________________


Run:   262 / 512
Time taken for this run:   0.002s

DOCKED: MODEL        262
DOCKED: USER    Run = 262
DOCKED: USER
DOCKED: USER    Estimated Free Energy of Binding    =  -3.41 kcal/mol  [=(1)+(2)+(3)-(4)]
DOCKED: USER
DOCKED: USER    (1) Final Intermolecular Energy     =  -4.90 kcal/mol
DOCKED: USER        vdW + Hbond + desolv Energy     =  -4.90 kcal/mol
DOCKED: USER        Electrostatic Energy            =  +0.00 kcal/mol
DOCKED: USER        Moving Ligand-Fixed Receptor    =  -4.90 kcal/mol
DOCKED: USER        Moving Ligand-Moving Receptor   =  +0.00 kcal/mol
DOCKED: USER    (2) Final Total Internal Energy     =  -1.44 kcal/mol
DOCKED: USER    (3) Torsional Free Energy           =  +1.49 kcal/mol
DOCKED: USER    (4) Unbound System's Energy         =  -1.44 kcal/mol
DOCKED: USER
DOCKED: USER
DOCKED: REMARK  5 active torsions:
DOCKED: REMARK  status: ('A' for Active; 'I' for Inactive)
DOCKED: REMARK    1  A    between atoms: C_2  and  C_19 
DOCKED: REMARK    2  A    between atoms: C_2  and  C_11 
DOCKED: REMARK    3  A    between atoms: C_19  and  C_20 
DOCKED: REMARK    4  A    between atoms: C_20  and  C_21 
DOCKED: REMARK    5  A    between atoms: C_21  and  N_22 
DOCKED: USER                              x       y       z     vdW  Elec       q    Type
DOCKED: USER                           _______ _______ _______ _____ _____    ______ ____
DOCKED: ROOT
DOCKED: ATOM      1  O   UNL     1     -35.060 -24.030 -10.849 -0.75 -0.00    -0.346 OA 
DOCKED: ATOM      2  C   UNL     1     -34.909 -24.766  -9.593 -0.09 +0.00    +0.130 C  
DOCKED: ATOM      3  C   UNL     1     -36.283 -25.310  -9.328 -0.14 +0.00    +0.004 A  
DOCKED: ATOM      4  C   UNL     1     -37.119 -25.007 -10.393 -0.17 +0.00    +0.006 A  
DOCKED: ATOM      5  C   UNL     1     -36.365 -24.263 -11.428 +0.11 +0.00    +0.169 C  
DOCKED: ATOM      6  C   UNL     1     -36.752 -26.027  -8.237 -0.12 -0.00    -0.001 A  
DOCKED: ATOM      7  C   UNL     1     -38.446 -25.402 -10.404 -0.21 +0.00    +0.008 A  
DOCKED: ATOM      8  C   UNL     1     -38.089 -26.429  -8.230 -0.18 +0.00    +0.010 A  
DOCKED: ATOM      9  C   UNL     1     -38.931 -26.118  -9.308 -0.22 +0.00    +0.068 A  
DOCKED: ATOM     10  N   UNL     1     -41.406 -26.883  -9.266 -2.44 -0.00    -0.191 NA 
DOCKED: ATOM     11  C   UNL     1     -40.296 -26.539  -9.285 -0.30 +0.00    +0.101 C  
DOCKED: ENDROOT
DOCKED: BRANCH   2  12
DOCKED: ATOM     12  C   UNL     1     -33.867 -25.859  -9.797 -0.08 +0.00    +0.038 C  
DOCKED: BRANCH  12  13
DOCKED: ATOM     13  C   UNL     1     -33.051 -25.622 -11.066 -0.05 +0.00    +0.038 C  
DOCKED: BRANCH  13  14
DOCKED: ATOM     14  C   UNL     1     -31.563 -25.492 -10.747 -0.01 +0.00    +0.251 C  
DOCKED: BRANCH  14  15
DOCKED: ATOM     15  N   UNL     1     -31.345 -24.436  -9.765 -0.01 +0.00    +0.141 N  
DOCKED: ATOM     16  C   UNL     1     -30.374 -24.862  -8.756 +0.00 +0.00    +0.285 C  
DOCKED: ATOM     17  C   UNL     1     -30.891 -23.208 -10.420 +0.01 +0.00    +0.285 C  
DOCKED: ENDBRANCH  14  15
DOCKED: ENDBRANCH  13  14
DOCKED: ENDBRANCH  12  13
DOCKED: ENDBRANCH   2  12
DOCKED: BRANCH   2  18
DOCKED: ATOM     18  C   UNL     1     -34.464 -23.783  -8.562 -0.07 +0.00    +0.006 A  
DOCKED: ATOM     19  C   UNL     1     -33.866 -24.231  -7.385 -0.06 +0.00    +0.001 A  
DOCKED: ATOM     20  C   UNL     1     -33.451 -23.311  -6.421 -0.06 +0.00    +0.029 A  
DOCKED: ATOM     21  C   UNL     1     -33.633 -21.946  -6.637 -0.02 +0.00    +0.140 A  
DOCKED: ATOM     22  C   UNL     1     -34.230 -21.499  -7.815 -0.05 +0.00    +0.029 A  
DOCKED: ATOM     23  F   UNL     1     -33.232 -21.063  -5.713 +0.01 -0.00    -0.204 F  
DOCKED: ATOM     24  C   UNL     1     -34.647 -22.418  -8.779 -0.02 +0.00    +0.001 A  
DOCKED: ENDBRANCH   2  18
DOCKED: TORSDOF 5
DOCKED: TER
DOCKED: ENDMDL
________________________________________________________________________________


    FINAL DOCKED STATE:
    ________________________


Run:   263 / 512
Time taken for this run:   0.002s

DOCKED: MODEL        263
DOCKED: USER    Run = 263
DOCKED: USER
DOCKED: USER    Estimated Free Energy of Binding    =  -4.25 kcal/mol  [=(1)+(2)+(3)-(4)]
DOCKED: USER
DOCKED: USER    (1) Final Intermolecular Energy     =  -5.74 kcal/mol
DOCKED: USER        vdW + Hbond + desolv Energy     =  -5.74 kcal/mol
DOCKED: USER        Electrostatic Energy            =  +0.00 kcal/mol
DOCKED: USER        Moving Ligand-Fixed Receptor    =  -5.74 kcal/mol
DOCKED: USER        Moving Ligand-Moving Receptor   =  +0.00 kcal/mol
DOCKED: USER    (2) Final Total Internal Energy     =  -1.15 kcal/mol
DOCKED: USER    (3) Torsional Free Energy           =  +1.49 kcal/mol
DOCKED: USER    (4) Unbound System's Energy         =  -1.15 kcal/mol
DOCKED: USER
DOCKED: USER
DOCKED: REMARK  5 active torsions:
DOCKED: REMARK  status: ('A' for Active; 'I' for Inactive)
DOCKED: REMARK    1  A    between atoms: C_2  and  C_19 
DOCKED: REMARK    2  A    between atoms: C_2  and  C_11 
DOCKED: REMARK    3  A    between atoms: C_19  and  C_20 
DOCKED: REMARK    4  A    between atoms: C_20  and  C_21 
DOCKED: REMARK    5  A    between atoms: C_21  and  N_22 
DOCKED: USER                              x       y       z     vdW  Elec       q    Type
DOCKED: USER                           _______ _______ _______ _____ _____    ______ ____
DOCKED: ROOT
DOCKED: ATOM      1  O   UNL     1     -38.627 -21.520   8.502 -0.07 -0.00    -0.346 OA 
DOCKED: ATOM      2  C   UNL     1     -39.595 -20.739   7.731 -0.14 +0.00    +0.130 C  
DOCKED: ATOM      3  C   UNL     1     -40.466 -21.779   7.088 -0.22 +0.00    +0.004 A  
DOCKED: ATOM      4  C   UNL     1     -40.098 -23.039   7.538 -0.23 +0.00    +0.006 A  
DOCKED: ATOM      5  C   UNL     1     -38.984 -22.922   8.506 -0.17 +0.00    +0.169 C  
DOCKED: ATOM      6  C   UNL     1     -41.507 -21.622   6.185 -0.27 -0.00    -0.001 A  
DOCKED: ATOM      7  C   UNL     1     -40.751 -24.179   7.102 -0.34 +0.00    +0.008 A  
DOCKED: ATOM      8  C   UNL     1     -42.173 -22.762   5.732 -0.34 +0.00    +0.010 A  
DOCKED: ATOM      9  C   UNL     1     -41.797 -24.034   6.189 -0.32 +0.00    +0.068 A  
DOCKED: ATOM     10  N   UNL     1     -43.057 -26.130   5.332 -2.58 -0.00    -0.191 NA 
DOCKED: ATOM     11  C   UNL     1     -42.491 -25.190   5.716 -0.28 +0.00    +0.101 C  
DOCKED: ENDROOT
DOCKED: BRANCH   2  12
DOCKED: ATOM     12  C   UNL     1     -40.360 -19.836   8.691 -0.06 +0.00    +0.038 C  
DOCKED: BRANCH  12  13
DOCKED: ATOM     13  C   UNL     1     -39.622 -19.683  10.020 -0.02 +0.00    +0.038 C  
DOCKED: BRANCH  13  14
DOCKED: ATOM     14  C   UNL     1     -38.401 -18.777   9.869 -0.01 +0.00    +0.251 C  
DOCKED: BRANCH  14  15
DOCKED: ATOM     15  N   UNL     1     -38.275 -17.899  11.026 -0.00 +0.00    +0.141 N  
DOCKED: ATOM     16  C   UNL     1     -38.776 -16.559  10.714 +0.00 +0.00    +0.285 C  
DOCKED: ATOM     17  C   UNL     1     -38.992 -18.454  12.175 +0.00 +0.00    +0.285 C  
DOCKED: ENDBRANCH  14  15
DOCKED: ENDBRANCH  13  14
DOCKED: ENDBRANCH  12  13
DOCKED: ENDBRANCH   2  12
DOCKED: BRANCH   2  18
DOCKED: ATOM     18  C   UNL     1     -38.819 -19.937   6.741 -0.14 +0.00    +0.006 A  
DOCKED: ATOM     19  C   UNL     1     -37.440 -20.110   6.631 -0.09 +0.00    +0.001 A  
DOCKED: ATOM     20  C   UNL     1     -36.715 -19.359   5.705 -0.10 +0.00    +0.029 A  
DOCKED: ATOM     21  C   UNL     1     -37.370 -18.437   4.890 -0.08 +0.00    +0.140 A  
DOCKED: ATOM     22  C   UNL     1     -38.750 -18.264   4.999 -0.12 +0.00    +0.029 A  
DOCKED: ATOM     23  F   UNL     1     -36.675 -17.718   3.999 -0.00 -0.00    -0.204 F  
DOCKED: ATOM     24  C   UNL     1     -39.475 -19.015   5.926 -0.14 +0.00    +0.001 A  
DOCKED: ENDBRANCH   2  18
DOCKED: TORSDOF 5
DOCKED: TER
DOCKED: ENDMDL
________________________________________________________________________________


    FINAL DOCKED STATE:
    ________________________


Run:   264 / 512
Time taken for this run:   0.002s

DOCKED: MODEL        264
DOCKED: USER    Run = 264
DOCKED: USER
DOCKED: USER    Estimated Free Energy of Binding    =  -3.97 kcal/mol  [=(1)+(2)+(3)-(4)]
DOCKED: USER
DOCKED: USER    (1) Final Intermolecular Energy     =  -5.46 kcal/mol
DOCKED: USER        vdW + Hbond + desolv Energy     =  -5.46 kcal/mol
DOCKED: USER        Electrostatic Energy            =  +0.00 kcal/mol
DOCKED: USER        Moving Ligand-Fixed Receptor    =  -5.46 kcal/mol
DOCKED: USER        Moving Ligand-Moving Receptor   =  +0.00 kcal/mol
DOCKED: USER    (2) Final Total Internal Energy     =  -1.47 kcal/mol
DOCKED: USER    (3) Torsional Free Energy           =  +1.49 kcal/mol
DOCKED: USER    (4) Unbound System's Energy         =  -1.47 kcal/mol
DOCKED: USER
DOCKED: USER
DOCKED: REMARK  5 active torsions:
DOCKED: REMARK  status: ('A' for Active; 'I' for Inactive)
DOCKED: REMARK    1  A    between atoms: C_2  and  C_19 
DOCKED: REMARK    2  A    between atoms: C_2  and  C_11 
DOCKED: REMARK    3  A    between atoms: C_19  and  C_20 
DOCKED: REMARK    4  A    between atoms: C_20  and  C_21 
DOCKED: REMARK    5  A    between atoms: C_21  and  N_22 
DOCKED: USER                              x       y       z     vdW  Elec       q    Type
DOCKED: USER                           _______ _______ _______ _____ _____    ______ ____
DOCKED: ROOT
DOCKED: ATOM      1  O   UNL     1     -32.687 -22.905  -1.437 +0.00 -0.00    -0.346 OA 
DOCKED: ATOM      2  C   UNL     1     -33.498 -21.953  -0.677 -0.07 +0.00    +0.130 C  
DOCKED: ATOM      3  C   UNL     1     -34.125 -22.793   0.398 -0.11 +0.00    +0.004 A  
DOCKED: ATOM      4  C   UNL     1     -33.631 -24.088   0.327 -0.11 +0.00    +0.006 A  
DOCKED: ATOM      5  C   UNL     1     -32.648 -24.190  -0.775 -0.05 +0.00    +0.169 C  
DOCKED: ATOM      6  C   UNL     1     -35.051 -22.437   1.368 -0.18 -0.00    -0.001 A  
DOCKED: ATOM      7  C   UNL     1     -34.045 -25.067   1.214 -0.20 +0.00    +0.008 A  
DOCKED: ATOM      8  C   UNL     1     -35.481 -23.415   2.267 -0.29 +0.00    +0.010 A  
DOCKED: ATOM      9  C   UNL     1     -34.980 -24.723   2.190 -0.28 +0.00    +0.068 A  
DOCKED: ATOM     10  N   UNL     1     -35.796 -26.511   3.878 -2.56 -0.00    -0.191 NA 
DOCKED: ATOM     11  C   UNL     1     -35.431 -25.709   3.121 -0.43 +0.00    +0.101 C  
DOCKED: ENDROOT
DOCKED: BRANCH   2  12
DOCKED: ATOM     12  C   UNL     1     -32.579 -20.871  -0.123 -0.01 +0.00    +0.038 C  
DOCKED: BRANCH  12  13
DOCKED: ATOM     13  C   UNL     1     -31.297 -21.469   0.453 -0.01 +0.00    +0.038 C  
DOCKED: BRANCH  13  14
DOCKED: ATOM     14  C   UNL     1     -31.413 -21.666   1.963 -0.00 +0.00    +0.251 C  
DOCKED: BRANCH  14  15
DOCKED: ATOM     15  N   UNL     1     -31.459 -23.086   2.288 -0.02 +0.00    +0.141 N  
DOCKED: ATOM     16  C   UNL     1     -30.153 -23.709   2.068 -0.00 +0.00    +0.285 C  
DOCKED: ATOM     17  C   UNL     1     -31.889 -23.285   3.673 -0.01 +0.00    +0.285 C  
DOCKED: ENDBRANCH  14  15
DOCKED: ENDBRANCH  13  14
DOCKED: ENDBRANCH  12  13
DOCKED: ENDBRANCH   2  12
DOCKED: BRANCH   2  18
DOCKED: ATOM     18  C   UNL     1     -34.498 -21.378  -1.623 -0.12 +0.00    +0.006 A  
DOCKED: ATOM     19  C   UNL     1     -35.299 -20.308  -1.225 -0.14 +0.00    +0.001 A  
DOCKED: ATOM     20  C   UNL     1     -36.234 -19.771  -2.111 -0.20 +0.00    +0.029 A  
DOCKED: ATOM     21  C   UNL     1     -36.366 -20.304  -3.393 -0.19 +0.00    +0.140 A  
DOCKED: ATOM     22  C   UNL     1     -35.564 -21.374  -3.790 -0.18 +0.00    +0.029 A  
DOCKED: ATOM     23  F   UNL     1     -37.262 -19.787  -4.243 -0.15 -0.00    -0.204 F  
DOCKED: ATOM     24  C   UNL     1     -34.629 -21.912  -2.904 -0.15 +0.00    +0.001 A  
DOCKED: ENDBRANCH   2  18
DOCKED: TORSDOF 5
DOCKED: TER
DOCKED: ENDMDL
________________________________________________________________________________


    FINAL DOCKED STATE:
    ________________________


Run:   265 / 512
Time taken for this run:   0.002s

DOCKED: MODEL        265
DOCKED: USER    Run = 265
DOCKED: USER
DOCKED: USER    Estimated Free Energy of Binding    =  -4.85 kcal/mol  [=(1)+(2)+(3)-(4)]
DOCKED: USER
DOCKED: USER    (1) Final Intermolecular Energy     =  -6.34 kcal/mol
DOCKED: USER        vdW + Hbond + desolv Energy     =  -6.34 kcal/mol
DOCKED: USER        Electrostatic Energy            =  +0.00 kcal/mol
DOCKED: USER        Moving Ligand-Fixed Receptor    =  -6.34 kcal/mol
DOCKED: USER        Moving Ligand-Moving Receptor   =  +0.00 kcal/mol
DOCKED: USER    (2) Final Total Internal Energy     =  -1.41 kcal/mol
DOCKED: USER    (3) Torsional Free Energy           =  +1.49 kcal/mol
DOCKED: USER    (4) Unbound System's Energy         =  -1.41 kcal/mol
DOCKED: USER
DOCKED: USER
DOCKED: REMARK  5 active torsions:
DOCKED: REMARK  status: ('A' for Active; 'I' for Inactive)
DOCKED: REMARK    1  A    between atoms: C_2  and  C_19 
DOCKED: REMARK    2  A    between atoms: C_2  and  C_11 
DOCKED: REMARK    3  A    between atoms: C_19  and  C_20 
DOCKED: REMARK    4  A    between atoms: C_20  and  C_21 
DOCKED: REMARK    5  A    between atoms: C_21  and  N_22 
DOCKED: USER                              x       y       z     vdW  Elec       q    Type
DOCKED: USER                           _______ _______ _______ _____ _____    ______ ____
DOCKED: ROOT
DOCKED: ATOM      1  O   UNL     1     -41.036 -24.454   8.756 -0.09 -0.00    -0.346 OA 
DOCKED: ATOM      2  C   UNL     1     -41.053 -23.096   8.213 -0.18 +0.00    +0.130 C  
DOCKED: ATOM      3  C   UNL     1     -41.515 -23.281   6.796 -0.31 +0.00    +0.004 A  
DOCKED: ATOM      4  C   UNL     1     -41.840 -24.613   6.581 -0.36 +0.00    +0.006 A  
DOCKED: ATOM      5  C   UNL     1     -41.631 -25.388   7.825 -0.05 +0.00    +0.169 C  
DOCKED: ATOM      6  C   UNL     1     -41.649 -22.343   5.782 -0.31 -0.00    -0.001 A  
DOCKED: ATOM      7  C   UNL     1     -42.302 -25.052   5.353 -0.45 +0.00    +0.008 A  
DOCKED: ATOM      8  C   UNL     1     -42.109 -22.772   4.536 +0.03 +0.00    +0.010 A  
DOCKED: ATOM      9  C   UNL     1     -42.435 -24.120   4.323 -0.41 +0.00    +0.068 A  
DOCKED: ATOM     10  N   UNL     1     -43.292 -24.881   1.999 -2.39 -0.00    -0.191 NA 
DOCKED: ATOM     11  C   UNL     1     -42.907 -24.540   3.041 -0.50 +0.00    +0.101 C  
DOCKED: ENDROOT
DOCKED: BRANCH   2  12
DOCKED: ATOM     12  C   UNL     1     -42.014 -22.255   9.045 -0.09 +0.00    +0.038 C  
DOCKED: BRANCH  12  13
DOCKED: ATOM     13  C   UNL     1     -43.421 -22.265   8.451 -0.11 +0.00    +0.038 C  
DOCKED: BRANCH  13  14
DOCKED: ATOM     14  C   UNL     1     -44.371 -23.106   9.301 -0.03 +0.00    +0.251 C  
DOCKED: BRANCH  14  15
DOCKED: ATOM     15  N   UNL     1     -44.560 -24.421   8.700 -0.11 +0.00    +0.141 N  
DOCKED: ATOM     16  C   UNL     1     -45.128 -25.356   9.672 -0.07 +0.00    +0.285 C  
DOCKED: ATOM     17  C   UNL     1     -45.421 -24.330   7.520 -0.08 +0.00    +0.285 C  
DOCKED: ENDBRANCH  14  15
DOCKED: ENDBRANCH  13  14
DOCKED: ENDBRANCH  12  13
DOCKED: ENDBRANCH   2  12
DOCKED: BRANCH   2  18
DOCKED: ATOM     18  C   UNL     1     -39.659 -22.571   8.306 -0.20 +0.00    +0.006 A  
DOCKED: ATOM     19  C   UNL     1     -39.435 -21.195   8.356 -0.13 +0.00    +0.001 A  
DOCKED: ATOM     20  C   UNL     1     -38.131 -20.706   8.443 -0.09 +0.00    +0.029 A  
DOCKED: ATOM     21  C   UNL     1     -37.055 -21.591   8.479 -0.09 +0.00    +0.140 A  
DOCKED: ATOM     22  C   UNL     1     -37.280 -22.966   8.429 -0.17 +0.00    +0.029 A  
DOCKED: ATOM     23  F   UNL     1     -35.803 -21.121   8.564 -0.01 -0.00    -0.204 F  
DOCKED: ATOM     24  C   UNL     1     -38.584 -23.457   8.342 -0.14 +0.00    +0.001 A  
DOCKED: ENDBRANCH   2  18
DOCKED: TORSDOF 5
DOCKED: TER
DOCKED: ENDMDL
________________________________________________________________________________


    FINAL DOCKED STATE:
    ________________________


Run:   266 / 512
Time taken for this run:   0.002s

DOCKED: MODEL        266
DOCKED: USER    Run = 266
DOCKED: USER
DOCKED: USER    Estimated Free Energy of Binding    =  -3.69 kcal/mol  [=(1)+(2)+(3)-(4)]
DOCKED: USER
DOCKED: USER    (1) Final Intermolecular Energy     =  -5.18 kcal/mol
DOCKED: USER        vdW + Hbond + desolv Energy     =  -5.18 kcal/mol
DOCKED: USER        Electrostatic Energy            =  +0.00 kcal/mol
DOCKED: USER        Moving Ligand-Fixed Receptor    =  -5.18 kcal/mol
DOCKED: USER        Moving Ligand-Moving Receptor   =  +0.00 kcal/mol
DOCKED: USER    (2) Final Total Internal Energy     =  -0.98 kcal/mol
DOCKED: USER    (3) Torsional Free Energy           =  +1.49 kcal/mol
DOCKED: USER    (4) Unbound System's Energy         =  -0.98 kcal/mol
DOCKED: USER
DOCKED: USER
DOCKED: REMARK  5 active torsions:
DOCKED: REMARK  status: ('A' for Active; 'I' for Inactive)
DOCKED: REMARK    1  A    between atoms: C_2  and  C_19 
DOCKED: REMARK    2  A    between atoms: C_2  and  C_11 
DOCKED: REMARK    3  A    between atoms: C_19  and  C_20 
DOCKED: REMARK    4  A    between atoms: C_20  and  C_21 
DOCKED: REMARK    5  A    between atoms: C_21  and  N_22 
DOCKED: USER                              x       y       z     vdW  Elec       q    Type
DOCKED: USER                           _______ _______ _______ _____ _____    ______ ____
DOCKED: ROOT
DOCKED: ATOM      1  O   UNL     1     -40.537 -19.335   6.821 -0.07 -0.00    -0.346 OA 
DOCKED: ATOM      2  C   UNL     1     -41.604 -19.589   7.790 -0.11 +0.00    +0.130 C  
DOCKED: ATOM      3  C   UNL     1     -42.131 -20.939   7.398 -0.19 +0.00    +0.004 A  
DOCKED: ATOM      4  C   UNL     1     -41.363 -21.459   6.367 -0.27 +0.00    +0.006 A  
DOCKED: ATOM      5  C   UNL     1     -40.281 -20.511   6.018 -0.04 +0.00    +0.169 C  
DOCKED: ATOM      6  C   UNL     1     -43.199 -21.654   7.920 -0.14 -0.00    -0.001 A  
DOCKED: ATOM      7  C   UNL     1     -41.635 -22.702   5.821 -0.32 +0.00    +0.008 A  
DOCKED: ATOM      8  C   UNL     1     -43.490 -22.907   7.378 -0.18 +0.00    +0.010 A  
DOCKED: ATOM      9  C   UNL     1     -42.711 -23.428   6.334 -0.25 +0.00    +0.068 A  
DOCKED: ATOM     10  N   UNL     1     -43.274 -25.760   5.354 -2.56 -0.00    -0.191 NA 
DOCKED: ATOM     11  C   UNL     1     -43.022 -24.714   5.793 -0.36 +0.00    +0.101 C  
DOCKED: ENDROOT
DOCKED: BRANCH   2  12
DOCKED: ATOM     12  C   UNL     1     -40.999 -19.572   9.189 -0.04 +0.00    +0.038 C  
DOCKED: BRANCH  12  13
DOCKED: ATOM     13  C   UNL     1     -39.474 -19.497   9.136 -0.04 +0.00    +0.038 C  
DOCKED: BRANCH  13  14
DOCKED: ATOM     14  C   UNL     1     -38.940 -18.453  10.114 -0.00 +0.00    +0.251 C  
DOCKED: BRANCH  14  15
DOCKED: ATOM     15  N   UNL     1     -37.565 -18.762  10.485 -0.00 +0.00    +0.141 N  
DOCKED: ATOM     16  C   UNL     1     -36.861 -17.551  10.911 -0.00 +0.00    +0.285 C  
DOCKED: ATOM     17  C   UNL     1     -37.531 -19.769  11.547 -0.00 +0.00    +0.285 C  
DOCKED: ENDBRANCH  14  15
DOCKED: ENDBRANCH  13  14
DOCKED: ENDBRANCH  12  13
DOCKED: ENDBRANCH   2  12
DOCKED: BRANCH   2  18
DOCKED: ATOM     18  C   UNL     1     -42.611 -18.500   7.626 -0.12 +0.00    +0.006 A  
DOCKED: ATOM     19  C   UNL     1     -43.581 -18.594   6.629 -0.22 +0.00    +0.001 A  
DOCKED: ATOM     20  C   UNL     1     -44.522 -17.575   6.476 -0.19 +0.00    +0.029 A  
DOCKED: ATOM     21  C   UNL     1     -44.493 -16.466   7.320 -0.05 +0.00    +0.140 A  
DOCKED: ATOM     22  C   UNL     1     -43.522 -16.373   8.318 -0.03 +0.00    +0.029 A  
DOCKED: ATOM     23  F   UNL     1     -45.397 -15.489   7.175 +0.01 -0.00    -0.204 F  
DOCKED: ATOM     24  C   UNL     1     -42.580 -17.392   8.471 -0.04 +0.00    +0.001 A  
DOCKED: ENDBRANCH   2  18
DOCKED: TORSDOF 5
DOCKED: TER
DOCKED: ENDMDL
________________________________________________________________________________


    FINAL DOCKED STATE:
    ________________________


Run:   267 / 512
Time taken for this run:   0.002s

DOCKED: MODEL        267
DOCKED: USER    Run = 267
DOCKED: USER
DOCKED: USER    Estimated Free Energy of Binding    =  -3.76 kcal/mol  [=(1)+(2)+(3)-(4)]
DOCKED: USER
DOCKED: USER    (1) Final Intermolecular Energy     =  -5.25 kcal/mol
DOCKED: USER        vdW + Hbond + desolv Energy     =  -5.25 kcal/mol
DOCKED: USER        Electrostatic Energy            =  +0.00 kcal/mol
DOCKED: USER        Moving Ligand-Fixed Receptor    =  -5.25 kcal/mol
DOCKED: USER        Moving Ligand-Moving Receptor   =  +0.00 kcal/mol
DOCKED: USER    (2) Final Total Internal Energy     =  -1.35 kcal/mol
DOCKED: USER    (3) Torsional Free Energy           =  +1.49 kcal/mol
DOCKED: USER    (4) Unbound System's Energy         =  -1.35 kcal/mol
DOCKED: USER
DOCKED: USER
DOCKED: REMARK  5 active torsions:
DOCKED: REMARK  status: ('A' for Active; 'I' for Inactive)
DOCKED: REMARK    1  A    between atoms: C_2  and  C_19 
DOCKED: REMARK    2  A    between atoms: C_2  and  C_11 
DOCKED: REMARK    3  A    between atoms: C_19  and  C_20 
DOCKED: REMARK    4  A    between atoms: C_20  and  C_21 
DOCKED: REMARK    5  A    between atoms: C_21  and  N_22 
DOCKED: USER                              x       y       z     vdW  Elec       q    Type
DOCKED: USER                           _______ _______ _______ _____ _____    ______ ____
DOCKED: ROOT
DOCKED: ATOM      1  O   UNL     1     -42.697 -19.512   8.157 -0.02 -0.00    -0.346 OA 
DOCKED: ATOM      2  C   UNL     1     -41.363 -19.922   7.718 -0.12 +0.00    +0.130 C  
DOCKED: ATOM      3  C   UNL     1     -41.575 -21.301   7.163 -0.22 +0.00    +0.004 A  
DOCKED: ATOM      4  C   UNL     1     -42.928 -21.609   7.181 -0.21 +0.00    +0.006 A  
DOCKED: ATOM      5  C   UNL     1     -43.695 -20.468   7.729 -0.14 +0.00    +0.169 C  
DOCKED: ATOM      6  C   UNL     1     -40.645 -22.206   6.671 -0.21 -0.00    -0.001 A  
DOCKED: ATOM      7  C   UNL     1     -43.396 -22.825   6.715 -0.23 +0.00    +0.008 A  
DOCKED: ATOM      8  C   UNL     1     -41.102 -23.439   6.201 -0.31 +0.00    +0.010 A  
DOCKED: ATOM      9  C   UNL     1     -42.470 -23.746   6.222 -0.28 +0.00    +0.068 A  
DOCKED: ATOM     10  N   UNL     1     -43.284 -26.042   5.338 -2.55 -0.00    -0.191 NA 
DOCKED: ATOM     11  C   UNL     1     -42.919 -25.012   5.735 -0.37 +0.00    +0.101 C  
DOCKED: ENDROOT
DOCKED: BRANCH   2  12
DOCKED: ATOM     12  C   UNL     1     -40.873 -18.929   6.671 -0.16 +0.00    +0.038 C  
DOCKED: BRANCH  12  13
DOCKED: ATOM     13  C   UNL     1     -42.028 -18.111   6.096 -0.16 +0.00    +0.038 C  
DOCKED: BRANCH  13  14
DOCKED: ATOM     14  C   UNL     1     -42.005 -16.680   6.629 -0.07 +0.00    +0.251 C  
DOCKED: BRANCH  14  15
DOCKED: ATOM     15  N   UNL     1     -43.025 -16.504   7.655 -0.03 +0.00    +0.141 N  
DOCKED: ATOM     16  C   UNL     1     -42.433 -16.593   8.991 -0.00 +0.00    +0.285 C  
DOCKED: ATOM     17  C   UNL     1     -43.710 -15.221   7.488 -0.01 +0.00    +0.285 C  
DOCKED: ENDBRANCH  14  15
DOCKED: ENDBRANCH  13  14
DOCKED: ENDBRANCH  12  13
DOCKED: ENDBRANCH   2  12
DOCKED: BRANCH   2  18
DOCKED: ATOM     18  C   UNL     1     -40.484 -19.910   8.924 -0.05 +0.00    +0.006 A  
DOCKED: ATOM     19  C   UNL     1     -41.008 -19.550  10.165 -0.01 +0.00    +0.001 A  
DOCKED: ATOM     20  C   UNL     1     -40.185 -19.539  11.292 -0.00 +0.00    +0.029 A  
DOCKED: ATOM     21  C   UNL     1     -38.840 -19.887  11.176 -0.00 +0.00    +0.140 A  
DOCKED: ATOM     22  C   UNL     1     -38.316 -20.247   9.935 -0.03 +0.00    +0.029 A  
DOCKED: ATOM     23  F   UNL     1     -38.051 -19.877  12.258 +0.00 -0.00    -0.204 F  
DOCKED: ATOM     24  C   UNL     1     -39.139 -20.258   8.807 -0.07 +0.00    +0.001 A  
DOCKED: ENDBRANCH   2  18
DOCKED: TORSDOF 5
DOCKED: TER
DOCKED: ENDMDL
________________________________________________________________________________


    FINAL DOCKED STATE:
    ________________________


Run:   268 / 512
Time taken for this run:   0.002s

DOCKED: MODEL        268
DOCKED: USER    Run = 268
DOCKED: USER
DOCKED: USER    Estimated Free Energy of Binding    =  -3.48 kcal/mol  [=(1)+(2)+(3)-(4)]
DOCKED: USER
DOCKED: USER    (1) Final Intermolecular Energy     =  -4.97 kcal/mol
DOCKED: USER        vdW + Hbond + desolv Energy     =  -4.97 kcal/mol
DOCKED: USER        Electrostatic Energy            =  +0.00 kcal/mol
DOCKED: USER        Moving Ligand-Fixed Receptor    =  -4.97 kcal/mol
DOCKED: USER        Moving Ligand-Moving Receptor   =  +0.00 kcal/mol
DOCKED: USER    (2) Final Total Internal Energy     =  -1.44 kcal/mol
DOCKED: USER    (3) Torsional Free Energy           =  +1.49 kcal/mol
DOCKED: USER    (4) Unbound System's Energy         =  -1.44 kcal/mol
DOCKED: USER
DOCKED: USER
DOCKED: REMARK  5 active torsions:
DOCKED: REMARK  status: ('A' for Active; 'I' for Inactive)
DOCKED: REMARK    1  A    between atoms: C_2  and  C_19 
DOCKED: REMARK    2  A    between atoms: C_2  and  C_11 
DOCKED: REMARK    3  A    between atoms: C_19  and  C_20 
DOCKED: REMARK    4  A    between atoms: C_20  and  C_21 
DOCKED: REMARK    5  A    between atoms: C_21  and  N_22 
DOCKED: USER                              x       y       z     vdW  Elec       q    Type
DOCKED: USER                           _______ _______ _______ _____ _____    ______ ____
DOCKED: ROOT
DOCKED: ATOM      1  O   UNL     1     -33.947 -11.043  -4.621 -0.03 -0.00    -0.346 OA 
DOCKED: ATOM      2  C   UNL     1     -34.325 -11.426  -3.260 -0.07 +0.00    +0.130 C  
DOCKED: ATOM      3  C   UNL     1     -35.774 -11.802  -3.382 -0.15 +0.00    +0.004 A  
DOCKED: ATOM      4  C   UNL     1     -36.161 -11.745  -4.713 -0.17 +0.00    +0.006 A  
DOCKED: ATOM      5  C   UNL     1     -35.010 -11.347  -5.554 -0.08 +0.00    +0.169 C  
DOCKED: ATOM      6  C   UNL     1     -36.674 -12.175  -2.394 -0.22 -0.00    -0.001 A  
DOCKED: ATOM      7  C   UNL     1     -37.454 -12.053  -5.101 -0.30 +0.00    +0.008 A  
DOCKED: ATOM      8  C   UNL     1     -37.982 -12.485  -2.769 -0.29 +0.00    +0.010 A  
DOCKED: ATOM      9  C   UNL     1     -38.370 -12.424  -4.116 -0.36 +0.00    +0.068 A  
DOCKED: ATOM     10  N   UNL     1     -40.805 -13.010  -4.779 -2.49 -0.00    -0.191 NA 
DOCKED: ATOM     11  C   UNL     1     -39.713 -12.747  -4.482 -0.37 +0.00    +0.101 C  
DOCKED: ENDROOT
DOCKED: BRANCH   2  12
DOCKED: ATOM     12  C   UNL     1     -33.444 -12.591  -2.825 -0.03 +0.00    +0.038 C  
DOCKED: BRANCH  12  13
DOCKED: ATOM     13  C   UNL     1     -32.401 -12.928  -3.888 -0.01 +0.00    +0.038 C  
DOCKED: BRANCH  13  14
DOCKED: ATOM     14  C   UNL     1     -31.092 -12.186  -3.628 +0.00 +0.00    +0.251 C  
DOCKED: BRANCH  14  15
DOCKED: ATOM     15  N   UNL     1     -31.115 -10.876  -4.268 -0.01 +0.00    +0.141 N  
DOCKED: ATOM     16  C   UNL     1     -30.058 -10.019  -3.729 +0.00 +0.00    +0.285 C  
DOCKED: ATOM     17  C   UNL     1     -30.971 -11.008  -5.719 +0.00 +0.00    +0.285 C  
DOCKED: ENDBRANCH  14  15
DOCKED: ENDBRANCH  13  14
DOCKED: ENDBRANCH  12  13
DOCKED: ENDBRANCH   2  12
DOCKED: BRANCH   2  18
DOCKED: ATOM     18  C   UNL     1     -34.105 -10.232  -2.394 -0.08 +0.00    +0.006 A  
DOCKED: ATOM     19  C   UNL     1     -33.365  -9.151  -2.872 -0.06 +0.00    +0.001 A  
DOCKED: ATOM     20  C   UNL     1     -33.160  -8.035  -2.060 -0.03 +0.00    +0.029 A  
DOCKED: ATOM     21  C   UNL     1     -33.694  -8.000  -0.773 -0.02 +0.00    +0.140 A  
DOCKED: ATOM     22  C   UNL     1     -34.435  -9.082  -0.296 -0.10 +0.00    +0.029 A  
DOCKED: ATOM     23  F   UNL     1     -33.498  -6.928   0.005 +0.00 -0.00    -0.204 F  
DOCKED: ATOM     24  C   UNL     1     -34.640 -10.199  -1.106 -0.13 +0.00    +0.001 A  
DOCKED: ENDBRANCH   2  18
DOCKED: TORSDOF 5
DOCKED: TER
DOCKED: ENDMDL
________________________________________________________________________________


    FINAL DOCKED STATE:
    ________________________


Run:   269 / 512
Time taken for this run:   0.002s

DOCKED: MODEL        269
DOCKED: USER    Run = 269
DOCKED: USER
DOCKED: USER    Estimated Free Energy of Binding    =  -3.10 kcal/mol  [=(1)+(2)+(3)-(4)]
DOCKED: USER
DOCKED: USER    (1) Final Intermolecular Energy     =  -4.59 kcal/mol
DOCKED: USER        vdW + Hbond + desolv Energy     =  -4.59 kcal/mol
DOCKED: USER        Electrostatic Energy            =  +0.00 kcal/mol
DOCKED: USER        Moving Ligand-Fixed Receptor    =  -4.59 kcal/mol
DOCKED: USER        Moving Ligand-Moving Receptor   =  +0.00 kcal/mol
DOCKED: USER    (2) Final Total Internal Energy     =  -1.10 kcal/mol
DOCKED: USER    (3) Torsional Free Energy           =  +1.49 kcal/mol
DOCKED: USER    (4) Unbound System's Energy         =  -1.10 kcal/mol
DOCKED: USER
DOCKED: USER
DOCKED: REMARK  5 active torsions:
DOCKED: REMARK  status: ('A' for Active; 'I' for Inactive)
DOCKED: REMARK    1  A    between atoms: C_2  and  C_19 
DOCKED: REMARK    2  A    between atoms: C_2  and  C_11 
DOCKED: REMARK    3  A    between atoms: C_19  and  C_20 
DOCKED: REMARK    4  A    between atoms: C_20  and  C_21 
DOCKED: REMARK    5  A    between atoms: C_21  and  N_22 
DOCKED: USER                              x       y       z     vdW  Elec       q    Type
DOCKED: USER                           _______ _______ _______ _____ _____    ______ ____
DOCKED: ROOT
DOCKED: ATOM      1  O   UNL     1     -34.182 -12.791  -1.725 -0.01 -0.00    -0.346 OA 
DOCKED: ATOM      2  C   UNL     1     -34.747 -14.139  -1.799 -0.04 +0.00    +0.130 C  
DOCKED: ATOM      3  C   UNL     1     -36.025 -13.951  -2.564 -0.11 +0.00    +0.004 A  
DOCKED: ATOM      4  C   UNL     1     -36.128 -12.633  -2.985 -0.15 +0.00    +0.006 A  
DOCKED: ATOM      5  C   UNL     1     -34.937 -11.871  -2.548 -0.08 +0.00    +0.169 C  
DOCKED: ATOM      6  C   UNL     1     -37.013 -14.876  -2.871 -0.18 -0.00    -0.001 A  
DOCKED: ATOM      7  C   UNL     1     -37.216 -12.194  -3.720 -0.26 +0.00    +0.008 A  
DOCKED: ATOM      8  C   UNL     1     -38.119 -14.448  -3.607 -0.11 +0.00    +0.010 A  
DOCKED: ATOM      9  C   UNL     1     -38.219 -13.114  -4.030 -0.32 +0.00    +0.068 A  
DOCKED: ATOM     10  N   UNL     1     -40.283 -12.354  -5.401 -2.50 -0.00    -0.191 NA 
DOCKED: ATOM     11  C   UNL     1     -39.358 -12.694  -4.785 -0.43 +0.00    +0.101 C  
DOCKED: ENDROOT
DOCKED: BRANCH   2  12
DOCKED: ATOM     12  C   UNL     1     -33.752 -15.041  -2.520 -0.01 +0.00    +0.038 C  
DOCKED: BRANCH  12  13
DOCKED: ATOM     13  C   UNL     1     -33.957 -14.999  -4.033 -0.02 +0.00    +0.038 C  
DOCKED: BRANCH  13  14
DOCKED: ATOM     14  C   UNL     1     -34.334 -16.377  -4.574 -0.02 +0.00    +0.251 C  
DOCKED: BRANCH  14  15
DOCKED: ATOM     15  N   UNL     1     -33.135 -17.134  -4.914 -0.00 +0.00    +0.141 N  
DOCKED: ATOM     16  C   UNL     1     -32.023 -16.232  -5.215 -0.00 +0.00    +0.285 C  
DOCKED: ATOM     17  C   UNL     1     -32.773 -18.042  -3.824 +0.00 +0.00    +0.285 C  
DOCKED: ENDBRANCH  14  15
DOCKED: ENDBRANCH  13  14
DOCKED: ENDBRANCH  12  13
DOCKED: ENDBRANCH   2  12
DOCKED: BRANCH   2  18
DOCKED: ATOM     18  C   UNL     1     -34.970 -14.596  -0.396 -0.08 +0.00    +0.006 A  
DOCKED: ATOM     19  C   UNL     1     -34.235 -15.667   0.112 -0.02 +0.00    +0.001 A  
DOCKED: ATOM     20  C   UNL     1     -34.445 -16.093   1.424 -0.02 +0.00    +0.029 A  
DOCKED: ATOM     21  C   UNL     1     -35.387 -15.450   2.225 -0.06 +0.00    +0.140 A  
DOCKED: ATOM     22  C   UNL     1     -36.121 -14.379   1.715 -0.07 +0.00    +0.029 A  
DOCKED: ATOM     23  F   UNL     1     -35.587 -15.859   3.485 -0.01 -0.00    -0.204 F  
DOCKED: ATOM     24  C   UNL     1     -35.913 -13.952   0.403 -0.11 +0.00    +0.001 A  
DOCKED: ENDBRANCH   2  18
DOCKED: TORSDOF 5
DOCKED: TER
DOCKED: ENDMDL
________________________________________________________________________________


    FINAL DOCKED STATE:
    ________________________


Run:   270 / 512
Time taken for this run:   0.002s

DOCKED: MODEL        270
DOCKED: USER    Run = 270
DOCKED: USER
DOCKED: USER    Estimated Free Energy of Binding    =  -4.40 kcal/mol  [=(1)+(2)+(3)-(4)]
DOCKED: USER
DOCKED: USER    (1) Final Intermolecular Energy     =  -5.90 kcal/mol
DOCKED: USER        vdW + Hbond + desolv Energy     =  -5.90 kcal/mol
DOCKED: USER        Electrostatic Energy            =  +0.00 kcal/mol
DOCKED: USER        Moving Ligand-Fixed Receptor    =  -5.90 kcal/mol
DOCKED: USER        Moving Ligand-Moving Receptor   =  +0.00 kcal/mol
DOCKED: USER    (2) Final Total Internal Energy     =  -1.29 kcal/mol
DOCKED: USER    (3) Torsional Free Energy           =  +1.49 kcal/mol
DOCKED: USER    (4) Unbound System's Energy         =  -1.29 kcal/mol
DOCKED: USER
DOCKED: USER
DOCKED: REMARK  5 active torsions:
DOCKED: REMARK  status: ('A' for Active; 'I' for Inactive)
DOCKED: REMARK    1  A    between atoms: C_2  and  C_19 
DOCKED: REMARK    2  A    between atoms: C_2  and  C_11 
DOCKED: REMARK    3  A    between atoms: C_19  and  C_20 
DOCKED: REMARK    4  A    between atoms: C_20  and  C_21 
DOCKED: REMARK    5  A    between atoms: C_21  and  N_22 
DOCKED: USER                              x       y       z     vdW  Elec       q    Type
DOCKED: USER                           _______ _______ _______ _____ _____    ______ ____
DOCKED: ROOT
DOCKED: ATOM      1  O   UNL     1     -41.796 -24.157   8.656 -0.06 -0.00    -0.346 OA 
DOCKED: ATOM      2  C   UNL     1     -41.562 -22.873   7.994 -0.16 +0.00    +0.130 C  
DOCKED: ATOM      3  C   UNL     1     -41.890 -23.145   6.555 -0.31 +0.00    +0.004 A  
DOCKED: ATOM      4  C   UNL     1     -42.376 -24.438   6.423 -0.33 +0.00    +0.006 A  
DOCKED: ATOM      5  C   UNL     1     -42.414 -25.098   7.747 -0.08 +0.00    +0.169 C  
DOCKED: ATOM      6  C   UNL     1     -41.779 -22.310   5.452 -0.22 -0.00    -0.001 A  
DOCKED: ATOM      7  C   UNL     1     -42.761 -24.941   5.192 -0.45 +0.00    +0.008 A  
DOCKED: ATOM      8  C   UNL     1     -42.159 -22.805   4.203 +0.26 +0.00    +0.010 A  
DOCKED: ATOM      9  C   UNL     1     -42.648 -24.113   4.074 -0.42 +0.00    +0.068 A  
DOCKED: ATOM     10  N   UNL     1     -43.349 -24.998   1.742 -2.54 -0.00    -0.191 NA 
DOCKED: ATOM     11  C   UNL     1     -43.034 -24.602   2.788 -0.40 +0.00    +0.101 C  
DOCKED: ENDROOT
DOCKED: BRANCH   2  12
DOCKED: ATOM     12  C   UNL     1     -42.477 -21.830   8.625 -0.10 +0.00    +0.038 C  
DOCKED: BRANCH  12  13
DOCKED: ATOM     13  C   UNL     1     -43.855 -22.413   8.933 -0.09 +0.00    +0.038 C  
DOCKED: BRANCH  13  14
DOCKED: ATOM     14  C   UNL     1     -44.266 -22.119  10.375 -0.01 +0.00    +0.251 C  
DOCKED: BRANCH  14  15
DOCKED: ATOM     15  N   UNL     1     -44.472 -23.363  11.107 -0.03 +0.00    +0.141 N  
DOCKED: ATOM     16  C   UNL     1     -44.839 -24.445  10.193 -0.05 +0.00    +0.285 C  
DOCKED: ATOM     17  C   UNL     1     -43.271 -23.721  11.863 -0.02 +0.00    +0.285 C  
DOCKED: ENDBRANCH  14  15
DOCKED: ENDBRANCH  13  14
DOCKED: ENDBRANCH  12  13
DOCKED: ENDBRANCH   2  12
DOCKED: BRANCH   2  18
DOCKED: ATOM     18  C   UNL     1     -40.126 -22.527   8.208 -0.19 +0.00    +0.006 A  
DOCKED: ATOM     19  C   UNL     1     -39.677 -21.230   7.963 -0.15 +0.00    +0.001 A  
DOCKED: ATOM     20  C   UNL     1     -38.334 -20.909   8.163 -0.11 +0.00    +0.029 A  
DOCKED: ATOM     21  C   UNL     1     -37.442 -21.884   8.607 -0.10 +0.00    +0.140 A  
DOCKED: ATOM     22  C   UNL     1     -37.892 -23.182   8.851 -0.15 +0.00    +0.029 A  
DOCKED: ATOM     23  F   UNL     1     -36.153 -21.575   8.800 -0.01 -0.00    -0.204 F  
DOCKED: ATOM     24  C   UNL     1     -39.235 -23.504   8.651 -0.17 +0.00    +0.001 A  
DOCKED: ENDBRANCH   2  18
DOCKED: TORSDOF 5
DOCKED: TER
DOCKED: ENDMDL
________________________________________________________________________________


    FINAL DOCKED STATE:
    ________________________


Run:   271 / 512
Time taken for this run:   0.002s

DOCKED: MODEL        271
DOCKED: USER    Run = 271
DOCKED: USER
DOCKED: USER    Estimated Free Energy of Binding    =  -4.28 kcal/mol  [=(1)+(2)+(3)-(4)]
DOCKED: USER
DOCKED: USER    (1) Final Intermolecular Energy     =  -5.77 kcal/mol
DOCKED: USER        vdW + Hbond + desolv Energy     =  -5.77 kcal/mol
DOCKED: USER        Electrostatic Energy            =  +0.00 kcal/mol
DOCKED: USER        Moving Ligand-Fixed Receptor    =  -5.77 kcal/mol
DOCKED: USER        Moving Ligand-Moving Receptor   =  +0.00 kcal/mol
DOCKED: USER    (2) Final Total Internal Energy     =  -1.40 kcal/mol
DOCKED: USER    (3) Torsional Free Energy           =  +1.49 kcal/mol
DOCKED: USER    (4) Unbound System's Energy         =  -1.40 kcal/mol
DOCKED: USER
DOCKED: USER
DOCKED: REMARK  5 active torsions:
DOCKED: REMARK  status: ('A' for Active; 'I' for Inactive)
DOCKED: REMARK    1  A    between atoms: C_2  and  C_19 
DOCKED: REMARK    2  A    between atoms: C_2  and  C_11 
DOCKED: REMARK    3  A    between atoms: C_19  and  C_20 
DOCKED: REMARK    4  A    between atoms: C_20  and  C_21 
DOCKED: REMARK    5  A    between atoms: C_21  and  N_22 
DOCKED: USER                              x       y       z     vdW  Elec       q    Type
DOCKED: USER                           _______ _______ _______ _____ _____    ______ ____
DOCKED: ROOT
DOCKED: ATOM      1  O   UNL     1     -41.099 -19.417   6.859 -0.08 -0.00    -0.346 OA 
DOCKED: ATOM      2  C   UNL     1     -42.319 -19.723   7.608 -0.14 +0.00    +0.130 C  
DOCKED: ATOM      3  C   UNL     1     -42.642 -21.133   7.208 -0.21 +0.00    +0.004 A  
DOCKED: ATOM      4  C   UNL     1     -41.636 -21.629   6.391 -0.28 +0.00    +0.006 A  
DOCKED: ATOM      5  C   UNL     1     -40.587 -20.601   6.205 -0.14 +0.00    +0.169 C  
DOCKED: ATOM      6  C   UNL     1     -43.733 -21.919   7.550 -0.17 -0.00    -0.001 A  
DOCKED: ATOM      7  C   UNL     1     -41.687 -22.917   5.886 -0.34 +0.00    +0.008 A  
DOCKED: ATOM      8  C   UNL     1     -43.801 -23.219   7.046 -0.20 +0.00    +0.010 A  
DOCKED: ATOM      9  C   UNL     1     -42.782 -23.715   6.218 -0.26 +0.00    +0.068 A  
DOCKED: ATOM     10  N   UNL     1     -42.937 -26.134   5.303 -2.59 -0.00    -0.191 NA 
DOCKED: ATOM     11  C   UNL     1     -42.868 -25.049   5.713 -0.36 +0.00    +0.101 C  
DOCKED: ENDROOT
DOCKED: BRANCH   2  12
DOCKED: ATOM     12  C   UNL     1     -42.021 -19.581   9.096 -0.04 +0.00    +0.038 C  
DOCKED: BRANCH  12  13
DOCKED: ATOM     13  C   UNL     1     -40.663 -18.922   9.331 -0.03 +0.00    +0.038 C  
DOCKED: BRANCH  13  14
DOCKED: ATOM     14  C   UNL     1     -40.792 -17.401   9.388 -0.00 +0.00    +0.251 C  
DOCKED: BRANCH  14  15
DOCKED: ATOM     15  N   UNL     1     -42.093 -17.023   9.928 -0.00 +0.00    +0.141 N  
DOCKED: ATOM     16  C   UNL     1     -42.002 -16.772  11.367 +0.00 +0.00    +0.285 C  
DOCKED: ATOM     17  C   UNL     1     -42.613 -15.841   9.238 -0.00 +0.00    +0.285 C  
DOCKED: ENDBRANCH  14  15
DOCKED: ENDBRANCH  13  14
DOCKED: ENDBRANCH  12  13
DOCKED: ENDBRANCH   2  12
DOCKED: BRANCH   2  18
DOCKED: ATOM     18  C   UNL     1     -43.356 -18.742   7.171 -0.19 +0.00    +0.006 A  
DOCKED: ATOM     19  C   UNL     1     -43.060 -17.813   6.175 -0.19 +0.00    +0.001 A  
DOCKED: ATOM     20  C   UNL     1     -44.031 -16.897   5.767 -0.15 +0.00    +0.029 A  
DOCKED: ATOM     21  C   UNL     1     -45.295 -16.912   6.355 -0.12 +0.00    +0.140 A  
DOCKED: ATOM     22  C   UNL     1     -45.590 -17.843   7.351 -0.14 +0.00    +0.029 A  
DOCKED: ATOM     23  F   UNL     1     -46.227 -16.034   5.963 -0.01 -0.00    -0.204 F  
DOCKED: ATOM     24  C   UNL     1     -44.620 -18.759   7.760 -0.14 +0.00    +0.001 A  
DOCKED: ENDBRANCH   2  18
DOCKED: TORSDOF 5
DOCKED: TER
DOCKED: ENDMDL
________________________________________________________________________________


    FINAL DOCKED STATE:
    ________________________


Run:   272 / 512
Time taken for this run:   0.002s

DOCKED: MODEL        272
DOCKED: USER    Run = 272
DOCKED: USER
DOCKED: USER    Estimated Free Energy of Binding    =  -4.93 kcal/mol  [=(1)+(2)+(3)-(4)]
DOCKED: USER
DOCKED: USER    (1) Final Intermolecular Energy     =  -6.43 kcal/mol
DOCKED: USER        vdW + Hbond + desolv Energy     =  -6.43 kcal/mol
DOCKED: USER        Electrostatic Energy            =  +0.00 kcal/mol
DOCKED: USER        Moving Ligand-Fixed Receptor    =  -6.43 kcal/mol
DOCKED: USER        Moving Ligand-Moving Receptor   =  +0.00 kcal/mol
DOCKED: USER    (2) Final Total Internal Energy     =  -1.00 kcal/mol
DOCKED: USER    (3) Torsional Free Energy           =  +1.49 kcal/mol
DOCKED: USER    (4) Unbound System's Energy         =  -1.00 kcal/mol
DOCKED: USER
DOCKED: USER
DOCKED: REMARK  5 active torsions:
DOCKED: REMARK  status: ('A' for Active; 'I' for Inactive)
DOCKED: REMARK    1  A    between atoms: C_2  and  C_19 
DOCKED: REMARK    2  A    between atoms: C_2  and  C_11 
DOCKED: REMARK    3  A    between atoms: C_19  and  C_20 
DOCKED: REMARK    4  A    between atoms: C_20  and  C_21 
DOCKED: REMARK    5  A    between atoms: C_21  and  N_22 
DOCKED: USER                              x       y       z     vdW  Elec       q    Type
DOCKED: USER                           _______ _______ _______ _____ _____    ______ ____
DOCKED: ROOT
DOCKED: ATOM      1  O   UNL     1     -42.981 -24.556   8.765 -0.08 -0.00    -0.346 OA 
DOCKED: ATOM      2  C   UNL     1     -42.349 -23.338   8.255 -0.13 +0.00    +0.130 C  
DOCKED: ATOM      3  C   UNL     1     -42.439 -23.483   6.763 -0.27 +0.00    +0.004 A  
DOCKED: ATOM      4  C   UNL     1     -43.157 -24.628   6.448 -0.30 +0.00    +0.006 A  
DOCKED: ATOM      5  C   UNL     1     -43.596 -25.303   7.690 -0.12 +0.00    +0.169 C  
DOCKED: ATOM      6  C   UNL     1     -41.937 -22.661   5.765 -0.34 -0.00    -0.001 A  
DOCKED: ATOM      7  C   UNL     1     -43.392 -24.992   5.133 -0.41 +0.00    +0.008 A  
DOCKED: ATOM      8  C   UNL     1     -42.161 -23.017   4.434 -0.15 +0.00    +0.010 A  
DOCKED: ATOM      9  C   UNL     1     -42.886 -24.177   4.120 -0.41 +0.00    +0.068 A  
DOCKED: ATOM     10  N   UNL     1     -43.290 -24.806   1.640 -2.76 -0.00    -0.191 NA 
DOCKED: ATOM     11  C   UNL     1     -43.108 -24.524   2.752 -0.36 +0.00    +0.101 C  
DOCKED: ENDROOT
DOCKED: BRANCH   2  12
DOCKED: ATOM     12  C   UNL     1     -43.124 -22.136   8.782 -0.09 +0.00    +0.038 C  
DOCKED: BRANCH  12  13
DOCKED: ATOM     13  C   UNL     1     -43.936 -22.498  10.024 -0.06 +0.00    +0.038 C  
DOCKED: BRANCH  13  14
DOCKED: ATOM     14  C   UNL     1     -45.351 -22.931   9.648 -0.02 +0.00    +0.251 C  
DOCKED: BRANCH  14  15
DOCKED: ATOM     15  N   UNL     1     -46.183 -23.038  10.841 -0.03 +0.00    +0.141 N  
DOCKED: ATOM     16  C   UNL     1     -46.235 -24.423  11.312 -0.01 +0.00    +0.285 C  
DOCKED: ATOM     17  C   UNL     1     -45.681 -22.160  11.899 +0.01 +0.00    +0.285 C  
DOCKED: ENDBRANCH  14  15
DOCKED: ENDBRANCH  13  14
DOCKED: ENDBRANCH  12  13
DOCKED: ENDBRANCH   2  12
DOCKED: BRANCH   2  18
DOCKED: ATOM     18  C   UNL     1     -40.943 -23.334   8.755 -0.17 +0.00    +0.006 A  
DOCKED: ATOM     19  C   UNL     1     -40.685 -23.525  10.112 -0.13 +0.00    +0.001 A  
DOCKED: ATOM     20  C   UNL     1     -39.370 -23.520  10.578 -0.11 +0.00    +0.029 A  
DOCKED: ATOM     21  C   UNL     1     -38.315 -23.325   9.687 -0.02 +0.00    +0.140 A  
DOCKED: ATOM     22  C   UNL     1     -38.574 -23.135   8.330 -0.19 +0.00    +0.029 A  
DOCKED: ATOM     23  F   UNL     1     -37.053 -23.323  10.134 -0.03 -0.00    -0.204 F  
DOCKED: ATOM     24  C   UNL     1     -39.889 -23.139   7.863 -0.24 +0.00    +0.001 A  
DOCKED: ENDBRANCH   2  18
DOCKED: TORSDOF 5
DOCKED: TER
DOCKED: ENDMDL
________________________________________________________________________________


    FINAL DOCKED STATE:
    ________________________


Run:   273 / 512
Time taken for this run:   0.002s

DOCKED: MODEL        273
DOCKED: USER    Run = 273
DOCKED: USER
DOCKED: USER    Estimated Free Energy of Binding    =  -4.16 kcal/mol  [=(1)+(2)+(3)-(4)]
DOCKED: USER
DOCKED: USER    (1) Final Intermolecular Energy     =  -5.66 kcal/mol
DOCKED: USER        vdW + Hbond + desolv Energy     =  -5.66 kcal/mol
DOCKED: USER        Electrostatic Energy            =  +0.00 kcal/mol
DOCKED: USER        Moving Ligand-Fixed Receptor    =  -5.66 kcal/mol
DOCKED: USER        Moving Ligand-Moving Receptor   =  +0.00 kcal/mol
DOCKED: USER    (2) Final Total Internal Energy     =  -1.20 kcal/mol
DOCKED: USER    (3) Torsional Free Energy           =  +1.49 kcal/mol
DOCKED: USER    (4) Unbound System's Energy         =  -1.20 kcal/mol
DOCKED: USER
DOCKED: USER
DOCKED: REMARK  5 active torsions:
DOCKED: REMARK  status: ('A' for Active; 'I' for Inactive)
DOCKED: REMARK    1  A    between atoms: C_2  and  C_19 
DOCKED: REMARK    2  A    between atoms: C_2  and  C_11 
DOCKED: REMARK    3  A    between atoms: C_19  and  C_20 
DOCKED: REMARK    4  A    between atoms: C_20  and  C_21 
DOCKED: REMARK    5  A    between atoms: C_21  and  N_22 
DOCKED: USER                              x       y       z     vdW  Elec       q    Type
DOCKED: USER                           _______ _______ _______ _____ _____    ______ ____
DOCKED: ROOT
DOCKED: ATOM      1  O   UNL     1     -36.863 -16.314  -0.494 -0.02 -0.00    -0.346 OA 
DOCKED: ATOM      2  C   UNL     1     -35.970 -16.138  -1.641 -0.06 +0.00    +0.130 C  
DOCKED: ATOM      3  C   UNL     1     -36.771 -15.299  -2.594 -0.15 +0.00    +0.004 A  
DOCKED: ATOM      4  C   UNL     1     -37.971 -14.934  -2.001 -0.25 +0.00    +0.006 A  
DOCKED: ATOM      5  C   UNL     1     -38.042 -15.486  -0.630 -0.20 +0.00    +0.169 C  
DOCKED: ATOM      6  C   UNL     1     -36.457 -14.883  -3.880 -0.14 -0.00    -0.001 A  
DOCKED: ATOM      7  C   UNL     1     -38.895 -14.149  -2.668 -0.31 +0.00    +0.008 A  
DOCKED: ATOM      8  C   UNL     1     -37.381 -14.095  -4.568 -0.22 +0.00    +0.010 A  
DOCKED: ATOM      9  C   UNL     1     -38.594 -13.729  -3.965 -0.23 +0.00    +0.068 A  
DOCKED: ATOM     10  N   UNL     1     -40.284 -12.260  -5.268 -2.42 -0.00    -0.191 NA 
DOCKED: ATOM     11  C   UNL     1     -39.526 -12.920  -4.684 -0.40 +0.00    +0.101 C  
DOCKED: ENDROOT
DOCKED: BRANCH   2  12
DOCKED: ATOM     12  C   UNL     1     -34.700 -15.445  -1.163 -0.03 +0.00    +0.038 C  
DOCKED: BRANCH  12  13
DOCKED: ATOM     13  C   UNL     1     -34.805 -13.928  -1.309 -0.08 +0.00    +0.038 C  
DOCKED: BRANCH  13  14
DOCKED: ATOM     14  C   UNL     1     -35.202 -13.274   0.013 -0.09 +0.00    +0.251 C  
DOCKED: BRANCH  14  15
DOCKED: ATOM     15  N   UNL     1     -34.894 -11.849  -0.013 -0.11 +0.00    +0.141 N  
DOCKED: ATOM     16  C   UNL     1     -33.472 -11.623   0.248 -0.06 +0.00    +0.285 C  
DOCKED: ATOM     17  C   UNL     1     -35.273 -11.264  -1.300 -0.11 +0.00    +0.285 C  
DOCKED: ENDBRANCH  14  15
DOCKED: ENDBRANCH  13  14
DOCKED: ENDBRANCH  12  13
DOCKED: ENDBRANCH   2  12
DOCKED: BRANCH   2  18
DOCKED: ATOM     18  C   UNL     1     -35.672 -17.500  -2.174 -0.07 +0.00    +0.006 A  
DOCKED: ATOM     19  C   UNL     1     -34.386 -18.027  -2.058 -0.02 +0.00    +0.001 A  
DOCKED: ATOM     20  C   UNL     1     -34.108 -19.300  -2.557 -0.03 +0.00    +0.029 A  
DOCKED: ATOM     21  C   UNL     1     -35.116 -20.044  -3.170 -0.12 +0.00    +0.140 A  
DOCKED: ATOM     22  C   UNL     1     -36.402 -19.517  -3.284 -0.24 +0.00    +0.029 A  
DOCKED: ATOM     23  F   UNL     1     -34.850 -21.267  -3.647 -0.07 -0.00    -0.204 F  
DOCKED: ATOM     24  C   UNL     1     -36.681 -18.243  -2.786 -0.21 +0.00    +0.001 A  
DOCKED: ENDBRANCH   2  18
DOCKED: TORSDOF 5
DOCKED: TER
DOCKED: ENDMDL
________________________________________________________________________________


    FINAL DOCKED STATE:
    ________________________


Run:   274 / 512
Time taken for this run:   0.002s

DOCKED: MODEL        274
DOCKED: USER    Run = 274
DOCKED: USER
DOCKED: USER    Estimated Free Energy of Binding    =  -4.31 kcal/mol  [=(1)+(2)+(3)-(4)]
DOCKED: USER
DOCKED: USER    (1) Final Intermolecular Energy     =  -5.81 kcal/mol
DOCKED: USER        vdW + Hbond + desolv Energy     =  -5.81 kcal/mol
DOCKED: USER        Electrostatic Energy            =  +0.00 kcal/mol
DOCKED: USER        Moving Ligand-Fixed Receptor    =  -5.81 kcal/mol
DOCKED: USER        Moving Ligand-Moving Receptor   =  +0.00 kcal/mol
DOCKED: USER    (2) Final Total Internal Energy     =  -1.26 kcal/mol
DOCKED: USER    (3) Torsional Free Energy           =  +1.49 kcal/mol
DOCKED: USER    (4) Unbound System's Energy         =  -1.26 kcal/mol
DOCKED: USER
DOCKED: USER
DOCKED: REMARK  5 active torsions:
DOCKED: REMARK  status: ('A' for Active; 'I' for Inactive)
DOCKED: REMARK    1  A    between atoms: C_2  and  C_19 
DOCKED: REMARK    2  A    between atoms: C_2  and  C_11 
DOCKED: REMARK    3  A    between atoms: C_19  and  C_20 
DOCKED: REMARK    4  A    between atoms: C_20  and  C_21 
DOCKED: REMARK    5  A    between atoms: C_21  and  N_22 
DOCKED: USER                              x       y       z     vdW  Elec       q    Type
DOCKED: USER                           _______ _______ _______ _____ _____    ______ ____
DOCKED: ROOT
DOCKED: ATOM      1  O   UNL     1     -39.002 -21.298   8.275 -0.07 -0.00    -0.346 OA 
DOCKED: ATOM      2  C   UNL     1     -40.203 -20.598   7.817 -0.13 +0.00    +0.130 C  
DOCKED: ATOM      3  C   UNL     1     -41.022 -21.677   7.169 -0.23 +0.00    +0.004 A  
DOCKED: ATOM      4  C   UNL     1     -40.398 -22.904   7.339 -0.25 +0.00    +0.006 A  
DOCKED: ATOM      5  C   UNL     1     -39.147 -22.728   8.111 -0.15 +0.00    +0.169 C  
DOCKED: ATOM      6  C   UNL     1     -42.230 -21.581   6.492 -0.27 -0.00    -0.001 A  
DOCKED: ATOM      7  C   UNL     1     -40.952 -24.070   6.839 -0.34 +0.00    +0.008 A  
DOCKED: ATOM      8  C   UNL     1     -42.799 -22.747   5.979 -0.28 +0.00    +0.010 A  
DOCKED: ATOM      9  C   UNL     1     -42.163 -23.985   6.152 -0.31 +0.00    +0.068 A  
DOCKED: ATOM     10  N   UNL     1     -43.250 -26.132   5.190 -2.47 -0.00    -0.191 NA 
DOCKED: ATOM     11  C   UNL     1     -42.762 -25.169   5.621 -0.33 +0.00    +0.101 C  
DOCKED: ENDROOT
DOCKED: BRANCH   2  12
DOCKED: ATOM     12  C   UNL     1     -40.891 -19.976   9.026 -0.05 +0.00    +0.038 C  
DOCKED: BRANCH  12  13
DOCKED: ATOM     13  C   UNL     1     -41.967 -20.901   9.591 -0.04 +0.00    +0.038 C  
DOCKED: BRANCH  13  14
DOCKED: ATOM     14  C   UNL     1     -41.512 -21.535  10.904 -0.01 +0.00    +0.251 C  
DOCKED: BRANCH  14  15
DOCKED: ATOM     15  N   UNL     1     -42.184 -22.813  11.110 -0.03 +0.00    +0.141 N  
DOCKED: ATOM     16  C   UNL     1     -41.571 -23.856  10.285 -0.07 +0.00    +0.285 C  
DOCKED: ATOM     17  C   UNL     1     -42.145 -23.195  12.522 -0.01 +0.00    +0.285 C  
DOCKED: ENDBRANCH  14  15
DOCKED: ENDBRANCH  13  14
DOCKED: ENDBRANCH  12  13
DOCKED: ENDBRANCH   2  12
DOCKED: BRANCH   2  18
DOCKED: ATOM     18  C   UNL     1     -39.756 -19.550   6.853 -0.16 +0.00    +0.006 A  
DOCKED: ATOM     19  C   UNL     1     -40.506 -18.385   6.693 -0.12 +0.00    +0.001 A  
DOCKED: ATOM     20  C   UNL     1     -40.087 -17.406   5.792 -0.10 +0.00    +0.029 A  
DOCKED: ATOM     21  C   UNL     1     -38.919 -17.592   5.054 -0.07 +0.00    +0.140 A  
DOCKED: ATOM     22  C   UNL     1     -38.169 -18.756   5.215 -0.13 +0.00    +0.029 A  
DOCKED: ATOM     23  F   UNL     1     -38.516 -16.651   4.190 -0.01 -0.00    -0.204 F  
DOCKED: ATOM     24  C   UNL     1     -38.588 -19.737   6.115 -0.14 +0.00    +0.001 A  
DOCKED: ENDBRANCH   2  18
DOCKED: TORSDOF 5
DOCKED: TER
DOCKED: ENDMDL
________________________________________________________________________________


    FINAL DOCKED STATE:
    ________________________


Run:   275 / 512
Time taken for this run:   0.002s

DOCKED: MODEL        275
DOCKED: USER    Run = 275
DOCKED: USER
DOCKED: USER    Estimated Free Energy of Binding    =  -3.90 kcal/mol  [=(1)+(2)+(3)-(4)]
DOCKED: USER
DOCKED: USER    (1) Final Intermolecular Energy     =  -5.39 kcal/mol
DOCKED: USER        vdW + Hbond + desolv Energy     =  -5.39 kcal/mol
DOCKED: USER        Electrostatic Energy            =  +0.00 kcal/mol
DOCKED: USER        Moving Ligand-Fixed Receptor    =  -5.39 kcal/mol
DOCKED: USER        Moving Ligand-Moving Receptor   =  +0.00 kcal/mol
DOCKED: USER    (2) Final Total Internal Energy     =  -1.17 kcal/mol
DOCKED: USER    (3) Torsional Free Energy           =  +1.49 kcal/mol
DOCKED: USER    (4) Unbound System's Energy         =  -1.17 kcal/mol
DOCKED: USER
DOCKED: USER
DOCKED: REMARK  5 active torsions:
DOCKED: REMARK  status: ('A' for Active; 'I' for Inactive)
DOCKED: REMARK    1  A    between atoms: C_2  and  C_19 
DOCKED: REMARK    2  A    between atoms: C_2  and  C_11 
DOCKED: REMARK    3  A    between atoms: C_19  and  C_20 
DOCKED: REMARK    4  A    between atoms: C_20  and  C_21 
DOCKED: REMARK    5  A    between atoms: C_21  and  N_22 
DOCKED: USER                              x       y       z     vdW  Elec       q    Type
DOCKED: USER                           _______ _______ _______ _____ _____    ______ ____
DOCKED: ROOT
DOCKED: ATOM      1  O   UNL     1     -40.500 -20.310   8.227 -0.02 -0.00    -0.346 OA 
DOCKED: ATOM      2  C   UNL     1     -39.621 -21.429   8.569 -0.11 +0.00    +0.130 C  
DOCKED: ATOM      3  C   UNL     1     -40.250 -22.604   7.877 -0.22 +0.00    +0.004 A  
DOCKED: ATOM      4  C   UNL     1     -41.328 -22.176   7.116 -0.25 +0.00    +0.006 A  
DOCKED: ATOM      5  C   UNL     1     -41.479 -20.709   7.239 -0.17 +0.00    +0.169 C  
DOCKED: ATOM      6  C   UNL     1     -39.888 -23.943   7.909 -0.26 -0.00    -0.001 A  
DOCKED: ATOM      7  C   UNL     1     -42.082 -23.066   6.369 -0.32 +0.00    +0.008 A  
DOCKED: ATOM      8  C   UNL     1     -40.641 -24.853   7.165 -0.39 +0.00    +0.010 A  
DOCKED: ATOM      9  C   UNL     1     -41.732 -24.416   6.399 -0.33 +0.00    +0.068 A  
DOCKED: ATOM     10  N   UNL     1     -43.104 -26.131   5.025 -2.40 -0.00    -0.191 NA 
DOCKED: ATOM     11  C   UNL     1     -42.489 -25.362   5.641 -0.23 +0.00    +0.101 C  
DOCKED: ENDROOT
DOCKED: BRANCH   2  12
DOCKED: ATOM     12  C   UNL     1     -38.221 -21.117   8.055 -0.13 +0.00    +0.038 C  
DOCKED: BRANCH  12  13
DOCKED: ATOM     13  C   UNL     1     -37.364 -22.379   7.973 -0.04 +0.00    +0.038 C  
DOCKED: BRANCH  13  14
DOCKED: ATOM     14  C   UNL     1     -36.323 -22.411   9.091 -0.08 +0.00    +0.251 C  
DOCKED: BRANCH  14  15
DOCKED: ATOM     15  N   UNL     1     -36.276 -23.734   9.702 -0.11 +0.00    +0.141 N  
DOCKED: ATOM     16  C   UNL     1     -34.927 -24.296   9.613 -0.08 +0.00    +0.285 C  
DOCKED: ATOM     17  C   UNL     1     -36.708 -23.671  11.100 -0.06 +0.00    +0.285 C  
DOCKED: ENDBRANCH  14  15
DOCKED: ENDBRANCH  13  14
DOCKED: ENDBRANCH  12  13
DOCKED: ENDBRANCH   2  12
DOCKED: BRANCH   2  18
DOCKED: ATOM     18  C   UNL     1     -39.634 -21.555  10.056 -0.05 +0.00    +0.006 A  
DOCKED: ATOM     19  C   UNL     1     -40.622 -22.313  10.683 -0.05 +0.00    +0.001 A  
DOCKED: ATOM     20  C   UNL     1     -40.633 -22.429  12.073 -0.03 +0.00    +0.029 A  
DOCKED: ATOM     21  C   UNL     1     -39.656 -21.789  12.834 -0.01 +0.00    +0.140 A  
DOCKED: ATOM     22  C   UNL     1     -38.668 -21.031  12.206 -0.01 +0.00    +0.029 A  
DOCKED: ATOM     23  F   UNL     1     -39.666 -21.902  14.169 +0.00 -0.00    -0.204 F  
DOCKED: ATOM     24  C   UNL     1     -38.657 -20.913  10.816 -0.02 +0.00    +0.001 A  
DOCKED: ENDBRANCH   2  18
DOCKED: TORSDOF 5
DOCKED: TER
DOCKED: ENDMDL
________________________________________________________________________________


    FINAL DOCKED STATE:
    ________________________


Run:   276 / 512
Time taken for this run:   0.002s

DOCKED: MODEL        276
DOCKED: USER    Run = 276
DOCKED: USER
DOCKED: USER    Estimated Free Energy of Binding    =  -4.12 kcal/mol  [=(1)+(2)+(3)-(4)]
DOCKED: USER
DOCKED: USER    (1) Final Intermolecular Energy     =  -5.61 kcal/mol
DOCKED: USER        vdW + Hbond + desolv Energy     =  -5.61 kcal/mol
DOCKED: USER        Electrostatic Energy            =  +0.00 kcal/mol
DOCKED: USER        Moving Ligand-Fixed Receptor    =  -5.61 kcal/mol
DOCKED: USER        Moving Ligand-Moving Receptor   =  +0.00 kcal/mol
DOCKED: USER    (2) Final Total Internal Energy     =  -1.39 kcal/mol
DOCKED: USER    (3) Torsional Free Energy           =  +1.49 kcal/mol
DOCKED: USER    (4) Unbound System's Energy         =  -1.39 kcal/mol
DOCKED: USER
DOCKED: USER
DOCKED: REMARK  5 active torsions:
DOCKED: REMARK  status: ('A' for Active; 'I' for Inactive)
DOCKED: REMARK    1  A    between atoms: C_2  and  C_19 
DOCKED: REMARK    2  A    between atoms: C_2  and  C_11 
DOCKED: REMARK    3  A    between atoms: C_19  and  C_20 
DOCKED: REMARK    4  A    between atoms: C_20  and  C_21 
DOCKED: REMARK    5  A    between atoms: C_21  and  N_22 
DOCKED: USER                              x       y       z     vdW  Elec       q    Type
DOCKED: USER                           _______ _______ _______ _____ _____    ______ ____
DOCKED: ROOT
DOCKED: ATOM      1  O   UNL     1     -33.267 -24.795  -2.142 -0.02 -0.00    -0.346 OA 
DOCKED: ATOM      2  C   UNL     1     -33.235 -23.585  -1.319 -0.09 +0.00    +0.130 C  
DOCKED: ATOM      3  C   UNL     1     -33.808 -24.029  -0.004 -0.12 +0.00    +0.004 A  
DOCKED: ATOM      4  C   UNL     1     -34.044 -25.396  -0.035 -0.18 +0.00    +0.006 A  
DOCKED: ATOM      5  C   UNL     1     -33.638 -25.946  -1.348 -0.09 +0.00    +0.169 C  
DOCKED: ATOM      6  C   UNL     1     -34.087 -23.284   1.132 -0.12 -0.00    -0.001 A  
DOCKED: ATOM      7  C   UNL     1     -34.568 -26.061   1.060 -0.29 +0.00    +0.008 A  
DOCKED: ATOM      8  C   UNL     1     -34.619 -23.939   2.243 -0.22 +0.00    +0.010 A  
DOCKED: ATOM      9  C   UNL     1     -34.858 -25.321   2.207 -0.31 +0.00    +0.068 A  
DOCKED: ATOM     10  N   UNL     1     -35.843 -26.508   4.289 -2.63 -0.00    -0.191 NA 
DOCKED: ATOM     11  C   UNL     1     -35.402 -25.976   3.355 -0.40 +0.00    +0.101 C  
DOCKED: ENDROOT
DOCKED: BRANCH   2  12
DOCKED: ATOM     12  C   UNL     1     -31.789 -23.116  -1.209 -0.02 +0.00    +0.038 C  
DOCKED: BRANCH  12  13
DOCKED: ATOM     13  C   UNL     1     -30.830 -24.295  -1.058 -0.02 +0.00    +0.038 C  
DOCKED: BRANCH  13  14
DOCKED: ATOM     14  C   UNL     1     -30.113 -24.251   0.290 -0.01 +0.00    +0.251 C  
DOCKED: BRANCH  14  15
DOCKED: ATOM     15  N   UNL     1     -31.006 -24.694   1.355 -0.04 +0.00    +0.141 N  
DOCKED: ATOM     16  C   UNL     1     -30.877 -26.136   1.571 -0.05 +0.00    +0.285 C  
DOCKED: ATOM     17  C   UNL     1     -30.730 -23.968   2.595 -0.01 +0.00    +0.285 C  
DOCKED: ENDBRANCH  14  15
DOCKED: ENDBRANCH  13  14
DOCKED: ENDBRANCH  12  13
DOCKED: ENDBRANCH   2  12
DOCKED: BRANCH   2  18
DOCKED: ATOM     18  C   UNL     1     -34.080 -22.567  -2.008 -0.11 +0.00    +0.006 A  
DOCKED: ATOM     19  C   UNL     1     -34.289 -22.650  -3.384 -0.13 +0.00    +0.001 A  
DOCKED: ATOM     20  C   UNL     1     -35.080 -21.697  -4.027 -0.18 +0.00    +0.029 A  
DOCKED: ATOM     21  C   UNL     1     -35.661 -20.663  -3.294 -0.19 +0.00    +0.140 A  
DOCKED: ATOM     22  C   UNL     1     -35.452 -20.581  -1.918 -0.17 +0.00    +0.029 A  
DOCKED: ATOM     23  F   UNL     1     -36.421 -19.749  -3.911 -0.11 -0.00    -0.204 F  
DOCKED: ATOM     24  C   UNL     1     -34.660 -21.533  -1.274 -0.12 +0.00    +0.001 A  
DOCKED: ENDBRANCH   2  18
DOCKED: TORSDOF 5
DOCKED: TER
DOCKED: ENDMDL
________________________________________________________________________________


    FINAL DOCKED STATE:
    ________________________


Run:   277 / 512
Time taken for this run:   0.002s

DOCKED: MODEL        277
DOCKED: USER    Run = 277
DOCKED: USER
DOCKED: USER    Estimated Free Energy of Binding    =  -4.42 kcal/mol  [=(1)+(2)+(3)-(4)]
DOCKED: USER
DOCKED: USER    (1) Final Intermolecular Energy     =  -5.91 kcal/mol
DOCKED: USER        vdW + Hbond + desolv Energy     =  -5.91 kcal/mol
DOCKED: USER        Electrostatic Energy            =  +0.00 kcal/mol
DOCKED: USER        Moving Ligand-Fixed Receptor    =  -5.91 kcal/mol
DOCKED: USER        Moving Ligand-Moving Receptor   =  +0.00 kcal/mol
DOCKED: USER    (2) Final Total Internal Energy     =  -1.02 kcal/mol
DOCKED: USER    (3) Torsional Free Energy           =  +1.49 kcal/mol
DOCKED: USER    (4) Unbound System's Energy         =  -1.02 kcal/mol
DOCKED: USER
DOCKED: USER
DOCKED: REMARK  5 active torsions:
DOCKED: REMARK  status: ('A' for Active; 'I' for Inactive)
DOCKED: REMARK    1  A    between atoms: C_2  and  C_19 
DOCKED: REMARK    2  A    between atoms: C_2  and  C_11 
DOCKED: REMARK    3  A    between atoms: C_19  and  C_20 
DOCKED: REMARK    4  A    between atoms: C_20  and  C_21 
DOCKED: REMARK    5  A    between atoms: C_21  and  N_22 
DOCKED: USER                              x       y       z     vdW  Elec       q    Type
DOCKED: USER                           _______ _______ _______ _____ _____    ______ ____
DOCKED: ROOT
DOCKED: ATOM      1  O   UNL     1     -40.695 -19.283   6.855 -0.07 -0.00    -0.346 OA 
DOCKED: ATOM      2  C   UNL     1     -42.082 -19.328   7.321 -0.15 +0.00    +0.130 C  
DOCKED: ATOM      3  C   UNL     1     -42.543 -20.707   6.948 -0.22 +0.00    +0.004 A  
DOCKED: ATOM      4  C   UNL     1     -41.481 -21.426   6.417 -0.27 +0.00    +0.006 A  
DOCKED: ATOM      5  C   UNL     1     -40.260 -20.590   6.412 -0.17 +0.00    +0.169 C  
DOCKED: ATOM      6  C   UNL     1     -43.798 -21.284   7.080 -0.22 -0.00    -0.001 A  
DOCKED: ATOM      7  C   UNL     1     -41.637 -22.736   5.997 -0.33 +0.00    +0.008 A  
DOCKED: ATOM      8  C   UNL     1     -43.972 -22.602   6.657 -0.22 +0.00    +0.010 A  
DOCKED: ATOM      9  C   UNL     1     -42.897 -23.325   6.119 -0.26 +0.00    +0.068 A  
DOCKED: ATOM     10  N   UNL     1     -43.253 -25.773   5.348 -2.55 -0.00    -0.191 NA 
DOCKED: ATOM     11  C   UNL     1     -43.093 -24.675   5.693 -0.36 +0.00    +0.101 C  
DOCKED: ENDROOT
DOCKED: BRANCH   2  12
DOCKED: ATOM     12  C   UNL     1     -42.093 -19.085   8.826 -0.05 +0.00    +0.038 C  
DOCKED: BRANCH  12  13
DOCKED: ATOM     13  C   UNL     1     -41.587 -20.306   9.591 -0.04 +0.00    +0.038 C  
DOCKED: BRANCH  13  14
DOCKED: ATOM     14  C   UNL     1     -42.647 -20.826  10.560 -0.01 +0.00    +0.251 C  
DOCKED: BRANCH  14  15
DOCKED: ATOM     15  N   UNL     1     -42.015 -21.441  11.721 -0.01 +0.00    +0.141 N  
DOCKED: ATOM     16  C   UNL     1     -41.571 -20.418  12.669 -0.00 +0.00    +0.285 C  
DOCKED: ATOM     17  C   UNL     1     -42.934 -22.374  12.375 -0.00 +0.00    +0.285 C  
DOCKED: ENDBRANCH  14  15
DOCKED: ENDBRANCH  13  14
DOCKED: ENDBRANCH  12  13
DOCKED: ENDBRANCH   2  12
DOCKED: BRANCH   2  18
DOCKED: ATOM     18  C   UNL     1     -42.821 -18.253   6.596 -0.19 +0.00    +0.006 A  
DOCKED: ATOM     19  C   UNL     1     -42.130 -17.371   5.766 -0.15 +0.00    +0.001 A  
DOCKED: ATOM     20  C   UNL     1     -42.822 -16.365   5.090 -0.16 +0.00    +0.029 A  
DOCKED: ATOM     21  C   UNL     1     -44.202 -16.244   5.243 -0.10 +0.00    +0.140 A  
DOCKED: ATOM     22  C   UNL     1     -44.892 -17.127   6.073 -0.16 +0.00    +0.029 A  
DOCKED: ATOM     23  F   UNL     1     -44.866 -15.280   4.592 -0.02 -0.00    -0.204 F  
DOCKED: ATOM     24  C   UNL     1     -44.201 -18.132   6.751 -0.21 +0.00    +0.001 A  
DOCKED: ENDBRANCH   2  18
DOCKED: TORSDOF 5
DOCKED: TER
DOCKED: ENDMDL
________________________________________________________________________________


    FINAL DOCKED STATE:
    ________________________


Run:   278 / 512
Time taken for this run:   0.002s

DOCKED: MODEL        278
DOCKED: USER    Run = 278
DOCKED: USER
DOCKED: USER    Estimated Free Energy of Binding    =  -3.48 kcal/mol  [=(1)+(2)+(3)-(4)]
DOCKED: USER
DOCKED: USER    (1) Final Intermolecular Energy     =  -4.97 kcal/mol
DOCKED: USER        vdW + Hbond + desolv Energy     =  -4.97 kcal/mol
DOCKED: USER        Electrostatic Energy            =  +0.00 kcal/mol
DOCKED: USER        Moving Ligand-Fixed Receptor    =  -4.97 kcal/mol
DOCKED: USER        Moving Ligand-Moving Receptor   =  +0.00 kcal/mol
DOCKED: USER    (2) Final Total Internal Energy     =  -1.08 kcal/mol
DOCKED: USER    (3) Torsional Free Energy           =  +1.49 kcal/mol
DOCKED: USER    (4) Unbound System's Energy         =  -1.08 kcal/mol
DOCKED: USER
DOCKED: USER
DOCKED: REMARK  5 active torsions:
DOCKED: REMARK  status: ('A' for Active; 'I' for Inactive)
DOCKED: REMARK    1  A    between atoms: C_2  and  C_19 
DOCKED: REMARK    2  A    between atoms: C_2  and  C_11 
DOCKED: REMARK    3  A    between atoms: C_19  and  C_20 
DOCKED: REMARK    4  A    between atoms: C_20  and  C_21 
DOCKED: REMARK    5  A    between atoms: C_21  and  N_22 
DOCKED: USER                              x       y       z     vdW  Elec       q    Type
DOCKED: USER                           _______ _______ _______ _____ _____    ______ ____
DOCKED: ROOT
DOCKED: ATOM      1  O   UNL     1     -40.535 -19.516   7.288 -0.05 -0.00    -0.346 OA 
DOCKED: ATOM      2  C   UNL     1     -40.817 -20.267   8.512 -0.07 +0.00    +0.130 C  
DOCKED: ATOM      3  C   UNL     1     -41.325 -21.589   8.013 -0.14 +0.00    +0.004 A  
DOCKED: ATOM      4  C   UNL     1     -41.236 -21.631   6.629 -0.27 +0.00    +0.006 A  
DOCKED: ATOM      5  C   UNL     1     -40.660 -20.365   6.123 -0.10 +0.00    +0.169 C  
DOCKED: ATOM      6  C   UNL     1     -41.815 -22.672   8.728 -0.11 -0.00    -0.001 A  
DOCKED: ATOM      7  C   UNL     1     -41.636 -22.748   5.914 -0.33 +0.00    +0.008 A  
DOCKED: ATOM      8  C   UNL     1     -42.226 -23.804   8.022 -0.19 +0.00    +0.010 A  
DOCKED: ATOM      9  C   UNL     1     -42.136 -23.842   6.622 -0.26 +0.00    +0.068 A  
DOCKED: ATOM     10  N   UNL     1     -42.903 -25.960   5.343 -2.51 -0.00    -0.191 NA 
DOCKED: ATOM     11  C   UNL     1     -42.560 -25.010   5.917 -0.33 +0.00    +0.101 C  
DOCKED: ENDROOT
DOCKED: BRANCH   2  12
DOCKED: ATOM     12  C   UNL     1     -39.526 -20.391   9.311 -0.05 +0.00    +0.038 C  
DOCKED: BRANCH  12  13
DOCKED: ATOM     13  C   UNL     1     -38.347 -20.756   8.412 -0.11 +0.00    +0.038 C  
DOCKED: BRANCH  13  14
DOCKED: ATOM     14  C   UNL     1     -38.154 -22.270   8.346 -0.11 +0.00    +0.251 C  
DOCKED: BRANCH  14  15
DOCKED: ATOM     15  N   UNL     1     -36.735 -22.601   8.325 -0.13 +0.00    +0.141 N  
DOCKED: ATOM     16  C   UNL     1     -35.935 -21.474   8.808 -0.05 +0.00    +0.285 C  
DOCKED: ATOM     17  C   UNL     1     -36.471 -23.793   9.134 -0.04 +0.00    +0.285 C  
DOCKED: ENDBRANCH  14  15
DOCKED: ENDBRANCH  13  14
DOCKED: ENDBRANCH  12  13
DOCKED: ENDBRANCH   2  12
DOCKED: BRANCH   2  18
DOCKED: ATOM     18  C   UNL     1     -41.847 -19.497   9.269 -0.03 +0.00    +0.006 A  
DOCKED: ATOM     19  C   UNL     1     -42.450 -18.382   8.687 -0.04 +0.00    +0.001 A  
DOCKED: ATOM     20  C   UNL     1     -43.413 -17.662   9.396 -0.02 +0.00    +0.029 A  
DOCKED: ATOM     21  C   UNL     1     -43.771 -18.059  10.684 -0.00 +0.00    +0.140 A  
DOCKED: ATOM     22  C   UNL     1     -43.168 -19.174  11.264 -0.00 +0.00    +0.029 A  
DOCKED: ATOM     23  F   UNL     1     -44.697 -17.369  11.363 +0.00 -0.00    -0.204 F  
DOCKED: ATOM     24  C   UNL     1     -42.205 -19.894  10.556 -0.01 +0.00    +0.001 A  
DOCKED: ENDBRANCH   2  18
DOCKED: TORSDOF 5
DOCKED: TER
DOCKED: ENDMDL
________________________________________________________________________________


    FINAL DOCKED STATE:
    ________________________


Run:   279 / 512
Time taken for this run:   0.002s

DOCKED: MODEL        279
DOCKED: USER    Run = 279
DOCKED: USER
DOCKED: USER    Estimated Free Energy of Binding    =  -4.46 kcal/mol  [=(1)+(2)+(3)-(4)]
DOCKED: USER
DOCKED: USER    (1) Final Intermolecular Energy     =  -5.95 kcal/mol
DOCKED: USER        vdW + Hbond + desolv Energy     =  -5.95 kcal/mol
DOCKED: USER        Electrostatic Energy            =  +0.00 kcal/mol
DOCKED: USER        Moving Ligand-Fixed Receptor    =  -5.95 kcal/mol
DOCKED: USER        Moving Ligand-Moving Receptor   =  +0.00 kcal/mol
DOCKED: USER    (2) Final Total Internal Energy     =  -1.32 kcal/mol
DOCKED: USER    (3) Torsional Free Energy           =  +1.49 kcal/mol
DOCKED: USER    (4) Unbound System's Energy         =  -1.32 kcal/mol
DOCKED: USER
DOCKED: USER
DOCKED: REMARK  5 active torsions:
DOCKED: REMARK  status: ('A' for Active; 'I' for Inactive)
DOCKED: REMARK    1  A    between atoms: C_2  and  C_19 
DOCKED: REMARK    2  A    between atoms: C_2  and  C_11 
DOCKED: REMARK    3  A    between atoms: C_19  and  C_20 
DOCKED: REMARK    4  A    between atoms: C_20  and  C_21 
DOCKED: REMARK    5  A    between atoms: C_21  and  N_22 
DOCKED: USER                              x       y       z     vdW  Elec       q    Type
DOCKED: USER                           _______ _______ _______ _____ _____    ______ ____
DOCKED: ROOT
DOCKED: ATOM      1  O   UNL     1     -41.827 -19.575   7.757 -0.04 -0.00    -0.346 OA 
DOCKED: ATOM      2  C   UNL     1     -43.249 -19.882   7.916 -0.12 +0.00    +0.130 C  
DOCKED: ATOM      3  C   UNL     1     -43.387 -21.258   7.330 -0.20 +0.00    +0.004 A  
DOCKED: ATOM      4  C   UNL     1     -42.136 -21.739   6.970 -0.24 +0.00    +0.006 A  
DOCKED: ATOM      5  C   UNL     1     -41.098 -20.737   7.298 -0.17 +0.00    +0.169 C  
DOCKED: ATOM      6  C   UNL     1     -44.526 -22.026   7.143 -0.21 -0.00    -0.001 A  
DOCKED: ATOM      7  C   UNL     1     -41.982 -22.996   6.409 -0.32 +0.00    +0.008 A  
DOCKED: ATOM      8  C   UNL     1     -44.388 -23.294   6.574 -0.24 +0.00    +0.010 A  
DOCKED: ATOM      9  C   UNL     1     -43.122 -23.776   6.209 -0.25 +0.00    +0.068 A  
DOCKED: ATOM     10  N   UNL     1     -42.900 -26.134   5.161 -2.50 -0.00    -0.191 NA 
DOCKED: ATOM     11  C   UNL     1     -43.000 -25.076   5.630 -0.36 +0.00    +0.101 C  
DOCKED: ENDROOT
DOCKED: BRANCH   2  12
DOCKED: ATOM     12  C   UNL     1     -43.590 -19.832   9.400 -0.04 +0.00    +0.038 C  
DOCKED: BRANCH  12  13
DOCKED: ATOM     13  C   UNL     1     -43.480 -21.213  10.044 -0.04 +0.00    +0.038 C  
DOCKED: BRANCH  13  14
DOCKED: ATOM     14  C   UNL     1     -42.019 -21.611  10.242 -0.01 +0.00    +0.251 C  
DOCKED: BRANCH  14  15
DOCKED: ATOM     15  N   UNL     1     -41.824 -23.014   9.896 -0.05 +0.00    +0.141 N  
DOCKED: ATOM     16  C   UNL     1     -40.409 -23.376   9.985 -0.07 +0.00    +0.285 C  
DOCKED: ATOM     17  C   UNL     1     -42.624 -23.876  10.768 -0.05 +0.00    +0.285 C  
DOCKED: ENDBRANCH  14  15
DOCKED: ENDBRANCH  13  14
DOCKED: ENDBRANCH  12  13
DOCKED: ENDBRANCH   2  12
DOCKED: BRANCH   2  18
DOCKED: ATOM     18  C   UNL     1     -44.007 -18.847   7.153 -0.20 +0.00    +0.006 A  
DOCKED: ATOM     19  C   UNL     1     -43.334 -17.763   6.591 -0.19 +0.00    +0.001 A  
DOCKED: ATOM     20  C   UNL     1     -44.044 -16.796   5.879 -0.16 +0.00    +0.029 A  
DOCKED: ATOM     21  C   UNL     1     -45.425 -16.914   5.730 -0.07 +0.00    +0.140 A  
DOCKED: ATOM     22  C   UNL     1     -46.098 -17.999   6.292 -0.18 +0.00    +0.029 A  
DOCKED: ATOM     23  F   UNL     1     -46.106 -15.987   5.044 -0.03 -0.00    -0.204 F  
DOCKED: ATOM     24  C   UNL     1     -45.388 -18.967   7.005 -0.22 +0.00    +0.001 A  
DOCKED: ENDBRANCH   2  18
DOCKED: TORSDOF 5
DOCKED: TER
DOCKED: ENDMDL
________________________________________________________________________________


    FINAL DOCKED STATE:
    ________________________


Run:   280 / 512
Time taken for this run:   0.002s

DOCKED: MODEL        280
DOCKED: USER    Run = 280
DOCKED: USER
DOCKED: USER    Estimated Free Energy of Binding    =  -6.46 kcal/mol  [=(1)+(2)+(3)-(4)]
DOCKED: USER
DOCKED: USER    (1) Final Intermolecular Energy     =  -7.96 kcal/mol
DOCKED: USER        vdW + Hbond + desolv Energy     =  -7.96 kcal/mol
DOCKED: USER        Electrostatic Energy            =  +0.00 kcal/mol
DOCKED: USER        Moving Ligand-Fixed Receptor    =  -7.96 kcal/mol
DOCKED: USER        Moving Ligand-Moving Receptor   =  +0.00 kcal/mol
DOCKED: USER    (2) Final Total Internal Energy     =  -1.25 kcal/mol
DOCKED: USER    (3) Torsional Free Energy           =  +1.49 kcal/mol
DOCKED: USER    (4) Unbound System's Energy         =  -1.25 kcal/mol
DOCKED: USER
DOCKED: USER
DOCKED: REMARK  5 active torsions:
DOCKED: REMARK  status: ('A' for Active; 'I' for Inactive)
DOCKED: REMARK    1  A    between atoms: C_2  and  C_19 
DOCKED: REMARK    2  A    between atoms: C_2  and  C_11 
DOCKED: REMARK    3  A    between atoms: C_19  and  C_20 
DOCKED: REMARK    4  A    between atoms: C_20  and  C_21 
DOCKED: REMARK    5  A    between atoms: C_21  and  N_22 
DOCKED: USER                              x       y       z     vdW  Elec       q    Type
DOCKED: USER                           _______ _______ _______ _____ _____    ______ ____
DOCKED: ROOT
DOCKED: ATOM      1  O   UNL     1     -40.545 -25.579   7.630 -0.57 -0.00    -0.346 OA 
DOCKED: ATOM      2  C   UNL     1     -41.772 -24.806   7.829 -0.26 +0.00    +0.130 C  
DOCKED: ATOM      3  C   UNL     1     -42.321 -24.639   6.442 -0.34 +0.00    +0.004 A  
DOCKED: ATOM      4  C   UNL     1     -41.538 -25.347   5.541 -0.39 +0.00    +0.006 A  
DOCKED: ATOM      5  C   UNL     1     -40.441 -26.032   6.260 -0.14 +0.00    +0.169 C  
DOCKED: ATOM      6  C   UNL     1     -43.431 -23.926   6.013 -0.31 -0.00    -0.001 A  
DOCKED: ATOM      7  C   UNL     1     -41.832 -25.363   4.188 -0.38 +0.00    +0.008 A  
DOCKED: ATOM      8  C   UNL     1     -43.738 -23.929   4.651 -0.33 +0.00    +0.010 A  
DOCKED: ATOM      9  C   UNL     1     -42.943 -24.645   3.744 -0.45 +0.00    +0.068 A  
DOCKED: ATOM     10  N   UNL     1     -43.544 -24.635   1.224 -3.25 -0.00    -0.191 NA 
DOCKED: ATOM     11  C   UNL     1     -43.274 -24.639   2.354 -0.28 +0.00    +0.101 C  
DOCKED: ENDROOT
DOCKED: BRANCH   2  12
DOCKED: ATOM     12  C   UNL     1     -42.699 -25.600   8.742 -0.23 +0.00    +0.038 C  
DOCKED: BRANCH  12  13
DOCKED: ATOM     13  C   UNL     1     -44.044 -24.897   8.917 -0.23 +0.00    +0.038 C  
DOCKED: BRANCH  13  14
DOCKED: ATOM     14  C   UNL     1     -44.320 -24.598  10.390 -0.07 +0.00    +0.251 C  
DOCKED: BRANCH  14  15
DOCKED: ATOM     15  N   UNL     1     -43.508 -23.473  10.840 -0.04 +0.00    +0.141 N  
DOCKED: ATOM     16  C   UNL     1     -44.316 -22.255  10.924 -0.00 +0.00    +0.285 C  
DOCKED: ATOM     17  C   UNL     1     -42.895 -23.766  12.136 -0.02 +0.00    +0.285 C  
DOCKED: ENDBRANCH  14  15
DOCKED: ENDBRANCH  13  14
DOCKED: ENDBRANCH  12  13
DOCKED: ENDBRANCH   2  12
DOCKED: BRANCH   2  18
DOCKED: ATOM     18  C   UNL     1     -41.375 -23.512   8.458 -0.18 +0.00    +0.006 A  
DOCKED: ATOM     19  C   UNL     1     -40.571 -23.509   9.597 -0.15 +0.00    +0.001 A  
DOCKED: ATOM     20  C   UNL     1     -40.201 -22.299  10.184 -0.07 +0.00    +0.029 A  
DOCKED: ATOM     21  C   UNL     1     -40.635 -21.094   9.632 -0.03 +0.00    +0.140 A  
DOCKED: ATOM     22  C   UNL     1     -41.439 -21.098   8.492 -0.08 +0.00    +0.029 A  
DOCKED: ATOM     23  F   UNL     1     -40.278 -19.932  10.195 +0.00 -0.00    -0.204 F  
DOCKED: ATOM     24  C   UNL     1     -41.810 -22.309   7.905 -0.16 +0.00    +0.001 A  
DOCKED: ENDBRANCH   2  18
DOCKED: TORSDOF 5
DOCKED: TER
DOCKED: ENDMDL
________________________________________________________________________________


    FINAL DOCKED STATE:
    ________________________


Run:   281 / 512
Time taken for this run:   0.002s

DOCKED: MODEL        281
DOCKED: USER    Run = 281
DOCKED: USER
DOCKED: USER    Estimated Free Energy of Binding    =  -5.45 kcal/mol  [=(1)+(2)+(3)-(4)]
DOCKED: USER
DOCKED: USER    (1) Final Intermolecular Energy     =  -6.94 kcal/mol
DOCKED: USER        vdW + Hbond + desolv Energy     =  -6.94 kcal/mol
DOCKED: USER        Electrostatic Energy            =  +0.00 kcal/mol
DOCKED: USER        Moving Ligand-Fixed Receptor    =  -6.94 kcal/mol
DOCKED: USER        Moving Ligand-Moving Receptor   =  +0.00 kcal/mol
DOCKED: USER    (2) Final Total Internal Energy     =  -1.42 kcal/mol
DOCKED: USER    (3) Torsional Free Energy           =  +1.49 kcal/mol
DOCKED: USER    (4) Unbound System's Energy         =  -1.42 kcal/mol
DOCKED: USER
DOCKED: USER
DOCKED: REMARK  5 active torsions:
DOCKED: REMARK  status: ('A' for Active; 'I' for Inactive)
DOCKED: REMARK    1  A    between atoms: C_2  and  C_19 
DOCKED: REMARK    2  A    between atoms: C_2  and  C_11 
DOCKED: REMARK    3  A    between atoms: C_19  and  C_20 
DOCKED: REMARK    4  A    between atoms: C_20  and  C_21 
DOCKED: REMARK    5  A    between atoms: C_21  and  N_22 
DOCKED: USER                              x       y       z     vdW  Elec       q    Type
DOCKED: USER                           _______ _______ _______ _____ _____    ______ ____
DOCKED: ROOT
DOCKED: ATOM      1  O   UNL     1     -41.682 -24.644   8.303 -0.16 -0.00    -0.346 OA 
DOCKED: ATOM      2  C   UNL     1     -43.088 -24.255   8.189 -0.17 +0.00    +0.130 C  
DOCKED: ATOM      3  C   UNL     1     -43.329 -24.210   6.708 -0.26 +0.00    +0.004 A  
DOCKED: ATOM      4  C   UNL     1     -42.195 -24.643   6.036 -0.39 +0.00    +0.006 A  
DOCKED: ATOM      5  C   UNL     1     -41.144 -25.011   7.011 -0.31 +0.00    +0.169 C  
DOCKED: ATOM      6  C   UNL     1     -44.466 -23.828   6.011 -0.29 -0.00    -0.001 A  
DOCKED: ATOM      7  C   UNL     1     -42.155 -24.704   4.653 -0.50 +0.00    +0.008 A  
DOCKED: ATOM      8  C   UNL     1     -44.441 -23.880   4.616 -0.21 +0.00    +0.010 A  
DOCKED: ATOM      9  C   UNL     1     -43.291 -24.316   3.941 -0.39 +0.00    +0.068 A  
DOCKED: ATOM     10  N   UNL     1     -43.279 -24.405   1.352 -3.10 -0.00    -0.191 NA 
DOCKED: ATOM     11  C   UNL     1     -43.284 -24.364   2.513 -0.27 +0.00    +0.101 C  
DOCKED: ENDROOT
DOCKED: BRANCH   2  12
DOCKED: ATOM     12  C   UNL     1     -43.938 -25.303   8.897 -0.24 +0.00    +0.038 C  
DOCKED: BRANCH  12  13
DOCKED: ATOM     13  C   UNL     1     -43.899 -25.120  10.413 -0.16 +0.00    +0.038 C  
DOCKED: BRANCH  13  14
DOCKED: ATOM     14  C   UNL     1     -42.498 -25.383  10.962 +0.00 +0.00    +0.251 C  
DOCKED: BRANCH  14  15
DOCKED: ATOM     15  N   UNL     1     -42.042 -24.246  11.753 -0.08 +0.00    +0.141 N  
DOCKED: ATOM     16  C   UNL     1     -42.897 -24.056  12.925 -0.02 +0.00    +0.285 C  
DOCKED: ATOM     17  C   UNL     1     -40.649 -24.431  12.166 -0.08 +0.00    +0.285 C  
DOCKED: ENDBRANCH  14  15
DOCKED: ENDBRANCH  13  14
DOCKED: ENDBRANCH  12  13
DOCKED: ENDBRANCH   2  12
DOCKED: BRANCH   2  18
DOCKED: ATOM     18  C   UNL     1     -43.225 -22.920   8.841 -0.09 +0.00    +0.006 A  
DOCKED: ATOM     19  C   UNL     1     -42.090 -22.237   9.277 -0.07 +0.00    +0.001 A  
DOCKED: ATOM     20  C   UNL     1     -42.220 -20.989   9.887 -0.03 +0.00    +0.029 A  
DOCKED: ATOM     21  C   UNL     1     -43.483 -20.426  10.060 -0.01 +0.00    +0.140 A  
DOCKED: ATOM     22  C   UNL     1     -44.618 -21.109   9.624 -0.04 +0.00    +0.029 A  
DOCKED: ATOM     23  F   UNL     1     -43.607 -19.227  10.644 +0.00 -0.00    -0.204 F  
DOCKED: ATOM     24  C   UNL     1     -44.489 -22.358   9.014 -0.08 +0.00    +0.001 A  
DOCKED: ENDBRANCH   2  18
DOCKED: TORSDOF 5
DOCKED: TER
DOCKED: ENDMDL
________________________________________________________________________________


    FINAL DOCKED STATE:
    ________________________


Run:   282 / 512
Time taken for this run:   0.002s

DOCKED: MODEL        282
DOCKED: USER    Run = 282
DOCKED: USER
DOCKED: USER    Estimated Free Energy of Binding    =  -5.46 kcal/mol  [=(1)+(2)+(3)-(4)]
DOCKED: USER
DOCKED: USER    (1) Final Intermolecular Energy     =  -6.95 kcal/mol
DOCKED: USER        vdW + Hbond + desolv Energy     =  -6.95 kcal/mol
DOCKED: USER        Electrostatic Energy            =  +0.00 kcal/mol
DOCKED: USER        Moving Ligand-Fixed Receptor    =  -6.95 kcal/mol
DOCKED: USER        Moving Ligand-Moving Receptor   =  +0.00 kcal/mol
DOCKED: USER    (2) Final Total Internal Energy     =  -0.89 kcal/mol
DOCKED: USER    (3) Torsional Free Energy           =  +1.49 kcal/mol
DOCKED: USER    (4) Unbound System's Energy         =  -0.89 kcal/mol
DOCKED: USER
DOCKED: USER
DOCKED: REMARK  5 active torsions:
DOCKED: REMARK  status: ('A' for Active; 'I' for Inactive)
DOCKED: REMARK    1  A    between atoms: C_2  and  C_19 
DOCKED: REMARK    2  A    between atoms: C_2  and  C_11 
DOCKED: REMARK    3  A    between atoms: C_19  and  C_20 
DOCKED: REMARK    4  A    between atoms: C_20  and  C_21 
DOCKED: REMARK    5  A    between atoms: C_21  and  N_22 
DOCKED: USER                              x       y       z     vdW  Elec       q    Type
DOCKED: USER                           _______ _______ _______ _____ _____    ______ ____
DOCKED: ROOT
DOCKED: ATOM      1  O   UNL     1     -45.265 -23.777   8.210 -0.02 -0.00    -0.346 OA 
DOCKED: ATOM      2  C   UNL     1     -43.904 -23.250   8.106 -0.11 +0.00    +0.130 C  
DOCKED: ATOM      3  C   UNL     1     -43.546 -23.462   6.663 -0.24 +0.00    +0.004 A  
DOCKED: ATOM      4  C   UNL     1     -44.645 -23.962   5.978 -0.29 +0.00    +0.006 A  
DOCKED: ATOM      5  C   UNL     1     -45.792 -24.102   6.902 -0.13 +0.00    +0.169 C  
DOCKED: ATOM      6  C   UNL     1     -42.348 -23.220   6.007 -0.34 -0.00    -0.001 A  
DOCKED: ATOM      7  C   UNL     1     -44.583 -24.241   4.623 -0.21 +0.00    +0.008 A  
DOCKED: ATOM      8  C   UNL     1     -42.269 -23.500   4.641 -0.38 +0.00    +0.010 A  
DOCKED: ATOM      9  C   UNL     1     -43.382 -24.007   3.953 -0.28 +0.00    +0.068 A  
DOCKED: ATOM     10  N   UNL     1     -43.203 -24.511   1.418 -2.91 -0.00    -0.191 NA 
DOCKED: ATOM     11  C   UNL     1     -43.283 -24.286   2.555 -0.26 +0.00    +0.101 C  
DOCKED: ENDROOT
DOCKED: BRANCH   2  12
DOCKED: ATOM     12  C   UNL     1     -43.923 -21.779   8.503 -0.11 +0.00    +0.038 C  
DOCKED: BRANCH  12  13
DOCKED: ATOM     13  C   UNL     1     -44.293 -20.888   7.319 -0.22 +0.00    +0.038 C  
DOCKED: BRANCH  13  14
DOCKED: ATOM     14  C   UNL     1     -45.174 -19.721   7.764 -0.10 +0.00    +0.251 C  
DOCKED: BRANCH  14  15
DOCKED: ATOM     15  N   UNL     1     -44.514 -18.452   7.482 -0.11 +0.00    +0.141 N  
DOCKED: ATOM     16  C   UNL     1     -44.564 -17.574   8.652 -0.01 +0.00    +0.285 C  
DOCKED: ATOM     17  C   UNL     1     -43.127 -18.672   7.071 -0.14 +0.00    +0.285 C  
DOCKED: ENDBRANCH  14  15
DOCKED: ENDBRANCH  13  14
DOCKED: ENDBRANCH  12  13
DOCKED: ENDBRANCH   2  12
DOCKED: BRANCH   2  18
DOCKED: ATOM     18  C   UNL     1     -43.055 -24.049   9.038 -0.15 +0.00    +0.006 A  
DOCKED: ATOM     19  C   UNL     1     -41.836 -24.565   8.601 -0.24 +0.00    +0.001 A  
DOCKED: ATOM     20  C   UNL     1     -41.043 -25.311   9.474 -0.17 +0.00    +0.029 A  
DOCKED: ATOM     21  C   UNL     1     -41.470 -25.540  10.781 -0.11 +0.00    +0.140 A  
DOCKED: ATOM     22  C   UNL     1     -42.690 -25.023  11.218 -0.15 +0.00    +0.029 A  
DOCKED: ATOM     23  F   UNL     1     -40.709 -26.255  11.620 -0.11 -0.00    -0.204 F  
DOCKED: ATOM     24  C   UNL     1     -43.484 -24.276  10.345 -0.13 +0.00    +0.001 A  
DOCKED: ENDBRANCH   2  18
DOCKED: TORSDOF 5
DOCKED: TER
DOCKED: ENDMDL
________________________________________________________________________________


    FINAL DOCKED STATE:
    ________________________


Run:   283 / 512
Time taken for this run:   0.002s

DOCKED: MODEL        283
DOCKED: USER    Run = 283
DOCKED: USER
DOCKED: USER    Estimated Free Energy of Binding    =  -3.89 kcal/mol  [=(1)+(2)+(3)-(4)]
DOCKED: USER
DOCKED: USER    (1) Final Intermolecular Energy     =  -5.39 kcal/mol
DOCKED: USER        vdW + Hbond + desolv Energy     =  -5.39 kcal/mol
DOCKED: USER        Electrostatic Energy            =  +0.00 kcal/mol
DOCKED: USER        Moving Ligand-Fixed Receptor    =  -5.39 kcal/mol
DOCKED: USER        Moving Ligand-Moving Receptor   =  +0.00 kcal/mol
DOCKED: USER    (2) Final Total Internal Energy     =  -1.28 kcal/mol
DOCKED: USER    (3) Torsional Free Energy           =  +1.49 kcal/mol
DOCKED: USER    (4) Unbound System's Energy         =  -1.28 kcal/mol
DOCKED: USER
DOCKED: USER
DOCKED: REMARK  5 active torsions:
DOCKED: REMARK  status: ('A' for Active; 'I' for Inactive)
DOCKED: REMARK    1  A    between atoms: C_2  and  C_19 
DOCKED: REMARK    2  A    between atoms: C_2  and  C_11 
DOCKED: REMARK    3  A    between atoms: C_19  and  C_20 
DOCKED: REMARK    4  A    between atoms: C_20  and  C_21 
DOCKED: REMARK    5  A    between atoms: C_21  and  N_22 
DOCKED: USER                              x       y       z     vdW  Elec       q    Type
DOCKED: USER                           _______ _______ _______ _____ _____    ______ ____
DOCKED: ROOT
DOCKED: ATOM      1  O   UNL     1     -34.186 -22.422  -1.360 -0.02 -0.00    -0.346 OA 
DOCKED: ATOM      2  C   UNL     1     -34.284 -21.542  -0.195 -0.09 +0.00    +0.130 C  
DOCKED: ATOM      3  C   UNL     1     -34.636 -22.473   0.929 -0.14 +0.00    +0.004 A  
DOCKED: ATOM      4  C   UNL     1     -34.630 -23.783   0.470 -0.16 +0.00    +0.006 A  
DOCKED: ATOM      5  C   UNL     1     -34.267 -23.811  -0.964 -0.02 +0.00    +0.169 C  
DOCKED: ATOM      6  C   UNL     1     -34.926 -22.185   2.255 -0.17 -0.00    -0.001 A  
DOCKED: ATOM      7  C   UNL     1     -34.916 -24.843   1.313 -0.27 +0.00    +0.008 A  
DOCKED: ATOM      8  C   UNL     1     -35.221 -23.243   3.116 -0.24 +0.00    +0.010 A  
DOCKED: ATOM      9  C   UNL     1     -35.216 -24.565   2.648 -0.30 +0.00    +0.068 A  
DOCKED: ATOM     10  N   UNL     1     -35.764 -26.506   4.275 -2.66 -0.00    -0.191 NA 
DOCKED: ATOM     11  C   UNL     1     -35.519 -25.636   3.545 -0.33 +0.00    +0.101 C  
DOCKED: ENDROOT
DOCKED: BRANCH   2  12
DOCKED: ATOM     12  C   UNL     1     -32.940 -20.853   0.004 -0.02 +0.00    +0.038 C  
DOCKED: BRANCH  12  13
DOCKED: ATOM     13  C   UNL     1     -32.757 -19.696  -0.977 -0.01 +0.00    +0.038 C  
DOCKED: BRANCH  13  14
DOCKED: ATOM     14  C   UNL     1     -32.827 -18.350  -0.258 -0.00 +0.00    +0.251 C  
DOCKED: BRANCH  14  15
DOCKED: ATOM     15  N   UNL     1     -33.864 -17.513  -0.850 -0.00 +0.00    +0.141 N  
DOCKED: ATOM     16  C   UNL     1     -34.034 -16.280  -0.081 -0.00 +0.00    +0.285 C  
DOCKED: ATOM     17  C   UNL     1     -33.543 -17.202  -2.244 +0.00 +0.00    +0.285 C  
DOCKED: ENDBRANCH  14  15
DOCKED: ENDBRANCH  13  14
DOCKED: ENDBRANCH  12  13
DOCKED: ENDBRANCH   2  12
DOCKED: BRANCH   2  18
DOCKED: ATOM     18  C   UNL     1     -35.360 -20.550  -0.486 -0.14 +0.00    +0.006 A  
DOCKED: ATOM     19  C   UNL     1     -35.750 -20.312  -1.804 -0.19 +0.00    +0.001 A  
DOCKED: ATOM     20  C   UNL     1     -36.756 -19.384  -2.075 -0.20 +0.00    +0.029 A  
DOCKED: ATOM     21  C   UNL     1     -37.371 -18.697  -1.029 -0.06 +0.00    +0.140 A  
DOCKED: ATOM     22  C   UNL     1     -36.981 -18.936   0.288 -0.16 +0.00    +0.029 A  
DOCKED: ATOM     23  F   UNL     1     -38.338 -17.807  -1.290 -0.07 -0.00    -0.204 F  
DOCKED: ATOM     24  C   UNL     1     -35.974 -19.863   0.560 -0.13 +0.00    +0.001 A  
DOCKED: ENDBRANCH   2  18
DOCKED: TORSDOF 5
DOCKED: TER
DOCKED: ENDMDL
________________________________________________________________________________


    FINAL DOCKED STATE:
    ________________________


Run:   284 / 512
Time taken for this run:   0.002s

DOCKED: MODEL        284
DOCKED: USER    Run = 284
DOCKED: USER
DOCKED: USER    Estimated Free Energy of Binding    =  -3.77 kcal/mol  [=(1)+(2)+(3)-(4)]
DOCKED: USER
DOCKED: USER    (1) Final Intermolecular Energy     =  -5.26 kcal/mol
DOCKED: USER        vdW + Hbond + desolv Energy     =  -5.26 kcal/mol
DOCKED: USER        Electrostatic Energy            =  +0.00 kcal/mol
DOCKED: USER        Moving Ligand-Fixed Receptor    =  -5.26 kcal/mol
DOCKED: USER        Moving Ligand-Moving Receptor   =  +0.00 kcal/mol
DOCKED: USER    (2) Final Total Internal Energy     =  -1.37 kcal/mol
DOCKED: USER    (3) Torsional Free Energy           =  +1.49 kcal/mol
DOCKED: USER    (4) Unbound System's Energy         =  -1.37 kcal/mol
DOCKED: USER
DOCKED: USER
DOCKED: REMARK  5 active torsions:
DOCKED: REMARK  status: ('A' for Active; 'I' for Inactive)
DOCKED: REMARK    1  A    between atoms: C_2  and  C_19 
DOCKED: REMARK    2  A    between atoms: C_2  and  C_11 
DOCKED: REMARK    3  A    between atoms: C_19  and  C_20 
DOCKED: REMARK    4  A    between atoms: C_20  and  C_21 
DOCKED: REMARK    5  A    between atoms: C_21  and  N_22 
DOCKED: USER                              x       y       z     vdW  Elec       q    Type
DOCKED: USER                           _______ _______ _______ _____ _____    ______ ____
DOCKED: ROOT
DOCKED: ATOM      1  O   UNL     1     -33.734 -20.156   1.592 +0.00 -0.00    -0.346 OA 
DOCKED: ATOM      2  C   UNL     1     -35.077 -20.438   1.085 -0.08 +0.00    +0.130 C  
DOCKED: ATOM      3  C   UNL     1     -35.381 -21.810   1.616 -0.18 +0.00    +0.004 A  
DOCKED: ATOM      4  C   UNL     1     -34.349 -22.229   2.444 -0.12 +0.00    +0.006 A  
DOCKED: ATOM      5  C   UNL     1     -33.313 -21.175   2.528 -0.03 +0.00    +0.169 C  
DOCKED: ATOM      6  C   UNL     1     -36.487 -22.617   1.393 -0.29 -0.00    -0.001 A  
DOCKED: ATOM      7  C   UNL     1     -34.384 -23.462   3.071 -0.19 +0.00    +0.008 A  
DOCKED: ATOM      8  C   UNL     1     -36.535 -23.866   2.014 -0.21 +0.00    +0.010 A  
DOCKED: ATOM      9  C   UNL     1     -35.489 -24.286   2.849 -0.29 +0.00    +0.068 A  
DOCKED: ATOM     10  N   UNL     1     -35.612 -26.609   3.991 -2.39 -0.00    -0.191 NA 
DOCKED: ATOM     11  C   UNL     1     -35.556 -25.567   3.479 -0.33 +0.00    +0.101 C  
DOCKED: ENDROOT
DOCKED: BRANCH   2  12
DOCKED: ATOM     12  C   UNL     1     -36.028 -19.373   1.617 -0.10 +0.00    +0.038 C  
DOCKED: BRANCH  12  13
DOCKED: ATOM     13  C   UNL     1     -36.514 -19.712   3.024 -0.15 +0.00    +0.038 C  
DOCKED: BRANCH  13  14
DOCKED: ATOM     14  C   UNL     1     -35.973 -18.714   4.047 -0.04 +0.00    +0.251 C  
DOCKED: BRANCH  14  15
DOCKED: ATOM     15  N   UNL     1     -34.947 -19.340   4.872 -0.04 +0.00    +0.141 N  
DOCKED: ATOM     16  C   UNL     1     -34.522 -18.435   5.941 -0.01 +0.00    +0.285 C  
DOCKED: ATOM     17  C   UNL     1     -35.435 -20.599   5.437 -0.07 +0.00    +0.285 C  
DOCKED: ENDBRANCH  14  15
DOCKED: ENDBRANCH  13  14
DOCKED: ENDBRANCH  12  13
DOCKED: ENDBRANCH   2  12
DOCKED: BRANCH   2  18
DOCKED: ATOM     18  C   UNL     1     -34.999 -20.396  -0.405 -0.11 +0.00    +0.006 A  
DOCKED: ATOM     19  C   UNL     1     -35.822 -19.526  -1.121 -0.15 +0.00    +0.001 A  
DOCKED: ATOM     20  C   UNL     1     -35.748 -19.488  -2.514 -0.17 +0.00    +0.029 A  
DOCKED: ATOM     21  C   UNL     1     -34.853 -20.317  -3.188 -0.11 +0.00    +0.140 A  
DOCKED: ATOM     22  C   UNL     1     -34.031 -21.186  -2.471 -0.10 +0.00    +0.029 A  
DOCKED: ATOM     23  F   UNL     1     -34.781 -20.278  -4.525 -0.01 -0.00    -0.204 F  
DOCKED: ATOM     24  C   UNL     1     -34.104 -21.226  -1.078 -0.09 +0.00    +0.001 A  
DOCKED: ENDBRANCH   2  18
DOCKED: TORSDOF 5
DOCKED: TER
DOCKED: ENDMDL
________________________________________________________________________________


    FINAL DOCKED STATE:
    ________________________


Run:   285 / 512
Time taken for this run:   0.002s

DOCKED: MODEL        285
DOCKED: USER    Run = 285
DOCKED: USER
DOCKED: USER    Estimated Free Energy of Binding    =  -3.84 kcal/mol  [=(1)+(2)+(3)-(4)]
DOCKED: USER
DOCKED: USER    (1) Final Intermolecular Energy     =  -5.33 kcal/mol
DOCKED: USER        vdW + Hbond + desolv Energy     =  -5.33 kcal/mol
DOCKED: USER        Electrostatic Energy            =  +0.00 kcal/mol
DOCKED: USER        Moving Ligand-Fixed Receptor    =  -5.33 kcal/mol
DOCKED: USER        Moving Ligand-Moving Receptor   =  +0.00 kcal/mol
DOCKED: USER    (2) Final Total Internal Energy     =  -1.32 kcal/mol
DOCKED: USER    (3) Torsional Free Energy           =  +1.49 kcal/mol
DOCKED: USER    (4) Unbound System's Energy         =  -1.32 kcal/mol
DOCKED: USER
DOCKED: USER
DOCKED: REMARK  5 active torsions:
DOCKED: REMARK  status: ('A' for Active; 'I' for Inactive)
DOCKED: REMARK    1  A    between atoms: C_2  and  C_19 
DOCKED: REMARK    2  A    between atoms: C_2  and  C_11 
DOCKED: REMARK    3  A    between atoms: C_19  and  C_20 
DOCKED: REMARK    4  A    between atoms: C_20  and  C_21 
DOCKED: REMARK    5  A    between atoms: C_21  and  N_22 
DOCKED: USER                              x       y       z     vdW  Elec       q    Type
DOCKED: USER                           _______ _______ _______ _____ _____    ______ ____
DOCKED: ROOT
DOCKED: ATOM      1  O   UNL     1     -41.104 -24.705   9.510 -0.09 -0.00    -0.346 OA 
DOCKED: ATOM      2  C   UNL     1     -40.703 -23.381   9.033 -0.15 +0.00    +0.130 C  
DOCKED: ATOM      3  C   UNL     1     -41.123 -23.376   7.591 -0.26 +0.00    +0.004 A  
DOCKED: ATOM      4  C   UNL     1     -41.802 -24.550   7.298 -0.30 +0.00    +0.006 A  
DOCKED: ATOM      5  C   UNL     1     -41.890 -25.395   8.510 -0.23 +0.00    +0.169 C  
DOCKED: ATOM      6  C   UNL     1     -40.928 -22.405   6.619 -0.27 -0.00    -0.001 A  
DOCKED: ATOM      7  C   UNL     1     -42.304 -24.796   6.032 -0.36 +0.00    +0.008 A  
DOCKED: ATOM      8  C   UNL     1     -41.425 -22.640   5.336 -0.11 +0.00    +0.010 A  
DOCKED: ATOM      9  C   UNL     1     -42.109 -23.829   5.044 -0.36 +0.00    +0.068 A  
DOCKED: ATOM     10  N   UNL     1     -43.022 -24.231   2.653 -1.69 -0.00    -0.191 NA 
DOCKED: ATOM     11  C   UNL     1     -42.612 -24.051   3.725 -0.48 +0.00    +0.101 C  
DOCKED: ENDROOT
DOCKED: BRANCH   2  12
DOCKED: ATOM     12  C   UNL     1     -41.427 -22.329   9.865 -0.07 +0.00    +0.038 C  
DOCKED: BRANCH  12  13
DOCKED: ATOM     13  C   UNL     1     -42.465 -21.578   9.032 -0.07 +0.00    +0.038 C  
DOCKED: BRANCH  13  14
DOCKED: ATOM     14  C   UNL     1     -43.852 -22.199   9.192 -0.02 +0.00    +0.251 C  
DOCKED: BRANCH  14  15
DOCKED: ATOM     15  N   UNL     1     -44.307 -22.756   7.924 -0.09 +0.00    +0.141 N  
DOCKED: ATOM     16  C   UNL     1     -45.577 -23.463   8.097 -0.05 +0.00    +0.285 C  
DOCKED: ATOM     17  C   UNL     1     -44.447 -21.701   6.919 -0.12 +0.00    +0.285 C  
DOCKED: ENDBRANCH  14  15
DOCKED: ENDBRANCH  13  14
DOCKED: ENDBRANCH  12  13
DOCKED: ENDBRANCH   2  12
DOCKED: BRANCH   2  18
DOCKED: ATOM     18  C   UNL     1     -39.225 -23.282   9.209 -0.14 +0.00    +0.006 A  
DOCKED: ATOM     19  C   UNL     1     -38.382 -23.415   8.106 -0.02 +0.00    +0.001 A  
DOCKED: ATOM     20  C   UNL     1     -36.999 -23.323   8.272 -0.14 +0.00    +0.029 A  
DOCKED: ATOM     21  C   UNL     1     -36.462 -23.098   9.539 -0.10 +0.00    +0.140 A  
DOCKED: ATOM     22  C   UNL     1     -37.306 -22.965  10.641 -0.09 +0.00    +0.029 A  
DOCKED: ATOM     23  F   UNL     1     -35.136 -23.008   9.698 -0.01 -0.00    -0.204 F  
DOCKED: ATOM     24  C   UNL     1     -38.689 -23.058  10.476 -0.11 +0.00    +0.001 A  
DOCKED: ENDBRANCH   2  18
DOCKED: TORSDOF 5
DOCKED: TER
DOCKED: ENDMDL
________________________________________________________________________________


    FINAL DOCKED STATE:
    ________________________


Run:   286 / 512
Time taken for this run:   0.002s

DOCKED: MODEL        286
DOCKED: USER    Run = 286
DOCKED: USER
DOCKED: USER    Estimated Free Energy of Binding    =  -4.02 kcal/mol  [=(1)+(2)+(3)-(4)]
DOCKED: USER
DOCKED: USER    (1) Final Intermolecular Energy     =  -5.51 kcal/mol
DOCKED: USER        vdW + Hbond + desolv Energy     =  -5.51 kcal/mol
DOCKED: USER        Electrostatic Energy            =  +0.00 kcal/mol
DOCKED: USER        Moving Ligand-Fixed Receptor    =  -5.51 kcal/mol
DOCKED: USER        Moving Ligand-Moving Receptor   =  +0.00 kcal/mol
DOCKED: USER    (2) Final Total Internal Energy     =  -1.22 kcal/mol
DOCKED: USER    (3) Torsional Free Energy           =  +1.49 kcal/mol
DOCKED: USER    (4) Unbound System's Energy         =  -1.22 kcal/mol
DOCKED: USER
DOCKED: USER
DOCKED: REMARK  5 active torsions:
DOCKED: REMARK  status: ('A' for Active; 'I' for Inactive)
DOCKED: REMARK    1  A    between atoms: C_2  and  C_19 
DOCKED: REMARK    2  A    between atoms: C_2  and  C_11 
DOCKED: REMARK    3  A    between atoms: C_19  and  C_20 
DOCKED: REMARK    4  A    between atoms: C_20  and  C_21 
DOCKED: REMARK    5  A    between atoms: C_21  and  N_22 
DOCKED: USER                              x       y       z     vdW  Elec       q    Type
DOCKED: USER                           _______ _______ _______ _____ _____    ______ ____
DOCKED: ROOT
DOCKED: ATOM      1  O   UNL     1     -33.525 -24.152  -2.035 -0.02 -0.00    -0.346 OA 
DOCKED: ATOM      2  C   UNL     1     -33.349 -23.063  -1.073 -0.09 +0.00    +0.130 C  
DOCKED: ATOM      3  C   UNL     1     -33.865 -23.635   0.216 -0.12 +0.00    +0.004 A  
DOCKED: ATOM      4  C   UNL     1     -34.203 -24.969   0.033 -0.17 +0.00    +0.006 A  
DOCKED: ATOM      5  C   UNL     1     -33.927 -25.370  -1.365 -0.06 +0.00    +0.169 C  
DOCKED: ATOM      6  C   UNL     1     -34.013 -23.028   1.454 -0.11 -0.00    -0.001 A  
DOCKED: ATOM      7  C   UNL     1     -34.702 -25.735   1.072 -0.29 +0.00    +0.008 A  
DOCKED: ATOM      8  C   UNL     1     -34.519 -23.786   2.511 -0.21 +0.00    +0.010 A  
DOCKED: ATOM      9  C   UNL     1     -34.861 -25.133   2.321 -0.30 +0.00    +0.068 A  
DOCKED: ATOM     10  N   UNL     1     -35.793 -26.513   4.306 -2.67 -0.00    -0.191 NA 
DOCKED: ATOM     11  C   UNL     1     -35.375 -25.894   3.415 -0.37 +0.00    +0.101 C  
DOCKED: ENDROOT
DOCKED: BRANCH   2  12
DOCKED: ATOM     12  C   UNL     1     -31.868 -22.708  -1.012 -0.02 +0.00    +0.038 C  
DOCKED: BRANCH  12  13
DOCKED: ATOM     13  C   UNL     1     -31.016 -23.925  -0.658 -0.02 +0.00    +0.038 C  
DOCKED: BRANCH  13  14
DOCKED: ATOM     14  C   UNL     1     -30.925 -24.110   0.855 -0.01 +0.00    +0.251 C  
DOCKED: BRANCH  14  15
DOCKED: ATOM     15  N   UNL     1     -31.287 -25.474   1.222 -0.07 +0.00    +0.141 N  
DOCKED: ATOM     16  C   UNL     1     -30.515 -26.441   0.441 -0.02 +0.00    +0.285 C  
DOCKED: ATOM     17  C   UNL     1     -31.077 -25.696   2.654 -0.08 +0.00    +0.285 C  
DOCKED: ENDBRANCH  14  15
DOCKED: ENDBRANCH  13  14
DOCKED: ENDBRANCH  12  13
DOCKED: ENDBRANCH   2  12
DOCKED: BRANCH   2  18
DOCKED: ATOM     18  C   UNL     1     -34.160 -21.911  -1.564 -0.12 +0.00    +0.006 A  
DOCKED: ATOM     19  C   UNL     1     -34.011 -21.464  -2.876 -0.11 +0.00    +0.001 A  
DOCKED: ATOM     20  C   UNL     1     -34.769 -20.386  -3.334 -0.12 +0.00    +0.029 A  
DOCKED: ATOM     21  C   UNL     1     -35.676 -19.758  -2.481 -0.16 +0.00    +0.140 A  
DOCKED: ATOM     22  C   UNL     1     -35.825 -20.207  -1.168 -0.17 +0.00    +0.029 A  
DOCKED: ATOM     23  F   UNL     1     -36.405 -18.725  -2.921 -0.07 -0.00    -0.204 F  
DOCKED: ATOM     24  C   UNL     1     -35.066 -21.285  -0.709 -0.13 +0.00    +0.001 A  
DOCKED: ENDBRANCH   2  18
DOCKED: TORSDOF 5
DOCKED: TER
DOCKED: ENDMDL
________________________________________________________________________________


    FINAL DOCKED STATE:
    ________________________


Run:   287 / 512
Time taken for this run:   0.002s

DOCKED: MODEL        287
DOCKED: USER    Run = 287
DOCKED: USER
DOCKED: USER    Estimated Free Energy of Binding    =  -5.11 kcal/mol  [=(1)+(2)+(3)-(4)]
DOCKED: USER
DOCKED: USER    (1) Final Intermolecular Energy     =  -6.61 kcal/mol
DOCKED: USER        vdW + Hbond + desolv Energy     =  -6.61 kcal/mol
DOCKED: USER        Electrostatic Energy            =  +0.00 kcal/mol
DOCKED: USER        Moving Ligand-Fixed Receptor    =  -6.61 kcal/mol
DOCKED: USER        Moving Ligand-Moving Receptor   =  +0.00 kcal/mol
DOCKED: USER    (2) Final Total Internal Energy     =  -1.00 kcal/mol
DOCKED: USER    (3) Torsional Free Energy           =  +1.49 kcal/mol
DOCKED: USER    (4) Unbound System's Energy         =  -1.00 kcal/mol
DOCKED: USER
DOCKED: USER
DOCKED: REMARK  5 active torsions:
DOCKED: REMARK  status: ('A' for Active; 'I' for Inactive)
DOCKED: REMARK    1  A    between atoms: C_2  and  C_19 
DOCKED: REMARK    2  A    between atoms: C_2  and  C_11 
DOCKED: REMARK    3  A    between atoms: C_19  and  C_20 
DOCKED: REMARK    4  A    between atoms: C_20  and  C_21 
DOCKED: REMARK    5  A    between atoms: C_21  and  N_22 
DOCKED: USER                              x       y       z     vdW  Elec       q    Type
DOCKED: USER                           _______ _______ _______ _____ _____    ______ ____
DOCKED: ROOT
DOCKED: ATOM      1  O   UNL     1     -44.645 -22.671   8.277 -0.00 -0.00    -0.346 OA 
DOCKED: ATOM      2  C   UNL     1     -43.193 -22.778   8.125 -0.11 +0.00    +0.130 C  
DOCKED: ATOM      3  C   UNL     1     -43.015 -23.289   6.725 -0.24 +0.00    +0.004 A  
DOCKED: ATOM      4  C   UNL     1     -44.248 -23.363   6.094 -0.27 +0.00    +0.006 A  
DOCKED: ATOM      5  C   UNL     1     -45.312 -22.901   7.014 -0.18 +0.00    +0.169 C  
DOCKED: ATOM      6  C   UNL     1     -41.852 -23.649   6.059 -0.37 -0.00    -0.001 A  
DOCKED: ATOM      7  C   UNL     1     -44.364 -23.801   4.785 -0.20 +0.00    +0.008 A  
DOCKED: ATOM      8  C   UNL     1     -41.952 -24.097   4.740 -0.36 +0.00    +0.010 A  
DOCKED: ATOM      9  C   UNL     1     -43.202 -24.172   4.107 -0.38 +0.00    +0.068 A  
DOCKED: ATOM     10  N   UNL     1     -43.352 -25.002   1.657 -2.60 -0.00    -0.191 NA 
DOCKED: ATOM     11  C   UNL     1     -43.285 -24.630   2.756 -0.29 +0.00    +0.101 C  
DOCKED: ENDROOT
DOCKED: BRANCH   2  12
DOCKED: ATOM     12  C   UNL     1     -42.583 -21.397   8.334 -0.11 +0.00    +0.038 C  
DOCKED: BRANCH  12  13
DOCKED: ATOM     13  C   UNL     1     -43.660 -20.315   8.390 -0.10 +0.00    +0.038 C  
DOCKED: BRANCH  13  14
DOCKED: ATOM     14  C   UNL     1     -43.923 -19.730   7.003 -0.17 +0.00    +0.251 C  
DOCKED: BRANCH  14  15
DOCKED: ATOM     15  N   UNL     1     -44.138 -18.290   7.093 -0.15 +0.00    +0.141 N  
DOCKED: ATOM     16  C   UNL     1     -43.827 -17.805   8.438 -0.02 +0.00    +0.285 C  
DOCKED: ATOM     17  C   UNL     1     -43.327 -17.585   6.099 -0.13 +0.00    +0.285 C  
DOCKED: ENDBRANCH  14  15
DOCKED: ENDBRANCH  13  14
DOCKED: ENDBRANCH  12  13
DOCKED: ENDBRANCH   2  12
DOCKED: BRANCH   2  18
DOCKED: ATOM     18  C   UNL     1     -42.715 -23.740   9.161 -0.13 +0.00    +0.006 A  
DOCKED: ATOM     19  C   UNL     1     -43.508 -24.014  10.275 -0.11 +0.00    +0.001 A  
DOCKED: ATOM     20  C   UNL     1     -43.060 -24.914  11.243 -0.14 +0.00    +0.029 A  
DOCKED: ATOM     21  C   UNL     1     -41.821 -25.538  11.095 -0.04 +0.00    +0.140 A  
DOCKED: ATOM     22  C   UNL     1     -41.030 -25.263   9.981 -0.19 +0.00    +0.029 A  
DOCKED: ATOM     23  F   UNL     1     -41.393 -26.403  12.024 -0.07 -0.00    -0.204 F  
DOCKED: ATOM     24  C   UNL     1     -41.477 -24.363   9.012 -0.22 +0.00    +0.001 A  
DOCKED: ENDBRANCH   2  18
DOCKED: TORSDOF 5
DOCKED: TER
DOCKED: ENDMDL
________________________________________________________________________________


    FINAL DOCKED STATE:
    ________________________


Run:   288 / 512
Time taken for this run:   0.002s

DOCKED: MODEL        288
DOCKED: USER    Run = 288
DOCKED: USER
DOCKED: USER    Estimated Free Energy of Binding    =  -5.42 kcal/mol  [=(1)+(2)+(3)-(4)]
DOCKED: USER
DOCKED: USER    (1) Final Intermolecular Energy     =  -6.91 kcal/mol
DOCKED: USER        vdW + Hbond + desolv Energy     =  -6.91 kcal/mol
DOCKED: USER        Electrostatic Energy            =  +0.00 kcal/mol
DOCKED: USER        Moving Ligand-Fixed Receptor    =  -6.91 kcal/mol
DOCKED: USER        Moving Ligand-Moving Receptor   =  +0.00 kcal/mol
DOCKED: USER    (2) Final Total Internal Energy     =  -1.45 kcal/mol
DOCKED: USER    (3) Torsional Free Energy           =  +1.49 kcal/mol
DOCKED: USER    (4) Unbound System's Energy         =  -1.45 kcal/mol
DOCKED: USER
DOCKED: USER
DOCKED: REMARK  5 active torsions:
DOCKED: REMARK  status: ('A' for Active; 'I' for Inactive)
DOCKED: REMARK    1  A    between atoms: C_2  and  C_19 
DOCKED: REMARK    2  A    between atoms: C_2  and  C_11 
DOCKED: REMARK    3  A    between atoms: C_19  and  C_20 
DOCKED: REMARK    4  A    between atoms: C_20  and  C_21 
DOCKED: REMARK    5  A    between atoms: C_21  and  N_22 
DOCKED: USER                              x       y       z     vdW  Elec       q    Type
DOCKED: USER                           _______ _______ _______ _____ _____    ______ ____
DOCKED: ROOT
DOCKED: ATOM      1  O   UNL     1     -40.167 -24.646   7.863 -0.16 -0.00    -0.346 OA 
DOCKED: ATOM      2  C   UNL     1     -41.195 -23.606   7.816 -0.23 +0.00    +0.130 C  
DOCKED: ATOM      3  C   UNL     1     -41.865 -23.823   6.490 -0.34 +0.00    +0.004 A  
DOCKED: ATOM      4  C   UNL     1     -41.341 -24.954   5.882 -0.42 +0.00    +0.006 A  
DOCKED: ATOM      5  C   UNL     1     -40.313 -25.564   6.754 -0.32 +0.00    +0.169 C  
DOCKED: ATOM      6  C   UNL     1     -42.866 -23.084   5.877 -0.31 -0.00    -0.001 A  
DOCKED: ATOM      7  C   UNL     1     -41.793 -25.382   4.645 -0.43 +0.00    +0.008 A  
DOCKED: ATOM      8  C   UNL     1     -43.329 -23.500   4.628 -0.13 +0.00    +0.010 A  
DOCKED: ATOM      9  C   UNL     1     -42.796 -24.643   4.015 -0.45 +0.00    +0.068 A  
DOCKED: ATOM     10  N   UNL     1     -43.682 -25.391   1.698 -2.31 -0.00    -0.191 NA 
DOCKED: ATOM     11  C   UNL     1     -43.284 -25.055   2.737 -0.37 +0.00    +0.101 C  
DOCKED: ENDROOT
DOCKED: BRANCH   2  12
DOCKED: ATOM     12  C   UNL     1     -42.138 -23.806   8.997 -0.17 +0.00    +0.038 C  
DOCKED: BRANCH  12  13
DOCKED: ATOM     13  C   UNL     1     -41.938 -25.175   9.643 -0.26 +0.00    +0.038 C  
DOCKED: BRANCH  13  14
DOCKED: ATOM     14  C   UNL     1     -41.104 -25.065  10.918 -0.16 +0.00    +0.251 C  
DOCKED: BRANCH  14  15
DOCKED: ATOM     15  N   UNL     1     -40.450 -23.764  10.985 -0.09 +0.00    +0.141 N  
DOCKED: ATOM     16  C   UNL     1     -40.761 -23.094  12.250 -0.02 +0.00    +0.285 C  
DOCKED: ATOM     17  C   UNL     1     -39.002 -23.906  10.829 +0.03 +0.00    +0.285 C  
DOCKED: ENDBRANCH  14  15
DOCKED: ENDBRANCH  13  14
DOCKED: ENDBRANCH  12  13
DOCKED: ENDBRANCH   2  12
DOCKED: BRANCH   2  18
DOCKED: ATOM     18  C   UNL     1     -40.492 -22.293   7.905 -0.20 +0.00    +0.006 A  
DOCKED: ATOM     19  C   UNL     1     -39.099 -22.250   7.952 -0.15 +0.00    +0.001 A  
DOCKED: ATOM     20  C   UNL     1     -38.443 -21.022   8.036 -0.12 +0.00    +0.029 A  
DOCKED: ATOM     21  C   UNL     1     -39.179 -19.839   8.071 -0.07 +0.00    +0.140 A  
DOCKED: ATOM     22  C   UNL     1     -40.572 -19.882   8.023 -0.09 +0.00    +0.029 A  
DOCKED: ATOM     23  F   UNL     1     -38.549 -18.659   8.149 -0.00 -0.00    -0.204 F  
DOCKED: ATOM     24  C   UNL     1     -41.230 -21.111   7.940 -0.14 +0.00    +0.001 A  
DOCKED: ENDBRANCH   2  18
DOCKED: TORSDOF 5
DOCKED: TER
DOCKED: ENDMDL
________________________________________________________________________________


    FINAL DOCKED STATE:
    ________________________


Run:   289 / 512
Time taken for this run:   0.002s

DOCKED: MODEL        289
DOCKED: USER    Run = 289
DOCKED: USER
DOCKED: USER    Estimated Free Energy of Binding    =  -4.47 kcal/mol  [=(1)+(2)+(3)-(4)]
DOCKED: USER
DOCKED: USER    (1) Final Intermolecular Energy     =  -5.96 kcal/mol
DOCKED: USER        vdW + Hbond + desolv Energy     =  -5.96 kcal/mol
DOCKED: USER        Electrostatic Energy            =  +0.00 kcal/mol
DOCKED: USER        Moving Ligand-Fixed Receptor    =  -5.96 kcal/mol
DOCKED: USER        Moving Ligand-Moving Receptor   =  +0.00 kcal/mol
DOCKED: USER    (2) Final Total Internal Energy     =  -1.45 kcal/mol
DOCKED: USER    (3) Torsional Free Energy           =  +1.49 kcal/mol
DOCKED: USER    (4) Unbound System's Energy         =  -1.45 kcal/mol
DOCKED: USER
DOCKED: USER
DOCKED: REMARK  5 active torsions:
DOCKED: REMARK  status: ('A' for Active; 'I' for Inactive)
DOCKED: REMARK    1  A    between atoms: C_2  and  C_19 
DOCKED: REMARK    2  A    between atoms: C_2  and  C_11 
DOCKED: REMARK    3  A    between atoms: C_19  and  C_20 
DOCKED: REMARK    4  A    between atoms: C_20  and  C_21 
DOCKED: REMARK    5  A    between atoms: C_21  and  N_22 
DOCKED: USER                              x       y       z     vdW  Elec       q    Type
DOCKED: USER                           _______ _______ _______ _____ _____    ______ ____
DOCKED: ROOT
DOCKED: ATOM      1  O   UNL     1     -39.100 -16.106   0.758 -0.09 -0.00    -0.346 OA 
DOCKED: ATOM      2  C   UNL     1     -37.798 -15.688   0.236 -0.17 +0.00    +0.130 C  
DOCKED: ATOM      3  C   UNL     1     -38.139 -14.919  -1.008 -0.24 +0.00    +0.004 A  
DOCKED: ATOM      4  C   UNL     1     -39.517 -14.812  -1.127 -0.27 +0.00    +0.006 A  
DOCKED: ATOM      5  C   UNL     1     -40.174 -15.480   0.018 -0.02 +0.00    +0.169 C  
DOCKED: ATOM      6  C   UNL     1     -37.296 -14.351  -1.952 -0.20 -0.00    -0.001 A  
DOCKED: ATOM      7  C   UNL     1     -40.098 -14.140  -2.190 -0.37 +0.00    +0.008 A  
DOCKED: ATOM      8  C   UNL     1     -37.867 -13.674  -3.031 -0.27 +0.00    +0.010 A  
DOCKED: ATOM      9  C   UNL     1     -39.261 -13.569  -3.149 -0.34 +0.00    +0.068 A  
DOCKED: ATOM     10  N   UNL     1     -40.287 -12.302  -5.162 -2.37 -0.00    -0.191 NA 
DOCKED: ATOM     11  C   UNL     1     -39.827 -12.871  -4.260 -0.36 +0.00    +0.101 C  
DOCKED: ENDROOT
DOCKED: BRANCH   2  12
DOCKED: ATOM     12  C   UNL     1     -37.107 -14.833   1.292 -0.16 +0.00    +0.038 C  
DOCKED: BRANCH  12  13
DOCKED: ATOM     13  C   UNL     1     -38.049 -14.507   2.449 -0.18 +0.00    +0.038 C  
DOCKED: BRANCH  13  14
DOCKED: ATOM     14  C   UNL     1     -37.905 -15.526   3.578 -0.08 +0.00    +0.251 C  
DOCKED: BRANCH  14  15
DOCKED: ATOM     15  N   UNL     1     -39.040 -16.441   3.584 -0.08 +0.00    +0.141 N  
DOCKED: ATOM     16  C   UNL     1     -38.589 -17.824   3.423 -0.04 +0.00    +0.285 C  
DOCKED: ATOM     17  C   UNL     1     -39.811 -16.299   4.820 -0.06 +0.00    +0.285 C  
DOCKED: ENDBRANCH  14  15
DOCKED: ENDBRANCH  13  14
DOCKED: ENDBRANCH  12  13
DOCKED: ENDBRANCH   2  12
DOCKED: BRANCH   2  18
DOCKED: ATOM     18  C   UNL     1     -37.021 -16.931  -0.043 -0.11 +0.00    +0.006 A  
DOCKED: ATOM     19  C   UNL     1     -37.327 -17.708  -1.160 -0.19 +0.00    +0.001 A  
DOCKED: ATOM     20  C   UNL     1     -36.600 -18.870  -1.419 -0.18 +0.00    +0.029 A  
DOCKED: ATOM     21  C   UNL     1     -35.568 -19.253  -0.564 -0.08 +0.00    +0.140 A  
DOCKED: ATOM     22  C   UNL     1     -35.262 -18.475   0.552 -0.03 +0.00    +0.029 A  
DOCKED: ATOM     23  F   UNL     1     -34.869 -20.368  -0.814 -0.03 -0.00    -0.204 F  
DOCKED: ATOM     24  C   UNL     1     -35.989 -17.313   0.814 -0.04 +0.00    +0.001 A  
DOCKED: ENDBRANCH   2  18
DOCKED: TORSDOF 5
DOCKED: TER
DOCKED: ENDMDL
________________________________________________________________________________


    FINAL DOCKED STATE:
    ________________________


Run:   290 / 512
Time taken for this run:   0.002s

DOCKED: MODEL        290
DOCKED: USER    Run = 290
DOCKED: USER
DOCKED: USER    Estimated Free Energy of Binding    =  -4.70 kcal/mol  [=(1)+(2)+(3)-(4)]
DOCKED: USER
DOCKED: USER    (1) Final Intermolecular Energy     =  -6.19 kcal/mol
DOCKED: USER        vdW + Hbond + desolv Energy     =  -6.19 kcal/mol
DOCKED: USER        Electrostatic Energy            =  +0.00 kcal/mol
DOCKED: USER        Moving Ligand-Fixed Receptor    =  -6.19 kcal/mol
DOCKED: USER        Moving Ligand-Moving Receptor   =  +0.00 kcal/mol
DOCKED: USER    (2) Final Total Internal Energy     =  -1.00 kcal/mol
DOCKED: USER    (3) Torsional Free Energy           =  +1.49 kcal/mol
DOCKED: USER    (4) Unbound System's Energy         =  -1.00 kcal/mol
DOCKED: USER
DOCKED: USER
DOCKED: REMARK  5 active torsions:
DOCKED: REMARK  status: ('A' for Active; 'I' for Inactive)
DOCKED: REMARK    1  A    between atoms: C_2  and  C_19 
DOCKED: REMARK    2  A    between atoms: C_2  and  C_11 
DOCKED: REMARK    3  A    between atoms: C_19  and  C_20 
DOCKED: REMARK    4  A    between atoms: C_20  and  C_21 
DOCKED: REMARK    5  A    between atoms: C_21  and  N_22 
DOCKED: USER                              x       y       z     vdW  Elec       q    Type
DOCKED: USER                           _______ _______ _______ _____ _____    ______ ____
DOCKED: ROOT
DOCKED: ATOM      1  O   UNL     1     -39.242 -15.912   0.933 -0.10 -0.00    -0.346 OA 
DOCKED: ATOM      2  C   UNL     1     -37.947 -15.818   0.257 -0.17 +0.00    +0.130 C  
DOCKED: ATOM      3  C   UNL     1     -38.261 -15.098  -1.023 -0.26 +0.00    +0.004 A  
DOCKED: ATOM      4  C   UNL     1     -39.595 -14.716  -1.028 -0.23 +0.00    +0.006 A  
DOCKED: ATOM      5  C   UNL     1     -40.244 -15.138   0.233 -0.18 +0.00    +0.169 C  
DOCKED: ATOM      6  C   UNL     1     -37.430 -14.796  -2.091 -0.21 -0.00    -0.001 A  
DOCKED: ATOM      7  C   UNL     1     -40.143 -14.027  -2.097 -0.32 +0.00    +0.008 A  
DOCKED: ATOM      8  C   UNL     1     -37.968 -14.105  -3.178 -0.27 +0.00    +0.010 A  
DOCKED: ATOM      9  C   UNL     1     -39.318 -13.722  -3.180 -0.29 +0.00    +0.068 A  
DOCKED: ATOM     10  N   UNL     1     -40.284 -12.436  -5.212 -2.46 -0.00    -0.191 NA 
DOCKED: ATOM     11  C   UNL     1     -39.851 -13.013  -4.301 -0.39 +0.00    +0.101 C  
DOCKED: ENDROOT
DOCKED: BRANCH   2  12
DOCKED: ATOM     12  C   UNL     1     -36.989 -15.043   1.154 -0.16 +0.00    +0.038 C  
DOCKED: BRANCH  12  13
DOCKED: ATOM     13  C   UNL     1     -36.374 -15.944   2.223 -0.08 +0.00    +0.038 C  
DOCKED: BRANCH  13  14
DOCKED: ATOM     14  C   UNL     1     -34.880 -16.145   1.979 -0.02 +0.00    +0.251 C  
DOCKED: BRANCH  14  15
DOCKED: ATOM     15  N   UNL     1     -34.194 -16.423   3.236 -0.01 +0.00    +0.141 N  
DOCKED: ATOM     16  C   UNL     1     -34.239 -15.256   4.117 -0.02 +0.00    +0.285 C  
DOCKED: ATOM     17  C   UNL     1     -34.788 -17.585   3.901 -0.01 +0.00    +0.285 C  
DOCKED: ENDBRANCH  14  15
DOCKED: ENDBRANCH  13  14
DOCKED: ENDBRANCH  12  13
DOCKED: ENDBRANCH   2  12
DOCKED: BRANCH   2  18
DOCKED: ATOM     18  C   UNL     1     -37.468 -17.214   0.036 -0.14 +0.00    +0.006 A  
DOCKED: ATOM     19  C   UNL     1     -36.515 -17.476  -0.947 -0.11 +0.00    +0.001 A  
DOCKED: ATOM     20  C   UNL     1     -36.068 -18.782  -1.153 -0.13 +0.00    +0.029 A  
DOCKED: ATOM     21  C   UNL     1     -36.573 -19.822  -0.374 -0.16 +0.00    +0.140 A  
DOCKED: ATOM     22  C   UNL     1     -37.526 -19.559   0.610 -0.22 +0.00    +0.029 A  
DOCKED: ATOM     23  F   UNL     1     -36.142 -21.075  -0.571 -0.07 -0.00    -0.204 F  
DOCKED: ATOM     24  C   UNL     1     -37.974 -18.253   0.816 -0.18 +0.00    +0.001 A  
DOCKED: ENDBRANCH   2  18
DOCKED: TORSDOF 5
DOCKED: TER
DOCKED: ENDMDL
________________________________________________________________________________


    FINAL DOCKED STATE:
    ________________________


Run:   291 / 512
Time taken for this run:   0.002s

DOCKED: MODEL        291
DOCKED: USER    Run = 291
DOCKED: USER
DOCKED: USER    Estimated Free Energy of Binding    =  -4.30 kcal/mol  [=(1)+(2)+(3)-(4)]
DOCKED: USER
DOCKED: USER    (1) Final Intermolecular Energy     =  -5.79 kcal/mol
DOCKED: USER        vdW + Hbond + desolv Energy     =  -5.79 kcal/mol
DOCKED: USER        Electrostatic Energy            =  +0.00 kcal/mol
DOCKED: USER        Moving Ligand-Fixed Receptor    =  -5.79 kcal/mol
DOCKED: USER        Moving Ligand-Moving Receptor   =  +0.00 kcal/mol
DOCKED: USER    (2) Final Total Internal Energy     =  -1.07 kcal/mol
DOCKED: USER    (3) Torsional Free Energy           =  +1.49 kcal/mol
DOCKED: USER    (4) Unbound System's Energy         =  -1.07 kcal/mol
DOCKED: USER
DOCKED: USER
DOCKED: REMARK  5 active torsions:
DOCKED: REMARK  status: ('A' for Active; 'I' for Inactive)
DOCKED: REMARK    1  A    between atoms: C_2  and  C_19 
DOCKED: REMARK    2  A    between atoms: C_2  and  C_11 
DOCKED: REMARK    3  A    between atoms: C_19  and  C_20 
DOCKED: REMARK    4  A    between atoms: C_20  and  C_21 
DOCKED: REMARK    5  A    between atoms: C_21  and  N_22 
DOCKED: USER                              x       y       z     vdW  Elec       q    Type
DOCKED: USER                           _______ _______ _______ _____ _____    ______ ____
DOCKED: ROOT
DOCKED: ATOM      1  O   UNL     1     -38.309 -21.906   8.575 -0.08 -0.00    -0.346 OA 
DOCKED: ATOM      2  C   UNL     1     -39.363 -20.998   8.119 -0.12 +0.00    +0.130 C  
DOCKED: ATOM      3  C   UNL     1     -40.347 -21.904   7.438 -0.21 +0.00    +0.004 A  
DOCKED: ATOM      4  C   UNL     1     -39.947 -23.224   7.587 -0.24 +0.00    +0.006 A  
DOCKED: ATOM      5  C   UNL     1     -38.697 -23.285   8.376 -0.15 +0.00    +0.169 C  
DOCKED: ATOM      6  C   UNL     1     -41.509 -21.585   6.751 -0.27 -0.00    -0.001 A  
DOCKED: ATOM      7  C   UNL     1     -40.688 -24.266   7.054 -0.35 +0.00    +0.008 A  
DOCKED: ATOM      8  C   UNL     1     -42.265 -22.624   6.204 -0.31 +0.00    +0.010 A  
DOCKED: ATOM      9  C   UNL     1     -41.856 -23.957   6.356 -0.31 +0.00    +0.068 A  
DOCKED: ATOM     10  N   UNL     1     -43.284 -25.862   5.332 -2.55 -0.00    -0.191 NA 
DOCKED: ATOM     11  C   UNL     1     -42.643 -25.007   5.791 -0.36 +0.00    +0.101 C  
DOCKED: ENDROOT
DOCKED: BRANCH   2  12
DOCKED: ATOM     12  C   UNL     1     -39.950 -20.291   9.335 -0.05 +0.00    +0.038 C  
DOCKED: BRANCH  12  13
DOCKED: ATOM     13  C   UNL     1     -40.484 -18.907   8.971 -0.04 +0.00    +0.038 C  
DOCKED: BRANCH  13  14
DOCKED: ATOM     14  C   UNL     1     -41.885 -19.000   8.370 -0.04 +0.00    +0.251 C  
DOCKED: BRANCH  14  15
DOCKED: ATOM     15  N   UNL     1     -42.262 -17.729   7.764 -0.05 +0.00    +0.141 N  
DOCKED: ATOM     16  C   UNL     1     -42.695 -16.777   8.789 -0.01 +0.00    +0.285 C  
DOCKED: ATOM     17  C   UNL     1     -41.148 -17.173   6.995 -0.05 +0.00    +0.285 C  
DOCKED: ENDBRANCH  14  15
DOCKED: ENDBRANCH  13  14
DOCKED: ENDBRANCH  12  13
DOCKED: ENDBRANCH   2  12
DOCKED: BRANCH   2  18
DOCKED: ATOM     18  C   UNL     1     -38.726 -20.024   7.186 -0.14 +0.00    +0.006 A  
DOCKED: ATOM     19  C   UNL     1     -39.321 -19.746   5.956 -0.15 +0.00    +0.001 A  
DOCKED: ATOM     20  C   UNL     1     -38.724 -18.835   5.084 -0.13 +0.00    +0.029 A  
DOCKED: ATOM     21  C   UNL     1     -37.535 -18.203   5.442 -0.07 +0.00    +0.140 A  
DOCKED: ATOM     22  C   UNL     1     -36.940 -18.481   6.673 -0.05 +0.00    +0.029 A  
DOCKED: ATOM     23  F   UNL     1     -36.963 -17.327   4.606 -0.00 -0.00    -0.204 F  
DOCKED: ATOM     24  C   UNL     1     -37.536 -19.393   7.546 -0.08 +0.00    +0.001 A  
DOCKED: ENDBRANCH   2  18
DOCKED: TORSDOF 5
DOCKED: TER
DOCKED: ENDMDL
________________________________________________________________________________


    FINAL DOCKED STATE:
    ________________________


Run:   292 / 512
Time taken for this run:   0.002s

DOCKED: MODEL        292
DOCKED: USER    Run = 292
DOCKED: USER
DOCKED: USER    Estimated Free Energy of Binding    =  -3.68 kcal/mol  [=(1)+(2)+(3)-(4)]
DOCKED: USER
DOCKED: USER    (1) Final Intermolecular Energy     =  -5.17 kcal/mol
DOCKED: USER        vdW + Hbond + desolv Energy     =  -5.17 kcal/mol
DOCKED: USER        Electrostatic Energy            =  +0.00 kcal/mol
DOCKED: USER        Moving Ligand-Fixed Receptor    =  -5.17 kcal/mol
DOCKED: USER        Moving Ligand-Moving Receptor   =  +0.00 kcal/mol
DOCKED: USER    (2) Final Total Internal Energy     =  -1.37 kcal/mol
DOCKED: USER    (3) Torsional Free Energy           =  +1.49 kcal/mol
DOCKED: USER    (4) Unbound System's Energy         =  -1.37 kcal/mol
DOCKED: USER
DOCKED: USER
DOCKED: REMARK  5 active torsions:
DOCKED: REMARK  status: ('A' for Active; 'I' for Inactive)
DOCKED: REMARK    1  A    between atoms: C_2  and  C_19 
DOCKED: REMARK    2  A    between atoms: C_2  and  C_11 
DOCKED: REMARK    3  A    between atoms: C_19  and  C_20 
DOCKED: REMARK    4  A    between atoms: C_20  and  C_21 
DOCKED: REMARK    5  A    between atoms: C_21  and  N_22 
DOCKED: USER                              x       y       z     vdW  Elec       q    Type
DOCKED: USER                           _______ _______ _______ _____ _____    ______ ____
DOCKED: ROOT
DOCKED: ATOM      1  O   UNL     1     -34.229 -12.884  -2.087 -0.00 -0.00    -0.346 OA 
DOCKED: ATOM      2  C   UNL     1     -34.038 -12.444  -3.469 -0.03 +0.00    +0.130 C  
DOCKED: ATOM      3  C   UNL     1     -35.426 -12.444  -4.041 -0.11 +0.00    +0.004 A  
DOCKED: ATOM      4  C   UNL     1     -36.342 -12.749  -3.044 -0.16 +0.00    +0.006 A  
DOCKED: ATOM      5  C   UNL     1     -35.636 -12.957  -1.760 -0.11 +0.00    +0.169 C  
DOCKED: ATOM      6  C   UNL     1     -35.846 -12.184  -5.338 -0.17 -0.00    -0.001 A  
DOCKED: ATOM      7  C   UNL     1     -37.700 -12.809  -3.307 -0.30 +0.00    +0.008 A  
DOCKED: ATOM      8  C   UNL     1     -37.212 -12.244  -5.619 -0.28 +0.00    +0.010 A  
DOCKED: ATOM      9  C   UNL     1     -38.134 -12.554  -4.609 -0.34 +0.00    +0.068 A  
DOCKED: ATOM     10  N   UNL     1     -40.663 -12.653  -5.164 -2.54 -0.00    -0.191 NA 
DOCKED: ATOM     11  C   UNL     1     -39.528 -12.609  -4.915 -0.40 +0.00    +0.101 C  
DOCKED: ENDROOT
DOCKED: BRANCH   2  12
DOCKED: ATOM     12  C   UNL     1     -33.403 -11.059  -3.452 -0.06 +0.00    +0.038 C  
DOCKED: BRANCH  12  13
DOCKED: ATOM     13  C   UNL     1     -34.463  -9.961  -3.385 -0.14 +0.00    +0.038 C  
DOCKED: BRANCH  13  14
DOCKED: ATOM     14  C   UNL     1     -34.452  -9.269  -2.023 -0.05 +0.00    +0.251 C  
DOCKED: BRANCH  14  15
DOCKED: ATOM     15  N   UNL     1     -35.615  -9.670  -1.240 -0.16 +0.00    +0.141 N  
DOCKED: ATOM     16  C   UNL     1     -35.434  -9.321   0.170 -0.09 +0.00    +0.285 C  
DOCKED: ATOM     17  C   UNL     1     -36.830  -9.044  -1.766 -0.20 +0.00    +0.285 C  
DOCKED: ENDBRANCH  14  15
DOCKED: ENDBRANCH  13  14
DOCKED: ENDBRANCH  12  13
DOCKED: ENDBRANCH   2  12
DOCKED: BRANCH   2  18
DOCKED: ATOM     18  C   UNL     1     -33.139 -13.440  -4.124 -0.01 +0.00    +0.006 A  
DOCKED: ATOM     19  C   UNL     1     -33.683 -14.550  -4.770 -0.01 +0.00    +0.001 A  
DOCKED: ATOM     20  C   UNL     1     -32.841 -15.480  -5.381 -0.00 +0.00    +0.029 A  
DOCKED: ATOM     21  C   UNL     1     -31.460 -15.300  -5.346 -0.00 +0.00    +0.140 A  
DOCKED: ATOM     22  C   UNL     1     -30.917 -14.190  -4.699 -0.00 +0.00    +0.029 A  
DOCKED: ATOM     23  F   UNL     1     -30.652 -16.192  -5.934 +0.00 -0.00    -0.204 F  
DOCKED: ATOM     24  C   UNL     1     -31.758 -13.259  -4.087 -0.00 +0.00    +0.001 A  
DOCKED: ENDBRANCH   2  18
DOCKED: TORSDOF 5
DOCKED: TER
DOCKED: ENDMDL
________________________________________________________________________________


    FINAL DOCKED STATE:
    ________________________


Run:   293 / 512
Time taken for this run:   0.002s

DOCKED: MODEL        293
DOCKED: USER    Run = 293
DOCKED: USER
DOCKED: USER    Estimated Free Energy of Binding    =  -5.29 kcal/mol  [=(1)+(2)+(3)-(4)]
DOCKED: USER
DOCKED: USER    (1) Final Intermolecular Energy     =  -6.78 kcal/mol
DOCKED: USER        vdW + Hbond + desolv Energy     =  -6.78 kcal/mol
DOCKED: USER        Electrostatic Energy            =  +0.00 kcal/mol
DOCKED: USER        Moving Ligand-Fixed Receptor    =  -6.78 kcal/mol
DOCKED: USER        Moving Ligand-Moving Receptor   =  +0.00 kcal/mol
DOCKED: USER    (2) Final Total Internal Energy     =  -1.13 kcal/mol
DOCKED: USER    (3) Torsional Free Energy           =  +1.49 kcal/mol
DOCKED: USER    (4) Unbound System's Energy         =  -1.13 kcal/mol
DOCKED: USER
DOCKED: USER
DOCKED: REMARK  5 active torsions:
DOCKED: REMARK  status: ('A' for Active; 'I' for Inactive)
DOCKED: REMARK    1  A    between atoms: C_2  and  C_19 
DOCKED: REMARK    2  A    between atoms: C_2  and  C_11 
DOCKED: REMARK    3  A    between atoms: C_19  and  C_20 
DOCKED: REMARK    4  A    between atoms: C_20  and  C_21 
DOCKED: REMARK    5  A    between atoms: C_21  and  N_22 
DOCKED: USER                              x       y       z     vdW  Elec       q    Type
DOCKED: USER                           _______ _______ _______ _____ _____    ______ ____
DOCKED: ROOT
DOCKED: ATOM      1  O   UNL     1     -40.940 -21.623   7.763 -0.06 -0.00    -0.346 OA 
DOCKED: ATOM      2  C   UNL     1     -40.736 -23.067   7.888 -0.21 +0.00    +0.130 C  
DOCKED: ATOM      3  C   UNL     1     -41.286 -23.620   6.605 -0.33 +0.00    +0.004 A  
DOCKED: ATOM      4  C   UNL     1     -41.669 -22.577   5.773 -0.32 +0.00    +0.006 A  
DOCKED: ATOM      5  C   UNL     1     -41.392 -21.281   6.432 -0.23 +0.00    +0.169 C  
DOCKED: ATOM      6  C   UNL     1     -41.426 -24.939   6.201 -0.41 -0.00    -0.001 A  
DOCKED: ATOM      7  C   UNL     1     -42.206 -22.815   4.520 +0.05 +0.00    +0.008 A  
DOCKED: ATOM      8  C   UNL     1     -41.970 -25.196   4.941 -0.48 +0.00    +0.010 A  
DOCKED: ATOM      9  C   UNL     1     -42.357 -24.138   4.105 -0.41 +0.00    +0.068 A  
DOCKED: ATOM     10  N   UNL     1     -43.359 -24.649   1.770 -2.78 -0.00    -0.191 NA 
DOCKED: ATOM     11  C   UNL     1     -42.910 -24.420   2.818 -0.46 +0.00    +0.101 C  
DOCKED: ENDROOT
DOCKED: BRANCH   2  12
DOCKED: ATOM     12  C   UNL     1     -39.244 -23.331   8.056 -0.23 +0.00    +0.038 C  
DOCKED: BRANCH  12  13
DOCKED: ATOM     13  C   UNL     1     -38.461 -22.028   8.207 -0.15 +0.00    +0.038 C  
DOCKED: BRANCH  13  14
DOCKED: ATOM     14  C   UNL     1     -38.944 -21.234   9.419 -0.05 +0.00    +0.251 C  
DOCKED: BRANCH  14  15
DOCKED: ATOM     15  N   UNL     1     -38.872 -19.803   9.151 -0.03 +0.00    +0.141 N  
DOCKED: ATOM     16  C   UNL     1     -39.591 -19.048  10.178 -0.00 +0.00    +0.285 C  
DOCKED: ATOM     17  C   UNL     1     -37.478 -19.361   9.079 -0.01 +0.00    +0.285 C  
DOCKED: ENDBRANCH  14  15
DOCKED: ENDBRANCH  13  14
DOCKED: ENDBRANCH  12  13
DOCKED: ENDBRANCH   2  12
DOCKED: BRANCH   2  18
DOCKED: ATOM     18  C   UNL     1     -41.500 -23.514   9.089 -0.14 +0.00    +0.006 A  
DOCKED: ATOM     19  C   UNL     1     -41.575 -24.870   9.402 -0.25 +0.00    +0.001 A  
DOCKED: ATOM     20  C   UNL     1     -42.290 -25.287  10.525 -0.10 +0.00    +0.029 A  
DOCKED: ATOM     21  C   UNL     1     -42.929 -24.347  11.333 -0.08 +0.00    +0.140 A  
DOCKED: ATOM     22  C   UNL     1     -42.854 -22.990  11.019 -0.04 +0.00    +0.029 A  
DOCKED: ATOM     23  F   UNL     1     -43.614 -24.747  12.412 -0.01 -0.00    -0.204 F  
DOCKED: ATOM     24  C   UNL     1     -42.139 -22.573   9.895 -0.06 +0.00    +0.001 A  
DOCKED: ENDBRANCH   2  18
DOCKED: TORSDOF 5
DOCKED: TER
DOCKED: ENDMDL
________________________________________________________________________________


    FINAL DOCKED STATE:
    ________________________


Run:   294 / 512
Time taken for this run:   0.002s

DOCKED: MODEL        294
DOCKED: USER    Run = 294
DOCKED: USER
DOCKED: USER    Estimated Free Energy of Binding    =  -3.89 kcal/mol  [=(1)+(2)+(3)-(4)]
DOCKED: USER
DOCKED: USER    (1) Final Intermolecular Energy     =  -5.38 kcal/mol
DOCKED: USER        vdW + Hbond + desolv Energy     =  -5.38 kcal/mol
DOCKED: USER        Electrostatic Energy            =  +0.00 kcal/mol
DOCKED: USER        Moving Ligand-Fixed Receptor    =  -5.38 kcal/mol
DOCKED: USER        Moving Ligand-Moving Receptor   =  +0.00 kcal/mol
DOCKED: USER    (2) Final Total Internal Energy     =  -1.35 kcal/mol
DOCKED: USER    (3) Torsional Free Energy           =  +1.49 kcal/mol
DOCKED: USER    (4) Unbound System's Energy         =  -1.35 kcal/mol
DOCKED: USER
DOCKED: USER
DOCKED: REMARK  5 active torsions:
DOCKED: REMARK  status: ('A' for Active; 'I' for Inactive)
DOCKED: REMARK    1  A    between atoms: C_2  and  C_19 
DOCKED: REMARK    2  A    between atoms: C_2  and  C_11 
DOCKED: REMARK    3  A    between atoms: C_19  and  C_20 
DOCKED: REMARK    4  A    between atoms: C_20  and  C_21 
DOCKED: REMARK    5  A    between atoms: C_21  and  N_22 
DOCKED: USER                              x       y       z     vdW  Elec       q    Type
DOCKED: USER                           _______ _______ _______ _____ _____    ______ ____
DOCKED: ROOT
DOCKED: ATOM      1  O   UNL     1     -41.556 -19.732   7.626 -0.04 -0.00    -0.346 OA 
DOCKED: ATOM      2  C   UNL     1     -40.434 -20.633   7.894 -0.12 +0.00    +0.130 C  
DOCKED: ATOM      3  C   UNL     1     -40.885 -21.948   7.328 -0.23 +0.00    +0.004 A  
DOCKED: ATOM      4  C   UNL     1     -42.109 -21.788   6.694 -0.26 +0.00    +0.006 A  
DOCKED: ATOM      5  C   UNL     1     -42.541 -20.375   6.784 -0.19 +0.00    +0.169 C  
DOCKED: ATOM      6  C   UNL     1     -40.257 -23.185   7.361 -0.26 -0.00    -0.001 A  
DOCKED: ATOM      7  C   UNL     1     -42.747 -22.852   6.078 -0.30 +0.00    +0.008 A  
DOCKED: ATOM      8  C   UNL     1     -40.889 -24.268   6.749 -0.36 +0.00    +0.010 A  
DOCKED: ATOM      9  C   UNL     1     -42.127 -24.102   6.110 -0.32 +0.00    +0.068 A  
DOCKED: ATOM     10  N   UNL     1     -43.271 -26.134   4.980 -2.36 -0.00    -0.191 NA 
DOCKED: ATOM     11  C   UNL     1     -42.758 -25.223   5.487 -0.36 +0.00    +0.101 C  
DOCKED: ENDROOT
DOCKED: BRANCH   2  12
DOCKED: ATOM     12  C   UNL     1     -39.195 -20.081   7.199 -0.16 +0.00    +0.038 C  
DOCKED: BRANCH  12  13
DOCKED: ATOM     13  C   UNL     1     -39.011 -18.592   7.488 -0.07 +0.00    +0.038 C  
DOCKED: BRANCH  13  14
DOCKED: ATOM     14  C   UNL     1     -39.080 -17.770   6.202 -0.06 +0.00    +0.251 C  
DOCKED: BRANCH  14  15
DOCKED: ATOM     15  N   UNL     1     -40.091 -16.726   6.321 -0.05 +0.00    +0.141 N  
DOCKED: ATOM     16  C   UNL     1     -41.327 -17.126   5.646 -0.09 +0.00    +0.285 C  
DOCKED: ATOM     17  C   UNL     1     -40.356 -16.423   7.728 -0.01 +0.00    +0.285 C  
DOCKED: ENDBRANCH  14  15
DOCKED: ENDBRANCH  13  14
DOCKED: ENDBRANCH  12  13
DOCKED: ENDBRANCH   2  12
DOCKED: BRANCH   2  18
DOCKED: ATOM     18  C   UNL     1     -40.248 -20.670   9.374 -0.05 +0.00    +0.006 A  
DOCKED: ATOM     19  C   UNL     1     -38.972 -20.825   9.913 -0.04 +0.00    +0.001 A  
DOCKED: ATOM     20  C   UNL     1     -38.800 -20.860  11.297 -0.01 +0.00    +0.029 A  
DOCKED: ATOM     21  C   UNL     1     -39.903 -20.740  12.140 -0.00 +0.00    +0.140 A  
DOCKED: ATOM     22  C   UNL     1     -41.180 -20.585  11.601 -0.00 +0.00    +0.029 A  
DOCKED: ATOM     23  F   UNL     1     -39.738 -20.772  13.469 +0.00 -0.00    -0.204 F  
DOCKED: ATOM     24  C   UNL     1     -41.353 -20.551  10.216 -0.02 +0.00    +0.001 A  
DOCKED: ENDBRANCH   2  18
DOCKED: TORSDOF 5
DOCKED: TER
DOCKED: ENDMDL
________________________________________________________________________________


    FINAL DOCKED STATE:
    ________________________


Run:   295 / 512
Time taken for this run:   0.002s

DOCKED: MODEL        295
DOCKED: USER    Run = 295
DOCKED: USER
DOCKED: USER    Estimated Free Energy of Binding    =  -4.34 kcal/mol  [=(1)+(2)+(3)-(4)]
DOCKED: USER
DOCKED: USER    (1) Final Intermolecular Energy     =  -5.84 kcal/mol
DOCKED: USER        vdW + Hbond + desolv Energy     =  -5.84 kcal/mol
DOCKED: USER        Electrostatic Energy            =  +0.00 kcal/mol
DOCKED: USER        Moving Ligand-Fixed Receptor    =  -5.84 kcal/mol
DOCKED: USER        Moving Ligand-Moving Receptor   =  +0.00 kcal/mol
DOCKED: USER    (2) Final Total Internal Energy     =  -1.38 kcal/mol
DOCKED: USER    (3) Torsional Free Energy           =  +1.49 kcal/mol
DOCKED: USER    (4) Unbound System's Energy         =  -1.38 kcal/mol
DOCKED: USER
DOCKED: USER
DOCKED: REMARK  5 active torsions:
DOCKED: REMARK  status: ('A' for Active; 'I' for Inactive)
DOCKED: REMARK    1  A    between atoms: C_2  and  C_19 
DOCKED: REMARK    2  A    between atoms: C_2  and  C_11 
DOCKED: REMARK    3  A    between atoms: C_19  and  C_20 
DOCKED: REMARK    4  A    between atoms: C_20  and  C_21 
DOCKED: REMARK    5  A    between atoms: C_21  and  N_22 
DOCKED: USER                              x       y       z     vdW  Elec       q    Type
DOCKED: USER                           _______ _______ _______ _____ _____    ______ ____
DOCKED: ROOT
DOCKED: ATOM      1  O   UNL     1     -38.259 -21.935   8.557 -0.08 -0.00    -0.346 OA 
DOCKED: ATOM      2  C   UNL     1     -39.317 -21.022   8.122 -0.12 +0.00    +0.130 C  
DOCKED: ATOM      3  C   UNL     1     -40.313 -21.921   7.449 -0.21 +0.00    +0.004 A  
DOCKED: ATOM      4  C   UNL     1     -39.915 -23.244   7.585 -0.24 +0.00    +0.006 A  
DOCKED: ATOM      5  C   UNL     1     -38.654 -23.312   8.356 -0.14 +0.00    +0.169 C  
DOCKED: ATOM      6  C   UNL     1     -41.484 -21.595   6.780 -0.27 -0.00    -0.001 A  
DOCKED: ATOM      7  C   UNL     1     -40.666 -24.280   7.056 -0.35 +0.00    +0.008 A  
DOCKED: ATOM      8  C   UNL     1     -42.250 -22.629   6.238 -0.31 +0.00    +0.010 A  
DOCKED: ATOM      9  C   UNL     1     -41.843 -23.964   6.376 -0.31 +0.00    +0.068 A  
DOCKED: ATOM     10  N   UNL     1     -43.291 -25.858   5.362 -2.55 -0.00    -0.191 NA 
DOCKED: ATOM     11  C   UNL     1     -42.641 -25.009   5.816 -0.36 +0.00    +0.101 C  
DOCKED: ENDROOT
DOCKED: BRANCH   2  12
DOCKED: ATOM     12  C   UNL     1     -39.885 -20.321   9.350 -0.05 +0.00    +0.038 C  
DOCKED: BRANCH  12  13
DOCKED: ATOM     13  C   UNL     1     -39.697 -21.165  10.610 -0.03 +0.00    +0.038 C  
DOCKED: BRANCH  13  14
DOCKED: ATOM     14  C   UNL     1     -41.041 -21.643  11.156 -0.01 +0.00    +0.251 C  
DOCKED: BRANCH  14  15
DOCKED: ATOM     15  N   UNL     1     -41.441 -22.885  10.504 -0.04 +0.00    +0.141 N  
DOCKED: ATOM     16  C   UNL     1     -40.787 -24.032  11.135 -0.08 +0.00    +0.285 C  
DOCKED: ATOM     17  C   UNL     1     -42.895 -23.043  10.545 -0.02 +0.00    +0.285 C  
DOCKED: ENDBRANCH  14  15
DOCKED: ENDBRANCH  13  14
DOCKED: ENDBRANCH  12  13
DOCKED: ENDBRANCH   2  12
DOCKED: BRANCH   2  18
DOCKED: ATOM     18  C   UNL     1     -38.690 -20.044   7.185 -0.13 +0.00    +0.006 A  
DOCKED: ATOM     19  C   UNL     1     -39.474 -19.386   6.238 -0.17 +0.00    +0.001 A  
DOCKED: ATOM     20  C   UNL     1     -38.887 -18.472   5.363 -0.12 +0.00    +0.029 A  
DOCKED: ATOM     21  C   UNL     1     -37.519 -18.216   5.436 -0.07 +0.00    +0.140 A  
DOCKED: ATOM     22  C   UNL     1     -36.735 -18.874   6.384 -0.07 +0.00    +0.029 A  
DOCKED: ATOM     23  F   UNL     1     -36.956 -17.337   4.597 -0.00 -0.00    -0.204 F  
DOCKED: ATOM     24  C   UNL     1     -37.321 -19.790   7.260 -0.10 +0.00    +0.001 A  
DOCKED: ENDBRANCH   2  18
DOCKED: TORSDOF 5
DOCKED: TER
DOCKED: ENDMDL
________________________________________________________________________________


    FINAL DOCKED STATE:
    ________________________


Run:   296 / 512
Time taken for this run:   0.002s

DOCKED: MODEL        296
DOCKED: USER    Run = 296
DOCKED: USER
DOCKED: USER    Estimated Free Energy of Binding    =  -4.88 kcal/mol  [=(1)+(2)+(3)-(4)]
DOCKED: USER
DOCKED: USER    (1) Final Intermolecular Energy     =  -6.37 kcal/mol
DOCKED: USER        vdW + Hbond + desolv Energy     =  -6.37 kcal/mol
DOCKED: USER        Electrostatic Energy            =  +0.00 kcal/mol
DOCKED: USER        Moving Ligand-Fixed Receptor    =  -6.37 kcal/mol
DOCKED: USER        Moving Ligand-Moving Receptor   =  +0.00 kcal/mol
DOCKED: USER    (2) Final Total Internal Energy     =  -0.87 kcal/mol
DOCKED: USER    (3) Torsional Free Energy           =  +1.49 kcal/mol
DOCKED: USER    (4) Unbound System's Energy         =  -0.87 kcal/mol
DOCKED: USER
DOCKED: USER
DOCKED: REMARK  5 active torsions:
DOCKED: REMARK  status: ('A' for Active; 'I' for Inactive)
DOCKED: REMARK    1  A    between atoms: C_2  and  C_19 
DOCKED: REMARK    2  A    between atoms: C_2  and  C_11 
DOCKED: REMARK    3  A    between atoms: C_19  and  C_20 
DOCKED: REMARK    4  A    between atoms: C_20  and  C_21 
DOCKED: REMARK    5  A    between atoms: C_21  and  N_22 
DOCKED: USER                              x       y       z     vdW  Elec       q    Type
DOCKED: USER                           _______ _______ _______ _____ _____    ______ ____
DOCKED: ROOT
DOCKED: ATOM      1  O   UNL     1     -41.064 -22.497   8.073 -0.05 -0.00    -0.346 OA 
DOCKED: ATOM      2  C   UNL     1     -42.383 -23.108   8.249 -0.12 +0.00    +0.130 C  
DOCKED: ATOM      3  C   UNL     1     -42.803 -23.463   6.852 -0.24 +0.00    +0.004 A  
DOCKED: ATOM      4  C   UNL     1     -41.771 -23.181   5.968 -0.36 +0.00    +0.006 A  
DOCKED: ATOM      5  C   UNL     1     -40.609 -22.641   6.708 -0.15 +0.00    +0.169 C  
DOCKED: ATOM      6  C   UNL     1     -43.999 -24.002   6.401 -0.27 -0.00    -0.001 A  
DOCKED: ATOM      7  C   UNL     1     -41.899 -23.423   4.611 -0.19 +0.00    +0.008 A  
DOCKED: ATOM      8  C   UNL     1     -44.145 -24.248   5.035 -0.36 +0.00    +0.010 A  
DOCKED: ATOM      9  C   UNL     1     -43.100 -23.960   4.145 -0.36 +0.00    +0.068 A  
DOCKED: ATOM     10  N   UNL     1     -43.402 -24.434   1.615 -3.06 -0.00    -0.191 NA 
DOCKED: ATOM     11  C   UNL     1     -43.267 -24.221   2.750 -0.26 +0.00    +0.101 C  
DOCKED: ENDROOT
DOCKED: BRANCH   2  12
DOCKED: ATOM     12  C   UNL     1     -42.233 -24.327   9.151 -0.21 +0.00    +0.038 C  
DOCKED: BRANCH  12  13
DOCKED: ATOM     13  C   UNL     1     -42.828 -24.072  10.535 -0.14 +0.00    +0.038 C  
DOCKED: BRANCH  13  14
DOCKED: ATOM     14  C   UNL     1     -43.086 -25.384  11.272 -0.01 +0.00    +0.251 C  
DOCKED: BRANCH  14  15
DOCKED: ATOM     15  N   UNL     1     -44.196 -25.232  12.206 -0.11 +0.00    +0.141 N  
DOCKED: ATOM     16  C   UNL     1     -45.355 -26.007  11.761 -0.10 +0.00    +0.285 C  
DOCKED: ATOM     17  C   UNL     1     -43.797 -25.643  13.553 -0.11 +0.00    +0.285 C  
DOCKED: ENDBRANCH  14  15
DOCKED: ENDBRANCH  13  14
DOCKED: ENDBRANCH  12  13
DOCKED: ENDBRANCH   2  12
DOCKED: BRANCH   2  18
DOCKED: ATOM     18  C   UNL     1     -43.261 -22.078   8.877 -0.07 +0.00    +0.006 A  
DOCKED: ATOM     19  C   UNL     1     -44.647 -22.192   8.780 -0.09 +0.00    +0.001 A  
DOCKED: ATOM     20  C   UNL     1     -45.467 -21.227   9.367 -0.05 +0.00    +0.029 A  
DOCKED: ATOM     21  C   UNL     1     -44.901 -20.152  10.050 -0.01 +0.00    +0.140 A  
DOCKED: ATOM     22  C   UNL     1     -43.514 -20.039  10.146 -0.02 +0.00    +0.029 A  
DOCKED: ATOM     23  F   UNL     1     -45.688 -19.228  10.615 +0.01 -0.00    -0.204 F  
DOCKED: ATOM     24  C   UNL     1     -42.693 -21.002   9.559 -0.04 +0.00    +0.001 A  
DOCKED: ENDBRANCH   2  18
DOCKED: TORSDOF 5
DOCKED: TER
DOCKED: ENDMDL
________________________________________________________________________________


    FINAL DOCKED STATE:
    ________________________


Run:   297 / 512
Time taken for this run:   0.002s

DOCKED: MODEL        297
DOCKED: USER    Run = 297
DOCKED: USER
DOCKED: USER    Estimated Free Energy of Binding    =  -3.81 kcal/mol  [=(1)+(2)+(3)-(4)]
DOCKED: USER
DOCKED: USER    (1) Final Intermolecular Energy     =  -5.31 kcal/mol
DOCKED: USER        vdW + Hbond + desolv Energy     =  -5.31 kcal/mol
DOCKED: USER        Electrostatic Energy            =  +0.00 kcal/mol
DOCKED: USER        Moving Ligand-Fixed Receptor    =  -5.31 kcal/mol
DOCKED: USER        Moving Ligand-Moving Receptor   =  +0.00 kcal/mol
DOCKED: USER    (2) Final Total Internal Energy     =  -1.44 kcal/mol
DOCKED: USER    (3) Torsional Free Energy           =  +1.49 kcal/mol
DOCKED: USER    (4) Unbound System's Energy         =  -1.44 kcal/mol
DOCKED: USER
DOCKED: USER
DOCKED: REMARK  5 active torsions:
DOCKED: REMARK  status: ('A' for Active; 'I' for Inactive)
DOCKED: REMARK    1  A    between atoms: C_2  and  C_19 
DOCKED: REMARK    2  A    between atoms: C_2  and  C_11 
DOCKED: REMARK    3  A    between atoms: C_19  and  C_20 
DOCKED: REMARK    4  A    between atoms: C_20  and  C_21 
DOCKED: REMARK    5  A    between atoms: C_21  and  N_22 
DOCKED: USER                              x       y       z     vdW  Elec       q    Type
DOCKED: USER                           _______ _______ _______ _____ _____    ______ ____
DOCKED: ROOT
DOCKED: ATOM      1  O   UNL     1     -34.578 -19.282   0.891 +0.01 -0.00    -0.346 OA 
DOCKED: ATOM      2  C   UNL     1     -35.856 -19.926   0.584 -0.12 +0.00    +0.130 C  
DOCKED: ATOM      3  C   UNL     1     -35.819 -21.198   1.379 -0.19 +0.00    +0.004 A  
DOCKED: ATOM      4  C   UNL     1     -34.671 -21.228   2.159 -0.09 +0.00    +0.006 A  
DOCKED: ATOM      5  C   UNL     1     -33.887 -19.991   1.947 -0.02 +0.00    +0.169 C  
DOCKED: ATOM      6  C   UNL     1     -36.733 -22.241   1.419 -0.31 -0.00    -0.001 A  
DOCKED: ATOM      7  C   UNL     1     -34.396 -22.296   2.996 -0.13 +0.00    +0.008 A  
DOCKED: ATOM      8  C   UNL     1     -36.468 -23.327   2.255 -0.26 +0.00    +0.010 A  
DOCKED: ATOM      9  C   UNL     1     -35.305 -23.354   3.040 -0.23 +0.00    +0.068 A  
DOCKED: ATOM     10  N   UNL     1     -34.846 -25.383   4.584 -2.02 -0.00    -0.191 NA 
DOCKED: ATOM     11  C   UNL     1     -35.052 -24.473   3.891 -0.27 +0.00    +0.101 C  
DOCKED: ENDROOT
DOCKED: BRANCH   2  12
DOCKED: ATOM     12  C   UNL     1     -36.982 -18.992   1.012 -0.16 +0.00    +0.038 C  
DOCKED: BRANCH  12  13
DOCKED: ATOM     13  C   UNL     1     -37.317 -19.165   2.492 -0.17 +0.00    +0.038 C  
DOCKED: BRANCH  13  14
DOCKED: ATOM     14  C   UNL     1     -36.486 -18.220   3.357 -0.04 +0.00    +0.251 C  
DOCKED: BRANCH  14  15
DOCKED: ATOM     15  N   UNL     1     -35.705 -18.977   4.329 -0.05 +0.00    +0.141 N  
DOCKED: ATOM     16  C   UNL     1     -34.877 -18.081   5.137 -0.01 +0.00    +0.285 C  
DOCKED: ATOM     17  C   UNL     1     -36.584 -19.771   5.190 -0.08 +0.00    +0.285 C  
DOCKED: ENDBRANCH  14  15
DOCKED: ENDBRANCH  13  14
DOCKED: ENDBRANCH  12  13
DOCKED: ENDBRANCH   2  12
DOCKED: BRANCH   2  18
DOCKED: ATOM     18  C   UNL     1     -35.883 -20.161  -0.889 -0.17 +0.00    +0.006 A  
DOCKED: ATOM     19  C   UNL     1     -36.768 -19.445  -1.694 -0.18 +0.00    +0.001 A  
DOCKED: ATOM     20  C   UNL     1     -36.792 -19.666  -3.071 -0.22 +0.00    +0.029 A  
DOCKED: ATOM     21  C   UNL     1     -35.931 -20.603  -3.642 -0.21 +0.00    +0.140 A  
DOCKED: ATOM     22  C   UNL     1     -35.046 -21.319  -2.837 -0.17 +0.00    +0.029 A  
DOCKED: ATOM     23  F   UNL     1     -35.953 -20.814  -4.965 -0.08 -0.00    -0.204 F  
DOCKED: ATOM     24  C   UNL     1     -35.021 -21.098  -1.459 -0.14 +0.00    +0.001 A  
DOCKED: ENDBRANCH   2  18
DOCKED: TORSDOF 5
DOCKED: TER
DOCKED: ENDMDL
________________________________________________________________________________


    FINAL DOCKED STATE:
    ________________________


Run:   298 / 512
Time taken for this run:   0.002s

DOCKED: MODEL        298
DOCKED: USER    Run = 298
DOCKED: USER
DOCKED: USER    Estimated Free Energy of Binding    =  -4.14 kcal/mol  [=(1)+(2)+(3)-(4)]
DOCKED: USER
DOCKED: USER    (1) Final Intermolecular Energy     =  -5.63 kcal/mol
DOCKED: USER        vdW + Hbond + desolv Energy     =  -5.63 kcal/mol
DOCKED: USER        Electrostatic Energy            =  +0.00 kcal/mol
DOCKED: USER        Moving Ligand-Fixed Receptor    =  -5.63 kcal/mol
DOCKED: USER        Moving Ligand-Moving Receptor   =  +0.00 kcal/mol
DOCKED: USER    (2) Final Total Internal Energy     =  -0.88 kcal/mol
DOCKED: USER    (3) Torsional Free Energy           =  +1.49 kcal/mol
DOCKED: USER    (4) Unbound System's Energy         =  -0.88 kcal/mol
DOCKED: USER
DOCKED: USER
DOCKED: REMARK  5 active torsions:
DOCKED: REMARK  status: ('A' for Active; 'I' for Inactive)
DOCKED: REMARK    1  A    between atoms: C_2  and  C_19 
DOCKED: REMARK    2  A    between atoms: C_2  and  C_11 
DOCKED: REMARK    3  A    between atoms: C_19  and  C_20 
DOCKED: REMARK    4  A    between atoms: C_20  and  C_21 
DOCKED: REMARK    5  A    between atoms: C_21  and  N_22 
DOCKED: USER                              x       y       z     vdW  Elec       q    Type
DOCKED: USER                           _______ _______ _______ _____ _____    ______ ____
DOCKED: ROOT
DOCKED: ATOM      1  O   UNL     1     -43.858 -19.399   7.535 -0.07 -0.00    -0.346 OA 
DOCKED: ATOM      2  C   UNL     1     -42.428 -19.594   7.288 -0.17 +0.00    +0.130 C  
DOCKED: ATOM      3  C   UNL     1     -42.331 -21.028   6.855 -0.23 +0.00    +0.004 A  
DOCKED: ATOM      4  C   UNL     1     -43.604 -21.573   6.756 -0.21 +0.00    +0.006 A  
DOCKED: ATOM      5  C   UNL     1     -44.617 -20.550   7.099 -0.19 +0.00    +0.169 C  
DOCKED: ATOM      6  C   UNL     1     -41.207 -21.786   6.561 -0.28 -0.00    -0.001 A  
DOCKED: ATOM      7  C   UNL     1     -43.796 -22.888   6.366 -0.24 +0.00    +0.008 A  
DOCKED: ATOM      8  C   UNL     1     -41.385 -23.115   6.171 -0.33 +0.00    +0.010 A  
DOCKED: ATOM      9  C   UNL     1     -42.673 -23.662   6.074 -0.28 +0.00    +0.068 A  
DOCKED: ATOM     10  N   UNL     1     -42.966 -26.131   5.342 -2.61 -0.00    -0.191 NA 
DOCKED: ATOM     11  C   UNL     1     -42.835 -25.024   5.671 -0.37 +0.00    +0.101 C  
DOCKED: ENDROOT
DOCKED: BRANCH   2  12
DOCKED: ATOM     12  C   UNL     1     -41.988 -18.616   6.205 -0.12 +0.00    +0.038 C  
DOCKED: BRANCH  12  13
DOCKED: ATOM     13  C   UNL     1     -40.466 -18.498   6.147 -0.12 +0.00    +0.038 C  
DOCKED: BRANCH  13  14
DOCKED: ATOM     14  C   UNL     1     -40.033 -17.041   5.998 -0.06 +0.00    +0.251 C  
DOCKED: BRANCH  14  15
DOCKED: ATOM     15  N   UNL     1     -39.566 -16.787   4.640 -0.08 +0.00    +0.141 N  
DOCKED: ATOM     16  C   UNL     1     -40.544 -15.987   3.900 -0.09 +0.00    +0.285 C  
DOCKED: ATOM     17  C   UNL     1     -38.268 -16.111   4.659 -0.04 +0.00    +0.285 C  
DOCKED: ENDBRANCH  14  15
DOCKED: ENDBRANCH  13  14
DOCKED: ENDBRANCH  12  13
DOCKED: ENDBRANCH   2  12
DOCKED: BRANCH   2  18
DOCKED: ATOM     18  C   UNL     1     -41.723 -19.326   8.575 -0.06 +0.00    +0.006 A  
DOCKED: ATOM     19  C   UNL     1     -41.968 -18.143   9.271 -0.02 +0.00    +0.001 A  
DOCKED: ATOM     20  C   UNL     1     -41.306 -17.894  10.474 -0.00 +0.00    +0.029 A  
DOCKED: ATOM     21  C   UNL     1     -40.403 -18.827  10.980 -0.00 +0.00    +0.140 A  
DOCKED: ATOM     22  C   UNL     1     -40.159 -20.010  10.284 -0.01 +0.00    +0.029 A  
DOCKED: ATOM     23  F   UNL     1     -39.770 -18.588  12.136 +0.00 -0.00    -0.204 F  
DOCKED: ATOM     24  C   UNL     1     -40.819 -20.261   9.079 -0.05 +0.00    +0.001 A  
DOCKED: ENDBRANCH   2  18
DOCKED: TORSDOF 5
DOCKED: TER
DOCKED: ENDMDL
________________________________________________________________________________


    FINAL DOCKED STATE:
    ________________________


Run:   299 / 512
Time taken for this run:   0.002s

DOCKED: MODEL        299
DOCKED: USER    Run = 299
DOCKED: USER
DOCKED: USER    Estimated Free Energy of Binding    =  -5.45 kcal/mol  [=(1)+(2)+(3)-(4)]
DOCKED: USER
DOCKED: USER    (1) Final Intermolecular Energy     =  -6.94 kcal/mol
DOCKED: USER        vdW + Hbond + desolv Energy     =  -6.94 kcal/mol
DOCKED: USER        Electrostatic Energy            =  +0.00 kcal/mol
DOCKED: USER        Moving Ligand-Fixed Receptor    =  -6.94 kcal/mol
DOCKED: USER        Moving Ligand-Moving Receptor   =  +0.00 kcal/mol
DOCKED: USER    (2) Final Total Internal Energy     =  -1.14 kcal/mol
DOCKED: USER    (3) Torsional Free Energy           =  +1.49 kcal/mol
DOCKED: USER    (4) Unbound System's Energy         =  -1.14 kcal/mol
DOCKED: USER
DOCKED: USER
DOCKED: REMARK  5 active torsions:
DOCKED: REMARK  status: ('A' for Active; 'I' for Inactive)
DOCKED: REMARK    1  A    between atoms: C_2  and  C_19 
DOCKED: REMARK    2  A    between atoms: C_2  and  C_11 
DOCKED: REMARK    3  A    between atoms: C_19  and  C_20 
DOCKED: REMARK    4  A    between atoms: C_20  and  C_21 
DOCKED: REMARK    5  A    between atoms: C_21  and  N_22 
DOCKED: USER                              x       y       z     vdW  Elec       q    Type
DOCKED: USER                           _______ _______ _______ _____ _____    ______ ____
DOCKED: ROOT
DOCKED: ATOM      1  O   UNL     1     -40.825 -23.773   7.985 -0.09 -0.00    -0.346 OA 
DOCKED: ATOM      2  C   UNL     1     -42.285 -23.732   8.084 -0.16 +0.00    +0.130 C  
DOCKED: ATOM      3  C   UNL     1     -42.746 -23.907   6.666 -0.27 +0.00    +0.004 A  
DOCKED: ATOM      4  C   UNL     1     -41.652 -24.140   5.844 -0.39 +0.00    +0.006 A  
DOCKED: ATOM      5  C   UNL     1     -40.411 -24.146   6.650 -0.18 +0.00    +0.169 C  
DOCKED: ATOM      6  C   UNL     1     -44.032 -23.876   6.147 -0.29 -0.00    -0.001 A  
DOCKED: ATOM      7  C   UNL     1     -41.804 -24.342   4.483 -0.27 +0.00    +0.008 A  
DOCKED: ATOM      8  C   UNL     1     -44.201 -24.074   4.776 -0.31 +0.00    +0.010 A  
DOCKED: ATOM      9  C   UNL     1     -43.092 -24.307   3.948 -0.41 +0.00    +0.068 A  
DOCKED: ATOM     10  N   UNL     1     -43.441 -24.676   1.408 -3.05 -0.00    -0.191 NA 
DOCKED: ATOM     11  C   UNL     1     -43.285 -24.510   2.547 -0.28 +0.00    +0.101 C  
DOCKED: ENDROOT
DOCKED: BRANCH   2  12
DOCKED: ATOM     12  C   UNL     1     -42.739 -24.862   9.000 -0.25 +0.00    +0.038 C  
DOCKED: BRANCH  12  13
DOCKED: ATOM     13  C   UNL     1     -41.596 -25.352   9.888 -0.27 +0.00    +0.038 C  
DOCKED: BRANCH  13  14
DOCKED: ATOM     14  C   UNL     1     -41.167 -24.271  10.878 -0.11 +0.00    +0.251 C  
DOCKED: BRANCH  14  15
DOCKED: ATOM     15  N   UNL     1     -40.720 -24.876  12.127 -0.13 +0.00    +0.141 N  
DOCKED: ATOM     16  C   UNL     1     -41.511 -24.379  13.253 -0.03 +0.00    +0.285 C  
DOCKED: ATOM     17  C   UNL     1     -40.803 -26.335  12.052 -0.13 +0.00    +0.285 C  
DOCKED: ENDBRANCH  14  15
DOCKED: ENDBRANCH  13  14
DOCKED: ENDBRANCH  12  13
DOCKED: ENDBRANCH   2  12
DOCKED: BRANCH   2  18
DOCKED: ATOM     18  C   UNL     1     -42.646 -22.400   8.653 -0.09 +0.00    +0.006 A  
DOCKED: ATOM     19  C   UNL     1     -41.647 -21.471   8.940 -0.07 +0.00    +0.001 A  
DOCKED: ATOM     20  C   UNL     1     -41.987 -20.226   9.472 -0.03 +0.00    +0.029 A  
DOCKED: ATOM     21  C   UNL     1     -43.323 -19.913   9.715 -0.01 +0.00    +0.140 A  
DOCKED: ATOM     22  C   UNL     1     -44.322 -20.843   9.427 -0.04 +0.00    +0.029 A  
DOCKED: ATOM     23  F   UNL     1     -43.649 -18.717  10.224 +0.00 -0.00    -0.204 F  
DOCKED: ATOM     24  C   UNL     1     -43.983 -22.088   8.895 -0.08 +0.00    +0.001 A  
DOCKED: ENDBRANCH   2  18
DOCKED: TORSDOF 5
DOCKED: TER
DOCKED: ENDMDL
________________________________________________________________________________


    FINAL DOCKED STATE:
    ________________________


Run:   300 / 512
Time taken for this run:   0.002s

DOCKED: MODEL        300
DOCKED: USER    Run = 300
DOCKED: USER
DOCKED: USER    Estimated Free Energy of Binding    =  -4.17 kcal/mol  [=(1)+(2)+(3)-(4)]
DOCKED: USER
DOCKED: USER    (1) Final Intermolecular Energy     =  -5.66 kcal/mol
DOCKED: USER        vdW + Hbond + desolv Energy     =  -5.66 kcal/mol
DOCKED: USER        Electrostatic Energy            =  +0.00 kcal/mol
DOCKED: USER        Moving Ligand-Fixed Receptor    =  -5.66 kcal/mol
DOCKED: USER        Moving Ligand-Moving Receptor   =  +0.00 kcal/mol
DOCKED: USER    (2) Final Total Internal Energy     =  -1.19 kcal/mol
DOCKED: USER    (3) Torsional Free Energy           =  +1.49 kcal/mol
DOCKED: USER    (4) Unbound System's Energy         =  -1.19 kcal/mol
DOCKED: USER
DOCKED: USER
DOCKED: REMARK  5 active torsions:
DOCKED: REMARK  status: ('A' for Active; 'I' for Inactive)
DOCKED: REMARK    1  A    between atoms: C_2  and  C_19 
DOCKED: REMARK    2  A    between atoms: C_2  and  C_11 
DOCKED: REMARK    3  A    between atoms: C_19  and  C_20 
DOCKED: REMARK    4  A    between atoms: C_20  and  C_21 
DOCKED: REMARK    5  A    between atoms: C_21  and  N_22 
DOCKED: USER                              x       y       z     vdW  Elec       q    Type
DOCKED: USER                           _______ _______ _______ _____ _____    ______ ____
DOCKED: ROOT
DOCKED: ATOM      1  O   UNL     1     -42.776 -19.333   7.486 -0.06 -0.00    -0.346 OA 
DOCKED: ATOM      2  C   UNL     1     -41.425 -19.874   7.635 -0.13 +0.00    +0.130 C  
DOCKED: ATOM      3  C   UNL     1     -41.556 -21.299   7.184 -0.22 +0.00    +0.004 A  
DOCKED: ATOM      4  C   UNL     1     -42.841 -21.524   6.712 -0.24 +0.00    +0.006 A  
DOCKED: ATOM      5  C   UNL     1     -43.635 -20.278   6.806 -0.20 +0.00    +0.169 C  
DOCKED: ATOM      6  C   UNL     1     -40.609 -22.313   7.179 -0.24 -0.00    -0.001 A  
DOCKED: ATOM      7  C   UNL     1     -43.225 -22.762   6.227 -0.26 +0.00    +0.008 A  
DOCKED: ATOM      8  C   UNL     1     -40.982 -23.569   6.698 -0.31 +0.00    +0.010 A  
DOCKED: ATOM      9  C   UNL     1     -42.283 -23.792   6.224 -0.29 +0.00    +0.068 A  
DOCKED: ATOM     10  N   UNL     1     -42.941 -26.134   5.331 -2.61 -0.00    -0.191 NA 
DOCKED: ATOM     11  C   UNL     1     -42.647 -25.084   5.732 -0.34 +0.00    +0.101 C  
DOCKED: ENDROOT
DOCKED: BRANCH   2  12
DOCKED: ATOM     12  C   UNL     1     -40.479 -19.058   6.761 -0.16 +0.00    +0.038 C  
DOCKED: BRANCH  12  13
DOCKED: ATOM     13  C   UNL     1     -40.867 -17.581   6.747 -0.11 +0.00    +0.038 C  
DOCKED: BRANCH  13  14
DOCKED: ATOM     14  C   UNL     1     -41.304 -17.141   5.351 -0.06 +0.00    +0.251 C  
DOCKED: BRANCH  14  15
DOCKED: ATOM     15  N   UNL     1     -42.411 -16.196   5.441 -0.12 +0.00    +0.141 N  
DOCKED: ATOM     16  C   UNL     1     -42.720 -15.637   4.124 -0.12 +0.00    +0.285 C  
DOCKED: ATOM     17  C   UNL     1     -43.595 -16.841   6.009 -0.11 +0.00    +0.285 C  
DOCKED: ENDBRANCH  14  15
DOCKED: ENDBRANCH  13  14
DOCKED: ENDBRANCH  12  13
DOCKED: ENDBRANCH   2  12
DOCKED: BRANCH   2  18
DOCKED: ATOM     18  C   UNL     1     -41.064 -19.752   9.078 -0.04 +0.00    +0.006 A  
DOCKED: ATOM     19  C   UNL     1     -41.818 -20.417  10.044 -0.02 +0.00    +0.001 A  
DOCKED: ATOM     20  C   UNL     1     -41.480 -20.301  11.393 -0.00 +0.00    +0.029 A  
DOCKED: ATOM     21  C   UNL     1     -40.388 -19.523  11.774 -0.00 +0.00    +0.140 A  
DOCKED: ATOM     22  C   UNL     1     -39.633 -18.858  10.807 -0.00 +0.00    +0.029 A  
DOCKED: ATOM     23  F   UNL     1     -40.062 -19.414  13.068 +0.00 -0.00    -0.204 F  
DOCKED: ATOM     24  C   UNL     1     -39.971 -18.972   9.458 -0.02 +0.00    +0.001 A  
DOCKED: ENDBRANCH   2  18
DOCKED: TORSDOF 5
DOCKED: TER
DOCKED: ENDMDL
________________________________________________________________________________


    FINAL DOCKED STATE:
    ________________________


Run:   301 / 512
Time taken for this run:   0.002s

DOCKED: MODEL        301
DOCKED: USER    Run = 301
DOCKED: USER
DOCKED: USER    Estimated Free Energy of Binding    =  -4.32 kcal/mol  [=(1)+(2)+(3)-(4)]
DOCKED: USER
DOCKED: USER    (1) Final Intermolecular Energy     =  -5.81 kcal/mol
DOCKED: USER        vdW + Hbond + desolv Energy     =  -5.81 kcal/mol
DOCKED: USER        Electrostatic Energy            =  +0.00 kcal/mol
DOCKED: USER        Moving Ligand-Fixed Receptor    =  -5.81 kcal/mol
DOCKED: USER        Moving Ligand-Moving Receptor   =  +0.00 kcal/mol
DOCKED: USER    (2) Final Total Internal Energy     =  -1.04 kcal/mol
DOCKED: USER    (3) Torsional Free Energy           =  +1.49 kcal/mol
DOCKED: USER    (4) Unbound System's Energy         =  -1.04 kcal/mol
DOCKED: USER
DOCKED: USER
DOCKED: REMARK  5 active torsions:
DOCKED: REMARK  status: ('A' for Active; 'I' for Inactive)
DOCKED: REMARK    1  A    between atoms: C_2  and  C_19 
DOCKED: REMARK    2  A    between atoms: C_2  and  C_11 
DOCKED: REMARK    3  A    between atoms: C_19  and  C_20 
DOCKED: REMARK    4  A    between atoms: C_20  and  C_21 
DOCKED: REMARK    5  A    between atoms: C_21  and  N_22 
DOCKED: USER                              x       y       z     vdW  Elec       q    Type
DOCKED: USER                           _______ _______ _______ _____ _____    ______ ____
DOCKED: ROOT
DOCKED: ATOM      1  O   UNL     1     -39.713 -20.230   7.852 -0.05 -0.00    -0.346 OA 
DOCKED: ATOM      2  C   UNL     1     -41.137 -19.923   7.713 -0.12 +0.00    +0.130 C  
DOCKED: ATOM      3  C   UNL     1     -41.726 -21.190   7.165 -0.22 +0.00    +0.004 A  
DOCKED: ATOM      4  C   UNL     1     -40.747 -22.171   7.100 -0.25 +0.00    +0.006 A  
DOCKED: ATOM      5  C   UNL     1     -39.463 -21.633   7.605 -0.12 +0.00    +0.169 C  
DOCKED: ATOM      6  C   UNL     1     -43.028 -21.457   6.767 -0.23 -0.00    -0.001 A  
DOCKED: ATOM      7  C   UNL     1     -41.030 -23.443   6.634 -0.32 +0.00    +0.008 A  
DOCKED: ATOM      8  C   UNL     1     -43.329 -22.734   6.289 -0.25 +0.00    +0.010 A  
DOCKED: ATOM      9  C   UNL     1     -42.335 -23.721   6.224 -0.29 +0.00    +0.068 A  
DOCKED: ATOM     10  N   UNL     1     -42.929 -26.083   5.338 -2.58 -0.00    -0.191 NA 
DOCKED: ATOM     11  C   UNL     1     -42.662 -25.024   5.735 -0.37 +0.00    +0.101 C  
DOCKED: ENDROOT
DOCKED: BRANCH   2  12
DOCKED: ATOM     12  C   UNL     1     -41.687 -19.558   9.087 -0.04 +0.00    +0.038 C  
DOCKED: BRANCH  12  13
DOCKED: ATOM     13  C   UNL     1     -43.200 -19.758   9.152 -0.05 +0.00    +0.038 C  
DOCKED: BRANCH  13  14
DOCKED: ATOM     14  C   UNL     1     -43.903 -18.489   9.630 -0.01 +0.00    +0.251 C  
DOCKED: BRANCH  14  15
DOCKED: ATOM     15  N   UNL     1     -45.168 -18.315   8.927 -0.03 +0.00    +0.141 N  
DOCKED: ATOM     16  C   UNL     1     -45.125 -17.126   8.073 -0.02 +0.00    +0.285 C  
DOCKED: ATOM     17  C   UNL     1     -45.483 -19.501   8.129 -0.06 +0.00    +0.285 C  
DOCKED: ENDBRANCH  14  15
DOCKED: ENDBRANCH  13  14
DOCKED: ENDBRANCH  12  13
DOCKED: ENDBRANCH   2  12
DOCKED: BRANCH   2  18
DOCKED: ATOM     18  C   UNL     1     -41.245 -18.774   6.767 -0.15 +0.00    +0.006 A  
DOCKED: ATOM     19  C   UNL     1     -40.098 -18.248   6.175 -0.12 +0.00    +0.001 A  
DOCKED: ATOM     20  C   UNL     1     -40.200 -17.173   5.291 -0.09 +0.00    +0.029 A  
DOCKED: ATOM     21  C   UNL     1     -41.449 -16.627   4.999 -0.10 +0.00    +0.140 A  
DOCKED: ATOM     22  C   UNL     1     -42.597 -17.154   5.592 -0.14 +0.00    +0.029 A  
DOCKED: ATOM     23  F   UNL     1     -41.548 -15.597   4.149 -0.03 -0.00    -0.204 F  
DOCKED: ATOM     24  C   UNL     1     -42.495 -18.228   6.477 -0.19 +0.00    +0.001 A  
DOCKED: ENDBRANCH   2  18
DOCKED: TORSDOF 5
DOCKED: TER
DOCKED: ENDMDL
________________________________________________________________________________


    FINAL DOCKED STATE:
    ________________________


Run:   302 / 512
Time taken for this run:   0.002s

DOCKED: MODEL        302
DOCKED: USER    Run = 302
DOCKED: USER
DOCKED: USER    Estimated Free Energy of Binding    =  -4.37 kcal/mol  [=(1)+(2)+(3)-(4)]
DOCKED: USER
DOCKED: USER    (1) Final Intermolecular Energy     =  -5.86 kcal/mol
DOCKED: USER        vdW + Hbond + desolv Energy     =  -5.86 kcal/mol
DOCKED: USER        Electrostatic Energy            =  +0.00 kcal/mol
DOCKED: USER        Moving Ligand-Fixed Receptor    =  -5.86 kcal/mol
DOCKED: USER        Moving Ligand-Moving Receptor   =  +0.00 kcal/mol
DOCKED: USER    (2) Final Total Internal Energy     =  -1.42 kcal/mol
DOCKED: USER    (3) Torsional Free Energy           =  +1.49 kcal/mol
DOCKED: USER    (4) Unbound System's Energy         =  -1.42 kcal/mol
DOCKED: USER
DOCKED: USER
DOCKED: REMARK  5 active torsions:
DOCKED: REMARK  status: ('A' for Active; 'I' for Inactive)
DOCKED: REMARK    1  A    between atoms: C_2  and  C_19 
DOCKED: REMARK    2  A    between atoms: C_2  and  C_11 
DOCKED: REMARK    3  A    between atoms: C_19  and  C_20 
DOCKED: REMARK    4  A    between atoms: C_20  and  C_21 
DOCKED: REMARK    5  A    between atoms: C_21  and  N_22 
DOCKED: USER                              x       y       z     vdW  Elec       q    Type
DOCKED: USER                           _______ _______ _______ _____ _____    ______ ____
DOCKED: ROOT
DOCKED: ATOM      1  O   UNL     1     -38.749 -21.315   8.517 -0.06 -0.00    -0.346 OA 
DOCKED: ATOM      2  C   UNL     1     -39.802 -20.582   7.813 -0.13 +0.00    +0.130 C  
DOCKED: ATOM      3  C   UNL     1     -40.615 -21.662   7.158 -0.23 +0.00    +0.004 A  
DOCKED: ATOM      4  C   UNL     1     -40.136 -22.906   7.544 -0.23 +0.00    +0.006 A  
DOCKED: ATOM      5  C   UNL     1     -38.999 -22.739   8.477 -0.17 +0.00    +0.169 C  
DOCKED: ATOM      6  C   UNL     1     -41.698 -21.551   6.299 -0.27 -0.00    -0.001 A  
DOCKED: ATOM      7  C   UNL     1     -40.717 -24.076   7.085 -0.34 +0.00    +0.008 A  
DOCKED: ATOM      8  C   UNL     1     -42.292 -22.722   5.824 -0.32 +0.00    +0.010 A  
DOCKED: ATOM      9  C   UNL     1     -41.804 -23.977   6.215 -0.32 +0.00    +0.068 A  
DOCKED: ATOM     10  N   UNL     1     -42.933 -26.130   5.318 -2.60 -0.00    -0.191 NA 
DOCKED: ATOM     11  C   UNL     1     -42.426 -25.165   5.720 -0.30 +0.00    +0.101 C  
DOCKED: ENDROOT
DOCKED: BRANCH   2  12
DOCKED: ATOM     12  C   UNL     1     -40.596 -19.778   8.835 -0.06 +0.00    +0.038 C  
DOCKED: BRANCH  12  13
DOCKED: ATOM     13  C   UNL     1     -41.807 -20.560   9.340 -0.05 +0.00    +0.038 C  
DOCKED: BRANCH  13  14
DOCKED: ATOM     14  C   UNL     1     -41.407 -21.542  10.439 -0.01 +0.00    +0.251 C  
DOCKED: BRANCH  14  15
DOCKED: ATOM     15  N   UNL     1     -41.979 -22.858  10.178 -0.04 +0.00    +0.141 N  
DOCKED: ATOM     16  C   UNL     1     -41.407 -23.858  11.080 -0.06 +0.00    +0.285 C  
DOCKED: ATOM     17  C   UNL     1     -43.436 -22.823  10.317 -0.01 +0.00    +0.285 C  
DOCKED: ENDBRANCH  14  15
DOCKED: ENDBRANCH  13  14
DOCKED: ENDBRANCH  12  13
DOCKED: ENDBRANCH   2  12
DOCKED: BRANCH   2  18
DOCKED: ATOM     18  C   UNL     1     -39.126 -19.686   6.829 -0.15 +0.00    +0.006 A  
DOCKED: ATOM     19  C   UNL     1     -39.819 -18.609   6.278 -0.13 +0.00    +0.001 A  
DOCKED: ATOM     20  C   UNL     1     -39.187 -17.772   5.358 -0.10 +0.00    +0.029 A  
DOCKED: ATOM     21  C   UNL     1     -37.863 -18.012   4.992 -0.07 +0.00    +0.140 A  
DOCKED: ATOM     22  C   UNL     1     -37.170 -19.089   5.544 -0.11 +0.00    +0.029 A  
DOCKED: ATOM     23  F   UNL     1     -37.255 -17.207   4.111 -0.00 -0.00    -0.204 F  
DOCKED: ATOM     24  C   UNL     1     -37.803 -19.928   6.464 -0.09 +0.00    +0.001 A  
DOCKED: ENDBRANCH   2  18
DOCKED: TORSDOF 5
DOCKED: TER
DOCKED: ENDMDL
________________________________________________________________________________


    FINAL DOCKED STATE:
    ________________________


Run:   303 / 512
Time taken for this run:   0.002s

DOCKED: MODEL        303
DOCKED: USER    Run = 303
DOCKED: USER
DOCKED: USER    Estimated Free Energy of Binding    =  -4.54 kcal/mol  [=(1)+(2)+(3)-(4)]
DOCKED: USER
DOCKED: USER    (1) Final Intermolecular Energy     =  -6.03 kcal/mol
DOCKED: USER        vdW + Hbond + desolv Energy     =  -6.03 kcal/mol
DOCKED: USER        Electrostatic Energy            =  +0.00 kcal/mol
DOCKED: USER        Moving Ligand-Fixed Receptor    =  -6.03 kcal/mol
DOCKED: USER        Moving Ligand-Moving Receptor   =  +0.00 kcal/mol
DOCKED: USER    (2) Final Total Internal Energy     =  -1.56 kcal/mol
DOCKED: USER    (3) Torsional Free Energy           =  +1.49 kcal/mol
DOCKED: USER    (4) Unbound System's Energy         =  -1.56 kcal/mol
DOCKED: USER
DOCKED: USER
DOCKED: REMARK  5 active torsions:
DOCKED: REMARK  status: ('A' for Active; 'I' for Inactive)
DOCKED: REMARK    1  A    between atoms: C_2  and  C_19 
DOCKED: REMARK    2  A    between atoms: C_2  and  C_11 
DOCKED: REMARK    3  A    between atoms: C_19  and  C_20 
DOCKED: REMARK    4  A    between atoms: C_20  and  C_21 
DOCKED: REMARK    5  A    between atoms: C_21  and  N_22 
DOCKED: USER                              x       y       z     vdW  Elec       q    Type
DOCKED: USER                           _______ _______ _______ _____ _____    ______ ____
DOCKED: ROOT
DOCKED: ATOM      1  O   UNL     1     -38.016 -15.705   0.275 -0.07 -0.00    -0.346 OA 
DOCKED: ATOM      2  C   UNL     1     -36.868 -15.551  -0.620 -0.12 +0.00    +0.130 C  
DOCKED: ATOM      3  C   UNL     1     -37.436 -14.842  -1.815 -0.21 +0.00    +0.004 A  
DOCKED: ATOM      4  C   UNL     1     -38.765 -14.520  -1.579 -0.29 +0.00    +0.006 A  
DOCKED: ATOM      5  C   UNL     1     -39.160 -14.975  -0.227 -0.21 +0.00    +0.169 C  
DOCKED: ATOM      6  C   UNL     1     -36.823 -14.499  -3.011 -0.16 -0.00    -0.001 A  
DOCKED: ATOM      7  C   UNL     1     -39.524 -13.853  -2.525 -0.38 +0.00    +0.008 A  
DOCKED: ATOM      8  C   UNL     1     -37.576 -13.829  -3.977 -0.24 +0.00    +0.010 A  
DOCKED: ATOM      9  C   UNL     1     -38.920 -13.507  -3.735 -0.30 +0.00    +0.068 A  
DOCKED: ATOM     10  N   UNL     1     -40.288 -12.260  -5.547 -2.56 -0.00    -0.191 NA 
DOCKED: ATOM     11  C   UNL     1     -39.675 -12.820  -4.734 -0.35 +0.00    +0.101 C  
DOCKED: ENDROOT
DOCKED: BRANCH   2  12
DOCKED: ATOM     12  C   UNL     1     -35.800 -14.737   0.101 -0.13 +0.00    +0.038 C  
DOCKED: BRANCH  12  13
DOCKED: ATOM     13  C   UNL     1     -36.120 -14.591   1.587 -0.13 +0.00    +0.038 C  
DOCKED: BRANCH  13  14
DOCKED: ATOM     14  C   UNL     1     -35.639 -15.807   2.375 -0.04 +0.00    +0.251 C  
DOCKED: BRANCH  14  15
DOCKED: ATOM     15  N   UNL     1     -36.746 -16.406   3.111 -0.04 +0.00    +0.141 N  
DOCKED: ATOM     16  C   UNL     1     -37.874 -15.477   3.193 -0.09 +0.00    +0.285 C  
DOCKED: ATOM     17  C   UNL     1     -37.166 -17.659   2.481 -0.04 +0.00    +0.285 C  
DOCKED: ENDBRANCH  14  15
DOCKED: ENDBRANCH  13  14
DOCKED: ENDBRANCH  12  13
DOCKED: ENDBRANCH   2  12
DOCKED: BRANCH   2  18
DOCKED: ATOM     18  C   UNL     1     -36.375 -16.923  -0.938 -0.08 +0.00    +0.006 A  
DOCKED: ATOM     19  C   UNL     1     -37.284 -17.965  -1.120 -0.19 +0.00    +0.001 A  
DOCKED: ATOM     20  C   UNL     1     -36.822 -19.248  -1.416 -0.18 +0.00    +0.029 A  
DOCKED: ATOM     21  C   UNL     1     -35.453 -19.487  -1.532 -0.11 +0.00    +0.140 A  
DOCKED: ATOM     22  C   UNL     1     -34.545 -18.444  -1.351 -0.02 +0.00    +0.029 A  
DOCKED: ATOM     23  F   UNL     1     -35.010 -20.718  -1.819 -0.05 -0.00    -0.204 F  
DOCKED: ATOM     24  C   UNL     1     -35.006 -17.161  -1.053 -0.02 +0.00    +0.001 A  
DOCKED: ENDBRANCH   2  18
DOCKED: TORSDOF 5
DOCKED: TER
DOCKED: ENDMDL
________________________________________________________________________________


    FINAL DOCKED STATE:
    ________________________


Run:   304 / 512
Time taken for this run:   0.002s

DOCKED: MODEL        304
DOCKED: USER    Run = 304
DOCKED: USER
DOCKED: USER    Estimated Free Energy of Binding    =  -4.67 kcal/mol  [=(1)+(2)+(3)-(4)]
DOCKED: USER
DOCKED: USER    (1) Final Intermolecular Energy     =  -6.16 kcal/mol
DOCKED: USER        vdW + Hbond + desolv Energy     =  -6.16 kcal/mol
DOCKED: USER        Electrostatic Energy            =  +0.00 kcal/mol
DOCKED: USER        Moving Ligand-Fixed Receptor    =  -6.16 kcal/mol
DOCKED: USER        Moving Ligand-Moving Receptor   =  +0.00 kcal/mol
DOCKED: USER    (2) Final Total Internal Energy     =  -1.06 kcal/mol
DOCKED: USER    (3) Torsional Free Energy           =  +1.49 kcal/mol
DOCKED: USER    (4) Unbound System's Energy         =  -1.06 kcal/mol
DOCKED: USER
DOCKED: USER
DOCKED: REMARK  5 active torsions:
DOCKED: REMARK  status: ('A' for Active; 'I' for Inactive)
DOCKED: REMARK    1  A    between atoms: C_2  and  C_19 
DOCKED: REMARK    2  A    between atoms: C_2  and  C_11 
DOCKED: REMARK    3  A    between atoms: C_19  and  C_20 
DOCKED: REMARK    4  A    between atoms: C_20  and  C_21 
DOCKED: REMARK    5  A    between atoms: C_21  and  N_22 
DOCKED: USER                              x       y       z     vdW  Elec       q    Type
DOCKED: USER                           _______ _______ _______ _____ _____    ______ ____
DOCKED: ROOT
DOCKED: ATOM      1  O   UNL     1     -41.897 -21.843   9.085 -0.01 -0.00    -0.346 OA 
DOCKED: ATOM      2  C   UNL     1     -41.012 -23.003   8.972 -0.12 +0.00    +0.130 C  
DOCKED: ATOM      3  C   UNL     1     -41.302 -23.545   7.602 -0.26 +0.00    +0.004 A  
DOCKED: ATOM      4  C   UNL     1     -42.191 -22.705   6.947 -0.25 +0.00    +0.006 A  
DOCKED: ATOM      5  C   UNL     1     -42.537 -21.560   7.819 -0.12 +0.00    +0.169 C  
DOCKED: ATOM      6  C   UNL     1     -40.809 -24.683   6.982 -0.39 -0.00    -0.001 A  
DOCKED: ATOM      7  C   UNL     1     -42.620 -22.974   5.658 -0.31 +0.00    +0.008 A  
DOCKED: ATOM      8  C   UNL     1     -41.235 -24.971   5.684 -0.38 +0.00    +0.010 A  
DOCKED: ATOM      9  C   UNL     1     -42.135 -24.120   5.026 -0.38 +0.00    +0.068 A  
DOCKED: ATOM     10  N   UNL     1     -42.902 -24.681   2.615 -1.92 -0.00    -0.191 NA 
DOCKED: ATOM     11  C   UNL     1     -42.559 -24.430   3.696 -0.52 +0.00    +0.101 C  
DOCKED: ENDROOT
DOCKED: BRANCH   2  12
DOCKED: ATOM     12  C   UNL     1     -39.572 -22.529   9.131 -0.16 +0.00    +0.038 C  
DOCKED: BRANCH  12  13
DOCKED: ATOM     13  C   UNL     1     -39.308 -21.267   8.313 -0.14 +0.00    +0.038 C  
DOCKED: BRANCH  13  14
DOCKED: ATOM     14  C   UNL     1     -37.895 -21.272   7.734 +0.01 +0.00    +0.251 C  
DOCKED: BRANCH  14  15
DOCKED: ATOM     15  N   UNL     1     -36.960 -21.864   8.684 -0.10 +0.00    +0.141 N  
DOCKED: ATOM     16  C   UNL     1     -36.551 -23.198   8.243 -0.10 +0.00    +0.285 C  
DOCKED: ATOM     17  C   UNL     1     -35.787 -21.005   8.856 -0.03 +0.00    +0.285 C  
DOCKED: ENDBRANCH  14  15
DOCKED: ENDBRANCH  13  14
DOCKED: ENDBRANCH  12  13
DOCKED: ENDBRANCH   2  12
DOCKED: BRANCH   2  18
DOCKED: ATOM     18  C   UNL     1     -41.391 -23.948  10.063 -0.15 +0.00    +0.006 A  
DOCKED: ATOM     19  C   UNL     1     -40.403 -24.520  10.864 -0.16 +0.00    +0.001 A  
DOCKED: ATOM     20  C   UNL     1     -40.759 -25.404  11.884 -0.23 +0.00    +0.029 A  
DOCKED: ATOM     21  C   UNL     1     -42.101 -25.713  12.102 -0.12 +0.00    +0.140 A  
DOCKED: ATOM     22  C   UNL     1     -43.088 -25.141  11.300 -0.12 +0.00    +0.029 A  
DOCKED: ATOM     23  F   UNL     1     -42.442 -26.560  13.082 -0.05 -0.00    -0.204 F  
DOCKED: ATOM     24  C   UNL     1     -42.733 -24.257  10.280 -0.14 +0.00    +0.001 A  
DOCKED: ENDBRANCH   2  18
DOCKED: TORSDOF 5
DOCKED: TER
DOCKED: ENDMDL
________________________________________________________________________________


    FINAL DOCKED STATE:
    ________________________


Run:   305 / 512
Time taken for this run:   0.002s

DOCKED: MODEL        305
DOCKED: USER    Run = 305
DOCKED: USER
DOCKED: USER    Estimated Free Energy of Binding    =  -3.46 kcal/mol  [=(1)+(2)+(3)-(4)]
DOCKED: USER
DOCKED: USER    (1) Final Intermolecular Energy     =  -4.96 kcal/mol
DOCKED: USER        vdW + Hbond + desolv Energy     =  -4.96 kcal/mol
DOCKED: USER        Electrostatic Energy            =  +0.00 kcal/mol
DOCKED: USER        Moving Ligand-Fixed Receptor    =  -4.96 kcal/mol
DOCKED: USER        Moving Ligand-Moving Receptor   =  +0.00 kcal/mol
DOCKED: USER    (2) Final Total Internal Energy     =  -1.51 kcal/mol
DOCKED: USER    (3) Torsional Free Energy           =  +1.49 kcal/mol
DOCKED: USER    (4) Unbound System's Energy         =  -1.51 kcal/mol
DOCKED: USER
DOCKED: USER
DOCKED: REMARK  5 active torsions:
DOCKED: REMARK  status: ('A' for Active; 'I' for Inactive)
DOCKED: REMARK    1  A    between atoms: C_2  and  C_19 
DOCKED: REMARK    2  A    between atoms: C_2  and  C_11 
DOCKED: REMARK    3  A    between atoms: C_19  and  C_20 
DOCKED: REMARK    4  A    between atoms: C_20  and  C_21 
DOCKED: REMARK    5  A    between atoms: C_21  and  N_22 
DOCKED: USER                              x       y       z     vdW  Elec       q    Type
DOCKED: USER                           _______ _______ _______ _____ _____    ______ ____
DOCKED: ROOT
DOCKED: ATOM      1  O   UNL     1     -33.669 -11.843  -3.211 +0.00 -0.00    -0.346 OA 
DOCKED: ATOM      2  C   UNL     1     -34.222 -13.060  -2.617 -0.03 +0.00    +0.130 C  
DOCKED: ATOM      3  C   UNL     1     -35.629 -13.108  -3.138 -0.09 +0.00    +0.004 A  
DOCKED: ATOM      4  C   UNL     1     -35.829 -12.071  -4.038 -0.15 +0.00    +0.006 A  
DOCKED: ATOM      5  C   UNL     1     -34.584 -11.285  -4.184 -0.08 +0.00    +0.169 C  
DOCKED: ATOM      6  C   UNL     1     -36.648 -14.004  -2.847 -0.15 -0.00    -0.001 A  
DOCKED: ATOM      7  C   UNL     1     -37.047 -11.892  -4.673 -0.23 +0.00    +0.008 A  
DOCKED: ATOM      8  C   UNL     1     -37.883 -13.834  -3.475 -0.27 +0.00    +0.010 A  
DOCKED: ATOM      9  C   UNL     1     -38.081 -12.783  -4.383 -0.33 +0.00    +0.068 A  
DOCKED: ATOM     10  N   UNL     1     -40.384 -12.500  -5.535 -2.52 -0.00    -0.191 NA 
DOCKED: ATOM     11  C   UNL     1     -39.351 -12.626  -5.018 -0.41 +0.00    +0.101 C  
DOCKED: ENDROOT
DOCKED: BRANCH   2  12
DOCKED: ATOM     12  C   UNL     1     -33.380 -14.246  -3.072 -0.01 +0.00    +0.038 C  
DOCKED: BRANCH  12  13
DOCKED: ATOM     13  C   UNL     1     -33.258 -14.289  -4.594 -0.01 +0.00    +0.038 C  
DOCKED: BRANCH  13  14
DOCKED: ATOM     14  C   UNL     1     -34.125 -15.400  -5.183 -0.01 +0.00    +0.251 C  
DOCKED: BRANCH  14  15
DOCKED: ATOM     15  N   UNL     1     -35.304 -14.835  -5.829 -0.06 +0.00    +0.141 N  
DOCKED: ATOM     16  C   UNL     1     -34.923 -14.052  -7.005 -0.02 +0.00    +0.285 C  
DOCKED: ATOM     17  C   UNL     1     -36.242 -15.894  -6.206 -0.12 +0.00    +0.285 C  
DOCKED: ENDBRANCH  14  15
DOCKED: ENDBRANCH  13  14
DOCKED: ENDBRANCH  12  13
DOCKED: ENDBRANCH   2  12
DOCKED: BRANCH   2  18
DOCKED: ATOM     18  C   UNL     1     -34.156 -12.890  -1.135 -0.07 +0.00    +0.006 A  
DOCKED: ATOM     19  C   UNL     1     -33.849 -11.645  -0.590 -0.09 +0.00    +0.001 A  
DOCKED: ATOM     20  C   UNL     1     -33.787 -11.488   0.796 -0.09 +0.00    +0.029 A  
DOCKED: ATOM     21  C   UNL     1     -34.033 -12.575   1.632 -0.03 +0.00    +0.140 A  
DOCKED: ATOM     22  C   UNL     1     -34.341 -13.821   1.086 -0.09 +0.00    +0.029 A  
DOCKED: ATOM     23  F   UNL     1     -33.976 -12.424   2.962 -0.03 -0.00    -0.204 F  
DOCKED: ATOM     24  C   UNL     1     -34.402 -13.979  -0.300 -0.08 +0.00    +0.001 A  
DOCKED: ENDBRANCH   2  18
DOCKED: TORSDOF 5
DOCKED: TER
DOCKED: ENDMDL
________________________________________________________________________________


    FINAL DOCKED STATE:
    ________________________


Run:   306 / 512
Time taken for this run:   0.002s

DOCKED: MODEL        306
DOCKED: USER    Run = 306
DOCKED: USER
DOCKED: USER    Estimated Free Energy of Binding    =  -3.87 kcal/mol  [=(1)+(2)+(3)-(4)]
DOCKED: USER
DOCKED: USER    (1) Final Intermolecular Energy     =  -5.36 kcal/mol
DOCKED: USER        vdW + Hbond + desolv Energy     =  -5.36 kcal/mol
DOCKED: USER        Electrostatic Energy            =  +0.00 kcal/mol
DOCKED: USER        Moving Ligand-Fixed Receptor    =  -5.36 kcal/mol
DOCKED: USER        Moving Ligand-Moving Receptor   =  +0.00 kcal/mol
DOCKED: USER    (2) Final Total Internal Energy     =  -1.34 kcal/mol
DOCKED: USER    (3) Torsional Free Energy           =  +1.49 kcal/mol
DOCKED: USER    (4) Unbound System's Energy         =  -1.34 kcal/mol
DOCKED: USER
DOCKED: USER
DOCKED: REMARK  5 active torsions:
DOCKED: REMARK  status: ('A' for Active; 'I' for Inactive)
DOCKED: REMARK    1  A    between atoms: C_2  and  C_19 
DOCKED: REMARK    2  A    between atoms: C_2  and  C_11 
DOCKED: REMARK    3  A    between atoms: C_19  and  C_20 
DOCKED: REMARK    4  A    between atoms: C_20  and  C_21 
DOCKED: REMARK    5  A    between atoms: C_21  and  N_22 
DOCKED: USER                              x       y       z     vdW  Elec       q    Type
DOCKED: USER                           _______ _______ _______ _____ _____    ______ ____
DOCKED: ROOT
DOCKED: ATOM      1  O   UNL     1     -35.144 -10.694  -0.849 -0.08 -0.00    -0.346 OA 
DOCKED: ATOM      2  C   UNL     1     -34.839 -12.064  -1.263 -0.12 +0.00    +0.130 C  
DOCKED: ATOM      3  C   UNL     1     -36.042 -12.474  -2.062 -0.17 +0.00    +0.004 A  
DOCKED: ATOM      4  C   UNL     1     -36.908 -11.398  -2.187 -0.25 +0.00    +0.006 A  
DOCKED: ATOM      5  C   UNL     1     -36.342 -10.215  -1.502 -0.24 +0.00    +0.169 C  
DOCKED: ATOM      6  C   UNL     1     -36.340 -13.699  -2.641 -0.14 -0.00    -0.001 A  
DOCKED: ATOM      7  C   UNL     1     -38.098 -11.508  -2.888 -0.10 +0.00    +0.008 A  
DOCKED: ATOM      8  C   UNL     1     -37.538 -13.827  -3.347 -0.24 +0.00    +0.010 A  
DOCKED: ATOM      9  C   UNL     1     -38.412 -12.737  -3.470 -0.34 +0.00    +0.068 A  
DOCKED: ATOM     10  N   UNL     1     -40.624 -13.007  -4.791 -2.48 -0.00    -0.191 NA 
DOCKED: ATOM     11  C   UNL     1     -39.632 -12.886  -4.198 -0.42 +0.00    +0.101 C  
DOCKED: ENDROOT
DOCKED: BRANCH   2  12
DOCKED: ATOM     12  C   UNL     1     -33.557 -12.045  -2.087 -0.04 +0.00    +0.038 C  
DOCKED: BRANCH  12  13
DOCKED: ATOM     13  C   UNL     1     -33.769 -11.348  -3.430 -0.07 +0.00    +0.038 C  
DOCKED: BRANCH  13  14
DOCKED: ATOM     14  C   UNL     1     -33.559 -12.317  -4.592 -0.01 +0.00    +0.251 C  
DOCKED: BRANCH  14  15
DOCKED: ATOM     15  N   UNL     1     -34.825 -12.584  -5.264 -0.05 +0.00    +0.141 N  
DOCKED: ATOM     16  C   UNL     1     -35.590 -11.348  -5.434 -0.04 +0.00    +0.285 C  
DOCKED: ATOM     17  C   UNL     1     -34.596 -13.222  -6.561 -0.01 +0.00    +0.285 C  
DOCKED: ENDBRANCH  14  15
DOCKED: ENDBRANCH  13  14
DOCKED: ENDBRANCH  12  13
DOCKED: ENDBRANCH   2  12
DOCKED: BRANCH   2  18
DOCKED: ATOM     18  C   UNL     1     -34.666 -12.868  -0.018 -0.12 +0.00    +0.006 A  
DOCKED: ATOM     19  C   UNL     1     -33.587 -12.618   0.829 -0.08 +0.00    +0.001 A  
DOCKED: ATOM     20  C   UNL     1     -33.426 -13.371   1.993 -0.06 +0.00    +0.029 A  
DOCKED: ATOM     21  C   UNL     1     -34.344 -14.371   2.309 -0.06 +0.00    +0.140 A  
DOCKED: ATOM     22  C   UNL     1     -35.424 -14.620   1.462 -0.11 +0.00    +0.029 A  
DOCKED: ATOM     23  F   UNL     1     -34.191 -15.092   3.427 -0.01 -0.00    -0.204 F  
DOCKED: ATOM     24  C   UNL     1     -35.585 -13.868   0.297 -0.13 +0.00    +0.001 A  
DOCKED: ENDBRANCH   2  18
DOCKED: TORSDOF 5
DOCKED: TER
DOCKED: ENDMDL
________________________________________________________________________________


    FINAL DOCKED STATE:
    ________________________


Run:   307 / 512
Time taken for this run:   0.002s

DOCKED: MODEL        307
DOCKED: USER    Run = 307
DOCKED: USER
DOCKED: USER    Estimated Free Energy of Binding    =  -4.58 kcal/mol  [=(1)+(2)+(3)-(4)]
DOCKED: USER
DOCKED: USER    (1) Final Intermolecular Energy     =  -6.07 kcal/mol
DOCKED: USER        vdW + Hbond + desolv Energy     =  -6.07 kcal/mol
DOCKED: USER        Electrostatic Energy            =  +0.00 kcal/mol
DOCKED: USER        Moving Ligand-Fixed Receptor    =  -6.07 kcal/mol
DOCKED: USER        Moving Ligand-Moving Receptor   =  +0.00 kcal/mol
DOCKED: USER    (2) Final Total Internal Energy     =  -1.00 kcal/mol
DOCKED: USER    (3) Torsional Free Energy           =  +1.49 kcal/mol
DOCKED: USER    (4) Unbound System's Energy         =  -1.00 kcal/mol
DOCKED: USER
DOCKED: USER
DOCKED: REMARK  5 active torsions:
DOCKED: REMARK  status: ('A' for Active; 'I' for Inactive)
DOCKED: REMARK    1  A    between atoms: C_2  and  C_19 
DOCKED: REMARK    2  A    between atoms: C_2  and  C_11 
DOCKED: REMARK    3  A    between atoms: C_19  and  C_20 
DOCKED: REMARK    4  A    between atoms: C_20  and  C_21 
DOCKED: REMARK    5  A    between atoms: C_21  and  N_22 
DOCKED: USER                              x       y       z     vdW  Elec       q    Type
DOCKED: USER                           _______ _______ _______ _____ _____    ______ ____
DOCKED: ROOT
DOCKED: ATOM      1  O   UNL     1     -40.762 -21.920   8.896 -0.02 -0.00    -0.346 OA 
DOCKED: ATOM      2  C   UNL     1     -40.435 -23.346   8.908 -0.16 +0.00    +0.130 C  
DOCKED: ATOM      3  C   UNL     1     -40.914 -23.836   7.572 -0.30 +0.00    +0.004 A  
DOCKED: ATOM      4  C   UNL     1     -41.373 -22.765   6.819 -0.29 +0.00    +0.006 A  
DOCKED: ATOM      5  C   UNL     1     -41.221 -21.509   7.587 -0.16 +0.00    +0.169 C  
DOCKED: ATOM      6  C   UNL     1     -40.931 -25.125   7.060 -0.38 -0.00    -0.001 A  
DOCKED: ATOM      7  C   UNL     1     -41.867 -22.944   5.538 -0.35 +0.00    +0.008 A  
DOCKED: ATOM      8  C   UNL     1     -41.430 -25.322   5.771 -0.37 +0.00    +0.010 A  
DOCKED: ATOM      9  C   UNL     1     -41.895 -24.237   5.014 -0.35 +0.00    +0.068 A  
DOCKED: ATOM     10  N   UNL     1     -42.810 -24.637   2.624 -1.87 -0.00    -0.191 NA 
DOCKED: ATOM     11  C   UNL     1     -42.400 -24.458   3.696 -0.50 +0.00    +0.101 C  
DOCKED: ENDROOT
DOCKED: BRANCH   2  12
DOCKED: ATOM     12  C   UNL     1     -38.929 -23.494   9.089 -0.09 +0.00    +0.038 C  
DOCKED: BRANCH  12  13
DOCKED: ATOM     13  C   UNL     1     -38.161 -22.783   7.976 +0.02 +0.00    +0.038 C  
DOCKED: BRANCH  13  14
DOCKED: ATOM     14  C   UNL     1     -36.834 -22.228   8.491 -0.10 +0.00    +0.251 C  
DOCKED: BRANCH  14  15
DOCKED: ATOM     15  N   UNL     1     -35.727 -22.743   7.695 -0.13 +0.00    +0.141 N  
DOCKED: ATOM     16  C   UNL     1     -34.456 -22.181   8.155 -0.04 +0.00    +0.285 C  
DOCKED: ATOM     17  C   UNL     1     -35.685 -24.205   7.753 -0.12 +0.00    +0.285 C  
DOCKED: ENDBRANCH  14  15
DOCKED: ENDBRANCH  13  14
DOCKED: ENDBRANCH  12  13
DOCKED: ENDBRANCH   2  12
DOCKED: BRANCH   2  18
DOCKED: ATOM     18  C   UNL     1     -41.176 -23.955  10.051 -0.15 +0.00    +0.006 A  
DOCKED: ATOM     19  C   UNL     1     -42.509 -23.612  10.278 -0.10 +0.00    +0.001 A  
DOCKED: ATOM     20  C   UNL     1     -43.201 -24.182  11.347 -0.10 +0.00    +0.029 A  
DOCKED: ATOM     21  C   UNL     1     -42.561 -25.092  12.187 -0.10 +0.00    +0.140 A  
DOCKED: ATOM     22  C   UNL     1     -41.229 -25.435  11.959 -0.22 +0.00    +0.029 A  
DOCKED: ATOM     23  F   UNL     1     -43.227 -25.640  13.212 -0.02 -0.00    -0.204 F  
DOCKED: ATOM     24  C   UNL     1     -40.535 -24.865  10.890 -0.17 +0.00    +0.001 A  
DOCKED: ENDBRANCH   2  18
DOCKED: TORSDOF 5
DOCKED: TER
DOCKED: ENDMDL
________________________________________________________________________________


    FINAL DOCKED STATE:
    ________________________


Run:   308 / 512
Time taken for this run:   0.002s

DOCKED: MODEL        308
DOCKED: USER    Run = 308
DOCKED: USER
DOCKED: USER    Estimated Free Energy of Binding    =  -5.18 kcal/mol  [=(1)+(2)+(3)-(4)]
DOCKED: USER
DOCKED: USER    (1) Final Intermolecular Energy     =  -6.68 kcal/mol
DOCKED: USER        vdW + Hbond + desolv Energy     =  -6.68 kcal/mol
DOCKED: USER        Electrostatic Energy            =  +0.00 kcal/mol
DOCKED: USER        Moving Ligand-Fixed Receptor    =  -6.68 kcal/mol
DOCKED: USER        Moving Ligand-Moving Receptor   =  +0.00 kcal/mol
DOCKED: USER    (2) Final Total Internal Energy     =  -1.40 kcal/mol
DOCKED: USER    (3) Torsional Free Energy           =  +1.49 kcal/mol
DOCKED: USER    (4) Unbound System's Energy         =  -1.40 kcal/mol
DOCKED: USER
DOCKED: USER
DOCKED: REMARK  5 active torsions:
DOCKED: REMARK  status: ('A' for Active; 'I' for Inactive)
DOCKED: REMARK    1  A    between atoms: C_2  and  C_19 
DOCKED: REMARK    2  A    between atoms: C_2  and  C_11 
DOCKED: REMARK    3  A    between atoms: C_19  and  C_20 
DOCKED: REMARK    4  A    between atoms: C_20  and  C_21 
DOCKED: REMARK    5  A    between atoms: C_21  and  N_22 
DOCKED: USER                              x       y       z     vdW  Elec       q    Type
DOCKED: USER                           _______ _______ _______ _____ _____    ______ ____
DOCKED: ROOT
DOCKED: ATOM      1  O   UNL     1     -41.263 -21.749   7.296 -0.08 -0.00    -0.346 OA 
DOCKED: ATOM      2  C   UNL     1     -41.995 -22.954   7.689 -0.17 +0.00    +0.130 C  
DOCKED: ATOM      3  C   UNL     1     -42.447 -23.542   6.384 -0.31 +0.00    +0.004 A  
DOCKED: ATOM      4  C   UNL     1     -41.926 -22.801   5.333 -0.33 +0.00    +0.006 A  
DOCKED: ATOM      5  C   UNL     1     -41.095 -21.696   5.861 -0.06 +0.00    +0.169 C  
DOCKED: ATOM      6  C   UNL     1     -43.246 -24.651   6.145 -0.33 -0.00    -0.001 A  
DOCKED: ATOM      7  C   UNL     1     -42.186 -23.137   4.015 -0.17 +0.00    +0.008 A  
DOCKED: ATOM      8  C   UNL     1     -43.521 -25.000   4.822 -0.43 +0.00    +0.010 A  
DOCKED: ATOM      9  C   UNL     1     -42.994 -24.247   3.763 -0.42 +0.00    +0.068 A  
DOCKED: ATOM     10  N   UNL     1     -43.521 -24.926   1.318 -2.92 -0.00    -0.191 NA 
DOCKED: ATOM     11  C   UNL     1     -43.285 -24.621   2.415 -0.29 +0.00    +0.101 C  
DOCKED: ENDROOT
DOCKED: BRANCH   2  12
DOCKED: ATOM     12  C   UNL     1     -41.046 -23.868   8.455 -0.24 +0.00    +0.038 C  
DOCKED: BRANCH  12  13
DOCKED: ATOM     13  C   UNL     1     -39.715 -24.028   7.722 -0.24 +0.00    +0.038 C  
DOCKED: BRANCH  13  14
DOCKED: ATOM     14  C   UNL     1     -38.630 -23.160   8.356 -0.13 +0.00    +0.251 C  
DOCKED: BRANCH  14  15
DOCKED: ATOM     15  N   UNL     1     -39.176 -22.405   9.478 -0.09 +0.00    +0.141 N  
DOCKED: ATOM     16  C   UNL     1     -38.570 -22.841  10.737 -0.05 +0.00    +0.285 C  
DOCKED: ATOM     17  C   UNL     1     -38.967 -20.969   9.284 -0.04 +0.00    +0.285 C  
DOCKED: ENDBRANCH  14  15
DOCKED: ENDBRANCH  13  14
DOCKED: ENDBRANCH  12  13
DOCKED: ENDBRANCH   2  12
DOCKED: BRANCH   2  18
DOCKED: ATOM     18  C   UNL     1     -43.130 -22.513   8.552 -0.10 +0.00    +0.006 A  
DOCKED: ATOM     19  C   UNL     1     -44.034 -21.562   8.081 -0.13 +0.00    +0.001 A  
DOCKED: ATOM     20  C   UNL     1     -45.095 -21.150   8.889 -0.07 +0.00    +0.029 A  
DOCKED: ATOM     21  C   UNL     1     -45.250 -21.690  10.165 -0.01 +0.00    +0.140 A  
DOCKED: ATOM     22  C   UNL     1     -44.346 -22.641  10.635 -0.03 +0.00    +0.029 A  
DOCKED: ATOM     23  F   UNL     1     -46.269 -21.296  10.940 +0.01 -0.00    -0.204 F  
DOCKED: ATOM     24  C   UNL     1     -43.284 -23.054   9.828 -0.07 +0.00    +0.001 A  
DOCKED: ENDBRANCH   2  18
DOCKED: TORSDOF 5
DOCKED: TER
DOCKED: ENDMDL
________________________________________________________________________________


    FINAL DOCKED STATE:
    ________________________


Run:   309 / 512
Time taken for this run:   0.002s

DOCKED: MODEL        309
DOCKED: USER    Run = 309
DOCKED: USER
DOCKED: USER    Estimated Free Energy of Binding    =  -3.75 kcal/mol  [=(1)+(2)+(3)-(4)]
DOCKED: USER
DOCKED: USER    (1) Final Intermolecular Energy     =  -5.25 kcal/mol
DOCKED: USER        vdW + Hbond + desolv Energy     =  -5.25 kcal/mol
DOCKED: USER        Electrostatic Energy            =  +0.00 kcal/mol
DOCKED: USER        Moving Ligand-Fixed Receptor    =  -5.25 kcal/mol
DOCKED: USER        Moving Ligand-Moving Receptor   =  +0.00 kcal/mol
DOCKED: USER    (2) Final Total Internal Energy     =  -1.39 kcal/mol
DOCKED: USER    (3) Torsional Free Energy           =  +1.49 kcal/mol
DOCKED: USER    (4) Unbound System's Energy         =  -1.39 kcal/mol
DOCKED: USER
DOCKED: USER
DOCKED: REMARK  5 active torsions:
DOCKED: REMARK  status: ('A' for Active; 'I' for Inactive)
DOCKED: REMARK    1  A    between atoms: C_2  and  C_19 
DOCKED: REMARK    2  A    between atoms: C_2  and  C_11 
DOCKED: REMARK    3  A    between atoms: C_19  and  C_20 
DOCKED: REMARK    4  A    between atoms: C_20  and  C_21 
DOCKED: REMARK    5  A    between atoms: C_21  and  N_22 
DOCKED: USER                              x       y       z     vdW  Elec       q    Type
DOCKED: USER                           _______ _______ _______ _____ _____    ______ ____
DOCKED: ROOT
DOCKED: ATOM      1  O   UNL     1     -37.097 -20.250   1.340 -0.06 -0.00    -0.346 OA 
DOCKED: ATOM      2  C   UNL     1     -36.075 -20.127   2.380 -0.12 +0.00    +0.130 C  
DOCKED: ATOM      3  C   UNL     1     -35.796 -21.547   2.779 -0.20 +0.00    +0.004 A  
DOCKED: ATOM      4  C   UNL     1     -36.513 -22.411   1.963 -0.31 +0.00    +0.006 A  
DOCKED: ATOM      5  C   UNL     1     -37.294 -21.635   0.974 -0.23 +0.00    +0.169 C  
DOCKED: ATOM      6  C   UNL     1     -34.965 -22.036   3.777 -0.16 -0.00    -0.001 A  
DOCKED: ATOM      7  C   UNL     1     -36.429 -23.784   2.118 -0.25 +0.00    +0.008 A  
DOCKED: ATOM      8  C   UNL     1     -34.873 -23.418   3.948 -0.21 +0.00    +0.010 A  
DOCKED: ATOM      9  C   UNL     1     -35.601 -24.288   3.122 -0.22 +0.00    +0.068 A  
DOCKED: ATOM     10  N   UNL     1     -35.403 -26.849   3.463 -2.11 -0.00    -0.191 NA 
DOCKED: ATOM     11  C   UNL     1     -35.492 -25.700   3.310 -0.40 +0.00    +0.101 C  
DOCKED: ENDROOT
DOCKED: BRANCH   2  12
DOCKED: ATOM     12  C   UNL     1     -34.859 -19.429   1.782 -0.04 +0.00    +0.038 C  
DOCKED: BRANCH  12  13
DOCKED: ATOM     13  C   UNL     1     -35.265 -18.194   0.980 -0.03 +0.00    +0.038 C  
DOCKED: BRANCH  13  14
DOCKED: ATOM     14  C   UNL     1     -35.211 -18.472  -0.521 -0.03 +0.00    +0.251 C  
DOCKED: BRANCH  14  15
DOCKED: ATOM     15  N   UNL     1     -36.417 -17.976  -1.173 -0.09 +0.00    +0.141 N  
DOCKED: ATOM     16  C   UNL     1     -36.914 -18.948  -2.148 -0.16 +0.00    +0.285 C  
DOCKED: ATOM     17  C   UNL     1     -37.452 -17.675  -0.183 -0.10 +0.00    +0.285 C  
DOCKED: ENDBRANCH  14  15
DOCKED: ENDBRANCH  13  14
DOCKED: ENDBRANCH  12  13
DOCKED: ENDBRANCH   2  12
DOCKED: BRANCH   2  18
DOCKED: ATOM     18  C   UNL     1     -36.671 -19.319   3.484 -0.12 +0.00    +0.006 A  
DOCKED: ATOM     19  C   UNL     1     -38.045 -19.367   3.719 -0.14 +0.00    +0.001 A  
DOCKED: ATOM     20  C   UNL     1     -38.600 -18.610   4.752 -0.11 +0.00    +0.029 A  
DOCKED: ATOM     21  C   UNL     1     -37.783 -17.809   5.548 -0.05 +0.00    +0.140 A  
DOCKED: ATOM     22  C   UNL     1     -36.409 -17.763   5.312 -0.04 +0.00    +0.029 A  
DOCKED: ATOM     23  F   UNL     1     -38.317 -17.085   6.540 -0.00 -0.00    -0.204 F  
DOCKED: ATOM     24  C   UNL     1     -35.852 -18.518   4.279 -0.05 +0.00    +0.001 A  
DOCKED: ENDBRANCH   2  18
DOCKED: TORSDOF 5
DOCKED: TER
DOCKED: ENDMDL
________________________________________________________________________________


    FINAL DOCKED STATE:
    ________________________


Run:   310 / 512
Time taken for this run:   0.002s

DOCKED: MODEL        310
DOCKED: USER    Run = 310
DOCKED: USER
DOCKED: USER    Estimated Free Energy of Binding    =  -5.54 kcal/mol  [=(1)+(2)+(3)-(4)]
DOCKED: USER
DOCKED: USER    (1) Final Intermolecular Energy     =  -7.03 kcal/mol
DOCKED: USER        vdW + Hbond + desolv Energy     =  -7.03 kcal/mol
DOCKED: USER        Electrostatic Energy            =  +0.00 kcal/mol
DOCKED: USER        Moving Ligand-Fixed Receptor    =  -7.03 kcal/mol
DOCKED: USER        Moving Ligand-Moving Receptor   =  +0.00 kcal/mol
DOCKED: USER    (2) Final Total Internal Energy     =  -1.17 kcal/mol
DOCKED: USER    (3) Torsional Free Energy           =  +1.49 kcal/mol
DOCKED: USER    (4) Unbound System's Energy         =  -1.17 kcal/mol
DOCKED: USER
DOCKED: USER
DOCKED: REMARK  5 active torsions:
DOCKED: REMARK  status: ('A' for Active; 'I' for Inactive)
DOCKED: REMARK    1  A    between atoms: C_2  and  C_19 
DOCKED: REMARK    2  A    between atoms: C_2  and  C_11 
DOCKED: REMARK    3  A    between atoms: C_19  and  C_20 
DOCKED: REMARK    4  A    between atoms: C_20  and  C_21 
DOCKED: REMARK    5  A    between atoms: C_21  and  N_22 
DOCKED: USER                              x       y       z     vdW  Elec       q    Type
DOCKED: USER                           _______ _______ _______ _____ _____    ______ ____
DOCKED: ROOT
DOCKED: ATOM      1  O   UNL     1     -44.627 -23.168   8.231 -0.00 -0.00    -0.346 OA 
DOCKED: ATOM      2  C   UNL     1     -43.249 -22.763   7.947 -0.12 +0.00    +0.130 C  
DOCKED: ATOM      3  C   UNL     1     -43.059 -23.124   6.502 -0.26 +0.00    +0.004 A  
DOCKED: ATOM      4  C   UNL     1     -44.255 -23.591   5.976 -0.28 +0.00    +0.006 A  
DOCKED: ATOM      5  C   UNL     1     -45.308 -23.561   7.016 -0.17 +0.00    +0.169 C  
DOCKED: ATOM      6  C   UNL     1     -41.922 -23.035   5.713 -0.36 -0.00    -0.001 A  
DOCKED: ATOM      7  C   UNL     1     -44.355 -23.987   4.653 -0.25 +0.00    +0.008 A  
DOCKED: ATOM      8  C   UNL     1     -42.005 -23.434   4.378 -0.16 +0.00    +0.010 A  
DOCKED: ATOM      9  C   UNL     1     -43.216 -23.907   3.851 -0.32 +0.00    +0.068 A  
DOCKED: ATOM     10  N   UNL     1     -43.337 -24.636   1.368 -3.04 -0.00    -0.191 NA 
DOCKED: ATOM     11  C   UNL     1     -43.282 -24.310   2.482 -0.27 +0.00    +0.101 C  
DOCKED: ENDROOT
DOCKED: BRANCH   2  12
DOCKED: ATOM     12  C   UNL     1     -43.123 -21.267   8.207 -0.12 +0.00    +0.038 C  
DOCKED: BRANCH  12  13
DOCKED: ATOM     13  C   UNL     1     -42.930 -20.490   6.906 -0.25 +0.00    +0.038 C  
DOCKED: BRANCH  13  14
DOCKED: ATOM     14  C   UNL     1     -41.833 -19.437   7.052 -0.14 +0.00    +0.251 C  
DOCKED: BRANCH  14  15
DOCKED: ATOM     15  N   UNL     1     -40.522 -20.036   6.831 -0.16 +0.00    +0.141 N  
DOCKED: ATOM     16  C   UNL     1     -39.654 -19.119   6.091 -0.11 +0.00    +0.285 C  
DOCKED: ATOM     17  C   UNL     1     -39.902 -20.407   8.104 -0.07 +0.00    +0.285 C  
DOCKED: ENDBRANCH  14  15
DOCKED: ENDBRANCH  13  14
DOCKED: ENDBRANCH  12  13
DOCKED: ENDBRANCH   2  12
DOCKED: BRANCH   2  18
DOCKED: ATOM     18  C   UNL     1     -42.367 -23.545   8.862 -0.13 +0.00    +0.006 A  
DOCKED: ATOM     19  C   UNL     1     -41.593 -22.885   9.816 -0.09 +0.00    +0.001 A  
DOCKED: ATOM     20  C   UNL     1     -40.768 -23.617  10.671 -0.11 +0.00    +0.029 A  
DOCKED: ATOM     21  C   UNL     1     -40.719 -25.007  10.572 -0.12 +0.00    +0.140 A  
DOCKED: ATOM     22  C   UNL     1     -41.494 -25.666   9.618 -0.18 +0.00    +0.029 A  
DOCKED: ATOM     23  F   UNL     1     -39.929 -25.709  11.394 -0.06 -0.00    -0.204 F  
DOCKED: ATOM     24  C   UNL     1     -42.319 -24.935   8.762 -0.25 +0.00    +0.001 A  
DOCKED: ENDBRANCH   2  18
DOCKED: TORSDOF 5
DOCKED: TER
DOCKED: ENDMDL
________________________________________________________________________________


    FINAL DOCKED STATE:
    ________________________


Run:   311 / 512
Time taken for this run:   0.002s

DOCKED: MODEL        311
DOCKED: USER    Run = 311
DOCKED: USER
DOCKED: USER    Estimated Free Energy of Binding    =  -4.12 kcal/mol  [=(1)+(2)+(3)-(4)]
DOCKED: USER
DOCKED: USER    (1) Final Intermolecular Energy     =  -5.62 kcal/mol
DOCKED: USER        vdW + Hbond + desolv Energy     =  -5.62 kcal/mol
DOCKED: USER        Electrostatic Energy            =  +0.00 kcal/mol
DOCKED: USER        Moving Ligand-Fixed Receptor    =  -5.62 kcal/mol
DOCKED: USER        Moving Ligand-Moving Receptor   =  +0.00 kcal/mol
DOCKED: USER    (2) Final Total Internal Energy     =  -1.12 kcal/mol
DOCKED: USER    (3) Torsional Free Energy           =  +1.49 kcal/mol
DOCKED: USER    (4) Unbound System's Energy         =  -1.12 kcal/mol
DOCKED: USER
DOCKED: USER
DOCKED: REMARK  5 active torsions:
DOCKED: REMARK  status: ('A' for Active; 'I' for Inactive)
DOCKED: REMARK    1  A    between atoms: C_2  and  C_19 
DOCKED: REMARK    2  A    between atoms: C_2  and  C_11 
DOCKED: REMARK    3  A    between atoms: C_19  and  C_20 
DOCKED: REMARK    4  A    between atoms: C_20  and  C_21 
DOCKED: REMARK    5  A    between atoms: C_21  and  N_22 
DOCKED: USER                              x       y       z     vdW  Elec       q    Type
DOCKED: USER                           _______ _______ _______ _____ _____    ______ ____
DOCKED: ROOT
DOCKED: ATOM      1  O   UNL     1     -38.867 -21.853   9.259 -0.04 -0.00    -0.346 OA 
DOCKED: ATOM      2  C   UNL     1     -39.532 -20.965   8.305 -0.11 +0.00    +0.130 C  
DOCKED: ATOM      3  C   UNL     1     -40.420 -21.884   7.517 -0.21 +0.00    +0.004 A  
DOCKED: ATOM      4  C   UNL     1     -40.353 -23.165   8.046 -0.23 +0.00    +0.006 A  
DOCKED: ATOM      5  C   UNL     1     -39.439 -23.180   9.211 -0.14 +0.00    +0.169 C  
DOCKED: ATOM      6  C   UNL     1     -41.232 -21.606   6.427 -0.28 -0.00    -0.001 A  
DOCKED: ATOM      7  C   UNL     1     -41.085 -24.208   7.505 -0.31 +0.00    +0.008 A  
DOCKED: ATOM      8  C   UNL     1     -41.973 -22.648   5.867 -0.33 +0.00    +0.010 A  
DOCKED: ATOM      9  C   UNL     1     -41.901 -23.942   6.404 -0.30 +0.00    +0.068 A  
DOCKED: ATOM     10  N   UNL     1     -43.294 -25.851   5.344 -2.55 -0.00    -0.191 NA 
DOCKED: ATOM     11  C   UNL     1     -42.669 -24.995   5.819 -0.36 +0.00    +0.101 C  
DOCKED: ENDROOT
DOCKED: BRANCH   2  12
DOCKED: ATOM     12  C   UNL     1     -40.311 -19.913   9.087 -0.05 +0.00    +0.038 C  
DOCKED: BRANCH  12  13
DOCKED: ATOM     13  C   UNL     1     -41.657 -20.456   9.562 -0.04 +0.00    +0.038 C  
DOCKED: BRANCH  13  14
DOCKED: ATOM     14  C   UNL     1     -41.979 -19.968  10.974 -0.00 +0.00    +0.251 C  
DOCKED: BRANCH  14  15
DOCKED: ATOM     15  N   UNL     1     -40.808 -19.336  11.571 -0.00 +0.00    +0.141 N  
DOCKED: ATOM     16  C   UNL     1     -40.987 -17.885  11.645 +0.00 +0.00    +0.285 C  
DOCKED: ATOM     17  C   UNL     1     -40.549 -19.884  12.903 +0.00 +0.00    +0.285 C  
DOCKED: ENDBRANCH  14  15
DOCKED: ENDBRANCH  13  14
DOCKED: ENDBRANCH  12  13
DOCKED: ENDBRANCH   2  12
DOCKED: BRANCH   2  18
DOCKED: ATOM     18  C   UNL     1     -38.463 -20.336   7.475 -0.12 +0.00    +0.006 A  
DOCKED: ATOM     19  C   UNL     1     -37.126 -20.668   7.694 -0.11 +0.00    +0.001 A  
DOCKED: ATOM     20  C   UNL     1     -36.128 -20.079   6.917 -0.09 +0.00    +0.029 A  
DOCKED: ATOM     21  C   UNL     1     -36.466 -19.162   5.924 -0.07 +0.00    +0.140 A  
DOCKED: ATOM     22  C   UNL     1     -37.803 -18.831   5.706 -0.11 +0.00    +0.029 A  
DOCKED: ATOM     23  F   UNL     1     -35.507 -18.598   5.178 -0.01 -0.00    -0.204 F  
DOCKED: ATOM     24  C   UNL     1     -38.803 -19.419   6.482 -0.15 +0.00    +0.001 A  
DOCKED: ENDBRANCH   2  18
DOCKED: TORSDOF 5
DOCKED: TER
DOCKED: ENDMDL
________________________________________________________________________________


    FINAL DOCKED STATE:
    ________________________


Run:   312 / 512
Time taken for this run:   0.002s

DOCKED: MODEL        312
DOCKED: USER    Run = 312
DOCKED: USER
DOCKED: USER    Estimated Free Energy of Binding    =  -4.93 kcal/mol  [=(1)+(2)+(3)-(4)]
DOCKED: USER
DOCKED: USER    (1) Final Intermolecular Energy     =  -6.42 kcal/mol
DOCKED: USER        vdW + Hbond + desolv Energy     =  -6.42 kcal/mol
DOCKED: USER        Electrostatic Energy            =  +0.00 kcal/mol
DOCKED: USER        Moving Ligand-Fixed Receptor    =  -6.42 kcal/mol
DOCKED: USER        Moving Ligand-Moving Receptor   =  +0.00 kcal/mol
DOCKED: USER    (2) Final Total Internal Energy     =  -1.20 kcal/mol
DOCKED: USER    (3) Torsional Free Energy           =  +1.49 kcal/mol
DOCKED: USER    (4) Unbound System's Energy         =  -1.20 kcal/mol
DOCKED: USER
DOCKED: USER
DOCKED: REMARK  5 active torsions:
DOCKED: REMARK  status: ('A' for Active; 'I' for Inactive)
DOCKED: REMARK    1  A    between atoms: C_2  and  C_19 
DOCKED: REMARK    2  A    between atoms: C_2  and  C_11 
DOCKED: REMARK    3  A    between atoms: C_19  and  C_20 
DOCKED: REMARK    4  A    between atoms: C_20  and  C_21 
DOCKED: REMARK    5  A    between atoms: C_21  and  N_22 
DOCKED: USER                              x       y       z     vdW  Elec       q    Type
DOCKED: USER                           _______ _______ _______ _____ _____    ______ ____
DOCKED: ROOT
DOCKED: ATOM      1  O   UNL     1     -42.083 -21.725   8.247 -0.02 -0.00    -0.346 OA 
DOCKED: ATOM      2  C   UNL     1     -41.113 -22.815   8.133 -0.17 +0.00    +0.130 C  
DOCKED: ATOM      3  C   UNL     1     -41.459 -23.469   6.826 -0.31 +0.00    +0.004 A  
DOCKED: ATOM      4  C   UNL     1     -42.463 -22.749   6.195 -0.31 +0.00    +0.006 A  
DOCKED: ATOM      5  C   UNL     1     -42.838 -21.580   7.022 -0.19 +0.00    +0.169 C  
DOCKED: ATOM      6  C   UNL     1     -40.919 -24.603   6.237 -0.37 -0.00    -0.001 A  
DOCKED: ATOM      7  C   UNL     1     -42.964 -23.137   4.964 -0.09 +0.00    +0.008 A  
DOCKED: ATOM      8  C   UNL     1     -41.416 -25.009   4.998 -0.26 +0.00    +0.010 A  
DOCKED: ATOM      9  C   UNL     1     -42.433 -24.280   4.364 -0.42 +0.00    +0.068 A  
DOCKED: ATOM     10  N   UNL     1     -43.329 -25.059   2.062 -2.21 -0.00    -0.191 NA 
DOCKED: ATOM     11  C   UNL     1     -42.927 -24.710   3.095 -0.51 +0.00    +0.101 C  
DOCKED: ENDROOT
DOCKED: BRANCH   2  12
DOCKED: ATOM     12  C   UNL     1     -39.711 -22.218   8.146 -0.20 +0.00    +0.038 C  
DOCKED: BRANCH  12  13
DOCKED: ATOM     13  C   UNL     1     -39.636 -20.955   7.291 -0.18 +0.00    +0.038 C  
DOCKED: BRANCH  13  14
DOCKED: ATOM     14  C   UNL     1     -39.553 -19.704   8.164 -0.06 +0.00    +0.251 C  
DOCKED: BRANCH  14  15
DOCKED: ATOM     15  N   UNL     1     -39.870 -18.516   7.381 -0.06 +0.00    +0.141 N  
DOCKED: ATOM     16  C   UNL     1     -38.891 -18.328   6.309 -0.07 +0.00    +0.285 C  
DOCKED: ATOM     17  C   UNL     1     -41.220 -18.611   6.824 -0.11 +0.00    +0.285 C  
DOCKED: ENDBRANCH  14  15
DOCKED: ENDBRANCH  13  14
DOCKED: ENDBRANCH  12  13
DOCKED: ENDBRANCH   2  12
DOCKED: BRANCH   2  18
DOCKED: ATOM     18  C   UNL     1     -41.327 -23.713   9.306 -0.16 +0.00    +0.006 A  
DOCKED: ATOM     19  C   UNL     1     -42.481 -24.490   9.387 -0.19 +0.00    +0.001 A  
DOCKED: ATOM     20  C   UNL     1     -42.680 -25.329  10.485 -0.02 +0.00    +0.029 A  
DOCKED: ATOM     21  C   UNL     1     -41.724 -25.389  11.498 -0.15 +0.00    +0.140 A  
DOCKED: ATOM     22  C   UNL     1     -40.569 -24.611  11.416 -0.17 +0.00    +0.029 A  
DOCKED: ATOM     23  F   UNL     1     -41.914 -26.195  12.551 -0.05 -0.00    -0.204 F  
DOCKED: ATOM     24  C   UNL     1     -40.370 -23.772  10.319 -0.14 +0.00    +0.001 A  
DOCKED: ENDBRANCH   2  18
DOCKED: TORSDOF 5
DOCKED: TER
DOCKED: ENDMDL
________________________________________________________________________________


    FINAL DOCKED STATE:
    ________________________


Run:   313 / 512
Time taken for this run:   0.002s

DOCKED: MODEL        313
DOCKED: USER    Run = 313
DOCKED: USER
DOCKED: USER    Estimated Free Energy of Binding    =  -4.00 kcal/mol  [=(1)+(2)+(3)-(4)]
DOCKED: USER
DOCKED: USER    (1) Final Intermolecular Energy     =  -5.50 kcal/mol
DOCKED: USER        vdW + Hbond + desolv Energy     =  -5.50 kcal/mol
DOCKED: USER        Electrostatic Energy            =  +0.00 kcal/mol
DOCKED: USER        Moving Ligand-Fixed Receptor    =  -5.50 kcal/mol
DOCKED: USER        Moving Ligand-Moving Receptor   =  +0.00 kcal/mol
DOCKED: USER    (2) Final Total Internal Energy     =  -1.27 kcal/mol
DOCKED: USER    (3) Torsional Free Energy           =  +1.49 kcal/mol
DOCKED: USER    (4) Unbound System's Energy         =  -1.27 kcal/mol
DOCKED: USER
DOCKED: USER
DOCKED: REMARK  5 active torsions:
DOCKED: REMARK  status: ('A' for Active; 'I' for Inactive)
DOCKED: REMARK    1  A    between atoms: C_2  and  C_19 
DOCKED: REMARK    2  A    between atoms: C_2  and  C_11 
DOCKED: REMARK    3  A    between atoms: C_19  and  C_20 
DOCKED: REMARK    4  A    between atoms: C_20  and  C_21 
DOCKED: REMARK    5  A    between atoms: C_21  and  N_22 
DOCKED: USER                              x       y       z     vdW  Elec       q    Type
DOCKED: USER                           _______ _______ _______ _____ _____    ______ ____
DOCKED: ROOT
DOCKED: ATOM      1  O   UNL     1     -35.159 -19.011   1.031 +0.01 -0.00    -0.346 OA 
DOCKED: ATOM      2  C   UNL     1     -36.292 -19.844   0.623 -0.15 +0.00    +0.130 C  
DOCKED: ATOM      3  C   UNL     1     -36.099 -21.116   1.397 -0.22 +0.00    +0.004 A  
DOCKED: ATOM      4  C   UNL     1     -35.016 -20.982   2.254 -0.11 +0.00    +0.006 A  
DOCKED: ATOM      5  C   UNL     1     -34.433 -19.628   2.119 -0.03 +0.00    +0.169 C  
DOCKED: ATOM      6  C   UNL     1     -36.830 -22.294   1.354 -0.30 -0.00    -0.001 A  
DOCKED: ATOM      7  C   UNL     1     -34.626 -22.014   3.089 -0.14 +0.00    +0.008 A  
DOCKED: ATOM      8  C   UNL     1     -36.447 -23.346   2.187 -0.28 +0.00    +0.010 A  
DOCKED: ATOM      9  C   UNL     1     -35.350 -23.206   3.051 -0.22 +0.00    +0.068 A  
DOCKED: ATOM     10  N   UNL     1     -34.668 -25.177   4.588 -1.92 -0.00    -0.191 NA 
DOCKED: ATOM     11  C   UNL     1     -34.974 -24.293   3.898 -0.26 +0.00    +0.101 C  
DOCKED: ENDROOT
DOCKED: BRANCH   2  12
DOCKED: ATOM     12  C   UNL     1     -37.581 -19.117   0.987 -0.22 +0.00    +0.038 C  
DOCKED: BRANCH  12  13
DOCKED: ATOM     13  C   UNL     1     -37.935 -19.315   2.460 -0.21 +0.00    +0.038 C  
DOCKED: BRANCH  13  14
DOCKED: ATOM     14  C   UNL     1     -37.137 -18.362   3.349 -0.07 +0.00    +0.251 C  
DOCKED: BRANCH  14  15
DOCKED: ATOM     15  N   UNL     1     -37.065 -18.880   4.710 -0.09 +0.00    +0.141 N  
DOCKED: ATOM     16  C   UNL     1     -36.584 -17.847   5.630 -0.02 +0.00    +0.285 C  
DOCKED: ATOM     17  C   UNL     1     -38.372 -19.376   5.143 -0.09 +0.00    +0.285 C  
DOCKED: ENDBRANCH  14  15
DOCKED: ENDBRANCH  13  14
DOCKED: ENDBRANCH  12  13
DOCKED: ENDBRANCH   2  12
DOCKED: BRANCH   2  18
DOCKED: ATOM     18  C   UNL     1     -36.181 -20.038  -0.852 -0.19 +0.00    +0.006 A  
DOCKED: ATOM     19  C   UNL     1     -36.910 -19.224  -1.719 -0.19 +0.00    +0.001 A  
DOCKED: ATOM     20  C   UNL     1     -36.806 -19.407  -3.098 -0.24 +0.00    +0.029 A  
DOCKED: ATOM     21  C   UNL     1     -35.974 -20.402  -3.609 -0.21 +0.00    +0.140 A  
DOCKED: ATOM     22  C   UNL     1     -35.246 -21.216  -2.742 -0.15 +0.00    +0.029 A  
DOCKED: ATOM     23  F   UNL     1     -35.874 -20.577  -4.933 -0.07 -0.00    -0.204 F  
DOCKED: ATOM     24  C   UNL     1     -35.350 -21.035  -1.362 -0.12 +0.00    +0.001 A  
DOCKED: ENDBRANCH   2  18
DOCKED: TORSDOF 5
DOCKED: TER
DOCKED: ENDMDL
________________________________________________________________________________


    FINAL DOCKED STATE:
    ________________________


Run:   314 / 512
Time taken for this run:   0.002s

DOCKED: MODEL        314
DOCKED: USER    Run = 314
DOCKED: USER
DOCKED: USER    Estimated Free Energy of Binding    =  -4.70 kcal/mol  [=(1)+(2)+(3)-(4)]
DOCKED: USER
DOCKED: USER    (1) Final Intermolecular Energy     =  -6.19 kcal/mol
DOCKED: USER        vdW + Hbond + desolv Energy     =  -6.19 kcal/mol
DOCKED: USER        Electrostatic Energy            =  +0.00 kcal/mol
DOCKED: USER        Moving Ligand-Fixed Receptor    =  -6.19 kcal/mol
DOCKED: USER        Moving Ligand-Moving Receptor   =  +0.00 kcal/mol
DOCKED: USER    (2) Final Total Internal Energy     =  -1.35 kcal/mol
DOCKED: USER    (3) Torsional Free Energy           =  +1.49 kcal/mol
DOCKED: USER    (4) Unbound System's Energy         =  -1.35 kcal/mol
DOCKED: USER
DOCKED: USER
DOCKED: REMARK  5 active torsions:
DOCKED: REMARK  status: ('A' for Active; 'I' for Inactive)
DOCKED: REMARK    1  A    between atoms: C_2  and  C_19 
DOCKED: REMARK    2  A    between atoms: C_2  and  C_11 
DOCKED: REMARK    3  A    between atoms: C_19  and  C_20 
DOCKED: REMARK    4  A    between atoms: C_20  and  C_21 
DOCKED: REMARK    5  A    between atoms: C_21  and  N_22 
DOCKED: USER                              x       y       z     vdW  Elec       q    Type
DOCKED: USER                           _______ _______ _______ _____ _____    ______ ____
DOCKED: ROOT
DOCKED: ATOM      1  O   UNL     1     -37.441 -15.770   0.072 -0.05 -0.00    -0.346 OA 
DOCKED: ATOM      2  C   UNL     1     -38.879 -15.644   0.317 -0.24 +0.00    +0.130 C  
DOCKED: ATOM      3  C   UNL     1     -39.383 -14.895  -0.883 -0.30 +0.00    +0.004 A  
DOCKED: ATOM      4  C   UNL     1     -38.346 -14.707  -1.786 -0.28 +0.00    +0.006 A  
DOCKED: ATOM      5  C   UNL     1     -37.105 -15.320  -1.261 -0.14 +0.00    +0.169 C  
DOCKED: ATOM      6  C   UNL     1     -40.660 -14.428  -1.159 +0.44 -0.00    -0.001 A  
DOCKED: ATOM      7  C   UNL     1     -38.546 -14.046  -2.985 -0.30 +0.00    +0.008 A  
DOCKED: ATOM      8  C   UNL     1     -40.876 -13.755  -2.362 -0.45 +0.00    +0.010 A  
DOCKED: ATOM      9  C   UNL     1     -39.825 -13.566  -3.271 -0.31 +0.00    +0.068 A  
DOCKED: ATOM     10  N   UNL     1     -40.263 -12.317  -5.499 -2.50 -0.00    -0.191 NA 
DOCKED: ATOM     11  C   UNL     1     -40.066 -12.877  -4.500 -0.14 +0.00    +0.101 C  
DOCKED: ENDROOT
DOCKED: BRANCH   2  12
DOCKED: ATOM     12  C   UNL     1     -39.473 -17.043   0.436 -0.27 +0.00    +0.038 C  
DOCKED: BRANCH  12  13
DOCKED: ATOM     13  C   UNL     1     -38.410 -18.068   0.827 -0.22 +0.00    +0.038 C  
DOCKED: BRANCH  13  14
DOCKED: ATOM     14  C   UNL     1     -38.177 -18.068   2.337 -0.09 +0.00    +0.251 C  
DOCKED: BRANCH  14  15
DOCKED: ATOM     15  N   UNL     1     -36.825 -18.523   2.641 -0.06 +0.00    +0.141 N  
DOCKED: ATOM     16  C   UNL     1     -36.086 -18.805   1.409 -0.04 +0.00    +0.285 C  
DOCKED: ATOM     17  C   UNL     1     -36.114 -17.526   3.442 -0.02 +0.00    +0.285 C  
DOCKED: ENDBRANCH  14  15
DOCKED: ENDBRANCH  13  14
DOCKED: ENDBRANCH  12  13
DOCKED: ENDBRANCH   2  12
DOCKED: BRANCH   2  18
DOCKED: ATOM     18  C   UNL     1     -39.040 -14.881   1.589 -0.23 +0.00    +0.006 A  
DOCKED: ATOM     19  C   UNL     1     -37.939 -14.669   2.418 -0.17 +0.00    +0.001 A  
DOCKED: ATOM     20  C   UNL     1     -38.091 -13.956   3.608 -0.09 +0.00    +0.029 A  
DOCKED: ATOM     21  C   UNL     1     -39.342 -13.454   3.965 -0.16 +0.00    +0.140 A  
DOCKED: ATOM     22  C   UNL     1     -40.442 -13.666   3.135 -0.24 +0.00    +0.029 A  
DOCKED: ATOM     23  F   UNL     1     -39.487 -12.768   5.106 -0.05 -0.00    -0.204 F  
DOCKED: ATOM     24  C   UNL     1     -40.291 -14.380   1.945 -0.29 +0.00    +0.001 A  
DOCKED: ENDBRANCH   2  18
DOCKED: TORSDOF 5
DOCKED: TER
DOCKED: ENDMDL
________________________________________________________________________________


    FINAL DOCKED STATE:
    ________________________


Run:   315 / 512
Time taken for this run:   0.002s

DOCKED: MODEL        315
DOCKED: USER    Run = 315
DOCKED: USER
DOCKED: USER    Estimated Free Energy of Binding    =  -4.93 kcal/mol  [=(1)+(2)+(3)-(4)]
DOCKED: USER
DOCKED: USER    (1) Final Intermolecular Energy     =  -6.42 kcal/mol
DOCKED: USER        vdW + Hbond + desolv Energy     =  -6.42 kcal/mol
DOCKED: USER        Electrostatic Energy            =  +0.00 kcal/mol
DOCKED: USER        Moving Ligand-Fixed Receptor    =  -6.42 kcal/mol
DOCKED: USER        Moving Ligand-Moving Receptor   =  +0.00 kcal/mol
DOCKED: USER    (2) Final Total Internal Energy     =  -1.38 kcal/mol
DOCKED: USER    (3) Torsional Free Energy           =  +1.49 kcal/mol
DOCKED: USER    (4) Unbound System's Energy         =  -1.38 kcal/mol
DOCKED: USER
DOCKED: USER
DOCKED: REMARK  5 active torsions:
DOCKED: REMARK  status: ('A' for Active; 'I' for Inactive)
DOCKED: REMARK    1  A    between atoms: C_2  and  C_19 
DOCKED: REMARK    2  A    between atoms: C_2  and  C_11 
DOCKED: REMARK    3  A    between atoms: C_19  and  C_20 
DOCKED: REMARK    4  A    between atoms: C_20  and  C_21 
DOCKED: REMARK    5  A    between atoms: C_21  and  N_22 
DOCKED: USER                              x       y       z     vdW  Elec       q    Type
DOCKED: USER                           _______ _______ _______ _____ _____    ______ ____
DOCKED: ROOT
DOCKED: ATOM      1  O   UNL     1     -37.197 -16.015   0.010 -0.03 -0.00    -0.346 OA 
DOCKED: ATOM      2  C   UNL     1     -38.602 -15.815   0.366 -0.22 +0.00    +0.130 C  
DOCKED: ATOM      3  C   UNL     1     -39.161 -15.043  -0.795 -0.29 +0.00    +0.004 A  
DOCKED: ATOM      4  C   UNL     1     -38.190 -14.909  -1.777 -0.27 +0.00    +0.006 A  
DOCKED: ATOM      5  C   UNL     1     -36.944 -15.584  -1.348 -0.13 +0.00    +0.169 C  
DOCKED: ATOM      6  C   UNL     1     -40.430 -14.512  -0.972 +0.15 -0.00    -0.001 A  
DOCKED: ATOM      7  C   UNL     1     -38.450 -14.240  -2.961 -0.27 +0.00    +0.008 A  
DOCKED: ATOM      8  C   UNL     1     -40.707 -13.831  -2.158 -0.39 +0.00    +0.010 A  
DOCKED: ATOM      9  C   UNL     1     -39.721 -13.696  -3.148 -0.28 +0.00    +0.068 A  
DOCKED: ATOM     10  N   UNL     1     -40.270 -12.430  -5.341 -2.47 -0.00    -0.191 NA 
DOCKED: ATOM     11  C   UNL     1     -40.023 -12.997  -4.357 -0.31 +0.00    +0.101 C  
DOCKED: ENDROOT
DOCKED: BRANCH   2  12
DOCKED: ATOM     12  C   UNL     1     -39.255 -17.182   0.538 -0.27 +0.00    +0.038 C  
DOCKED: BRANCH  12  13
DOCKED: ATOM     13  C   UNL     1     -38.219 -18.304   0.491 -0.22 +0.00    +0.038 C  
DOCKED: BRANCH  13  14
DOCKED: ATOM     14  C   UNL     1     -38.080 -18.981   1.853 -0.15 +0.00    +0.251 C  
DOCKED: BRANCH  14  15
DOCKED: ATOM     15  N   UNL     1     -37.310 -18.140   2.761 -0.07 +0.00    +0.141 N  
DOCKED: ATOM     16  C   UNL     1     -37.981 -18.029   4.057 -0.07 +0.00    +0.285 C  
DOCKED: ATOM     17  C   UNL     1     -35.957 -18.673   2.935 -0.03 +0.00    +0.285 C  
DOCKED: ENDBRANCH  14  15
DOCKED: ENDBRANCH  13  14
DOCKED: ENDBRANCH  12  13
DOCKED: ENDBRANCH   2  12
DOCKED: BRANCH   2  18
DOCKED: ATOM     18  C   UNL     1     -38.624 -15.043   1.642 -0.21 +0.00    +0.006 A  
DOCKED: ATOM     19  C   UNL     1     -39.822 -14.503   2.110 -0.27 +0.00    +0.001 A  
DOCKED: ATOM     20  C   UNL     1     -39.840 -13.781   3.304 -0.23 +0.00    +0.029 A  
DOCKED: ATOM     21  C   UNL     1     -38.663 -13.600   4.028 -0.12 +0.00    +0.140 A  
DOCKED: ATOM     22  C   UNL     1     -37.466 -14.141   3.560 -0.09 +0.00    +0.029 A  
DOCKED: ATOM     23  F   UNL     1     -38.682 -12.909   5.175 -0.05 -0.00    -0.204 F  
DOCKED: ATOM     24  C   UNL     1     -37.446 -14.863   2.365 -0.15 +0.00    +0.001 A  
DOCKED: ENDBRANCH   2  18
DOCKED: TORSDOF 5
DOCKED: TER
DOCKED: ENDMDL
________________________________________________________________________________


    FINAL DOCKED STATE:
    ________________________


Run:   316 / 512
Time taken for this run:   0.002s

DOCKED: MODEL        316
DOCKED: USER    Run = 316
DOCKED: USER
DOCKED: USER    Estimated Free Energy of Binding    =  -3.59 kcal/mol  [=(1)+(2)+(3)-(4)]
DOCKED: USER
DOCKED: USER    (1) Final Intermolecular Energy     =  -5.08 kcal/mol
DOCKED: USER        vdW + Hbond + desolv Energy     =  -5.08 kcal/mol
DOCKED: USER        Electrostatic Energy            =  +0.00 kcal/mol
DOCKED: USER        Moving Ligand-Fixed Receptor    =  -5.08 kcal/mol
DOCKED: USER        Moving Ligand-Moving Receptor   =  +0.00 kcal/mol
DOCKED: USER    (2) Final Total Internal Energy     =  -1.42 kcal/mol
DOCKED: USER    (3) Torsional Free Energy           =  +1.49 kcal/mol
DOCKED: USER    (4) Unbound System's Energy         =  -1.42 kcal/mol
DOCKED: USER
DOCKED: USER
DOCKED: REMARK  5 active torsions:
DOCKED: REMARK  status: ('A' for Active; 'I' for Inactive)
DOCKED: REMARK    1  A    between atoms: C_2  and  C_19 
DOCKED: REMARK    2  A    between atoms: C_2  and  C_11 
DOCKED: REMARK    3  A    between atoms: C_19  and  C_20 
DOCKED: REMARK    4  A    between atoms: C_20  and  C_21 
DOCKED: REMARK    5  A    between atoms: C_21  and  N_22 
DOCKED: USER                              x       y       z     vdW  Elec       q    Type
DOCKED: USER                           _______ _______ _______ _____ _____    ______ ____
DOCKED: ROOT
DOCKED: ATOM      1  O   UNL     1     -40.472 -22.332  10.784 -0.01 -0.00    -0.346 OA 
DOCKED: ATOM      2  C   UNL     1     -39.614 -22.154   9.612 -0.09 +0.00    +0.130 C  
DOCKED: ATOM      3  C   UNL     1     -40.318 -22.922   8.531 -0.19 +0.00    +0.004 A  
DOCKED: ATOM      4  C   UNL     1     -41.527 -23.404   9.012 -0.14 +0.00    +0.006 A  
DOCKED: ATOM      5  C   UNL     1     -41.711 -22.984  10.419 -0.06 +0.00    +0.169 C  
DOCKED: ATOM      6  C   UNL     1     -39.925 -23.166   7.223 -0.12 -0.00    -0.001 A  
DOCKED: ATOM      7  C   UNL     1     -42.378 -24.144   8.210 -0.20 +0.00    +0.008 A  
DOCKED: ATOM      8  C   UNL     1     -40.770 -23.914   6.403 -0.30 +0.00    +0.010 A  
DOCKED: ATOM      9  C   UNL     1     -41.991 -24.401   6.894 -0.27 +0.00    +0.068 A  
DOCKED: ATOM     10  N   UNL     1     -43.539 -25.783   5.343 -2.39 -0.00    -0.191 NA 
DOCKED: ATOM     11  C   UNL     1     -42.845 -25.164   6.038 -0.15 +0.00    +0.101 C  
DOCKED: ENDROOT
DOCKED: BRANCH   2  12
DOCKED: ATOM     12  C   UNL     1     -39.511 -20.664   9.311 -0.06 +0.00    +0.038 C  
DOCKED: BRANCH  12  13
DOCKED: ATOM     13  C   UNL     1     -40.701 -19.897   9.884 -0.02 +0.00    +0.038 C  
DOCKED: BRANCH  13  14
DOCKED: ATOM     14  C   UNL     1     -41.706 -19.543   8.790 -0.03 +0.00    +0.251 C  
DOCKED: BRANCH  14  15
DOCKED: ATOM     15  N   UNL     1     -41.265 -20.074   7.505 -0.11 +0.00    +0.141 N  
DOCKED: ATOM     16  C   UNL     1     -42.384 -20.690   6.790 -0.15 +0.00    +0.285 C  
DOCKED: ATOM     17  C   UNL     1     -40.662 -19.018   6.691 -0.11 +0.00    +0.285 C  
DOCKED: ENDBRANCH  14  15
DOCKED: ENDBRANCH  13  14
DOCKED: ENDBRANCH  12  13
DOCKED: ENDBRANCH   2  12
DOCKED: BRANCH   2  18
DOCKED: ATOM     18  C   UNL     1     -38.280 -22.727   9.957 -0.11 +0.00    +0.006 A  
DOCKED: ATOM     19  C   UNL     1     -37.205 -22.566   9.083 -0.15 +0.00    +0.001 A  
DOCKED: ATOM     20  C   UNL     1     -35.958 -23.102   9.407 -0.12 +0.00    +0.029 A  
DOCKED: ATOM     21  C   UNL     1     -35.787 -23.797  10.604 -0.08 +0.00    +0.140 A  
DOCKED: ATOM     22  C   UNL     1     -36.863 -23.957  11.478 -0.11 +0.00    +0.029 A  
DOCKED: ATOM     23  F   UNL     1     -34.590 -24.309  10.915 -0.01 -0.00    -0.204 F  
DOCKED: ATOM     24  C   UNL     1     -38.111 -23.422  11.154 -0.10 +0.00    +0.001 A  
DOCKED: ENDBRANCH   2  18
DOCKED: TORSDOF 5
DOCKED: TER
DOCKED: ENDMDL
________________________________________________________________________________


    FINAL DOCKED STATE:
    ________________________


Run:   317 / 512
Time taken for this run:   0.002s

DOCKED: MODEL        317
DOCKED: USER    Run = 317
DOCKED: USER
DOCKED: USER    Estimated Free Energy of Binding    =  -3.85 kcal/mol  [=(1)+(2)+(3)-(4)]
DOCKED: USER
DOCKED: USER    (1) Final Intermolecular Energy     =  -5.34 kcal/mol
DOCKED: USER        vdW + Hbond + desolv Energy     =  -5.34 kcal/mol
DOCKED: USER        Electrostatic Energy            =  +0.00 kcal/mol
DOCKED: USER        Moving Ligand-Fixed Receptor    =  -5.34 kcal/mol
DOCKED: USER        Moving Ligand-Moving Receptor   =  +0.00 kcal/mol
DOCKED: USER    (2) Final Total Internal Energy     =  -1.30 kcal/mol
DOCKED: USER    (3) Torsional Free Energy           =  +1.49 kcal/mol
DOCKED: USER    (4) Unbound System's Energy         =  -1.30 kcal/mol
DOCKED: USER
DOCKED: USER
DOCKED: REMARK  5 active torsions:
DOCKED: REMARK  status: ('A' for Active; 'I' for Inactive)
DOCKED: REMARK    1  A    between atoms: C_2  and  C_19 
DOCKED: REMARK    2  A    between atoms: C_2  and  C_11 
DOCKED: REMARK    3  A    between atoms: C_19  and  C_20 
DOCKED: REMARK    4  A    between atoms: C_20  and  C_21 
DOCKED: REMARK    5  A    between atoms: C_21  and  N_22 
DOCKED: USER                              x       y       z     vdW  Elec       q    Type
DOCKED: USER                           _______ _______ _______ _____ _____    ______ ____
DOCKED: ROOT
DOCKED: ATOM      1  O   UNL     1     -39.541 -21.574   9.289 -0.03 -0.00    -0.346 OA 
DOCKED: ATOM      2  C   UNL     1     -40.259 -20.781   8.290 -0.10 +0.00    +0.130 C  
DOCKED: ATOM      3  C   UNL     1     -40.921 -21.810   7.421 -0.21 +0.00    +0.004 A  
DOCKED: ATOM      4  C   UNL     1     -40.693 -23.077   7.941 -0.23 +0.00    +0.006 A  
DOCKED: ATOM      5  C   UNL     1     -39.888 -22.974   9.179 -0.13 +0.00    +0.169 C  
DOCKED: ATOM      6  C   UNL     1     -41.674 -21.640   6.268 -0.28 -0.00    -0.001 A  
DOCKED: ATOM      7  C   UNL     1     -41.203 -24.209   7.330 -0.32 +0.00    +0.008 A  
DOCKED: ATOM      8  C   UNL     1     -42.191 -22.772   5.637 -0.34 +0.00    +0.010 A  
DOCKED: ATOM      9  C   UNL     1     -41.957 -24.051   6.166 -0.32 +0.00    +0.068 A  
DOCKED: ATOM     10  N   UNL     1     -42.936 -26.132   4.973 -2.38 -0.00    -0.191 NA 
DOCKED: ATOM     11  C   UNL     1     -42.497 -25.198   5.508 -0.36 +0.00    +0.101 C  
DOCKED: ENDROOT
DOCKED: BRANCH   2  12
DOCKED: ATOM     12  C   UNL     1     -41.257 -19.884   9.012 -0.05 +0.00    +0.038 C  
DOCKED: BRANCH  12  13
DOCKED: ATOM     13  C   UNL     1     -40.682 -19.356  10.325 -0.01 +0.00    +0.038 C  
DOCKED: BRANCH  13  14
DOCKED: ATOM     14  C   UNL     1     -41.031 -20.282  11.489 -0.00 +0.00    +0.251 C  
DOCKED: BRANCH  14  15
DOCKED: ATOM     15  N   UNL     1     -39.835 -20.599  12.260 -0.00 +0.00    +0.141 N  
DOCKED: ATOM     16  C   UNL     1     -38.900 -19.472  12.250 -0.00 +0.00    +0.285 C  
DOCKED: ATOM     17  C   UNL     1     -40.187 -20.953  13.636 -0.00 +0.00    +0.285 C  
DOCKED: ENDBRANCH  14  15
DOCKED: ENDBRANCH  13  14
DOCKED: ENDBRANCH  12  13
DOCKED: ENDBRANCH   2  12
DOCKED: BRANCH   2  18
DOCKED: ATOM     18  C   UNL     1     -39.239 -19.972   7.560 -0.13 +0.00    +0.006 A  
DOCKED: ATOM     19  C   UNL     1     -39.594 -18.748   6.995 -0.11 +0.00    +0.001 A  
DOCKED: ATOM     20  C   UNL     1     -38.639 -17.993   6.312 -0.08 +0.00    +0.029 A  
DOCKED: ATOM     21  C   UNL     1     -37.332 -18.463   6.196 -0.06 +0.00    +0.140 A  
DOCKED: ATOM     22  C   UNL     1     -36.977 -19.688   6.761 -0.10 +0.00    +0.029 A  
DOCKED: ATOM     23  F   UNL     1     -36.415 -17.738   5.542 -0.00 -0.00    -0.204 F  
DOCKED: ATOM     24  C   UNL     1     -37.932 -20.444   7.444 -0.11 +0.00    +0.001 A  
DOCKED: ENDBRANCH   2  18
DOCKED: TORSDOF 5
DOCKED: TER
DOCKED: ENDMDL
________________________________________________________________________________


    FINAL DOCKED STATE:
    ________________________


Run:   318 / 512
Time taken for this run:   0.002s

DOCKED: MODEL        318
DOCKED: USER    Run = 318
DOCKED: USER
DOCKED: USER    Estimated Free Energy of Binding    =  -4.71 kcal/mol  [=(1)+(2)+(3)-(4)]
DOCKED: USER
DOCKED: USER    (1) Final Intermolecular Energy     =  -6.20 kcal/mol
DOCKED: USER        vdW + Hbond + desolv Energy     =  -6.20 kcal/mol
DOCKED: USER        Electrostatic Energy            =  +0.00 kcal/mol
DOCKED: USER        Moving Ligand-Fixed Receptor    =  -6.20 kcal/mol
DOCKED: USER        Moving Ligand-Moving Receptor   =  +0.00 kcal/mol
DOCKED: USER    (2) Final Total Internal Energy     =  -1.09 kcal/mol
DOCKED: USER    (3) Torsional Free Energy           =  +1.49 kcal/mol
DOCKED: USER    (4) Unbound System's Energy         =  -1.09 kcal/mol
DOCKED: USER
DOCKED: USER
DOCKED: REMARK  5 active torsions:
DOCKED: REMARK  status: ('A' for Active; 'I' for Inactive)
DOCKED: REMARK    1  A    between atoms: C_2  and  C_19 
DOCKED: REMARK    2  A    between atoms: C_2  and  C_11 
DOCKED: REMARK    3  A    between atoms: C_19  and  C_20 
DOCKED: REMARK    4  A    between atoms: C_20  and  C_21 
DOCKED: REMARK    5  A    between atoms: C_21  and  N_22 
DOCKED: USER                              x       y       z     vdW  Elec       q    Type
DOCKED: USER                           _______ _______ _______ _____ _____    ______ ____
DOCKED: ROOT
DOCKED: ATOM      1  O   UNL     1     -44.454 -23.333   8.444 -0.00 -0.00    -0.346 OA 
DOCKED: ATOM      2  C   UNL     1     -43.220 -22.651   8.051 -0.11 +0.00    +0.130 C  
DOCKED: ATOM      3  C   UNL     1     -43.054 -23.013   6.604 -0.25 +0.00    +0.004 A  
DOCKED: ATOM      4  C   UNL     1     -44.152 -23.746   6.177 -0.28 +0.00    +0.006 A  
DOCKED: ATOM      5  C   UNL     1     -45.113 -23.906   7.291 -0.16 +0.00    +0.169 C  
DOCKED: ATOM      6  C   UNL     1     -42.019 -22.709   5.731 -0.34 -0.00    -0.001 A  
DOCKED: ATOM      7  C   UNL     1     -44.253 -24.201   4.873 -0.34 +0.00    +0.008 A  
DOCKED: ATOM      8  C   UNL     1     -42.103 -23.165   4.415 -0.22 +0.00    +0.010 A  
DOCKED: ATOM      9  C   UNL     1     -43.215 -23.907   3.988 -0.33 +0.00    +0.068 A  
DOCKED: ATOM     10  N   UNL     1     -43.342 -24.733   1.535 -2.91 -0.00    -0.191 NA 
DOCKED: ATOM     11  C   UNL     1     -43.285 -24.363   2.636 -0.26 +0.00    +0.101 C  
DOCKED: ENDROOT
DOCKED: BRANCH   2  12
DOCKED: ATOM     12  C   UNL     1     -43.405 -21.154   8.271 -0.12 +0.00    +0.038 C  
DOCKED: BRANCH  12  13
DOCKED: ATOM     13  C   UNL     1     -44.602 -20.868   9.175 -0.07 +0.00    +0.038 C  
DOCKED: BRANCH  13  14
DOCKED: ATOM     14  C   UNL     1     -44.161 -20.664  10.623 -0.00 +0.00    +0.251 C  
DOCKED: BRANCH  14  15
DOCKED: ATOM     15  N   UNL     1     -43.945 -19.247  10.892 -0.01 +0.00    +0.141 N  
DOCKED: ATOM     16  C   UNL     1     -44.868 -18.426  10.107 +0.00 +0.00    +0.285 C  
DOCKED: ATOM     17  C   UNL     1     -44.104 -18.964  12.320 +0.00 +0.00    +0.285 C  
DOCKED: ENDBRANCH  14  15
DOCKED: ENDBRANCH  13  14
DOCKED: ENDBRANCH  12  13
DOCKED: ENDBRANCH   2  12
DOCKED: BRANCH   2  18
DOCKED: ATOM     18  C   UNL     1     -42.129 -23.191   8.914 -0.12 +0.00    +0.006 A  
DOCKED: ATOM     19  C   UNL     1     -42.398 -24.220   9.815 -0.16 +0.00    +0.001 A  
DOCKED: ATOM     20  C   UNL     1     -41.377 -24.724  10.622 -0.19 +0.00    +0.029 A  
DOCKED: ATOM     21  C   UNL     1     -40.090 -24.198  10.527 -0.06 +0.00    +0.140 A  
DOCKED: ATOM     22  C   UNL     1     -39.821 -23.169   9.626 -0.13 +0.00    +0.029 A  
DOCKED: ATOM     23  F   UNL     1     -39.110 -24.683  11.300 -0.02 -0.00    -0.204 F  
DOCKED: ATOM     24  C   UNL     1     -40.842 -22.664   8.818 -0.14 +0.00    +0.001 A  
DOCKED: ENDBRANCH   2  18
DOCKED: TORSDOF 5
DOCKED: TER
DOCKED: ENDMDL
________________________________________________________________________________


    FINAL DOCKED STATE:
    ________________________


Run:   319 / 512
Time taken for this run:   0.002s

DOCKED: MODEL        319
DOCKED: USER    Run = 319
DOCKED: USER
DOCKED: USER    Estimated Free Energy of Binding    =  -4.58 kcal/mol  [=(1)+(2)+(3)-(4)]
DOCKED: USER
DOCKED: USER    (1) Final Intermolecular Energy     =  -6.07 kcal/mol
DOCKED: USER        vdW + Hbond + desolv Energy     =  -6.07 kcal/mol
DOCKED: USER        Electrostatic Energy            =  +0.00 kcal/mol
DOCKED: USER        Moving Ligand-Fixed Receptor    =  -6.07 kcal/mol
DOCKED: USER        Moving Ligand-Moving Receptor   =  +0.00 kcal/mol
DOCKED: USER    (2) Final Total Internal Energy     =  -1.23 kcal/mol
DOCKED: USER    (3) Torsional Free Energy           =  +1.49 kcal/mol
DOCKED: USER    (4) Unbound System's Energy         =  -1.23 kcal/mol
DOCKED: USER
DOCKED: USER
DOCKED: REMARK  5 active torsions:
DOCKED: REMARK  status: ('A' for Active; 'I' for Inactive)
DOCKED: REMARK    1  A    between atoms: C_2  and  C_19 
DOCKED: REMARK    2  A    between atoms: C_2  and  C_11 
DOCKED: REMARK    3  A    between atoms: C_19  and  C_20 
DOCKED: REMARK    4  A    between atoms: C_20  and  C_21 
DOCKED: REMARK    5  A    between atoms: C_21  and  N_22 
DOCKED: USER                              x       y       z     vdW  Elec       q    Type
DOCKED: USER                           _______ _______ _______ _____ _____    ______ ____
DOCKED: ROOT
DOCKED: ATOM      1  O   UNL     1     -41.103 -19.510   7.074 -0.07 -0.00    -0.346 OA 
DOCKED: ATOM      2  C   UNL     1     -42.434 -19.777   7.622 -0.14 +0.00    +0.130 C  
DOCKED: ATOM      3  C   UNL     1     -42.743 -21.169   7.153 -0.21 +0.00    +0.004 A  
DOCKED: ATOM      4  C   UNL     1     -41.643 -21.694   6.489 -0.28 +0.00    +0.006 A  
DOCKED: ATOM      5  C   UNL     1     -40.541 -20.706   6.485 -0.20 +0.00    +0.169 C  
DOCKED: ATOM      6  C   UNL     1     -43.902 -21.916   7.310 -0.19 -0.00    -0.001 A  
DOCKED: ATOM      7  C   UNL     1     -41.663 -22.972   5.959 -0.34 +0.00    +0.008 A  
DOCKED: ATOM      8  C   UNL     1     -43.940 -23.205   6.777 -0.22 +0.00    +0.010 A  
DOCKED: ATOM      9  C   UNL     1     -42.826 -23.731   6.106 -0.27 +0.00    +0.068 A  
DOCKED: ATOM     10  N   UNL     1     -42.927 -26.131   5.134 -2.48 -0.00    -0.191 NA 
DOCKED: ATOM     11  C   UNL     1     -42.882 -25.054   5.569 -0.38 +0.00    +0.101 C  
DOCKED: ENDROOT
DOCKED: BRANCH   2  12
DOCKED: ATOM     12  C   UNL     1     -42.362 -19.665   9.140 -0.04 +0.00    +0.038 C  
DOCKED: BRANCH  12  13
DOCKED: ATOM     13  C   UNL     1     -42.168 -21.034   9.791 -0.04 +0.00    +0.038 C  
DOCKED: BRANCH  13  14
DOCKED: ATOM     14  C   UNL     1     -40.957 -21.033  10.722 -0.01 +0.00    +0.251 C  
DOCKED: BRANCH  14  15
DOCKED: ATOM     15  N   UNL     1     -40.300 -22.334  10.701 -0.04 +0.00    +0.141 N  
DOCKED: ATOM     16  C   UNL     1     -41.125 -23.339  11.373 -0.04 +0.00    +0.285 C  
DOCKED: ATOM     17  C   UNL     1     -40.018 -22.747   9.325 -0.08 +0.00    +0.285 C  
DOCKED: ENDBRANCH  14  15
DOCKED: ENDBRANCH  13  14
DOCKED: ENDBRANCH  12  13
DOCKED: ENDBRANCH   2  12
DOCKED: BRANCH   2  18
DOCKED: ATOM     18  C   UNL     1     -43.355 -18.752   7.050 -0.20 +0.00    +0.006 A  
DOCKED: ATOM     19  C   UNL     1     -42.851 -17.741   6.233 -0.18 +0.00    +0.001 A  
DOCKED: ATOM     20  C   UNL     1     -43.713 -16.783   5.699 -0.16 +0.00    +0.029 A  
DOCKED: ATOM     21  C   UNL     1     -45.077 -16.837   5.981 -0.11 +0.00    +0.140 A  
DOCKED: ATOM     22  C   UNL     1     -45.581 -17.849   6.799 -0.18 +0.00    +0.029 A  
DOCKED: ATOM     23  F   UNL     1     -45.905 -15.918   5.467 -0.02 -0.00    -0.204 F  
DOCKED: ATOM     24  C   UNL     1     -44.719 -18.807   7.334 -0.19 +0.00    +0.001 A  
DOCKED: ENDBRANCH   2  18
DOCKED: TORSDOF 5
DOCKED: TER
DOCKED: ENDMDL
________________________________________________________________________________


    FINAL DOCKED STATE:
    ________________________


Run:   320 / 512
Time taken for this run:   0.002s

DOCKED: MODEL        320
DOCKED: USER    Run = 320
DOCKED: USER
DOCKED: USER    Estimated Free Energy of Binding    =  -4.58 kcal/mol  [=(1)+(2)+(3)-(4)]
DOCKED: USER
DOCKED: USER    (1) Final Intermolecular Energy     =  -6.07 kcal/mol
DOCKED: USER        vdW + Hbond + desolv Energy     =  -6.07 kcal/mol
DOCKED: USER        Electrostatic Energy            =  +0.00 kcal/mol
DOCKED: USER        Moving Ligand-Fixed Receptor    =  -6.07 kcal/mol
DOCKED: USER        Moving Ligand-Moving Receptor   =  +0.00 kcal/mol
DOCKED: USER    (2) Final Total Internal Energy     =  -1.48 kcal/mol
DOCKED: USER    (3) Torsional Free Energy           =  +1.49 kcal/mol
DOCKED: USER    (4) Unbound System's Energy         =  -1.48 kcal/mol
DOCKED: USER
DOCKED: USER
DOCKED: REMARK  5 active torsions:
DOCKED: REMARK  status: ('A' for Active; 'I' for Inactive)
DOCKED: REMARK    1  A    between atoms: C_2  and  C_19 
DOCKED: REMARK    2  A    between atoms: C_2  and  C_11 
DOCKED: REMARK    3  A    between atoms: C_19  and  C_20 
DOCKED: REMARK    4  A    between atoms: C_20  and  C_21 
DOCKED: REMARK    5  A    between atoms: C_21  and  N_22 
DOCKED: USER                              x       y       z     vdW  Elec       q    Type
DOCKED: USER                           _______ _______ _______ _____ _____    ______ ____
DOCKED: ROOT
DOCKED: ATOM      1  O   UNL     1     -40.666 -19.693   7.329 -0.05 -0.00    -0.346 OA 
DOCKED: ATOM      2  C   UNL     1     -42.081 -19.797   7.685 -0.13 +0.00    +0.130 C  
DOCKED: ATOM      3  C   UNL     1     -42.476 -21.160   7.194 -0.21 +0.00    +0.004 A  
DOCKED: ATOM      4  C   UNL     1     -41.359 -21.821   6.702 -0.28 +0.00    +0.006 A  
DOCKED: ATOM      5  C   UNL     1     -40.164 -20.959   6.842 -0.18 +0.00    +0.169 C  
DOCKED: ATOM      6  C   UNL     1     -43.721 -21.771   7.195 -0.20 -0.00    -0.001 A  
DOCKED: ATOM      7  C   UNL     1     -41.448 -23.104   6.191 -0.34 +0.00    +0.008 A  
DOCKED: ATOM      8  C   UNL     1     -43.828 -23.064   6.679 -0.23 +0.00    +0.010 A  
DOCKED: ATOM      9  C   UNL     1     -42.697 -23.727   6.181 -0.27 +0.00    +0.068 A  
DOCKED: ATOM     10  N   UNL     1     -42.929 -26.129   5.236 -2.54 -0.00    -0.191 NA 
DOCKED: ATOM     11  C   UNL     1     -42.825 -25.051   5.659 -0.37 +0.00    +0.101 C  
DOCKED: ENDROOT
DOCKED: BRANCH   2  12
DOCKED: ATOM     12  C   UNL     1     -42.211 -19.650   9.196 -0.04 +0.00    +0.038 C  
DOCKED: BRANCH  12  13
DOCKED: ATOM     13  C   UNL     1     -41.309 -20.639   9.932 -0.03 +0.00    +0.038 C  
DOCKED: BRANCH  13  14
DOCKED: ATOM     14  C   UNL     1     -42.116 -21.808  10.491 -0.01 +0.00    +0.251 C  
DOCKED: BRANCH  14  15
DOCKED: ATOM     15  N   UNL     1     -41.715 -23.055   9.850 -0.06 +0.00    +0.141 N  
DOCKED: ATOM     16  C   UNL     1     -40.263 -23.229   9.924 -0.07 +0.00    +0.285 C  
DOCKED: ATOM     17  C   UNL     1     -42.395 -24.195  10.468 -0.07 +0.00    +0.285 C  
DOCKED: ENDBRANCH  14  15
DOCKED: ENDBRANCH  13  14
DOCKED: ENDBRANCH  12  13
DOCKED: ENDBRANCH   2  12
DOCKED: BRANCH   2  18
DOCKED: ATOM     18  C   UNL     1     -42.792 -18.695   6.974 -0.18 +0.00    +0.006 A  
DOCKED: ATOM     19  C   UNL     1     -42.090 -17.857   6.108 -0.16 +0.00    +0.001 A  
DOCKED: ATOM     20  C   UNL     1     -42.756 -16.826   5.444 -0.15 +0.00    +0.029 A  
DOCKED: ATOM     21  C   UNL     1     -44.122 -16.636   5.645 -0.11 +0.00    +0.140 A  
DOCKED: ATOM     22  C   UNL     1     -44.824 -17.474   6.511 -0.18 +0.00    +0.029 A  
DOCKED: ATOM     23  F   UNL     1     -44.762 -15.647   5.006 -0.03 -0.00    -0.204 F  
DOCKED: ATOM     24  C   UNL     1     -44.159 -18.505   7.176 -0.19 +0.00    +0.001 A  
DOCKED: ENDBRANCH   2  18
DOCKED: TORSDOF 5
DOCKED: TER
DOCKED: ENDMDL
________________________________________________________________________________


    FINAL DOCKED STATE:
    ________________________


Run:   321 / 512
Time taken for this run:   0.002s

DOCKED: MODEL        321
DOCKED: USER    Run = 321
DOCKED: USER
DOCKED: USER    Estimated Free Energy of Binding    =  -4.11 kcal/mol  [=(1)+(2)+(3)-(4)]
DOCKED: USER
DOCKED: USER    (1) Final Intermolecular Energy     =  -5.60 kcal/mol
DOCKED: USER        vdW + Hbond + desolv Energy     =  -5.60 kcal/mol
DOCKED: USER        Electrostatic Energy            =  +0.00 kcal/mol
DOCKED: USER        Moving Ligand-Fixed Receptor    =  -5.60 kcal/mol
DOCKED: USER        Moving Ligand-Moving Receptor   =  +0.00 kcal/mol
DOCKED: USER    (2) Final Total Internal Energy     =  -1.27 kcal/mol
DOCKED: USER    (3) Torsional Free Energy           =  +1.49 kcal/mol
DOCKED: USER    (4) Unbound System's Energy         =  -1.27 kcal/mol
DOCKED: USER
DOCKED: USER
DOCKED: REMARK  5 active torsions:
DOCKED: REMARK  status: ('A' for Active; 'I' for Inactive)
DOCKED: REMARK    1  A    between atoms: C_2  and  C_19 
DOCKED: REMARK    2  A    between atoms: C_2  and  C_11 
DOCKED: REMARK    3  A    between atoms: C_19  and  C_20 
DOCKED: REMARK    4  A    between atoms: C_20  and  C_21 
DOCKED: REMARK    5  A    between atoms: C_21  and  N_22 
DOCKED: USER                              x       y       z     vdW  Elec       q    Type
DOCKED: USER                           _______ _______ _______ _____ _____    ______ ____
DOCKED: ROOT
DOCKED: ATOM      1  O   UNL     1     -35.420 -11.361  -4.696 -0.38 -0.00    -0.346 OA 
DOCKED: ATOM      2  C   UNL     1     -35.580 -11.977  -3.378 -0.12 +0.00    +0.130 C  
DOCKED: ATOM      3  C   UNL     1     -37.018 -12.409  -3.356 -0.25 +0.00    +0.004 A  
DOCKED: ATOM      4  C   UNL     1     -37.599 -12.162  -4.592 -0.31 +0.00    +0.006 A  
DOCKED: ATOM      5  C   UNL     1     -36.599 -11.571  -5.508 -0.12 +0.00    +0.169 C  
DOCKED: ATOM      6  C   UNL     1     -37.750 -12.984  -2.327 -0.17 -0.00    -0.001 A  
DOCKED: ATOM      7  C   UNL     1     -38.924 -12.476  -4.840 -0.43 +0.00    +0.008 A  
DOCKED: ATOM      8  C   UNL     1     -39.089 -13.302  -2.561 -0.25 +0.00    +0.010 A  
DOCKED: ATOM      9  C   UNL     1     -39.673 -13.050  -3.812 -0.39 +0.00    +0.068 A  
DOCKED: ATOM     10  N   UNL     1     -42.159 -13.657  -4.214 -1.94 -0.00    -0.191 NA 
DOCKED: ATOM     11  C   UNL     1     -41.044 -13.384  -4.033 +0.05 +0.00    +0.101 C  
DOCKED: ENDROOT
DOCKED: BRANCH   2  12
DOCKED: ATOM     12  C   UNL     1     -34.608 -13.145  -3.270 -0.05 +0.00    +0.038 C  
DOCKED: BRANCH  12  13
DOCKED: ATOM     13  C   UNL     1     -34.323 -13.761  -4.638 -0.04 +0.00    +0.038 C  
DOCKED: BRANCH  13  14
DOCKED: ATOM     14  C   UNL     1     -34.644 -15.254  -4.647 -0.01 +0.00    +0.251 C  
DOCKED: BRANCH  14  15
DOCKED: ATOM     15  N   UNL     1     -35.928 -15.493  -5.296 -0.12 +0.00    +0.141 N  
DOCKED: ATOM     16  C   UNL     1     -35.966 -14.858  -6.614 -0.10 +0.00    +0.285 C  
DOCKED: ATOM     17  C   UNL     1     -36.186 -16.928  -5.416 -0.09 +0.00    +0.285 C  
DOCKED: ENDBRANCH  14  15
DOCKED: ENDBRANCH  13  14
DOCKED: ENDBRANCH  12  13
DOCKED: ENDBRANCH   2  12
DOCKED: BRANCH   2  18
DOCKED: ATOM     18  C   UNL     1     -35.273 -10.925  -2.365 -0.15 +0.00    +0.006 A  
DOCKED: ATOM     19  C   UNL     1     -36.301 -10.371  -1.602 -0.27 +0.00    +0.001 A  
DOCKED: ATOM     20  C   UNL     1     -36.012  -9.388  -0.655 -0.22 +0.00    +0.029 A  
DOCKED: ATOM     21  C   UNL     1     -34.698  -8.960  -0.472 -0.08 +0.00    +0.140 A  
DOCKED: ATOM     22  C   UNL     1     -33.671  -9.515  -1.235 -0.05 +0.00    +0.029 A  
DOCKED: ATOM     23  F   UNL     1     -34.421  -8.018   0.438 -0.01 -0.00    -0.204 F  
DOCKED: ATOM     24  C   UNL     1     -33.958 -10.499  -2.183 -0.07 +0.00    +0.001 A  
DOCKED: ENDBRANCH   2  18
DOCKED: TORSDOF 5
DOCKED: TER
DOCKED: ENDMDL
________________________________________________________________________________


    FINAL DOCKED STATE:
    ________________________


Run:   322 / 512
Time taken for this run:   0.002s

DOCKED: MODEL        322
DOCKED: USER    Run = 322
DOCKED: USER
DOCKED: USER    Estimated Free Energy of Binding    =  -5.47 kcal/mol  [=(1)+(2)+(3)-(4)]
DOCKED: USER
DOCKED: USER    (1) Final Intermolecular Energy     =  -6.96 kcal/mol
DOCKED: USER        vdW + Hbond + desolv Energy     =  -6.96 kcal/mol
DOCKED: USER        Electrostatic Energy            =  +0.00 kcal/mol
DOCKED: USER        Moving Ligand-Fixed Receptor    =  -6.96 kcal/mol
DOCKED: USER        Moving Ligand-Moving Receptor   =  +0.00 kcal/mol
DOCKED: USER    (2) Final Total Internal Energy     =  -1.00 kcal/mol
DOCKED: USER    (3) Torsional Free Energy           =  +1.49 kcal/mol
DOCKED: USER    (4) Unbound System's Energy         =  -1.00 kcal/mol
DOCKED: USER
DOCKED: USER
DOCKED: REMARK  5 active torsions:
DOCKED: REMARK  status: ('A' for Active; 'I' for Inactive)
DOCKED: REMARK    1  A    between atoms: C_2  and  C_19 
DOCKED: REMARK    2  A    between atoms: C_2  and  C_11 
DOCKED: REMARK    3  A    between atoms: C_19  and  C_20 
DOCKED: REMARK    4  A    between atoms: C_20  and  C_21 
DOCKED: REMARK    5  A    between atoms: C_21  and  N_22 
DOCKED: USER                              x       y       z     vdW  Elec       q    Type
DOCKED: USER                           _______ _______ _______ _____ _____    ______ ____
DOCKED: ROOT
DOCKED: ATOM      1  O   UNL     1     -41.239 -21.801   7.773 -0.05 -0.00    -0.346 OA 
DOCKED: ATOM      2  C   UNL     1     -40.812 -23.200   7.829 -0.22 +0.00    +0.130 C  
DOCKED: ATOM      3  C   UNL     1     -41.317 -23.782   6.541 -0.34 +0.00    +0.004 A  
DOCKED: ATOM      4  C   UNL     1     -41.886 -22.780   5.767 -0.35 +0.00    +0.006 A  
DOCKED: ATOM      5  C   UNL     1     -41.786 -21.483   6.472 -0.24 +0.00    +0.169 C  
DOCKED: ATOM      6  C   UNL     1     -41.268 -25.092   6.086 -0.40 -0.00    -0.001 A  
DOCKED: ATOM      7  C   UNL     1     -42.425 -23.051   4.521 -0.08 +0.00    +0.008 A  
DOCKED: ATOM      8  C   UNL     1     -41.812 -25.382   4.833 -0.45 +0.00    +0.010 A  
DOCKED: ATOM      9  C   UNL     1     -42.387 -24.366   4.055 -0.43 +0.00    +0.068 A  
DOCKED: ATOM     10  N   UNL     1     -43.382 -24.937   1.732 -2.61 -0.00    -0.191 NA 
DOCKED: ATOM     11  C   UNL     1     -42.936 -24.681   2.774 -0.42 +0.00    +0.101 C  
DOCKED: ENDROOT
DOCKED: BRANCH   2  12
DOCKED: ATOM     12  C   UNL     1     -39.292 -23.236   7.941 -0.21 +0.00    +0.038 C  
DOCKED: BRANCH  12  13
DOCKED: ATOM     13  C   UNL     1     -38.793 -22.309   9.047 -0.16 +0.00    +0.038 C  
DOCKED: BRANCH  13  14
DOCKED: ATOM     14  C   UNL     1     -37.754 -21.325   8.511 -0.09 +0.00    +0.251 C  
DOCKED: BRANCH  14  15
DOCKED: ATOM     15  N   UNL     1     -36.407 -21.813   8.781 -0.08 +0.00    +0.141 N  
DOCKED: ATOM     16  C   UNL     1     -35.694 -20.896   9.672 -0.01 +0.00    +0.285 C  
DOCKED: ATOM     17  C   UNL     1     -36.451 -23.155   9.364 -0.09 +0.00    +0.285 C  
DOCKED: ENDBRANCH  14  15
DOCKED: ENDBRANCH  13  14
DOCKED: ENDBRANCH  12  13
DOCKED: ENDBRANCH   2  12
DOCKED: BRANCH   2  18
DOCKED: ATOM     18  C   UNL     1     -41.455 -23.804   9.032 -0.17 +0.00    +0.006 A  
DOCKED: ATOM     19  C   UNL     1     -41.020 -25.040   9.508 -0.20 +0.00    +0.001 A  
DOCKED: ATOM     20  C   UNL     1     -41.622 -25.604  10.633 -0.06 +0.00    +0.029 A  
DOCKED: ATOM     21  C   UNL     1     -42.657 -24.932  11.281 -0.11 +0.00    +0.140 A  
DOCKED: ATOM     22  C   UNL     1     -43.092 -23.695  10.805 -0.08 +0.00    +0.029 A  
DOCKED: ATOM     23  F   UNL     1     -43.234 -25.473  12.362 -0.03 -0.00    -0.204 F  
DOCKED: ATOM     24  C   UNL     1     -42.490 -23.130   9.679 -0.09 +0.00    +0.001 A  
DOCKED: ENDBRANCH   2  18
DOCKED: TORSDOF 5
DOCKED: TER
DOCKED: ENDMDL
________________________________________________________________________________


    FINAL DOCKED STATE:
    ________________________


Run:   323 / 512
Time taken for this run:   0.002s

DOCKED: MODEL        323
DOCKED: USER    Run = 323
DOCKED: USER
DOCKED: USER    Estimated Free Energy of Binding    =  -4.36 kcal/mol  [=(1)+(2)+(3)-(4)]
DOCKED: USER
DOCKED: USER    (1) Final Intermolecular Energy     =  -5.85 kcal/mol
DOCKED: USER        vdW + Hbond + desolv Energy     =  -5.85 kcal/mol
DOCKED: USER        Electrostatic Energy            =  +0.00 kcal/mol
DOCKED: USER        Moving Ligand-Fixed Receptor    =  -5.85 kcal/mol
DOCKED: USER        Moving Ligand-Moving Receptor   =  +0.00 kcal/mol
DOCKED: USER    (2) Final Total Internal Energy     =  -1.36 kcal/mol
DOCKED: USER    (3) Torsional Free Energy           =  +1.49 kcal/mol
DOCKED: USER    (4) Unbound System's Energy         =  -1.36 kcal/mol
DOCKED: USER
DOCKED: USER
DOCKED: REMARK  5 active torsions:
DOCKED: REMARK  status: ('A' for Active; 'I' for Inactive)
DOCKED: REMARK    1  A    between atoms: C_2  and  C_19 
DOCKED: REMARK    2  A    between atoms: C_2  and  C_11 
DOCKED: REMARK    3  A    between atoms: C_19  and  C_20 
DOCKED: REMARK    4  A    between atoms: C_20  and  C_21 
DOCKED: REMARK    5  A    between atoms: C_21  and  N_22 
DOCKED: USER                              x       y       z     vdW  Elec       q    Type
DOCKED: USER                           _______ _______ _______ _____ _____    ______ ____
DOCKED: ROOT
DOCKED: ATOM      1  O   UNL     1     -39.368 -15.862   1.659 -0.08 -0.00    -0.346 OA 
DOCKED: ATOM      2  C   UNL     1     -38.193 -16.128   0.827 -0.16 +0.00    +0.130 C  
DOCKED: ATOM      3  C   UNL     1     -38.533 -15.492  -0.489 -0.26 +0.00    +0.004 A  
DOCKED: ATOM      4  C   UNL     1     -39.746 -14.825  -0.386 -0.23 +0.00    +0.006 A  
DOCKED: ATOM      5  C   UNL     1     -40.279 -14.961   0.988 -0.28 +0.00    +0.169 C  
DOCKED: ATOM      6  C   UNL     1     -37.821 -15.493  -1.680 -0.23 -0.00    -0.001 A  
DOCKED: ATOM      7  C   UNL     1     -40.288 -14.144  -1.463 -0.06 +0.00    +0.008 A  
DOCKED: ATOM      8  C   UNL     1     -38.356 -14.814  -2.776 -0.17 +0.00    +0.010 A  
DOCKED: ATOM      9  C   UNL     1     -39.583 -14.143  -2.668 -0.21 +0.00    +0.068 A  
DOCKED: ATOM     10  N   UNL     1     -40.546 -12.890  -4.721 -2.28 -0.00    -0.191 NA 
DOCKED: ATOM     11  C   UNL     1     -40.114 -13.452  -3.800 -0.19 +0.00    +0.101 C  
DOCKED: ENDROOT
DOCKED: BRANCH   2  12
DOCKED: ATOM     12  C   UNL     1     -36.976 -15.498   1.494 -0.14 +0.00    +0.038 C  
DOCKED: BRANCH  12  13
DOCKED: ATOM     13  C   UNL     1     -37.388 -14.494   2.569 -0.13 +0.00    +0.038 C  
DOCKED: BRANCH  13  14
DOCKED: ATOM     14  C   UNL     1     -37.082 -15.029   3.967 -0.08 +0.00    +0.251 C  
DOCKED: BRANCH  14  15
DOCKED: ATOM     15  N   UNL     1     -38.302 -15.102   4.761 -0.05 +0.00    +0.141 N  
DOCKED: ATOM     16  C   UNL     1     -39.257 -14.077   4.336 -0.11 +0.00    +0.285 C  
DOCKED: ATOM     17  C   UNL     1     -38.906 -16.431   4.658 -0.05 +0.00    +0.285 C  
DOCKED: ENDBRANCH  14  15
DOCKED: ENDBRANCH  13  14
DOCKED: ENDBRANCH  12  13
DOCKED: ENDBRANCH   2  12
DOCKED: BRANCH   2  18
DOCKED: ATOM     18  C   UNL     1     -38.050 -17.611   0.736 -0.16 +0.00    +0.006 A  
DOCKED: ATOM     19  C   UNL     1     -38.754 -18.434   1.614 -0.18 +0.00    +0.001 A  
DOCKED: ATOM     20  C   UNL     1     -38.619 -19.820   1.529 -0.25 +0.00    +0.029 A  
DOCKED: ATOM     21  C   UNL     1     -37.781 -20.381   0.566 -0.16 +0.00    +0.140 A  
DOCKED: ATOM     22  C   UNL     1     -37.077 -19.557  -0.312 -0.18 +0.00    +0.029 A  
DOCKED: ATOM     23  F   UNL     1     -37.653 -21.711   0.482 -0.04 -0.00    -0.204 F  
DOCKED: ATOM     24  C   UNL     1     -37.211 -18.170  -0.227 -0.16 +0.00    +0.001 A  
DOCKED: ENDBRANCH   2  18
DOCKED: TORSDOF 5
DOCKED: TER
DOCKED: ENDMDL
________________________________________________________________________________


    FINAL DOCKED STATE:
    ________________________


Run:   324 / 512
Time taken for this run:   0.002s

DOCKED: MODEL        324
DOCKED: USER    Run = 324
DOCKED: USER
DOCKED: USER    Estimated Free Energy of Binding    =  -3.81 kcal/mol  [=(1)+(2)+(3)-(4)]
DOCKED: USER
DOCKED: USER    (1) Final Intermolecular Energy     =  -5.30 kcal/mol
DOCKED: USER        vdW + Hbond + desolv Energy     =  -5.30 kcal/mol
DOCKED: USER        Electrostatic Energy            =  +0.00 kcal/mol
DOCKED: USER        Moving Ligand-Fixed Receptor    =  -5.30 kcal/mol
DOCKED: USER        Moving Ligand-Moving Receptor   =  +0.00 kcal/mol
DOCKED: USER    (2) Final Total Internal Energy     =  -1.01 kcal/mol
DOCKED: USER    (3) Torsional Free Energy           =  +1.49 kcal/mol
DOCKED: USER    (4) Unbound System's Energy         =  -1.01 kcal/mol
DOCKED: USER
DOCKED: USER
DOCKED: REMARK  5 active torsions:
DOCKED: REMARK  status: ('A' for Active; 'I' for Inactive)
DOCKED: REMARK    1  A    between atoms: C_2  and  C_19 
DOCKED: REMARK    2  A    between atoms: C_2  and  C_11 
DOCKED: REMARK    3  A    between atoms: C_19  and  C_20 
DOCKED: REMARK    4  A    between atoms: C_20  and  C_21 
DOCKED: REMARK    5  A    between atoms: C_21  and  N_22 
DOCKED: USER                              x       y       z     vdW  Elec       q    Type
DOCKED: USER                           _______ _______ _______ _____ _____    ______ ____
DOCKED: ROOT
DOCKED: ATOM      1  O   UNL     1     -41.312 -19.542   7.321 -0.05 -0.00    -0.346 OA 
DOCKED: ATOM      2  C   UNL     1     -40.279 -20.462   7.800 -0.13 +0.00    +0.130 C  
DOCKED: ATOM      3  C   UNL     1     -40.763 -21.810   7.353 -0.22 +0.00    +0.004 A  
DOCKED: ATOM      4  C   UNL     1     -41.914 -21.664   6.590 -0.27 +0.00    +0.006 A  
DOCKED: ATOM      5  C   UNL     1     -42.258 -20.230   6.471 -0.17 +0.00    +0.169 C  
DOCKED: ATOM      6  C   UNL     1     -40.223 -23.065   7.592 -0.26 -0.00    -0.001 A  
DOCKED: ATOM      7  C   UNL     1     -42.562 -22.760   6.047 -0.31 +0.00    +0.008 A  
DOCKED: ATOM      8  C   UNL     1     -40.868 -24.181   7.055 -0.34 +0.00    +0.010 A  
DOCKED: ATOM      9  C   UNL     1     -42.032 -24.028   6.286 -0.31 +0.00    +0.068 A  
DOCKED: ATOM     10  N   UNL     1     -43.201 -26.119   5.300 -2.54 -0.00    -0.191 NA 
DOCKED: ATOM     11  C   UNL     1     -42.677 -25.182   5.743 -0.28 +0.00    +0.101 C  
DOCKED: ENDROOT
DOCKED: BRANCH   2  12
DOCKED: ATOM     12  C   UNL     1     -38.950 -20.068   7.165 -0.15 +0.00    +0.038 C  
DOCKED: BRANCH  12  13
DOCKED: ATOM     13  C   UNL     1     -38.694 -18.568   7.294 -0.08 +0.00    +0.038 C  
DOCKED: BRANCH  13  14
DOCKED: ATOM     14  C   UNL     1     -37.276 -18.212   6.852 -0.03 +0.00    +0.251 C  
DOCKED: BRANCH  14  15
DOCKED: ATOM     15  N   UNL     1     -37.312 -17.388   5.650 -0.03 +0.00    +0.141 N  
DOCKED: ATOM     16  C   UNL     1     -38.500 -16.533   5.645 -0.03 +0.00    +0.285 C  
DOCKED: ATOM     17  C   UNL     1     -36.100 -16.572   5.548 -0.01 +0.00    +0.285 C  
DOCKED: ENDBRANCH  14  15
DOCKED: ENDBRANCH  13  14
DOCKED: ENDBRANCH  12  13
DOCKED: ENDBRANCH   2  12
DOCKED: BRANCH   2  18
DOCKED: ATOM     18  C   UNL     1     -40.227 -20.325   9.285 -0.04 +0.00    +0.006 A  
DOCKED: ATOM     19  C   UNL     1     -41.374 -19.963   9.992 -0.02 +0.00    +0.001 A  
DOCKED: ATOM     20  C   UNL     1     -41.324 -19.836  11.380 -0.00 +0.00    +0.029 A  
DOCKED: ATOM     21  C   UNL     1     -40.130 -20.071  12.060 -0.00 +0.00    +0.140 A  
DOCKED: ATOM     22  C   UNL     1     -38.984 -20.433  11.353 -0.01 +0.00    +0.029 A  
DOCKED: ATOM     23  F   UNL     1     -40.083 -19.950  13.393 +0.00 -0.00    -0.204 F  
DOCKED: ATOM     24  C   UNL     1     -39.032 -20.560   9.963 -0.03 +0.00    +0.001 A  
DOCKED: ENDBRANCH   2  18
DOCKED: TORSDOF 5
DOCKED: TER
DOCKED: ENDMDL
________________________________________________________________________________


    FINAL DOCKED STATE:
    ________________________


Run:   325 / 512
Time taken for this run:   0.002s

DOCKED: MODEL        325
DOCKED: USER    Run = 325
DOCKED: USER
DOCKED: USER    Estimated Free Energy of Binding    =  -4.16 kcal/mol  [=(1)+(2)+(3)-(4)]
DOCKED: USER
DOCKED: USER    (1) Final Intermolecular Energy     =  -5.65 kcal/mol
DOCKED: USER        vdW + Hbond + desolv Energy     =  -5.65 kcal/mol
DOCKED: USER        Electrostatic Energy            =  +0.00 kcal/mol
DOCKED: USER        Moving Ligand-Fixed Receptor    =  -5.65 kcal/mol
DOCKED: USER        Moving Ligand-Moving Receptor   =  +0.00 kcal/mol
DOCKED: USER    (2) Final Total Internal Energy     =  -1.25 kcal/mol
DOCKED: USER    (3) Torsional Free Energy           =  +1.49 kcal/mol
DOCKED: USER    (4) Unbound System's Energy         =  -1.25 kcal/mol
DOCKED: USER
DOCKED: USER
DOCKED: REMARK  5 active torsions:
DOCKED: REMARK  status: ('A' for Active; 'I' for Inactive)
DOCKED: REMARK    1  A    between atoms: C_2  and  C_19 
DOCKED: REMARK    2  A    between atoms: C_2  and  C_11 
DOCKED: REMARK    3  A    between atoms: C_19  and  C_20 
DOCKED: REMARK    4  A    between atoms: C_20  and  C_21 
DOCKED: REMARK    5  A    between atoms: C_21  and  N_22 
DOCKED: USER                              x       y       z     vdW  Elec       q    Type
DOCKED: USER                           _______ _______ _______ _____ _____    ______ ____
DOCKED: ROOT
DOCKED: ATOM      1  O   UNL     1     -45.645 -22.246   8.207 -0.01 -0.00    -0.346 OA 
DOCKED: ATOM      2  C   UNL     1     -44.275 -22.665   8.505 -0.08 +0.00    +0.130 C  
DOCKED: ATOM      3  C   UNL     1     -43.817 -23.324   7.236 -0.19 +0.00    +0.004 A  
DOCKED: ATOM      4  C   UNL     1     -44.797 -23.194   6.262 -0.26 +0.00    +0.006 A  
DOCKED: ATOM      5  C   UNL     1     -45.949 -22.441   6.806 -0.21 +0.00    +0.169 C  
DOCKED: ATOM      6  C   UNL     1     -42.623 -23.975   6.962 -0.26 -0.00    -0.001 A  
DOCKED: ATOM      7  C   UNL     1     -44.621 -23.711   4.990 -0.23 +0.00    +0.008 A  
DOCKED: ATOM      8  C   UNL     1     -42.433 -24.506   5.685 -0.40 +0.00    +0.010 A  
DOCKED: ATOM      9  C   UNL     1     -43.427 -24.374   4.704 -0.36 +0.00    +0.068 A  
DOCKED: ATOM     10  N   UNL     1     -43.039 -25.366   2.342 -1.71 -0.00    -0.191 NA 
DOCKED: ATOM     11  C   UNL     1     -43.213 -24.922   3.402 -0.46 +0.00    +0.101 C  
DOCKED: ENDROOT
DOCKED: BRANCH   2  12
DOCKED: ATOM     12  C   UNL     1     -43.459 -21.429   8.861 -0.08 +0.00    +0.038 C  
DOCKED: BRANCH  12  13
DOCKED: ATOM     13  C   UNL     1     -43.778 -20.263   7.928 -0.15 +0.00    +0.038 C  
DOCKED: BRANCH  13  14
DOCKED: ATOM     14  C   UNL     1     -42.788 -20.203   6.765 -0.16 +0.00    +0.251 C  
DOCKED: BRANCH  14  15
DOCKED: ATOM     15  N   UNL     1     -41.440 -19.951   7.259 -0.13 +0.00    +0.141 N  
DOCKED: ATOM     16  C   UNL     1     -40.574 -21.103   7.008 -0.15 +0.00    +0.285 C  
DOCKED: ATOM     17  C   UNL     1     -40.880 -18.750   6.637 -0.10 +0.00    +0.285 C  
DOCKED: ENDBRANCH  14  15
DOCKED: ENDBRANCH  13  14
DOCKED: ENDBRANCH  12  13
DOCKED: ENDBRANCH   2  12
DOCKED: BRANCH   2  18
DOCKED: ATOM     18  C   UNL     1     -44.350 -23.611   9.657 -0.09 +0.00    +0.006 A  
DOCKED: ATOM     19  C   UNL     1     -43.853 -23.232  10.903 -0.05 +0.00    +0.001 A  
DOCKED: ATOM     20  C   UNL     1     -43.923 -24.118  11.979 -0.08 +0.00    +0.029 A  
DOCKED: ATOM     21  C   UNL     1     -44.490 -25.380  11.808 -0.11 +0.00    +0.140 A  
DOCKED: ATOM     22  C   UNL     1     -44.987 -25.758  10.561 -0.14 +0.00    +0.029 A  
DOCKED: ATOM     23  F   UNL     1     -44.559 -26.229  12.841 -0.05 -0.00    -0.204 F  
DOCKED: ATOM     24  C   UNL     1     -44.917 -24.873   9.484 -0.16 +0.00    +0.001 A  
DOCKED: ENDBRANCH   2  18
DOCKED: TORSDOF 5
DOCKED: TER
DOCKED: ENDMDL
________________________________________________________________________________


    FINAL DOCKED STATE:
    ________________________


Run:   326 / 512
Time taken for this run:   0.002s

DOCKED: MODEL        326
DOCKED: USER    Run = 326
DOCKED: USER
DOCKED: USER    Estimated Free Energy of Binding    =  -3.47 kcal/mol  [=(1)+(2)+(3)-(4)]
DOCKED: USER
DOCKED: USER    (1) Final Intermolecular Energy     =  -4.96 kcal/mol
DOCKED: USER        vdW + Hbond + desolv Energy     =  -4.96 kcal/mol
DOCKED: USER        Electrostatic Energy            =  +0.00 kcal/mol
DOCKED: USER        Moving Ligand-Fixed Receptor    =  -4.96 kcal/mol
DOCKED: USER        Moving Ligand-Moving Receptor   =  +0.00 kcal/mol
DOCKED: USER    (2) Final Total Internal Energy     =  -1.46 kcal/mol
DOCKED: USER    (3) Torsional Free Energy           =  +1.49 kcal/mol
DOCKED: USER    (4) Unbound System's Energy         =  -1.46 kcal/mol
DOCKED: USER
DOCKED: USER
DOCKED: REMARK  5 active torsions:
DOCKED: REMARK  status: ('A' for Active; 'I' for Inactive)
DOCKED: REMARK    1  A    between atoms: C_2  and  C_19 
DOCKED: REMARK    2  A    between atoms: C_2  and  C_11 
DOCKED: REMARK    3  A    between atoms: C_19  and  C_20 
DOCKED: REMARK    4  A    between atoms: C_20  and  C_21 
DOCKED: REMARK    5  A    between atoms: C_21  and  N_22 
DOCKED: USER                              x       y       z     vdW  Elec       q    Type
DOCKED: USER                           _______ _______ _______ _____ _____    ______ ____
DOCKED: ROOT
DOCKED: ATOM      1  O   UNL     1     -34.677 -11.181  -1.625 -0.03 -0.00    -0.346 OA 
DOCKED: ATOM      2  C   UNL     1     -34.375 -11.507  -3.020 -0.06 +0.00    +0.130 C  
DOCKED: ATOM      3  C   UNL     1     -35.706 -11.896  -3.595 -0.15 +0.00    +0.004 A  
DOCKED: ATOM      4  C   UNL     1     -36.699 -11.704  -2.645 -0.23 +0.00    +0.006 A  
DOCKED: ATOM      5  C   UNL     1     -36.106 -11.170  -1.399 -0.18 +0.00    +0.169 C  
DOCKED: ATOM      6  C   UNL     1     -36.015 -12.372  -4.861 -0.17 -0.00    -0.001 A  
DOCKED: ATOM      7  C   UNL     1     -38.027 -11.982  -2.924 -0.33 +0.00    +0.008 A  
DOCKED: ATOM      8  C   UNL     1     -37.348 -12.661  -5.156 -0.29 +0.00    +0.010 A  
DOCKED: ATOM      9  C   UNL     1     -38.349 -12.466  -4.193 -0.36 +0.00    +0.068 A  
DOCKED: ATOM     10  N   UNL     1     -40.814 -13.008  -4.775 -2.49 -0.00    -0.191 NA 
DOCKED: ATOM     11  C   UNL     1     -39.708 -12.766  -4.514 -0.37 +0.00    +0.101 C  
DOCKED: ENDROOT
DOCKED: BRANCH   2  12
DOCKED: ATOM     12  C   UNL     1     -33.779 -10.273  -3.686 -0.10 +0.00    +0.038 C  
DOCKED: BRANCH  12  13
DOCKED: ATOM     13  C   UNL     1     -33.986  -9.024  -2.831 -0.11 +0.00    +0.038 C  
DOCKED: BRANCH  13  14
DOCKED: ATOM     14  C   UNL     1     -32.745  -8.718  -1.995 -0.00 +0.00    +0.251 C  
DOCKED: BRANCH  14  15
DOCKED: ATOM     15  N   UNL     1     -32.723  -9.547  -0.796 -0.02 +0.00    +0.141 N  
DOCKED: ATOM     16  C   UNL     1     -31.402 -10.147  -0.606 -0.00 +0.00    +0.285 C  
DOCKED: ATOM     17  C   UNL     1     -33.098  -8.762   0.381 -0.02 +0.00    +0.285 C  
DOCKED: ENDBRANCH  14  15
DOCKED: ENDBRANCH  13  14
DOCKED: ENDBRANCH  12  13
DOCKED: ENDBRANCH   2  12
DOCKED: BRANCH   2  18
DOCKED: ATOM     18  C   UNL     1     -33.397 -12.634  -3.002 -0.02 +0.00    +0.006 A  
DOCKED: ATOM     19  C   UNL     1     -33.275 -13.433  -1.866 -0.02 +0.00    +0.001 A  
DOCKED: ATOM     20  C   UNL     1     -32.360 -14.486  -1.850 -0.00 +0.00    +0.029 A  
DOCKED: ATOM     21  C   UNL     1     -31.570 -14.740  -2.970 -0.00 +0.00    +0.140 A  
DOCKED: ATOM     22  C   UNL     1     -31.693 -13.941  -4.107 -0.00 +0.00    +0.029 A  
DOCKED: ATOM     23  F   UNL     1     -30.693 -15.752  -2.956 +0.00 -0.00    -0.204 F  
DOCKED: ATOM     24  C   UNL     1     -32.607 -12.887  -4.123 -0.01 +0.00    +0.001 A  
DOCKED: ENDBRANCH   2  18
DOCKED: TORSDOF 5
DOCKED: TER
DOCKED: ENDMDL
________________________________________________________________________________


    FINAL DOCKED STATE:
    ________________________


Run:   327 / 512
Time taken for this run:   0.002s

DOCKED: MODEL        327
DOCKED: USER    Run = 327
DOCKED: USER
DOCKED: USER    Estimated Free Energy of Binding    =  -5.42 kcal/mol  [=(1)+(2)+(3)-(4)]
DOCKED: USER
DOCKED: USER    (1) Final Intermolecular Energy     =  -6.91 kcal/mol
DOCKED: USER        vdW + Hbond + desolv Energy     =  -6.91 kcal/mol
DOCKED: USER        Electrostatic Energy            =  +0.00 kcal/mol
DOCKED: USER        Moving Ligand-Fixed Receptor    =  -6.91 kcal/mol
DOCKED: USER        Moving Ligand-Moving Receptor   =  +0.00 kcal/mol
DOCKED: USER    (2) Final Total Internal Energy     =  -1.01 kcal/mol
DOCKED: USER    (3) Torsional Free Energy           =  +1.49 kcal/mol
DOCKED: USER    (4) Unbound System's Energy         =  -1.01 kcal/mol
DOCKED: USER
DOCKED: USER
DOCKED: REMARK  5 active torsions:
DOCKED: REMARK  status: ('A' for Active; 'I' for Inactive)
DOCKED: REMARK    1  A    between atoms: C_2  and  C_19 
DOCKED: REMARK    2  A    between atoms: C_2  and  C_11 
DOCKED: REMARK    3  A    between atoms: C_19  and  C_20 
DOCKED: REMARK    4  A    between atoms: C_20  and  C_21 
DOCKED: REMARK    5  A    between atoms: C_21  and  N_22 
DOCKED: USER                              x       y       z     vdW  Elec       q    Type
DOCKED: USER                           _______ _______ _______ _____ _____    ______ ____
DOCKED: ROOT
DOCKED: ATOM      1  O   UNL     1     -41.648 -21.890   8.051 -0.03 -0.00    -0.346 OA 
DOCKED: ATOM      2  C   UNL     1     -41.041 -23.222   8.050 -0.20 +0.00    +0.130 C  
DOCKED: ATOM      3  C   UNL     1     -41.455 -23.805   6.731 -0.33 +0.00    +0.004 A  
DOCKED: ATOM      4  C   UNL     1     -42.144 -22.852   5.994 -0.34 +0.00    +0.006 A  
DOCKED: ATOM      5  C   UNL     1     -42.222 -21.587   6.758 -0.22 +0.00    +0.169 C  
DOCKED: ATOM      6  C   UNL     1     -41.230 -25.075   6.218 -0.39 -0.00    -0.001 A  
DOCKED: ATOM      7  C   UNL     1     -42.633 -23.133   4.730 -0.17 +0.00    +0.008 A  
DOCKED: ATOM      8  C   UNL     1     -41.721 -25.375   4.946 -0.43 +0.00    +0.010 A  
DOCKED: ATOM      9  C   UNL     1     -42.418 -24.408   4.206 -0.43 +0.00    +0.068 A  
DOCKED: ATOM     10  N   UNL     1     -43.311 -24.997   1.846 -2.45 -0.00    -0.191 NA 
DOCKED: ATOM     11  C   UNL     1     -42.911 -24.733   2.904 -0.46 +0.00    +0.101 C  
DOCKED: ENDROOT
DOCKED: BRANCH   2  12
DOCKED: ATOM     12  C   UNL     1     -39.531 -23.064   8.182 -0.25 +0.00    +0.038 C  
DOCKED: BRANCH  12  13
DOCKED: ATOM     13  C   UNL     1     -39.078 -21.668   7.758 -0.11 +0.00    +0.038 C  
DOCKED: BRANCH  13  14
DOCKED: ATOM     14  C   UNL     1     -37.673 -21.366   8.275 -0.09 +0.00    +0.251 C  
DOCKED: BRANCH  14  15
DOCKED: ATOM     15  N   UNL     1     -37.556 -19.958   8.635 -0.04 +0.00    +0.141 N  
DOCKED: ATOM     16  C   UNL     1     -38.208 -19.699   9.920 -0.01 +0.00    +0.285 C  
DOCKED: ATOM     17  C   UNL     1     -36.150 -19.554   8.688 -0.02 +0.00    +0.285 C  
DOCKED: ENDBRANCH  14  15
DOCKED: ENDBRANCH  13  14
DOCKED: ENDBRANCH  12  13
DOCKED: ENDBRANCH   2  12
DOCKED: BRANCH   2  18
DOCKED: ATOM     18  C   UNL     1     -41.609 -23.961   9.216 -0.17 +0.00    +0.006 A  
DOCKED: ATOM     19  C   UNL     1     -40.782 -24.328  10.277 -0.18 +0.00    +0.001 A  
DOCKED: ATOM     20  C   UNL     1     -41.314 -25.019  11.367 -0.20 +0.00    +0.029 A  
DOCKED: ATOM     21  C   UNL     1     -42.670 -25.341  11.394 -0.06 +0.00    +0.140 A  
DOCKED: ATOM     22  C   UNL     1     -43.496 -24.973  10.333 -0.15 +0.00    +0.029 A  
DOCKED: ATOM     23  F   UNL     1     -43.181 -26.003  12.441 -0.04 -0.00    -0.204 F  
DOCKED: ATOM     24  C   UNL     1     -42.965 -24.282   9.242 -0.16 +0.00    +0.001 A  
DOCKED: ENDBRANCH   2  18
DOCKED: TORSDOF 5
DOCKED: TER
DOCKED: ENDMDL
________________________________________________________________________________


    FINAL DOCKED STATE:
    ________________________


Run:   328 / 512
Time taken for this run:   0.002s

DOCKED: MODEL        328
DOCKED: USER    Run = 328
DOCKED: USER
DOCKED: USER    Estimated Free Energy of Binding    =  -4.83 kcal/mol  [=(1)+(2)+(3)-(4)]
DOCKED: USER
DOCKED: USER    (1) Final Intermolecular Energy     =  -6.32 kcal/mol
DOCKED: USER        vdW + Hbond + desolv Energy     =  -6.32 kcal/mol
DOCKED: USER        Electrostatic Energy            =  +0.00 kcal/mol
DOCKED: USER        Moving Ligand-Fixed Receptor    =  -6.32 kcal/mol
DOCKED: USER        Moving Ligand-Moving Receptor   =  +0.00 kcal/mol
DOCKED: USER    (2) Final Total Internal Energy     =  -1.28 kcal/mol
DOCKED: USER    (3) Torsional Free Energy           =  +1.49 kcal/mol
DOCKED: USER    (4) Unbound System's Energy         =  -1.28 kcal/mol
DOCKED: USER
DOCKED: USER
DOCKED: REMARK  5 active torsions:
DOCKED: REMARK  status: ('A' for Active; 'I' for Inactive)
DOCKED: REMARK    1  A    between atoms: C_2  and  C_19 
DOCKED: REMARK    2  A    between atoms: C_2  and  C_11 
DOCKED: REMARK    3  A    between atoms: C_19  and  C_20 
DOCKED: REMARK    4  A    between atoms: C_20  and  C_21 
DOCKED: REMARK    5  A    between atoms: C_21  and  N_22 
DOCKED: USER                              x       y       z     vdW  Elec       q    Type
DOCKED: USER                           _______ _______ _______ _____ _____    ______ ____
DOCKED: ROOT
DOCKED: ATOM      1  O   UNL     1     -44.283 -22.639   8.356 -0.00 -0.00    -0.346 OA 
DOCKED: ATOM      2  C   UNL     1     -42.846 -22.657   8.083 -0.11 +0.00    +0.130 C  
DOCKED: ATOM      3  C   UNL     1     -42.754 -23.162   6.672 -0.26 +0.00    +0.004 A  
DOCKED: ATOM      4  C   UNL     1     -44.030 -23.315   6.147 -0.26 +0.00    +0.006 A  
DOCKED: ATOM      5  C   UNL     1     -45.039 -22.915   7.154 -0.16 +0.00    +0.169 C  
DOCKED: ATOM      6  C   UNL     1     -41.632 -23.452   5.910 -0.36 -0.00    -0.001 A  
DOCKED: ATOM      7  C   UNL     1     -44.227 -23.764   4.852 -0.21 +0.00    +0.008 A  
DOCKED: ATOM      8  C   UNL     1     -41.815 -23.911   4.604 -0.23 +0.00    +0.010 A  
DOCKED: ATOM      9  C   UNL     1     -43.106 -24.065   4.078 -0.37 +0.00    +0.068 A  
DOCKED: ATOM     10  N   UNL     1     -43.410 -24.913   1.649 -2.72 -0.00    -0.191 NA 
DOCKED: ATOM     11  C   UNL     1     -43.274 -24.534   2.739 -0.28 +0.00    +0.101 C  
DOCKED: ENDROOT
DOCKED: BRANCH   2  12
DOCKED: ATOM     12  C   UNL     1     -42.307 -21.240   8.241 -0.12 +0.00    +0.038 C  
DOCKED: BRANCH  12  13
DOCKED: ATOM     13  C   UNL     1     -43.191 -20.409   9.170 -0.06 +0.00    +0.038 C  
DOCKED: BRANCH  13  14
DOCKED: ATOM     14  C   UNL     1     -44.316 -19.727   8.394 -0.05 +0.00    +0.251 C  
DOCKED: BRANCH  14  15
DOCKED: ATOM     15  N   UNL     1     -43.861 -19.360   7.059 -0.19 +0.00    +0.141 N  
DOCKED: ATOM     16  C   UNL     1     -44.991 -18.955   6.222 +0.04 +0.00    +0.285 C  
DOCKED: ATOM     17  C   UNL     1     -42.870 -18.285   7.129 -0.12 +0.00    +0.285 C  
DOCKED: ENDBRANCH  14  15
DOCKED: ENDBRANCH  13  14
DOCKED: ENDBRANCH  12  13
DOCKED: ENDBRANCH   2  12
DOCKED: BRANCH   2  18
DOCKED: ATOM     18  C   UNL     1     -42.224 -23.583   9.074 -0.13 +0.00    +0.006 A  
DOCKED: ATOM     19  C   UNL     1     -43.017 -24.501   9.762 -0.17 +0.00    +0.001 A  
DOCKED: ATOM     20  C   UNL     1     -42.434 -25.366  10.688 -0.05 +0.00    +0.029 A  
DOCKED: ATOM     21  C   UNL     1     -41.061 -25.313  10.925 -0.18 +0.00    +0.140 A  
DOCKED: ATOM     22  C   UNL     1     -40.269 -24.395  10.236 -0.06 +0.00    +0.029 A  
DOCKED: ATOM     23  F   UNL     1     -40.502 -26.146  11.813 -0.10 -0.00    -0.204 F  
DOCKED: ATOM     24  C   UNL     1     -40.851 -23.529   9.309 -0.16 +0.00    +0.001 A  
DOCKED: ENDBRANCH   2  18
DOCKED: TORSDOF 5
DOCKED: TER
DOCKED: ENDMDL
________________________________________________________________________________


    FINAL DOCKED STATE:
    ________________________


Run:   329 / 512
Time taken for this run:   0.002s

DOCKED: MODEL        329
DOCKED: USER    Run = 329
DOCKED: USER
DOCKED: USER    Estimated Free Energy of Binding    =  -3.80 kcal/mol  [=(1)+(2)+(3)-(4)]
DOCKED: USER
DOCKED: USER    (1) Final Intermolecular Energy     =  -5.29 kcal/mol
DOCKED: USER        vdW + Hbond + desolv Energy     =  -5.29 kcal/mol
DOCKED: USER        Electrostatic Energy            =  +0.00 kcal/mol
DOCKED: USER        Moving Ligand-Fixed Receptor    =  -5.29 kcal/mol
DOCKED: USER        Moving Ligand-Moving Receptor   =  +0.00 kcal/mol
DOCKED: USER    (2) Final Total Internal Energy     =  -1.49 kcal/mol
DOCKED: USER    (3) Torsional Free Energy           =  +1.49 kcal/mol
DOCKED: USER    (4) Unbound System's Energy         =  -1.49 kcal/mol
DOCKED: USER
DOCKED: USER
DOCKED: REMARK  5 active torsions:
DOCKED: REMARK  status: ('A' for Active; 'I' for Inactive)
DOCKED: REMARK    1  A    between atoms: C_2  and  C_19 
DOCKED: REMARK    2  A    between atoms: C_2  and  C_11 
DOCKED: REMARK    3  A    between atoms: C_19  and  C_20 
DOCKED: REMARK    4  A    between atoms: C_20  and  C_21 
DOCKED: REMARK    5  A    between atoms: C_21  and  N_22 
DOCKED: USER                              x       y       z     vdW  Elec       q    Type
DOCKED: USER                           _______ _______ _______ _____ _____    ______ ____
DOCKED: ROOT
DOCKED: ATOM      1  O   UNL     1     -40.599 -20.166   7.905 -0.03 -0.00    -0.346 OA 
DOCKED: ATOM      2  C   UNL     1     -39.670 -21.254   8.215 -0.13 +0.00    +0.130 C  
DOCKED: ATOM      3  C   UNL     1     -40.305 -22.459   7.584 -0.23 +0.00    +0.004 A  
DOCKED: ATOM      4  C   UNL     1     -41.438 -22.076   6.881 -0.27 +0.00    +0.006 A  
DOCKED: ATOM      5  C   UNL     1     -41.623 -20.611   6.985 -0.19 +0.00    +0.169 C  
DOCKED: ATOM      6  C   UNL     1     -39.904 -23.787   7.619 -0.28 -0.00    -0.001 A  
DOCKED: ATOM      7  C   UNL     1     -42.209 -23.001   6.197 -0.32 +0.00    +0.008 A  
DOCKED: ATOM      8  C   UNL     1     -40.673 -24.732   6.938 -0.39 +0.00    +0.010 A  
DOCKED: ATOM      9  C   UNL     1     -41.819 -24.340   6.230 -0.33 +0.00    +0.068 A  
DOCKED: ATOM     10  N   UNL     1     -43.221 -26.120   4.972 -2.35 -0.00    -0.191 NA 
DOCKED: ATOM     11  C   UNL     1     -42.593 -25.322   5.537 -0.31 +0.00    +0.101 C  
DOCKED: ENDROOT
DOCKED: BRANCH   2  12
DOCKED: ATOM     12  C   UNL     1     -38.312 -20.914   7.613 -0.11 +0.00    +0.038 C  
DOCKED: BRANCH  12  13
DOCKED: ATOM     13  C   UNL     1     -38.160 -19.410   7.394 -0.10 +0.00    +0.038 C  
DOCKED: BRANCH  13  14
DOCKED: ATOM     14  C   UNL     1     -37.032 -18.841   8.252 -0.02 +0.00    +0.251 C  
DOCKED: BRANCH  14  15
DOCKED: ATOM     15  N   UNL     1     -37.577 -18.031   9.334 -0.01 +0.00    +0.141 N  
DOCKED: ATOM     16  C   UNL     1     -38.950 -17.622   9.032 -0.00 +0.00    +0.285 C  
DOCKED: ATOM     17  C   UNL     1     -37.533 -18.764  10.600 -0.00 +0.00    +0.285 C  
DOCKED: ENDBRANCH  14  15
DOCKED: ENDBRANCH  13  14
DOCKED: ENDBRANCH  12  13
DOCKED: ENDBRANCH   2  12
DOCKED: BRANCH   2  18
DOCKED: ATOM     18  C   UNL     1     -39.591 -21.350   9.702 -0.06 +0.00    +0.006 A  
DOCKED: ATOM     19  C   UNL     1     -40.506 -20.656  10.494 -0.02 +0.00    +0.001 A  
DOCKED: ATOM     20  C   UNL     1     -40.430 -20.747  11.885 -0.01 +0.00    +0.029 A  
DOCKED: ATOM     21  C   UNL     1     -39.443 -21.530  12.480 -0.01 +0.00    +0.140 A  
DOCKED: ATOM     22  C   UNL     1     -38.529 -22.223  11.687 -0.04 +0.00    +0.029 A  
DOCKED: ATOM     23  F   UNL     1     -39.372 -21.618  13.815 +0.00 -0.00    -0.204 F  
DOCKED: ATOM     24  C   UNL     1     -38.603 -22.133  10.296 -0.08 +0.00    +0.001 A  
DOCKED: ENDBRANCH   2  18
DOCKED: TORSDOF 5
DOCKED: TER
DOCKED: ENDMDL
________________________________________________________________________________


    FINAL DOCKED STATE:
    ________________________


Run:   330 / 512
Time taken for this run:   0.002s

DOCKED: MODEL        330
DOCKED: USER    Run = 330
DOCKED: USER
DOCKED: USER    Estimated Free Energy of Binding    =  -4.75 kcal/mol  [=(1)+(2)+(3)-(4)]
DOCKED: USER
DOCKED: USER    (1) Final Intermolecular Energy     =  -6.24 kcal/mol
DOCKED: USER        vdW + Hbond + desolv Energy     =  -6.24 kcal/mol
DOCKED: USER        Electrostatic Energy            =  +0.00 kcal/mol
DOCKED: USER        Moving Ligand-Fixed Receptor    =  -6.24 kcal/mol
DOCKED: USER        Moving Ligand-Moving Receptor   =  +0.00 kcal/mol
DOCKED: USER    (2) Final Total Internal Energy     =  -1.26 kcal/mol
DOCKED: USER    (3) Torsional Free Energy           =  +1.49 kcal/mol
DOCKED: USER    (4) Unbound System's Energy         =  -1.26 kcal/mol
DOCKED: USER
DOCKED: USER
DOCKED: REMARK  5 active torsions:
DOCKED: REMARK  status: ('A' for Active; 'I' for Inactive)
DOCKED: REMARK    1  A    between atoms: C_2  and  C_19 
DOCKED: REMARK    2  A    between atoms: C_2  and  C_11 
DOCKED: REMARK    3  A    between atoms: C_19  and  C_20 
DOCKED: REMARK    4  A    between atoms: C_20  and  C_21 
DOCKED: REMARK    5  A    between atoms: C_21  and  N_22 
DOCKED: USER                              x       y       z     vdW  Elec       q    Type
DOCKED: USER                           _______ _______ _______ _____ _____    ______ ____
DOCKED: ROOT
DOCKED: ATOM      1  O   UNL     1     -39.339 -15.881   1.525 -0.08 -0.00    -0.346 OA 
DOCKED: ATOM      2  C   UNL     1     -38.122 -15.991   0.720 -0.16 +0.00    +0.130 C  
DOCKED: ATOM      3  C   UNL     1     -38.492 -15.344  -0.583 -0.26 +0.00    +0.004 A  
DOCKED: ATOM      4  C   UNL     1     -39.771 -14.813  -0.493 -0.22 +0.00    +0.006 A  
DOCKED: ATOM      5  C   UNL     1     -40.323 -15.056   0.858 -0.27 +0.00    +0.169 C  
DOCKED: ATOM      6  C   UNL     1     -37.752 -15.225  -1.750 -0.23 -0.00    -0.001 A  
DOCKED: ATOM      7  C   UNL     1     -40.353 -14.152  -1.562 -0.12 +0.00    +0.008 A  
DOCKED: ATOM      8  C   UNL     1     -38.327 -14.565  -2.838 -0.23 +0.00    +0.010 A  
DOCKED: ATOM      9  C   UNL     1     -39.621 -14.031  -2.744 -0.22 +0.00    +0.068 A  
DOCKED: ATOM     10  N   UNL     1     -40.657 -12.808  -4.780 -2.41 -0.00    -0.191 NA 
DOCKED: ATOM     11  C   UNL     1     -40.193 -13.357  -3.867 -0.29 +0.00    +0.101 C  
DOCKED: ENDROOT
DOCKED: BRANCH   2  12
DOCKED: ATOM     12  C   UNL     1     -36.997 -15.262   1.446 -0.15 +0.00    +0.038 C  
DOCKED: BRANCH  12  13
DOCKED: ATOM     13  C   UNL     1     -37.080 -15.472   2.956 -0.12 +0.00    +0.038 C  
DOCKED: BRANCH  13  14
DOCKED: ATOM     14  C   UNL     1     -37.956 -14.405   3.611 -0.12 +0.00    +0.251 C  
DOCKED: BRANCH  14  15
DOCKED: ATOM     15  N   UNL     1     -39.153 -15.012   4.182 -0.08 +0.00    +0.141 N  
DOCKED: ATOM     16  C   UNL     1     -38.794 -16.040   5.160 -0.03 +0.00    +0.285 C  
DOCKED: ATOM     17  C   UNL     1     -40.000 -13.993   4.804 -0.07 +0.00    +0.285 C  
DOCKED: ENDBRANCH  14  15
DOCKED: ENDBRANCH  13  14
DOCKED: ENDBRANCH  12  13
DOCKED: ENDBRANCH   2  12
DOCKED: BRANCH   2  18
DOCKED: ATOM     18  C   UNL     1     -37.819 -17.446   0.582 -0.15 +0.00    +0.006 A  
DOCKED: ATOM     19  C   UNL     1     -37.046 -17.898  -0.486 -0.14 +0.00    +0.001 A  
DOCKED: ATOM     20  C   UNL     1     -36.765 -19.259  -0.615 -0.18 +0.00    +0.029 A  
DOCKED: ATOM     21  C   UNL     1     -37.256 -20.164   0.325 -0.19 +0.00    +0.140 A  
DOCKED: ATOM     22  C   UNL     1     -38.029 -19.711   1.393 -0.27 +0.00    +0.029 A  
DOCKED: ATOM     23  F   UNL     1     -36.984 -21.470   0.202 -0.04 -0.00    -0.204 F  
DOCKED: ATOM     24  C   UNL     1     -38.312 -18.350   1.522 -0.18 +0.00    +0.001 A  
DOCKED: ENDBRANCH   2  18
DOCKED: TORSDOF 5
DOCKED: TER
DOCKED: ENDMDL
________________________________________________________________________________


    FINAL DOCKED STATE:
    ________________________


Run:   331 / 512
Time taken for this run:   0.002s

DOCKED: MODEL        331
DOCKED: USER    Run = 331
DOCKED: USER
DOCKED: USER    Estimated Free Energy of Binding    =  -4.51 kcal/mol  [=(1)+(2)+(3)-(4)]
DOCKED: USER
DOCKED: USER    (1) Final Intermolecular Energy     =  -6.00 kcal/mol
DOCKED: USER        vdW + Hbond + desolv Energy     =  -6.00 kcal/mol
DOCKED: USER        Electrostatic Energy            =  +0.00 kcal/mol
DOCKED: USER        Moving Ligand-Fixed Receptor    =  -6.00 kcal/mol
DOCKED: USER        Moving Ligand-Moving Receptor   =  +0.00 kcal/mol
DOCKED: USER    (2) Final Total Internal Energy     =  -1.12 kcal/mol
DOCKED: USER    (3) Torsional Free Energy           =  +1.49 kcal/mol
DOCKED: USER    (4) Unbound System's Energy         =  -1.12 kcal/mol
DOCKED: USER
DOCKED: USER
DOCKED: REMARK  5 active torsions:
DOCKED: REMARK  status: ('A' for Active; 'I' for Inactive)
DOCKED: REMARK    1  A    between atoms: C_2  and  C_19 
DOCKED: REMARK    2  A    between atoms: C_2  and  C_11 
DOCKED: REMARK    3  A    between atoms: C_19  and  C_20 
DOCKED: REMARK    4  A    between atoms: C_20  and  C_21 
DOCKED: REMARK    5  A    between atoms: C_21  and  N_22 
DOCKED: USER                              x       y       z     vdW  Elec       q    Type
DOCKED: USER                           _______ _______ _______ _____ _____    ______ ____
DOCKED: ROOT
DOCKED: ATOM      1  O   UNL     1     -36.139 -14.427   0.338 -0.08 -0.00    -0.346 OA 
DOCKED: ATOM      2  C   UNL     1     -37.374 -15.206   0.434 -0.16 +0.00    +0.130 C  
DOCKED: ATOM      3  C   UNL     1     -38.187 -14.736  -0.737 -0.14 +0.00    +0.004 A  
DOCKED: ATOM      4  C   UNL     1     -37.440 -13.848  -1.498 -0.04 +0.00    +0.006 A  
DOCKED: ATOM      5  C   UNL     1     -36.096 -13.681  -0.901 -0.12 +0.00    +0.169 C  
DOCKED: ATOM      6  C   UNL     1     -39.481 -15.076  -1.105 -0.21 -0.00    -0.001 A  
DOCKED: ATOM      7  C   UNL     1     -37.958 -13.270  -2.645 -0.28 +0.00    +0.008 A  
DOCKED: ATOM      8  C   UNL     1     -40.018 -14.497  -2.256 -0.08 +0.00    +0.010 A  
DOCKED: ATOM      9  C   UNL     1     -39.260 -13.599  -3.022 -0.35 +0.00    +0.068 A  
DOCKED: ATOM     10  N   UNL     1     -40.287 -12.547  -5.156 -2.50 -0.00    -0.191 NA 
DOCKED: ATOM     11  C   UNL     1     -39.827 -13.018  -4.198 -0.41 +0.00    +0.101 C  
DOCKED: ENDROOT
DOCKED: BRANCH   2  12
DOCKED: ATOM     12  C   UNL     1     -37.018 -16.686   0.354 -0.11 +0.00    +0.038 C  
DOCKED: BRANCH  12  13
DOCKED: ATOM     13  C   UNL     1     -38.271 -17.560   0.337 -0.21 +0.00    +0.038 C  
DOCKED: BRANCH  13  14
DOCKED: ATOM     14  C   UNL     1     -38.334 -18.453   1.575 -0.14 +0.00    +0.251 C  
DOCKED: BRANCH  14  15
DOCKED: ATOM     15  N   UNL     1     -37.550 -17.874   2.659 -0.07 +0.00    +0.141 N  
DOCKED: ATOM     16  C   UNL     1     -38.231 -18.054   3.942 -0.07 +0.00    +0.285 C  
DOCKED: ATOM     17  C   UNL     1     -36.214 -18.471   2.705 -0.03 +0.00    +0.285 C  
DOCKED: ENDBRANCH  14  15
DOCKED: ENDBRANCH  13  14
DOCKED: ENDBRANCH  12  13
DOCKED: ENDBRANCH   2  12
DOCKED: BRANCH   2  18
DOCKED: ATOM     18  C   UNL     1     -37.999 -14.873   1.748 -0.17 +0.00    +0.006 A  
DOCKED: ATOM     19  C   UNL     1     -39.386 -14.790   1.858 -0.24 +0.00    +0.001 A  
DOCKED: ATOM     20  C   UNL     1     -39.969 -14.479   3.087 -0.22 +0.00    +0.029 A  
DOCKED: ATOM     21  C   UNL     1     -39.165 -14.251   4.202 -0.13 +0.00    +0.140 A  
DOCKED: ATOM     22  C   UNL     1     -37.778 -14.334   4.091 -0.13 +0.00    +0.029 A  
DOCKED: ATOM     23  F   UNL     1     -39.726 -13.953   5.382 -0.01 -0.00    -0.204 F  
DOCKED: ATOM     24  C   UNL     1     -37.193 -14.645   2.862 -0.13 +0.00    +0.001 A  
DOCKED: ENDBRANCH   2  18
DOCKED: TORSDOF 5
DOCKED: TER
DOCKED: ENDMDL
________________________________________________________________________________


    FINAL DOCKED STATE:
    ________________________


Run:   332 / 512
Time taken for this run:   0.002s

DOCKED: MODEL        332
DOCKED: USER    Run = 332
DOCKED: USER
DOCKED: USER    Estimated Free Energy of Binding    =  -3.99 kcal/mol  [=(1)+(2)+(3)-(4)]
DOCKED: USER
DOCKED: USER    (1) Final Intermolecular Energy     =  -5.48 kcal/mol
DOCKED: USER        vdW + Hbond + desolv Energy     =  -5.48 kcal/mol
DOCKED: USER        Electrostatic Energy            =  +0.00 kcal/mol
DOCKED: USER        Moving Ligand-Fixed Receptor    =  -5.48 kcal/mol
DOCKED: USER        Moving Ligand-Moving Receptor   =  +0.00 kcal/mol
DOCKED: USER    (2) Final Total Internal Energy     =  -1.21 kcal/mol
DOCKED: USER    (3) Torsional Free Energy           =  +1.49 kcal/mol
DOCKED: USER    (4) Unbound System's Energy         =  -1.21 kcal/mol
DOCKED: USER
DOCKED: USER
DOCKED: REMARK  5 active torsions:
DOCKED: REMARK  status: ('A' for Active; 'I' for Inactive)
DOCKED: REMARK    1  A    between atoms: C_2  and  C_19 
DOCKED: REMARK    2  A    between atoms: C_2  and  C_11 
DOCKED: REMARK    3  A    between atoms: C_19  and  C_20 
DOCKED: REMARK    4  A    between atoms: C_20  and  C_21 
DOCKED: REMARK    5  A    between atoms: C_21  and  N_22 
DOCKED: USER                              x       y       z     vdW  Elec       q    Type
DOCKED: USER                           _______ _______ _______ _____ _____    ______ ____
DOCKED: ROOT
DOCKED: ATOM      1  O   UNL     1     -38.667 -21.914   8.765 -0.07 -0.00    -0.346 OA 
DOCKED: ATOM      2  C   UNL     1     -39.768 -21.085   8.275 -0.12 +0.00    +0.130 C  
DOCKED: ATOM      3  C   UNL     1     -40.612 -22.040   7.481 -0.22 +0.00    +0.004 A  
DOCKED: ATOM      4  C   UNL     1     -40.099 -23.324   7.598 -0.26 +0.00    +0.006 A  
DOCKED: ATOM      5  C   UNL     1     -38.907 -23.311   8.475 -0.15 +0.00    +0.169 C  
DOCKED: ATOM      6  C   UNL     1     -41.748 -21.793   6.724 -0.27 -0.00    -0.001 A  
DOCKED: ATOM      7  C   UNL     1     -40.698 -24.399   6.964 -0.37 +0.00    +0.008 A  
DOCKED: ATOM      8  C   UNL     1     -42.361 -22.866   6.075 -0.32 +0.00    +0.010 A  
DOCKED: ATOM      9  C   UNL     1     -41.839 -24.163   6.196 -0.32 +0.00    +0.068 A  
DOCKED: ATOM     10  N   UNL     1     -43.004 -26.134   4.982 -2.38 -0.00    -0.191 NA 
DOCKED: ATOM     11  C   UNL     1     -42.481 -25.250   5.526 -0.34 +0.00    +0.101 C  
DOCKED: ENDROOT
DOCKED: BRANCH   2  12
DOCKED: ATOM     12  C   UNL     1     -40.504 -20.500   9.475 -0.04 +0.00    +0.038 C  
DOCKED: BRANCH  12  13
DOCKED: ATOM     13  C   UNL     1     -41.620 -19.554   9.037 -0.05 +0.00    +0.038 C  
DOCKED: BRANCH  13  14
DOCKED: ATOM     14  C   UNL     1     -42.994 -20.178   9.273 -0.02 +0.00    +0.251 C  
DOCKED: BRANCH  14  15
DOCKED: ATOM     15  N   UNL     1     -42.921 -21.179  10.330 -0.01 +0.00    +0.141 N  
DOCKED: ATOM     16  C   UNL     1     -43.752 -20.787  11.470 -0.00 +0.00    +0.285 C  
DOCKED: ATOM     17  C   UNL     1     -43.334 -22.491   9.828 -0.01 +0.00    +0.285 C  
DOCKED: ENDBRANCH  14  15
DOCKED: ENDBRANCH  13  14
DOCKED: ENDBRANCH  12  13
DOCKED: ENDBRANCH   2  12
DOCKED: BRANCH   2  18
DOCKED: ATOM     18  C   UNL     1     -39.163 -20.008   7.437 -0.13 +0.00    +0.006 A  
DOCKED: ATOM     19  C   UNL     1     -39.383 -19.990   6.060 -0.11 +0.00    +0.001 A  
DOCKED: ATOM     20  C   UNL     1     -38.816 -18.983   5.278 -0.13 +0.00    +0.029 A  
DOCKED: ATOM     21  C   UNL     1     -38.033 -17.995   5.873 -0.06 +0.00    +0.140 A  
DOCKED: ATOM     22  C   UNL     1     -37.814 -18.013   7.250 -0.04 +0.00    +0.029 A  
DOCKED: ATOM     23  F   UNL     1     -37.491 -17.028   5.122 -0.00 -0.00    -0.204 F  
DOCKED: ATOM     24  C   UNL     1     -38.380 -19.021   8.034 -0.05 +0.00    +0.001 A  
DOCKED: ENDBRANCH   2  18
DOCKED: TORSDOF 5
DOCKED: TER
DOCKED: ENDMDL
________________________________________________________________________________


    FINAL DOCKED STATE:
    ________________________


Run:   333 / 512
Time taken for this run:   0.002s

DOCKED: MODEL        333
DOCKED: USER    Run = 333
DOCKED: USER
DOCKED: USER    Estimated Free Energy of Binding    =  -4.71 kcal/mol  [=(1)+(2)+(3)-(4)]
DOCKED: USER
DOCKED: USER    (1) Final Intermolecular Energy     =  -6.20 kcal/mol
DOCKED: USER        vdW + Hbond + desolv Energy     =  -6.20 kcal/mol
DOCKED: USER        Electrostatic Energy            =  +0.00 kcal/mol
DOCKED: USER        Moving Ligand-Fixed Receptor    =  -6.20 kcal/mol
DOCKED: USER        Moving Ligand-Moving Receptor   =  +0.00 kcal/mol
DOCKED: USER    (2) Final Total Internal Energy     =  -1.20 kcal/mol
DOCKED: USER    (3) Torsional Free Energy           =  +1.49 kcal/mol
DOCKED: USER    (4) Unbound System's Energy         =  -1.20 kcal/mol
DOCKED: USER
DOCKED: USER
DOCKED: REMARK  5 active torsions:
DOCKED: REMARK  status: ('A' for Active; 'I' for Inactive)
DOCKED: REMARK    1  A    between atoms: C_2  and  C_19 
DOCKED: REMARK    2  A    between atoms: C_2  and  C_11 
DOCKED: REMARK    3  A    between atoms: C_19  and  C_20 
DOCKED: REMARK    4  A    between atoms: C_20  and  C_21 
DOCKED: REMARK    5  A    between atoms: C_21  and  N_22 
DOCKED: USER                              x       y       z     vdW  Elec       q    Type
DOCKED: USER                           _______ _______ _______ _____ _____    ______ ____
DOCKED: ROOT
DOCKED: ATOM      1  O   UNL     1     -43.691 -22.113   8.337 -0.01 -0.00    -0.346 OA 
DOCKED: ATOM      2  C   UNL     1     -42.333 -22.614   8.127 -0.12 +0.00    +0.130 C  
DOCKED: ATOM      3  C   UNL     1     -42.391 -23.253   6.770 -0.27 +0.00    +0.004 A  
DOCKED: ATOM      4  C   UNL     1     -43.641 -23.039   6.206 -0.25 +0.00    +0.006 A  
DOCKED: ATOM      5  C   UNL     1     -44.480 -22.245   7.131 -0.16 +0.00    +0.169 C  
DOCKED: ATOM      6  C   UNL     1     -41.412 -23.957   6.083 -0.37 -0.00    -0.001 A  
DOCKED: ATOM      7  C   UNL     1     -43.956 -23.522   4.947 -0.12 +0.00    +0.008 A  
DOCKED: ATOM      8  C   UNL     1     -41.716 -24.454   4.815 -0.27 +0.00    +0.010 A  
DOCKED: ATOM      9  C   UNL     1     -42.982 -24.237   4.250 -0.41 +0.00    +0.068 A  
DOCKED: ATOM     10  N   UNL     1     -43.511 -25.169   1.891 -2.28 -0.00    -0.191 NA 
DOCKED: ATOM     11  C   UNL     1     -43.274 -24.751   2.949 -0.35 +0.00    +0.101 C  
DOCKED: ENDROOT
DOCKED: BRANCH   2  12
DOCKED: ATOM     12  C   UNL     1     -41.369 -21.436   8.187 -0.13 +0.00    +0.038 C  
DOCKED: BRANCH  12  13
DOCKED: ATOM     13  C   UNL     1     -42.115 -20.103   8.161 -0.11 +0.00    +0.038 C  
DOCKED: BRANCH  13  14
DOCKED: ATOM     14  C   UNL     1     -42.340 -19.628   6.726 -0.15 +0.00    +0.251 C  
DOCKED: BRANCH  14  15
DOCKED: ATOM     15  N   UNL     1     -42.960 -18.308   6.720 -0.17 +0.00    +0.141 N  
DOCKED: ATOM     16  C   UNL     1     -44.412 -18.421   6.577 -0.15 +0.00    +0.285 C  
DOCKED: ATOM     17  C   UNL     1     -42.626 -17.577   7.944 -0.04 +0.00    +0.285 C  
DOCKED: ENDBRANCH  14  15
DOCKED: ENDBRANCH  13  14
DOCKED: ENDBRANCH  12  13
DOCKED: ENDBRANCH   2  12
DOCKED: BRANCH   2  18
DOCKED: ATOM     18  C   UNL     1     -42.055 -23.593   9.219 -0.13 +0.00    +0.006 A  
DOCKED: ATOM     19  C   UNL     1     -43.062 -24.453   9.656 -0.17 +0.00    +0.001 A  
DOCKED: ATOM     20  C   UNL     1     -42.801 -25.367  10.678 -0.00 +0.00    +0.029 A  
DOCKED: ATOM     21  C   UNL     1     -41.535 -25.422  11.259 -0.16 +0.00    +0.140 A  
DOCKED: ATOM     22  C   UNL     1     -40.529 -24.562  10.820 -0.16 +0.00    +0.029 A  
DOCKED: ATOM     23  F   UNL     1     -41.285 -26.301  12.238 -0.08 -0.00    -0.204 F  
DOCKED: ATOM     24  C   UNL     1     -40.789 -23.646   9.799 -0.15 +0.00    +0.001 A  
DOCKED: ENDBRANCH   2  18
DOCKED: TORSDOF 5
DOCKED: TER
DOCKED: ENDMDL
________________________________________________________________________________


    FINAL DOCKED STATE:
    ________________________


Run:   334 / 512
Time taken for this run:   0.002s

DOCKED: MODEL        334
DOCKED: USER    Run = 334
DOCKED: USER
DOCKED: USER    Estimated Free Energy of Binding    =  -3.96 kcal/mol  [=(1)+(2)+(3)-(4)]
DOCKED: USER
DOCKED: USER    (1) Final Intermolecular Energy     =  -5.45 kcal/mol
DOCKED: USER        vdW + Hbond + desolv Energy     =  -5.45 kcal/mol
DOCKED: USER        Electrostatic Energy            =  +0.00 kcal/mol
DOCKED: USER        Moving Ligand-Fixed Receptor    =  -5.45 kcal/mol
DOCKED: USER        Moving Ligand-Moving Receptor   =  +0.00 kcal/mol
DOCKED: USER    (2) Final Total Internal Energy     =  -1.39 kcal/mol
DOCKED: USER    (3) Torsional Free Energy           =  +1.49 kcal/mol
DOCKED: USER    (4) Unbound System's Energy         =  -1.39 kcal/mol
DOCKED: USER
DOCKED: USER
DOCKED: REMARK  5 active torsions:
DOCKED: REMARK  status: ('A' for Active; 'I' for Inactive)
DOCKED: REMARK    1  A    between atoms: C_2  and  C_19 
DOCKED: REMARK    2  A    between atoms: C_2  and  C_11 
DOCKED: REMARK    3  A    between atoms: C_19  and  C_20 
DOCKED: REMARK    4  A    between atoms: C_20  and  C_21 
DOCKED: REMARK    5  A    between atoms: C_21  and  N_22 
DOCKED: USER                              x       y       z     vdW  Elec       q    Type
DOCKED: USER                           _______ _______ _______ _____ _____    ______ ____
DOCKED: ROOT
DOCKED: ATOM      1  O   UNL     1     -35.545 -15.770  -1.014 -0.00 -0.00    -0.346 OA 
DOCKED: ATOM      2  C   UNL     1     -35.464 -14.328  -0.780 -0.09 +0.00    +0.130 C  
DOCKED: ATOM      3  C   UNL     1     -36.482 -13.752  -1.721 -0.16 +0.00    +0.004 A  
DOCKED: ATOM      4  C   UNL     1     -37.163 -14.780  -2.357 -0.19 +0.00    +0.006 A  
DOCKED: ATOM      5  C   UNL     1     -36.660 -16.087  -1.879 -0.11 +0.00    +0.169 C  
DOCKED: ATOM      6  C   UNL     1     -36.788 -12.425  -1.985 -0.15 -0.00    -0.001 A  
DOCKED: ATOM      7  C   UNL     1     -38.165 -14.520  -3.277 -0.17 +0.00    +0.008 A  
DOCKED: ATOM      8  C   UNL     1     -37.793 -12.146  -2.913 -0.32 +0.00    +0.010 A  
DOCKED: ATOM      9  C   UNL     1     -38.478 -13.189  -3.555 -0.33 +0.00    +0.068 A  
DOCKED: ATOM     10  N   UNL     1     -40.341 -12.637  -5.269 -2.54 -0.00    -0.191 NA 
DOCKED: ATOM     11  C   UNL     1     -39.505 -12.884  -4.501 -0.43 +0.00    +0.101 C  
DOCKED: ENDROOT
DOCKED: BRANCH   2  12
DOCKED: ATOM     12  C   UNL     1     -35.790 -14.057   0.684 -0.12 +0.00    +0.038 C  
DOCKED: BRANCH  12  13
DOCKED: ATOM     13  C   UNL     1     -35.830 -15.352   1.494 -0.10 +0.00    +0.038 C  
DOCKED: BRANCH  13  14
DOCKED: ATOM     14  C   UNL     1     -37.238 -15.943   1.517 -0.08 +0.00    +0.251 C  
DOCKED: BRANCH  14  15
DOCKED: ATOM     15  N   UNL     1     -38.233 -14.889   1.361 -0.17 +0.00    +0.141 N  
DOCKED: ATOM     16  C   UNL     1     -39.289 -15.308   0.437 -0.20 +0.00    +0.285 C  
DOCKED: ATOM     17  C   UNL     1     -38.808 -14.527   2.658 -0.15 +0.00    +0.285 C  
DOCKED: ENDBRANCH  14  15
DOCKED: ENDBRANCH  13  14
DOCKED: ENDBRANCH  12  13
DOCKED: ENDBRANCH   2  12
DOCKED: BRANCH   2  18
DOCKED: ATOM     18  C   UNL     1     -34.068 -13.911  -1.106 -0.04 +0.00    +0.006 A  
DOCKED: ATOM     19  C   UNL     1     -33.626 -12.633  -0.767 -0.06 +0.00    +0.001 A  
DOCKED: ATOM     20  C   UNL     1     -32.321 -12.244  -1.073 -0.01 +0.00    +0.029 A  
DOCKED: ATOM     21  C   UNL     1     -31.461 -13.133  -1.716 -0.00 +0.00    +0.140 A  
DOCKED: ATOM     22  C   UNL     1     -31.905 -14.411  -2.055 -0.00 +0.00    +0.029 A  
DOCKED: ATOM     23  F   UNL     1     -30.209 -12.760  -2.008 +0.00 -0.00    -0.204 F  
DOCKED: ATOM     24  C   UNL     1     -33.210 -14.801  -1.750 -0.01 +0.00    +0.001 A  
DOCKED: ENDBRANCH   2  18
DOCKED: TORSDOF 5
DOCKED: TER
DOCKED: ENDMDL
________________________________________________________________________________


    FINAL DOCKED STATE:
    ________________________


Run:   335 / 512
Time taken for this run:   0.002s

DOCKED: MODEL        335
DOCKED: USER    Run = 335
DOCKED: USER
DOCKED: USER    Estimated Free Energy of Binding    =  -5.42 kcal/mol  [=(1)+(2)+(3)-(4)]
DOCKED: USER
DOCKED: USER    (1) Final Intermolecular Energy     =  -6.91 kcal/mol
DOCKED: USER        vdW + Hbond + desolv Energy     =  -6.91 kcal/mol
DOCKED: USER        Electrostatic Energy            =  +0.00 kcal/mol
DOCKED: USER        Moving Ligand-Fixed Receptor    =  -6.91 kcal/mol
DOCKED: USER        Moving Ligand-Moving Receptor   =  +0.00 kcal/mol
DOCKED: USER    (2) Final Total Internal Energy     =  -1.07 kcal/mol
DOCKED: USER    (3) Torsional Free Energy           =  +1.49 kcal/mol
DOCKED: USER    (4) Unbound System's Energy         =  -1.07 kcal/mol
DOCKED: USER
DOCKED: USER
DOCKED: REMARK  5 active torsions:
DOCKED: REMARK  status: ('A' for Active; 'I' for Inactive)
DOCKED: REMARK    1  A    between atoms: C_2  and  C_19 
DOCKED: REMARK    2  A    between atoms: C_2  and  C_11 
DOCKED: REMARK    3  A    between atoms: C_19  and  C_20 
DOCKED: REMARK    4  A    between atoms: C_20  and  C_21 
DOCKED: REMARK    5  A    between atoms: C_21  and  N_22 
DOCKED: USER                              x       y       z     vdW  Elec       q    Type
DOCKED: USER                           _______ _______ _______ _____ _____    ______ ____
DOCKED: ROOT
DOCKED: ATOM      1  O   UNL     1     -41.235 -22.056   7.834 -0.05 -0.00    -0.346 OA 
DOCKED: ATOM      2  C   UNL     1     -41.983 -23.280   8.125 -0.15 +0.00    +0.130 C  
DOCKED: ATOM      3  C   UNL     1     -42.438 -23.753   6.775 -0.27 +0.00    +0.004 A  
DOCKED: ATOM      4  C   UNL     1     -41.905 -22.935   5.789 -0.35 +0.00    +0.006 A  
DOCKED: ATOM      5  C   UNL     1     -41.063 -21.886   6.407 -0.23 +0.00    +0.169 C  
DOCKED: ATOM      6  C   UNL     1     -43.249 -24.829   6.445 -0.28 -0.00    -0.001 A  
DOCKED: ATOM      7  C   UNL     1     -42.167 -23.158   4.448 -0.28 +0.00    +0.008 A  
DOCKED: ATOM      8  C   UNL     1     -43.525 -25.065   5.097 -0.40 +0.00    +0.010 A  
DOCKED: ATOM      9  C   UNL     1     -42.986 -24.234   4.104 -0.41 +0.00    +0.068 A  
DOCKED: ATOM     10  N   UNL     1     -43.515 -24.703   1.611 -2.96 -0.00    -0.191 NA 
DOCKED: ATOM     11  C   UNL     1     -43.278 -24.492   2.729 -0.28 +0.00    +0.101 C  
DOCKED: ENDROOT
DOCKED: BRANCH   2  12
DOCKED: ATOM     12  C   UNL     1     -41.046 -24.265   8.814 -0.25 +0.00    +0.038 C  
DOCKED: BRANCH  12  13
DOCKED: ATOM     13  C   UNL     1     -41.824 -25.309   9.612 -0.27 +0.00    +0.038 C  
DOCKED: BRANCH  13  14
DOCKED: ATOM     14  C   UNL     1     -41.353 -25.354  11.065 -0.16 +0.00    +0.251 C  
DOCKED: BRANCH  14  15
DOCKED: ATOM     15  N   UNL     1     -42.492 -25.255  11.970 -0.13 +0.00    +0.141 N  
DOCKED: ATOM     16  C   UNL     1     -42.571 -26.437  12.830 -0.09 +0.00    +0.285 C  
DOCKED: ATOM     17  C   UNL     1     -42.401 -24.041  12.783 -0.02 +0.00    +0.285 C  
DOCKED: ENDBRANCH  14  15
DOCKED: ENDBRANCH  13  14
DOCKED: ENDBRANCH  12  13
DOCKED: ENDBRANCH   2  12
DOCKED: BRANCH   2  18
DOCKED: ATOM     18  C   UNL     1     -43.115 -22.898   9.019 -0.09 +0.00    +0.006 A  
DOCKED: ATOM     19  C   UNL     1     -42.867 -22.177  10.187 -0.04 +0.00    +0.001 A  
DOCKED: ATOM     20  C   UNL     1     -43.926 -21.821  11.022 -0.02 +0.00    +0.029 A  
DOCKED: ATOM     21  C   UNL     1     -45.230 -22.185  10.689 -0.01 +0.00    +0.140 A  
DOCKED: ATOM     22  C   UNL     1     -45.477 -22.906   9.521 -0.07 +0.00    +0.029 A  
DOCKED: ATOM     23  F   UNL     1     -46.247 -21.841  11.491 +0.01 -0.00    -0.204 F  
DOCKED: ATOM     24  C   UNL     1     -44.418 -23.263   8.685 -0.11 +0.00    +0.001 A  
DOCKED: ENDBRANCH   2  18
DOCKED: TORSDOF 5
DOCKED: TER
DOCKED: ENDMDL
________________________________________________________________________________


    FINAL DOCKED STATE:
    ________________________


Run:   336 / 512
Time taken for this run:   0.002s

DOCKED: MODEL        336
DOCKED: USER    Run = 336
DOCKED: USER
DOCKED: USER    Estimated Free Energy of Binding    =  -5.03 kcal/mol  [=(1)+(2)+(3)-(4)]
DOCKED: USER
DOCKED: USER    (1) Final Intermolecular Energy     =  -6.52 kcal/mol
DOCKED: USER        vdW + Hbond + desolv Energy     =  -6.52 kcal/mol
DOCKED: USER        Electrostatic Energy            =  +0.00 kcal/mol
DOCKED: USER        Moving Ligand-Fixed Receptor    =  -6.52 kcal/mol
DOCKED: USER        Moving Ligand-Moving Receptor   =  +0.00 kcal/mol
DOCKED: USER    (2) Final Total Internal Energy     =  -0.92 kcal/mol
DOCKED: USER    (3) Torsional Free Energy           =  +1.49 kcal/mol
DOCKED: USER    (4) Unbound System's Energy         =  -0.92 kcal/mol
DOCKED: USER
DOCKED: USER
DOCKED: REMARK  5 active torsions:
DOCKED: REMARK  status: ('A' for Active; 'I' for Inactive)
DOCKED: REMARK    1  A    between atoms: C_2  and  C_19 
DOCKED: REMARK    2  A    between atoms: C_2  and  C_11 
DOCKED: REMARK    3  A    between atoms: C_19  and  C_20 
DOCKED: REMARK    4  A    between atoms: C_20  and  C_21 
DOCKED: REMARK    5  A    between atoms: C_21  and  N_22 
DOCKED: USER                              x       y       z     vdW  Elec       q    Type
DOCKED: USER                           _______ _______ _______ _____ _____    ______ ____
DOCKED: ROOT
DOCKED: ATOM      1  O   UNL     1     -44.430 -22.636   8.253 -0.00 -0.00    -0.346 OA 
DOCKED: ATOM      2  C   UNL     1     -42.991 -22.581   7.990 -0.11 +0.00    +0.130 C  
DOCKED: ATOM      3  C   UNL     1     -42.863 -23.093   6.585 -0.26 +0.00    +0.004 A  
DOCKED: ATOM      4  C   UNL     1     -44.125 -23.316   6.052 -0.26 +0.00    +0.006 A  
DOCKED: ATOM      5  C   UNL     1     -45.161 -22.960   7.047 -0.17 +0.00    +0.169 C  
DOCKED: ATOM      6  C   UNL     1     -41.721 -23.332   5.834 -0.36 -0.00    -0.001 A  
DOCKED: ATOM      7  C   UNL     1     -44.289 -23.787   4.760 -0.19 +0.00    +0.008 A  
DOCKED: ATOM      8  C   UNL     1     -41.870 -23.811   4.531 -0.20 +0.00    +0.010 A  
DOCKED: ATOM      9  C   UNL     1     -43.147 -24.036   3.997 -0.36 +0.00    +0.068 A  
DOCKED: ATOM     10  N   UNL     1     -43.388 -24.920   1.573 -2.75 -0.00    -0.191 NA 
DOCKED: ATOM     11  C   UNL     1     -43.280 -24.524   2.661 -0.28 +0.00    +0.101 C  
DOCKED: ENDROOT
DOCKED: BRANCH   2  12
DOCKED: ATOM     12  C   UNL     1     -42.528 -21.137   8.140 -0.13 +0.00    +0.038 C  
DOCKED: BRANCH  12  13
DOCKED: ATOM     13  C   UNL     1     -43.613 -20.155   7.703 -0.18 +0.00    +0.038 C  
DOCKED: BRANCH  13  14
DOCKED: ATOM     14  C   UNL     1     -43.089 -18.721   7.703 -0.09 +0.00    +0.251 C  
DOCKED: BRANCH  14  15
DOCKED: ATOM     15  N   UNL     1     -43.267 -18.115   6.389 -0.19 +0.00    +0.141 N  
DOCKED: ATOM     16  C   UNL     1     -44.354 -17.135   6.416 -0.11 +0.00    +0.285 C  
DOCKED: ATOM     17  C   UNL     1     -42.026 -17.484   5.939 -0.11 +0.00    +0.285 C  
DOCKED: ENDBRANCH  14  15
DOCKED: ENDBRANCH  13  14
DOCKED: ENDBRANCH  12  13
DOCKED: ENDBRANCH   2  12
DOCKED: BRANCH   2  18
DOCKED: ATOM     18  C   UNL     1     -42.331 -23.466   8.994 -0.12 +0.00    +0.006 A  
DOCKED: ATOM     19  C   UNL     1     -43.061 -23.962  10.073 -0.12 +0.00    +0.001 A  
DOCKED: ATOM     20  C   UNL     1     -42.442 -24.788  11.012 -0.16 +0.00    +0.029 A  
DOCKED: ATOM     21  C   UNL     1     -41.095 -25.118  10.869 -0.18 +0.00    +0.140 A  
DOCKED: ATOM     22  C   UNL     1     -40.365 -24.622   9.789 +0.11 +0.00    +0.029 A  
DOCKED: ATOM     23  F   UNL     1     -40.501 -25.913  11.769 -0.10 -0.00    -0.204 F  
DOCKED: ATOM     24  C   UNL     1     -40.983 -23.794   8.851 -0.19 +0.00    +0.001 A  
DOCKED: ENDBRANCH   2  18
DOCKED: TORSDOF 5
DOCKED: TER
DOCKED: ENDMDL
________________________________________________________________________________


    FINAL DOCKED STATE:
    ________________________


Run:   337 / 512
Time taken for this run:   0.002s

DOCKED: MODEL        337
DOCKED: USER    Run = 337
DOCKED: USER
DOCKED: USER    Estimated Free Energy of Binding    =  -4.24 kcal/mol  [=(1)+(2)+(3)-(4)]
DOCKED: USER
DOCKED: USER    (1) Final Intermolecular Energy     =  -5.73 kcal/mol
DOCKED: USER        vdW + Hbond + desolv Energy     =  -5.73 kcal/mol
DOCKED: USER        Electrostatic Energy            =  +0.00 kcal/mol
DOCKED: USER        Moving Ligand-Fixed Receptor    =  -5.73 kcal/mol
DOCKED: USER        Moving Ligand-Moving Receptor   =  +0.00 kcal/mol
DOCKED: USER    (2) Final Total Internal Energy     =  -1.20 kcal/mol
DOCKED: USER    (3) Torsional Free Energy           =  +1.49 kcal/mol
DOCKED: USER    (4) Unbound System's Energy         =  -1.20 kcal/mol
DOCKED: USER
DOCKED: USER
DOCKED: REMARK  5 active torsions:
DOCKED: REMARK  status: ('A' for Active; 'I' for Inactive)
DOCKED: REMARK    1  A    between atoms: C_2  and  C_19 
DOCKED: REMARK    2  A    between atoms: C_2  and  C_11 
DOCKED: REMARK    3  A    between atoms: C_19  and  C_20 
DOCKED: REMARK    4  A    between atoms: C_20  and  C_21 
DOCKED: REMARK    5  A    between atoms: C_21  and  N_22 
DOCKED: USER                              x       y       z     vdW  Elec       q    Type
DOCKED: USER                           _______ _______ _______ _____ _____    ______ ____
DOCKED: ROOT
DOCKED: ATOM      1  O   UNL     1     -38.726 -21.313   8.514 -0.06 -0.00    -0.346 OA 
DOCKED: ATOM      2  C   UNL     1     -39.672 -20.583   7.669 -0.14 +0.00    +0.130 C  
DOCKED: ATOM      3  C   UNL     1     -40.494 -21.665   7.031 -0.22 +0.00    +0.004 A  
DOCKED: ATOM      4  C   UNL     1     -40.126 -22.898   7.550 -0.23 +0.00    +0.006 A  
DOCKED: ATOM      5  C   UNL     1     -39.059 -22.720   8.560 -0.16 +0.00    +0.169 C  
DOCKED: ATOM      6  C   UNL     1     -41.496 -21.565   6.077 -0.25 -0.00    -0.001 A  
DOCKED: ATOM      7  C   UNL     1     -40.739 -24.067   7.133 -0.34 +0.00    +0.008 A  
DOCKED: ATOM      8  C   UNL     1     -42.121 -22.735   5.643 -0.33 +0.00    +0.010 A  
DOCKED: ATOM      9  C   UNL     1     -41.744 -23.980   6.168 -0.32 +0.00    +0.068 A  
DOCKED: ATOM     10  N   UNL     1     -42.927 -26.133   5.344 -2.62 -0.00    -0.191 NA 
DOCKED: ATOM     11  C   UNL     1     -42.396 -25.167   5.714 -0.30 +0.00    +0.101 C  
DOCKED: ENDROOT
DOCKED: BRANCH   2  12
DOCKED: ATOM     12  C   UNL     1     -40.495 -19.656   8.555 -0.07 +0.00    +0.038 C  
DOCKED: BRANCH  12  13
DOCKED: ATOM     13  C   UNL     1     -39.663 -18.475   9.051 -0.03 +0.00    +0.038 C  
DOCKED: BRANCH  13  14
DOCKED: ATOM     14  C   UNL     1     -38.580 -18.937  10.025 -0.00 +0.00    +0.251 C  
DOCKED: BRANCH  14  15
DOCKED: ATOM     15  N   UNL     1     -39.039 -18.790  11.401 -0.00 +0.00    +0.141 N  
DOCKED: ATOM     16  C   UNL     1     -39.856 -17.585  11.546 +0.00 +0.00    +0.285 C  
DOCKED: ATOM     17  C   UNL     1     -39.796 -19.971  11.820 -0.00 +0.00    +0.285 C  
DOCKED: ENDBRANCH  14  15
DOCKED: ENDBRANCH  13  14
DOCKED: ENDBRANCH  12  13
DOCKED: ENDBRANCH   2  12
DOCKED: BRANCH   2  18
DOCKED: ATOM     18  C   UNL     1     -38.865 -19.807   6.681 -0.15 +0.00    +0.006 A  
DOCKED: ATOM     19  C   UNL     1     -39.497 -18.930   5.800 -0.13 +0.00    +0.001 A  
DOCKED: ATOM     20  C   UNL     1     -38.742 -18.206   4.877 -0.11 +0.00    +0.029 A  
DOCKED: ATOM     21  C   UNL     1     -37.357 -18.359   4.837 -0.08 +0.00    +0.140 A  
DOCKED: ATOM     22  C   UNL     1     -36.725 -19.236   5.718 -0.10 +0.00    +0.029 A  
DOCKED: ATOM     23  F   UNL     1     -36.632 -17.662   3.952 -0.00 -0.00    -0.204 F  
DOCKED: ATOM     24  C   UNL     1     -37.480 -19.961   6.642 -0.10 +0.00    +0.001 A  
DOCKED: ENDBRANCH   2  18
DOCKED: TORSDOF 5
DOCKED: TER
DOCKED: ENDMDL
________________________________________________________________________________


    FINAL DOCKED STATE:
    ________________________


Run:   338 / 512
Time taken for this run:   0.002s

DOCKED: MODEL        338
DOCKED: USER    Run = 338
DOCKED: USER
DOCKED: USER    Estimated Free Energy of Binding    =  -4.28 kcal/mol  [=(1)+(2)+(3)-(4)]
DOCKED: USER
DOCKED: USER    (1) Final Intermolecular Energy     =  -5.78 kcal/mol
DOCKED: USER        vdW + Hbond + desolv Energy     =  -5.78 kcal/mol
DOCKED: USER        Electrostatic Energy            =  +0.00 kcal/mol
DOCKED: USER        Moving Ligand-Fixed Receptor    =  -5.78 kcal/mol
DOCKED: USER        Moving Ligand-Moving Receptor   =  +0.00 kcal/mol
DOCKED: USER    (2) Final Total Internal Energy     =  -1.37 kcal/mol
DOCKED: USER    (3) Torsional Free Energy           =  +1.49 kcal/mol
DOCKED: USER    (4) Unbound System's Energy         =  -1.37 kcal/mol
DOCKED: USER
DOCKED: USER
DOCKED: REMARK  5 active torsions:
DOCKED: REMARK  status: ('A' for Active; 'I' for Inactive)
DOCKED: REMARK    1  A    between atoms: C_2  and  C_19 
DOCKED: REMARK    2  A    between atoms: C_2  and  C_11 
DOCKED: REMARK    3  A    between atoms: C_19  and  C_20 
DOCKED: REMARK    4  A    between atoms: C_20  and  C_21 
DOCKED: REMARK    5  A    between atoms: C_21  and  N_22 
DOCKED: USER                              x       y       z     vdW  Elec       q    Type
DOCKED: USER                           _______ _______ _______ _____ _____    ______ ____
DOCKED: ROOT
DOCKED: ATOM      1  O   UNL     1     -40.264 -19.609   7.262 -0.05 -0.00    -0.346 OA 
DOCKED: ATOM      2  C   UNL     1     -41.698 -19.501   7.531 -0.13 +0.00    +0.130 C  
DOCKED: ATOM      3  C   UNL     1     -42.249 -20.823   7.082 -0.21 +0.00    +0.004 A  
DOCKED: ATOM      4  C   UNL     1     -41.209 -21.655   6.694 -0.27 +0.00    +0.006 A  
DOCKED: ATOM      5  C   UNL     1     -39.915 -20.957   6.869 -0.15 +0.00    +0.169 C  
DOCKED: ATOM      6  C   UNL     1     -43.565 -21.258   7.031 -0.22 -0.00    -0.001 A  
DOCKED: ATOM      7  C   UNL     1     -41.445 -22.942   6.241 -0.33 +0.00    +0.008 A  
DOCKED: ATOM      8  C   UNL     1     -43.821 -22.552   6.573 -0.23 +0.00    +0.010 A  
DOCKED: ATOM      9  C   UNL     1     -42.766 -23.389   6.180 -0.26 +0.00    +0.068 A  
DOCKED: ATOM     10  N   UNL     1     -43.275 -25.786   5.338 -2.55 -0.00    -0.191 NA 
DOCKED: ATOM     11  C   UNL     1     -43.047 -24.711   5.715 -0.36 +0.00    +0.101 C  
DOCKED: ENDROOT
DOCKED: BRANCH   2  12
DOCKED: ATOM     12  C   UNL     1     -41.892 -19.252   9.022 -0.04 +0.00    +0.038 C  
DOCKED: BRANCH  12  13
DOCKED: ATOM     13  C   UNL     1     -40.581 -19.416   9.789 -0.02 +0.00    +0.038 C  
DOCKED: BRANCH  13  14
DOCKED: ATOM     14  C   UNL     1     -39.937 -18.060  10.072 -0.00 +0.00    +0.251 C  
DOCKED: BRANCH  14  15
DOCKED: ATOM     15  N   UNL     1     -38.809 -17.839   9.175 -0.01 +0.00    +0.141 N  
DOCKED: ATOM     16  C   UNL     1     -39.119 -16.788   8.205 -0.00 +0.00    +0.285 C  
DOCKED: ATOM     17  C   UNL     1     -37.607 -17.489   9.935 -0.00 +0.00    +0.285 C  
DOCKED: ENDBRANCH  14  15
DOCKED: ENDBRANCH  13  14
DOCKED: ENDBRANCH  12  13
DOCKED: ENDBRANCH   2  12
DOCKED: BRANCH   2  18
DOCKED: ATOM     18  C   UNL     1     -42.208 -18.354   6.724 -0.17 +0.00    +0.006 A  
DOCKED: ATOM     19  C   UNL     1     -43.562 -18.023   6.761 -0.20 +0.00    +0.001 A  
DOCKED: ATOM     20  C   UNL     1     -44.037 -16.950   6.005 -0.17 +0.00    +0.029 A  
DOCKED: ATOM     21  C   UNL     1     -43.158 -16.210   5.215 -0.12 +0.00    +0.140 A  
DOCKED: ATOM     22  C   UNL     1     -41.804 -16.542   5.179 -0.14 +0.00    +0.029 A  
DOCKED: ATOM     23  F   UNL     1     -43.614 -15.180   4.491 -0.02 -0.00    -0.204 F  
DOCKED: ATOM     24  C   UNL     1     -41.328 -17.615   5.934 -0.11 +0.00    +0.001 A  
DOCKED: ENDBRANCH   2  18
DOCKED: TORSDOF 5
DOCKED: TER
DOCKED: ENDMDL
________________________________________________________________________________


    FINAL DOCKED STATE:
    ________________________


Run:   339 / 512
Time taken for this run:   0.002s

DOCKED: MODEL        339
DOCKED: USER    Run = 339
DOCKED: USER
DOCKED: USER    Estimated Free Energy of Binding    =  -3.22 kcal/mol  [=(1)+(2)+(3)-(4)]
DOCKED: USER
DOCKED: USER    (1) Final Intermolecular Energy     =  -4.71 kcal/mol
DOCKED: USER        vdW + Hbond + desolv Energy     =  -4.71 kcal/mol
DOCKED: USER        Electrostatic Energy            =  +0.00 kcal/mol
DOCKED: USER        Moving Ligand-Fixed Receptor    =  -4.71 kcal/mol
DOCKED: USER        Moving Ligand-Moving Receptor   =  +0.00 kcal/mol
DOCKED: USER    (2) Final Total Internal Energy     =  -1.07 kcal/mol
DOCKED: USER    (3) Torsional Free Energy           =  +1.49 kcal/mol
DOCKED: USER    (4) Unbound System's Energy         =  -1.07 kcal/mol
DOCKED: USER
DOCKED: USER
DOCKED: REMARK  5 active torsions:
DOCKED: REMARK  status: ('A' for Active; 'I' for Inactive)
DOCKED: REMARK    1  A    between atoms: C_2  and  C_19 
DOCKED: REMARK    2  A    between atoms: C_2  and  C_11 
DOCKED: REMARK    3  A    between atoms: C_19  and  C_20 
DOCKED: REMARK    4  A    between atoms: C_20  and  C_21 
DOCKED: REMARK    5  A    between atoms: C_21  and  N_22 
DOCKED: USER                              x       y       z     vdW  Elec       q    Type
DOCKED: USER                           _______ _______ _______ _____ _____    ______ ____
DOCKED: ROOT
DOCKED: ATOM      1  O   UNL     1     -35.618 -14.561  -1.134 -0.02 -0.00    -0.346 OA 
DOCKED: ATOM      2  C   UNL     1     -35.235 -15.071  -2.451 -0.04 +0.00    +0.130 C  
DOCKED: ATOM      3  C   UNL     1     -36.314 -14.561  -3.362 -0.12 +0.00    +0.004 A  
DOCKED: ATOM      4  C   UNL     1     -37.177 -13.740  -2.649 -0.20 +0.00    +0.006 A  
DOCKED: ATOM      5  C   UNL     1     -36.729 -13.641  -1.242 -0.02 +0.00    +0.169 C  
DOCKED: ATOM      6  C   UNL     1     -36.509 -14.795  -4.715 -0.16 -0.00    -0.001 A  
DOCKED: ATOM      7  C   UNL     1     -38.261 -13.132  -3.259 -0.34 +0.00    +0.008 A  
DOCKED: ATOM      8  C   UNL     1     -37.601 -14.193  -5.343 -0.22 +0.00    +0.010 A  
DOCKED: ATOM      9  C   UNL     1     -38.472 -13.365  -4.619 -0.31 +0.00    +0.068 A  
DOCKED: ATOM     10  N   UNL     1     -40.485 -12.259  -5.817 -2.48 -0.00    -0.191 NA 
DOCKED: ATOM     11  C   UNL     1     -39.582 -12.756  -5.279 -0.18 +0.00    +0.101 C  
DOCKED: ENDROOT
DOCKED: BRANCH   2  12
DOCKED: ATOM     12  C   UNL     1     -33.856 -14.522  -2.799 -0.02 +0.00    +0.038 C  
DOCKED: BRANCH  12  13
DOCKED: ATOM     13  C   UNL     1     -33.922 -13.038  -3.156 -0.03 +0.00    +0.038 C  
DOCKED: BRANCH  13  14
DOCKED: ATOM     14  C   UNL     1     -33.477 -12.800  -4.598 -0.00 +0.00    +0.251 C  
DOCKED: BRANCH  14  15
DOCKED: ATOM     15  N   UNL     1     -32.302 -11.938  -4.631 -0.01 +0.00    +0.141 N  
DOCKED: ATOM     16  C   UNL     1     -31.334 -12.422  -5.617 +0.00 +0.00    +0.285 C  
DOCKED: ATOM     17  C   UNL     1     -32.684 -10.557  -4.930 -0.01 +0.00    +0.285 C  
DOCKED: ENDBRANCH  14  15
DOCKED: ENDBRANCH  13  14
DOCKED: ENDBRANCH  12  13
DOCKED: ENDBRANCH   2  12
DOCKED: BRANCH   2  18
DOCKED: ATOM     18  C   UNL     1     -35.212 -16.560  -2.353 -0.04 +0.00    +0.006 A  
DOCKED: ATOM     19  C   UNL     1     -33.995 -17.240  -2.354 -0.01 +0.00    +0.001 A  
DOCKED: ATOM     20  C   UNL     1     -33.975 -18.632  -2.263 -0.01 +0.00    +0.029 A  
DOCKED: ATOM     21  C   UNL     1     -35.171 -19.342  -2.170 -0.09 +0.00    +0.140 A  
DOCKED: ATOM     22  C   UNL     1     -36.388 -18.661  -2.170 -0.18 +0.00    +0.029 A  
DOCKED: ATOM     23  F   UNL     1     -35.152 -20.678  -2.081 -0.06 -0.00    -0.204 F  
DOCKED: ATOM     24  C   UNL     1     -36.409 -17.268  -2.261 -0.14 +0.00    +0.001 A  
DOCKED: ENDBRANCH   2  18
DOCKED: TORSDOF 5
DOCKED: TER
DOCKED: ENDMDL
________________________________________________________________________________


    FINAL DOCKED STATE:
    ________________________


Run:   340 / 512
Time taken for this run:   0.002s

DOCKED: MODEL        340
DOCKED: USER    Run = 340
DOCKED: USER
DOCKED: USER    Estimated Free Energy of Binding    =  -3.77 kcal/mol  [=(1)+(2)+(3)-(4)]
DOCKED: USER
DOCKED: USER    (1) Final Intermolecular Energy     =  -5.26 kcal/mol
DOCKED: USER        vdW + Hbond + desolv Energy     =  -5.26 kcal/mol
DOCKED: USER        Electrostatic Energy            =  +0.00 kcal/mol
DOCKED: USER        Moving Ligand-Fixed Receptor    =  -5.26 kcal/mol
DOCKED: USER        Moving Ligand-Moving Receptor   =  +0.00 kcal/mol
DOCKED: USER    (2) Final Total Internal Energy     =  -1.49 kcal/mol
DOCKED: USER    (3) Torsional Free Energy           =  +1.49 kcal/mol
DOCKED: USER    (4) Unbound System's Energy         =  -1.49 kcal/mol
DOCKED: USER
DOCKED: USER
DOCKED: REMARK  5 active torsions:
DOCKED: REMARK  status: ('A' for Active; 'I' for Inactive)
DOCKED: REMARK    1  A    between atoms: C_2  and  C_19 
DOCKED: REMARK    2  A    between atoms: C_2  and  C_11 
DOCKED: REMARK    3  A    between atoms: C_19  and  C_20 
DOCKED: REMARK    4  A    between atoms: C_20  and  C_21 
DOCKED: REMARK    5  A    between atoms: C_21  and  N_22 
DOCKED: USER                              x       y       z     vdW  Elec       q    Type
DOCKED: USER                           _______ _______ _______ _____ _____    ______ ____
DOCKED: ROOT
DOCKED: ATOM      1  O   UNL     1     -33.318 -24.643  -2.074 -0.02 -0.00    -0.346 OA 
DOCKED: ATOM      2  C   UNL     1     -33.157 -23.493  -1.183 -0.08 +0.00    +0.130 C  
DOCKED: ATOM      3  C   UNL     1     -33.734 -23.964   0.120 -0.12 +0.00    +0.004 A  
DOCKED: ATOM      4  C   UNL     1     -34.092 -25.301   0.017 -0.18 +0.00    +0.006 A  
DOCKED: ATOM      5  C   UNL     1     -33.769 -25.804  -1.338 -0.09 +0.00    +0.169 C  
DOCKED: ATOM      6  C   UNL     1     -33.917 -23.268   1.306 -0.11 -0.00    -0.001 A  
DOCKED: ATOM      7  C   UNL     1     -34.645 -25.984   1.086 -0.29 +0.00    +0.008 A  
DOCKED: ATOM      8  C   UNL     1     -34.478 -23.942   2.393 -0.21 +0.00    +0.010 A  
DOCKED: ATOM      9  C   UNL     1     -34.840 -25.293   2.283 -0.31 +0.00    +0.068 A  
DOCKED: ATOM     10  N   UNL     1     -35.874 -26.514   4.321 -2.59 -0.00    -0.191 NA 
DOCKED: ATOM     11  C   UNL     1     -35.411 -25.966   3.406 -0.40 +0.00    +0.101 C  
DOCKED: ENDROOT
DOCKED: BRANCH   2  12
DOCKED: ATOM     12  C   UNL     1     -31.673 -23.159  -1.090 -0.02 +0.00    +0.038 C  
DOCKED: BRANCH  12  13
DOCKED: ATOM     13  C   UNL     1     -30.819 -24.219  -1.782 -0.01 +0.00    +0.038 C  
DOCKED: BRANCH  13  14
DOCKED: ATOM     14  C   UNL     1     -30.377 -23.751  -3.167 -0.00 +0.00    +0.251 C  
DOCKED: BRANCH  14  15
DOCKED: ATOM     15  N   UNL     1     -31.532 -23.333  -3.953 -0.01 +0.00    +0.141 N  
DOCKED: ATOM     16  C   UNL     1     -31.273 -22.051  -4.610 -0.00 +0.00    +0.285 C  
DOCKED: ATOM     17  C   UNL     1     -31.874 -24.353  -4.947 -0.02 +0.00    +0.285 C  
DOCKED: ENDBRANCH  14  15
DOCKED: ENDBRANCH  13  14
DOCKED: ENDBRANCH  12  13
DOCKED: ENDBRANCH   2  12
DOCKED: BRANCH   2  18
DOCKED: ATOM     18  C   UNL     1     -33.926 -22.364  -1.785 -0.12 +0.00    +0.006 A  
DOCKED: ATOM     19  C   UNL     1     -34.490 -22.504  -3.053 -0.09 +0.00    +0.001 A  
DOCKED: ATOM     20  C   UNL     1     -35.208 -21.447  -3.615 -0.18 +0.00    +0.029 A  
DOCKED: ATOM     21  C   UNL     1     -35.362 -20.255  -2.909 -0.15 +0.00    +0.140 A  
DOCKED: ATOM     22  C   UNL     1     -34.797 -20.116  -1.641 -0.10 +0.00    +0.029 A  
DOCKED: ATOM     23  F   UNL     1     -36.053 -19.242  -3.448 -0.06 -0.00    -0.204 F  
DOCKED: ATOM     24  C   UNL     1     -34.078 -21.172  -1.079 -0.09 +0.00    +0.001 A  
DOCKED: ENDBRANCH   2  18
DOCKED: TORSDOF 5
DOCKED: TER
DOCKED: ENDMDL
________________________________________________________________________________


    FINAL DOCKED STATE:
    ________________________


Run:   341 / 512
Time taken for this run:   0.002s

DOCKED: MODEL        341
DOCKED: USER    Run = 341
DOCKED: USER
DOCKED: USER    Estimated Free Energy of Binding    =  -5.18 kcal/mol  [=(1)+(2)+(3)-(4)]
DOCKED: USER
DOCKED: USER    (1) Final Intermolecular Energy     =  -6.67 kcal/mol
DOCKED: USER        vdW + Hbond + desolv Energy     =  -6.67 kcal/mol
DOCKED: USER        Electrostatic Energy            =  +0.00 kcal/mol
DOCKED: USER        Moving Ligand-Fixed Receptor    =  -6.67 kcal/mol
DOCKED: USER        Moving Ligand-Moving Receptor   =  +0.00 kcal/mol
DOCKED: USER    (2) Final Total Internal Energy     =  -1.27 kcal/mol
DOCKED: USER    (3) Torsional Free Energy           =  +1.49 kcal/mol
DOCKED: USER    (4) Unbound System's Energy         =  -1.27 kcal/mol
DOCKED: USER
DOCKED: USER
DOCKED: REMARK  5 active torsions:
DOCKED: REMARK  status: ('A' for Active; 'I' for Inactive)
DOCKED: REMARK    1  A    between atoms: C_2  and  C_19 
DOCKED: REMARK    2  A    between atoms: C_2  and  C_11 
DOCKED: REMARK    3  A    between atoms: C_19  and  C_20 
DOCKED: REMARK    4  A    between atoms: C_20  and  C_21 
DOCKED: REMARK    5  A    between atoms: C_21  and  N_22 
DOCKED: USER                              x       y       z     vdW  Elec       q    Type
DOCKED: USER                           _______ _______ _______ _____ _____    ______ ____
DOCKED: ROOT
DOCKED: ATOM      1  O   UNL     1     -41.857 -21.793   8.192 -0.02 -0.00    -0.346 OA 
DOCKED: ATOM      2  C   UNL     1     -41.002 -22.976   8.082 -0.18 +0.00    +0.130 C  
DOCKED: ATOM      3  C   UNL     1     -41.414 -23.597   6.779 -0.32 +0.00    +0.004 A  
DOCKED: ATOM      4  C   UNL     1     -42.343 -22.783   6.147 -0.32 +0.00    +0.006 A  
DOCKED: ATOM      5  C   UNL     1     -42.596 -21.578   6.968 -0.19 +0.00    +0.169 C  
DOCKED: ATOM      6  C   UNL     1     -40.993 -24.783   6.195 -0.40 -0.00    -0.001 A  
DOCKED: ATOM      7  C   UNL     1     -42.882 -23.125   4.918 -0.10 +0.00    +0.008 A  
DOCKED: ATOM      8  C   UNL     1     -41.531 -25.144   4.959 -0.32 +0.00    +0.010 A  
DOCKED: ATOM      9  C   UNL     1     -42.470 -24.318   4.323 -0.43 +0.00    +0.068 A  
DOCKED: ATOM     10  N   UNL     1     -43.445 -25.015   2.026 -2.30 -0.00    -0.191 NA 
DOCKED: ATOM     11  C   UNL     1     -43.008 -24.702   3.057 -0.46 +0.00    +0.101 C  
DOCKED: ENDROOT
DOCKED: BRANCH   2  12
DOCKED: ATOM     12  C   UNL     1     -39.547 -22.523   8.090 -0.22 +0.00    +0.038 C  
DOCKED: BRANCH  12  13
DOCKED: ATOM     13  C   UNL     1     -39.330 -21.362   9.059 -0.10 +0.00    +0.038 C  
DOCKED: BRANCH  13  14
DOCKED: ATOM     14  C   UNL     1     -39.037 -20.066   8.307 -0.06 +0.00    +0.251 C  
DOCKED: BRANCH  14  15
DOCKED: ATOM     15  N   UNL     1     -38.840 -20.336   6.887 -0.13 +0.00    +0.141 N  
DOCKED: ATOM     16  C   UNL     1     -39.927 -19.758   6.096 -0.11 +0.00    +0.285 C  
DOCKED: ATOM     17  C   UNL     1     -37.550 -19.811   6.437 -0.07 +0.00    +0.285 C  
DOCKED: ENDBRANCH  14  15
DOCKED: ENDBRANCH  13  14
DOCKED: ENDBRANCH  12  13
DOCKED: ENDBRANCH   2  12
DOCKED: BRANCH   2  18
DOCKED: ATOM     18  C   UNL     1     -41.303 -23.842   9.260 -0.17 +0.00    +0.006 A  
DOCKED: ATOM     19  C   UNL     1     -42.596 -24.321   9.460 -0.17 +0.00    +0.001 A  
DOCKED: ATOM     20  C   UNL     1     -42.876 -25.130  10.563 -0.10 +0.00    +0.029 A  
DOCKED: ATOM     21  C   UNL     1     -41.862 -25.459  11.462 -0.11 +0.00    +0.140 A  
DOCKED: ATOM     22  C   UNL     1     -40.568 -24.979  11.261 -0.20 +0.00    +0.029 A  
DOCKED: ATOM     23  F   UNL     1     -42.131 -26.237  12.518 -0.05 -0.00    -0.204 F  
DOCKED: ATOM     24  C   UNL     1     -40.288 -24.169  10.159 -0.13 +0.00    +0.001 A  
DOCKED: ENDBRANCH   2  18
DOCKED: TORSDOF 5
DOCKED: TER
DOCKED: ENDMDL
________________________________________________________________________________


    FINAL DOCKED STATE:
    ________________________


Run:   342 / 512
Time taken for this run:   0.002s

DOCKED: MODEL        342
DOCKED: USER    Run = 342
DOCKED: USER
DOCKED: USER    Estimated Free Energy of Binding    =  -4.16 kcal/mol  [=(1)+(2)+(3)-(4)]
DOCKED: USER
DOCKED: USER    (1) Final Intermolecular Energy     =  -5.65 kcal/mol
DOCKED: USER        vdW + Hbond + desolv Energy     =  -5.65 kcal/mol
DOCKED: USER        Electrostatic Energy            =  +0.00 kcal/mol
DOCKED: USER        Moving Ligand-Fixed Receptor    =  -5.65 kcal/mol
DOCKED: USER        Moving Ligand-Moving Receptor   =  +0.00 kcal/mol
DOCKED: USER    (2) Final Total Internal Energy     =  -1.36 kcal/mol
DOCKED: USER    (3) Torsional Free Energy           =  +1.49 kcal/mol
DOCKED: USER    (4) Unbound System's Energy         =  -1.36 kcal/mol
DOCKED: USER
DOCKED: USER
DOCKED: REMARK  5 active torsions:
DOCKED: REMARK  status: ('A' for Active; 'I' for Inactive)
DOCKED: REMARK    1  A    between atoms: C_2  and  C_19 
DOCKED: REMARK    2  A    between atoms: C_2  and  C_11 
DOCKED: REMARK    3  A    between atoms: C_19  and  C_20 
DOCKED: REMARK    4  A    between atoms: C_20  and  C_21 
DOCKED: REMARK    5  A    between atoms: C_21  and  N_22 
DOCKED: USER                              x       y       z     vdW  Elec       q    Type
DOCKED: USER                           _______ _______ _______ _____ _____    ______ ____
DOCKED: ROOT
DOCKED: ATOM      1  O   UNL     1     -33.402 -23.285  -1.695 -0.01 -0.00    -0.346 OA 
DOCKED: ATOM      2  C   UNL     1     -33.649 -22.246  -0.694 -0.08 +0.00    +0.130 C  
DOCKED: ATOM      3  C   UNL     1     -34.164 -23.007   0.493 -0.12 +0.00    +0.004 A  
DOCKED: ATOM      4  C   UNL     1     -34.110 -24.369   0.234 -0.15 +0.00    +0.006 A  
DOCKED: ATOM      5  C   UNL     1     -33.553 -24.602  -1.117 -0.09 +0.00    +0.169 C  
DOCKED: ATOM      6  C   UNL     1     -34.631 -22.532   1.710 -0.14 -0.00    -0.001 A  
DOCKED: ATOM      7  C   UNL     1     -34.523 -25.298   1.174 -0.26 +0.00    +0.008 A  
DOCKED: ATOM      8  C   UNL     1     -35.055 -23.456   2.666 -0.25 +0.00    +0.010 A  
DOCKED: ATOM      9  C   UNL     1     -35.001 -24.832   2.400 -0.30 +0.00    +0.068 A  
DOCKED: ATOM     10  N   UNL     1     -35.791 -26.521   4.199 -2.66 -0.00    -0.191 NA 
DOCKED: ATOM     11  C   UNL     1     -35.437 -25.763   3.391 -0.41 +0.00    +0.101 C  
DOCKED: ENDROOT
DOCKED: BRANCH   2  12
DOCKED: ATOM     12  C   UNL     1     -32.337 -21.524  -0.413 -0.02 +0.00    +0.038 C  
DOCKED: BRANCH  12  13
DOCKED: ATOM     13  C   UNL     1     -31.210 -22.052  -1.298 -0.01 +0.00    +0.038 C  
DOCKED: BRANCH  13  14
DOCKED: ATOM     14  C   UNL     1     -30.988 -21.145  -2.506 +0.00 +0.00    +0.251 C  
DOCKED: BRANCH  14  15
DOCKED: ATOM     15  N   UNL     1     -31.853 -21.547  -3.608 -0.01 +0.00    +0.141 N  
DOCKED: ATOM     16  C   UNL     1     -31.620 -20.703  -4.782 +0.00 +0.00    +0.285 C  
DOCKED: ATOM     17  C   UNL     1     -31.639 -22.955  -3.945 -0.01 +0.00    +0.285 C  
DOCKED: ENDBRANCH  14  15
DOCKED: ENDBRANCH  13  14
DOCKED: ENDBRANCH  12  13
DOCKED: ENDBRANCH   2  12
DOCKED: BRANCH   2  18
DOCKED: ATOM     18  C   UNL     1     -34.663 -21.316  -1.273 -0.13 +0.00    +0.006 A  
DOCKED: ATOM     19  C   UNL     1     -35.397 -20.477  -0.435 -0.14 +0.00    +0.001 A  
DOCKED: ATOM     20  C   UNL     1     -36.345 -19.608  -0.977 -0.18 +0.00    +0.029 A  
DOCKED: ATOM     21  C   UNL     1     -36.556 -19.578  -2.354 -0.19 +0.00    +0.140 A  
DOCKED: ATOM     22  C   UNL     1     -35.822 -20.417  -3.192 -0.22 +0.00    +0.029 A  
DOCKED: ATOM     23  F   UNL     1     -37.465 -18.743  -2.875 -0.12 -0.00    -0.204 F  
DOCKED: ATOM     24  C   UNL     1     -34.874 -21.288  -2.651 -0.16 +0.00    +0.001 A  
DOCKED: ENDBRANCH   2  18
DOCKED: TORSDOF 5
DOCKED: TER
DOCKED: ENDMDL
________________________________________________________________________________


    FINAL DOCKED STATE:
    ________________________


Run:   343 / 512
Time taken for this run:   0.002s

DOCKED: MODEL        343
DOCKED: USER    Run = 343
DOCKED: USER
DOCKED: USER    Estimated Free Energy of Binding    =  -5.64 kcal/mol  [=(1)+(2)+(3)-(4)]
DOCKED: USER
DOCKED: USER    (1) Final Intermolecular Energy     =  -7.13 kcal/mol
DOCKED: USER        vdW + Hbond + desolv Energy     =  -7.13 kcal/mol
DOCKED: USER        Electrostatic Energy            =  +0.00 kcal/mol
DOCKED: USER        Moving Ligand-Fixed Receptor    =  -7.13 kcal/mol
DOCKED: USER        Moving Ligand-Moving Receptor   =  +0.00 kcal/mol
DOCKED: USER    (2) Final Total Internal Energy     =  -1.38 kcal/mol
DOCKED: USER    (3) Torsional Free Energy           =  +1.49 kcal/mol
DOCKED: USER    (4) Unbound System's Energy         =  -1.38 kcal/mol
DOCKED: USER
DOCKED: USER
DOCKED: REMARK  5 active torsions:
DOCKED: REMARK  status: ('A' for Active; 'I' for Inactive)
DOCKED: REMARK    1  A    between atoms: C_2  and  C_19 
DOCKED: REMARK    2  A    between atoms: C_2  and  C_11 
DOCKED: REMARK    3  A    between atoms: C_19  and  C_20 
DOCKED: REMARK    4  A    between atoms: C_20  and  C_21 
DOCKED: REMARK    5  A    between atoms: C_21  and  N_22 
DOCKED: USER                              x       y       z     vdW  Elec       q    Type
DOCKED: USER                           _______ _______ _______ _____ _____    ______ ____
DOCKED: ROOT
DOCKED: ATOM      1  O   UNL     1     -41.253 -23.671   8.009 -0.06 -0.00    -0.346 OA 
DOCKED: ATOM      2  C   UNL     1     -42.629 -24.168   8.035 -0.18 +0.00    +0.130 C  
DOCKED: ATOM      3  C   UNL     1     -42.997 -24.287   6.584 -0.28 +0.00    +0.004 A  
DOCKED: ATOM      4  C   UNL     1     -41.893 -23.989   5.797 -0.39 +0.00    +0.006 A  
DOCKED: ATOM      5  C   UNL     1     -40.732 -23.671   6.659 -0.25 +0.00    +0.169 C  
DOCKED: ATOM      6  C   UNL     1     -44.207 -24.640   6.007 -0.28 -0.00    -0.001 A  
DOCKED: ATOM      7  C   UNL     1     -41.961 -24.030   4.415 -0.28 +0.00    +0.008 A  
DOCKED: ATOM      8  C   UNL     1     -44.294 -24.681   4.615 -0.33 +0.00    +0.010 A  
DOCKED: ATOM      9  C   UNL     1     -43.176 -24.379   3.823 -0.40 +0.00    +0.068 A  
DOCKED: ATOM     10  N   UNL     1     -43.369 -24.470   1.241 -3.13 -0.00    -0.191 NA 
DOCKED: ATOM     11  C   UNL     1     -43.283 -24.428   2.399 -0.28 +0.00    +0.101 C  
DOCKED: ENDROOT
DOCKED: BRANCH   2  12
DOCKED: ATOM     12  C   UNL     1     -42.644 -25.508   8.762 -0.26 +0.00    +0.038 C  
DOCKED: BRANCH  12  13
DOCKED: ATOM     13  C   UNL     1     -41.337 -25.748   9.515 -0.22 +0.00    +0.038 C  
DOCKED: BRANCH  13  14
DOCKED: ATOM     14  C   UNL     1     -41.378 -25.113  10.904 -0.16 +0.00    +0.251 C  
DOCKED: BRANCH  14  15
DOCKED: ATOM     15  N   UNL     1     -40.151 -24.368  11.158 -0.13 +0.00    +0.141 N  
DOCKED: ATOM     16  C   UNL     1     -40.441 -22.948  11.357 -0.03 +0.00    +0.285 C  
DOCKED: ATOM     17  C   UNL     1     -39.450 -24.911  12.323 -0.11 +0.00    +0.285 C  
DOCKED: ENDBRANCH  14  15
DOCKED: ENDBRANCH  13  14
DOCKED: ENDBRANCH  12  13
DOCKED: ENDBRANCH   2  12
DOCKED: BRANCH   2  18
DOCKED: ATOM     18  C   UNL     1     -43.446 -23.153   8.761 -0.10 +0.00    +0.006 A  
DOCKED: ATOM     19  C   UNL     1     -42.880 -21.930   9.120 -0.06 +0.00    +0.001 A  
DOCKED: ATOM     20  C   UNL     1     -43.646 -20.981   9.799 -0.03 +0.00    +0.029 A  
DOCKED: ATOM     21  C   UNL     1     -44.975 -21.256  10.118 -0.01 +0.00    +0.140 A  
DOCKED: ATOM     22  C   UNL     1     -45.540 -22.479   9.759 -0.06 +0.00    +0.029 A  
DOCKED: ATOM     23  F   UNL     1     -45.710 -20.345  10.769 +0.01 -0.00    -0.204 F  
DOCKED: ATOM     24  C   UNL     1     -44.775 -23.429   9.080 -0.10 +0.00    +0.001 A  
DOCKED: ENDBRANCH   2  18
DOCKED: TORSDOF 5
DOCKED: TER
DOCKED: ENDMDL
________________________________________________________________________________


    FINAL DOCKED STATE:
    ________________________


Run:   344 / 512
Time taken for this run:   0.002s

DOCKED: MODEL        344
DOCKED: USER    Run = 344
DOCKED: USER
DOCKED: USER    Estimated Free Energy of Binding    =  -4.75 kcal/mol  [=(1)+(2)+(3)-(4)]
DOCKED: USER
DOCKED: USER    (1) Final Intermolecular Energy     =  -6.24 kcal/mol
DOCKED: USER        vdW + Hbond + desolv Energy     =  -6.24 kcal/mol
DOCKED: USER        Electrostatic Energy            =  +0.00 kcal/mol
DOCKED: USER        Moving Ligand-Fixed Receptor    =  -6.24 kcal/mol
DOCKED: USER        Moving Ligand-Moving Receptor   =  +0.00 kcal/mol
DOCKED: USER    (2) Final Total Internal Energy     =  -1.53 kcal/mol
DOCKED: USER    (3) Torsional Free Energy           =  +1.49 kcal/mol
DOCKED: USER    (4) Unbound System's Energy         =  -1.53 kcal/mol
DOCKED: USER
DOCKED: USER
DOCKED: REMARK  5 active torsions:
DOCKED: REMARK  status: ('A' for Active; 'I' for Inactive)
DOCKED: REMARK    1  A    between atoms: C_2  and  C_19 
DOCKED: REMARK    2  A    between atoms: C_2  and  C_11 
DOCKED: REMARK    3  A    between atoms: C_19  and  C_20 
DOCKED: REMARK    4  A    between atoms: C_20  and  C_21 
DOCKED: REMARK    5  A    between atoms: C_21  and  N_22 
DOCKED: USER                              x       y       z     vdW  Elec       q    Type
DOCKED: USER                           _______ _______ _______ _____ _____    ______ ____
DOCKED: ROOT
DOCKED: ATOM      1  O   UNL     1     -40.824 -24.491   8.903 -0.09 -0.00    -0.346 OA 
DOCKED: ATOM      2  C   UNL     1     -40.845 -23.127   8.373 -0.17 +0.00    +0.130 C  
DOCKED: ATOM      3  C   UNL     1     -41.350 -23.295   6.969 -0.30 +0.00    +0.004 A  
DOCKED: ATOM      4  C   UNL     1     -41.693 -24.622   6.752 -0.36 +0.00    +0.006 A  
DOCKED: ATOM      5  C   UNL     1     -41.455 -25.411   7.981 -0.19 +0.00    +0.169 C  
DOCKED: ATOM      6  C   UNL     1     -41.505 -22.347   5.968 -0.31 -0.00    -0.001 A  
DOCKED: ATOM      7  C   UNL     1     -42.196 -25.046   5.533 -0.42 +0.00    +0.008 A  
DOCKED: ATOM      8  C   UNL     1     -42.006 -22.760   4.732 -0.08 +0.00    +0.010 A  
DOCKED: ATOM      9  C   UNL     1     -42.350 -24.103   4.517 -0.40 +0.00    +0.068 A  
DOCKED: ATOM     10  N   UNL     1     -43.283 -24.835   2.213 -2.19 -0.00    -0.191 NA 
DOCKED: ATOM     11  C   UNL     1     -42.864 -24.507   3.246 -0.51 +0.00    +0.101 C  
DOCKED: ENDROOT
DOCKED: BRANCH   2  12
DOCKED: ATOM     12  C   UNL     1     -41.772 -22.286   9.241 -0.09 +0.00    +0.038 C  
DOCKED: BRANCH  12  13
DOCKED: ATOM     13  C   UNL     1     -42.354 -23.106  10.391 -0.08 +0.00    +0.038 C  
DOCKED: BRANCH  13  14
DOCKED: ATOM     14  C   UNL     1     -41.474 -23.008  11.636 -0.03 +0.00    +0.251 C  
DOCKED: BRANCH  14  15
DOCKED: ATOM     15  N   UNL     1     -40.437 -24.032  11.605 -0.09 +0.00    +0.141 N  
DOCKED: ATOM     16  C   UNL     1     -39.127 -23.448  11.896 -0.05 +0.00    +0.285 C  
DOCKED: ATOM     17  C   UNL     1     -40.739 -25.101  12.559 -0.11 +0.00    +0.285 C  
DOCKED: ENDBRANCH  14  15
DOCKED: ENDBRANCH  13  14
DOCKED: ENDBRANCH  12  13
DOCKED: ENDBRANCH   2  12
DOCKED: BRANCH   2  18
DOCKED: ATOM     18  C   UNL     1     -39.444 -22.616   8.429 -0.19 +0.00    +0.006 A  
DOCKED: ATOM     19  C   UNL     1     -39.206 -21.252   8.592 -0.12 +0.00    +0.001 A  
DOCKED: ATOM     20  C   UNL     1     -37.896 -20.775   8.644 -0.09 +0.00    +0.029 A  
DOCKED: ATOM     21  C   UNL     1     -36.826 -21.662   8.533 -0.09 +0.00    +0.140 A  
DOCKED: ATOM     22  C   UNL     1     -37.065 -23.026   8.371 -0.17 +0.00    +0.029 A  
DOCKED: ATOM     23  F   UNL     1     -35.569 -21.204   8.585 -0.01 -0.00    -0.204 F  
DOCKED: ATOM     24  C   UNL     1     -38.375 -23.504   8.318 -0.10 +0.00    +0.001 A  
DOCKED: ENDBRANCH   2  18
DOCKED: TORSDOF 5
DOCKED: TER
DOCKED: ENDMDL
________________________________________________________________________________


    FINAL DOCKED STATE:
    ________________________


Run:   345 / 512
Time taken for this run:   0.002s

DOCKED: MODEL        345
DOCKED: USER    Run = 345
DOCKED: USER
DOCKED: USER    Estimated Free Energy of Binding    =  -3.99 kcal/mol  [=(1)+(2)+(3)-(4)]
DOCKED: USER
DOCKED: USER    (1) Final Intermolecular Energy     =  -5.48 kcal/mol
DOCKED: USER        vdW + Hbond + desolv Energy     =  -5.48 kcal/mol
DOCKED: USER        Electrostatic Energy            =  +0.00 kcal/mol
DOCKED: USER        Moving Ligand-Fixed Receptor    =  -5.48 kcal/mol
DOCKED: USER        Moving Ligand-Moving Receptor   =  +0.00 kcal/mol
DOCKED: USER    (2) Final Total Internal Energy     =  -1.42 kcal/mol
DOCKED: USER    (3) Torsional Free Energy           =  +1.49 kcal/mol
DOCKED: USER    (4) Unbound System's Energy         =  -1.42 kcal/mol
DOCKED: USER
DOCKED: USER
DOCKED: REMARK  5 active torsions:
DOCKED: REMARK  status: ('A' for Active; 'I' for Inactive)
DOCKED: REMARK    1  A    between atoms: C_2  and  C_19 
DOCKED: REMARK    2  A    between atoms: C_2  and  C_11 
DOCKED: REMARK    3  A    between atoms: C_19  and  C_20 
DOCKED: REMARK    4  A    between atoms: C_20  and  C_21 
DOCKED: REMARK    5  A    between atoms: C_21  and  N_22 
DOCKED: USER                              x       y       z     vdW  Elec       q    Type
DOCKED: USER                           _______ _______ _______ _____ _____    ______ ____
DOCKED: ROOT
DOCKED: ATOM      1  O   UNL     1     -38.899 -21.458   8.399 -0.07 -0.00    -0.346 OA 
DOCKED: ATOM      2  C   UNL     1     -40.159 -20.777   8.098 -0.11 +0.00    +0.130 C  
DOCKED: ATOM      3  C   UNL     1     -40.966 -21.817   7.377 -0.22 +0.00    +0.004 A  
DOCKED: ATOM      4  C   UNL     1     -40.275 -23.020   7.366 -0.25 +0.00    +0.006 A  
DOCKED: ATOM      5  C   UNL     1     -38.986 -22.866   8.078 -0.13 +0.00    +0.169 C  
DOCKED: ATOM      6  C   UNL     1     -42.218 -21.711   6.789 -0.25 -0.00    -0.001 A  
DOCKED: ATOM      7  C   UNL     1     -40.804 -24.150   6.766 -0.35 +0.00    +0.008 A  
DOCKED: ATOM      8  C   UNL     1     -42.764 -22.840   6.177 -0.29 +0.00    +0.010 A  
DOCKED: ATOM      9  C   UNL     1     -42.060 -24.054   6.166 -0.31 +0.00    +0.068 A  
DOCKED: ATOM     10  N   UNL     1     -43.104 -26.133   5.025 -2.40 -0.00    -0.191 NA 
DOCKED: ATOM     11  C   UNL     1     -42.635 -25.200   5.536 -0.35 +0.00    +0.101 C  
DOCKED: ENDROOT
DOCKED: BRANCH   2  12
DOCKED: ATOM     12  C   UNL     1     -40.795 -20.335   9.410 -0.04 +0.00    +0.038 C  
DOCKED: BRANCH  12  13
DOCKED: ATOM     13  C   UNL     1     -40.782 -21.461  10.442 -0.04 +0.00    +0.038 C  
DOCKED: BRANCH  13  14
DOCKED: ATOM     14  C   UNL     1     -39.564 -21.353  11.357 -0.01 +0.00    +0.251 C  
DOCKED: BRANCH  14  15
DOCKED: ATOM     15  N   UNL     1     -38.756 -20.196  10.992 -0.01 +0.00    +0.141 N  
DOCKED: ATOM     16  C   UNL     1     -38.936 -19.115  11.963 -0.00 +0.00    +0.285 C  
DOCKED: ATOM     17  C   UNL     1     -37.342 -20.562  10.897 -0.01 +0.00    +0.285 C  
DOCKED: ENDBRANCH  14  15
DOCKED: ENDBRANCH  13  14
DOCKED: ENDBRANCH  12  13
DOCKED: ENDBRANCH   2  12
DOCKED: BRANCH   2  18
DOCKED: ATOM     18  C   UNL     1     -39.825 -19.603   7.239 -0.14 +0.00    +0.006 A  
DOCKED: ATOM     19  C   UNL     1     -39.084 -19.781   6.072 -0.15 +0.00    +0.001 A  
DOCKED: ATOM     20  C   UNL     1     -38.772 -18.682   5.270 -0.13 +0.00    +0.029 A  
DOCKED: ATOM     21  C   UNL     1     -39.202 -17.408   5.636 -0.07 +0.00    +0.140 A  
DOCKED: ATOM     22  C   UNL     1     -39.943 -17.230   6.804 -0.06 +0.00    +0.029 A  
DOCKED: ATOM     23  F   UNL     1     -38.904 -16.353   4.866 -0.01 -0.00    -0.204 F  
DOCKED: ATOM     24  C   UNL     1     -40.255 -18.328   7.607 -0.07 +0.00    +0.001 A  
DOCKED: ENDBRANCH   2  18
DOCKED: TORSDOF 5
DOCKED: TER
DOCKED: ENDMDL
________________________________________________________________________________


    FINAL DOCKED STATE:
    ________________________


Run:   346 / 512
Time taken for this run:   0.002s

DOCKED: MODEL        346
DOCKED: USER    Run = 346
DOCKED: USER
DOCKED: USER    Estimated Free Energy of Binding    =  -4.49 kcal/mol  [=(1)+(2)+(3)-(4)]
DOCKED: USER
DOCKED: USER    (1) Final Intermolecular Energy     =  -5.98 kcal/mol
DOCKED: USER        vdW + Hbond + desolv Energy     =  -5.98 kcal/mol
DOCKED: USER        Electrostatic Energy            =  +0.00 kcal/mol
DOCKED: USER        Moving Ligand-Fixed Receptor    =  -5.98 kcal/mol
DOCKED: USER        Moving Ligand-Moving Receptor   =  +0.00 kcal/mol
DOCKED: USER    (2) Final Total Internal Energy     =  -1.27 kcal/mol
DOCKED: USER    (3) Torsional Free Energy           =  +1.49 kcal/mol
DOCKED: USER    (4) Unbound System's Energy         =  -1.27 kcal/mol
DOCKED: USER
DOCKED: USER
DOCKED: REMARK  5 active torsions:
DOCKED: REMARK  status: ('A' for Active; 'I' for Inactive)
DOCKED: REMARK    1  A    between atoms: C_2  and  C_19 
DOCKED: REMARK    2  A    between atoms: C_2  and  C_11 
DOCKED: REMARK    3  A    between atoms: C_19  and  C_20 
DOCKED: REMARK    4  A    between atoms: C_20  and  C_21 
DOCKED: REMARK    5  A    between atoms: C_21  and  N_22 
DOCKED: USER                              x       y       z     vdW  Elec       q    Type
DOCKED: USER                           _______ _______ _______ _____ _____    ______ ____
DOCKED: ROOT
DOCKED: ATOM      1  O   UNL     1     -40.522 -19.987   7.392 -0.06 -0.00    -0.346 OA 
DOCKED: ATOM      2  C   UNL     1     -41.939 -20.006   7.757 -0.12 +0.00    +0.130 C  
DOCKED: ATOM      3  C   UNL     1     -42.436 -21.311   7.206 -0.21 +0.00    +0.004 A  
DOCKED: ATOM      4  C   UNL     1     -41.374 -22.025   6.670 -0.28 +0.00    +0.006 A  
DOCKED: ATOM      5  C   UNL     1     -40.118 -21.261   6.838 -0.14 +0.00    +0.169 C  
DOCKED: ATOM      6  C   UNL     1     -43.722 -21.828   7.190 -0.20 -0.00    -0.001 A  
DOCKED: ATOM      7  C   UNL     1     -41.560 -23.273   6.099 -0.35 +0.00    +0.008 A  
DOCKED: ATOM      8  C   UNL     1     -43.928 -23.083   6.614 -0.23 +0.00    +0.010 A  
DOCKED: ATOM      9  C   UNL     1     -42.852 -23.802   6.071 -0.27 +0.00    +0.068 A  
DOCKED: ATOM     10  N   UNL     1     -43.266 -26.131   5.014 -2.38 -0.00    -0.191 NA 
DOCKED: ATOM     11  C   UNL     1     -43.080 -25.086   5.488 -0.37 +0.00    +0.101 C  
DOCKED: ENDROOT
DOCKED: BRANCH   2  12
DOCKED: ATOM     12  C   UNL     1     -42.046 -19.924   9.276 -0.04 +0.00    +0.038 C  
DOCKED: BRANCH  12  13
DOCKED: ATOM     13  C   UNL     1     -42.443 -21.270   9.879 -0.04 +0.00    +0.038 C  
DOCKED: BRANCH  13  14
DOCKED: ATOM     14  C   UNL     1     -41.274 -21.899  10.634 -0.02 +0.00    +0.251 C  
DOCKED: BRANCH  14  15
DOCKED: ATOM     15  N   UNL     1     -40.794 -23.082   9.931 -0.07 +0.00    +0.141 N  
DOCKED: ATOM     16  C   UNL     1     -39.363 -22.966   9.642 -0.08 +0.00    +0.285 C  
DOCKED: ATOM     17  C   UNL     1     -41.056 -24.290  10.715 -0.10 +0.00    +0.285 C  
DOCKED: ENDBRANCH  14  15
DOCKED: ENDBRANCH  13  14
DOCKED: ENDBRANCH  12  13
DOCKED: ENDBRANCH   2  12
DOCKED: BRANCH   2  18
DOCKED: ATOM     18  C   UNL     1     -42.572 -18.821   7.108 -0.17 +0.00    +0.006 A  
DOCKED: ATOM     19  C   UNL     1     -41.774 -17.817   6.560 -0.15 +0.00    +0.001 A  
DOCKED: ATOM     20  C   UNL     1     -42.368 -16.710   5.954 -0.14 +0.00    +0.029 A  
DOCKED: ATOM     21  C   UNL     1     -43.757 -16.607   5.895 -0.13 +0.00    +0.140 A  
DOCKED: ATOM     22  C   UNL     1     -44.555 -17.612   6.444 -0.19 +0.00    +0.029 A  
DOCKED: ATOM     23  F   UNL     1     -44.327 -15.545   5.311 -0.02 -0.00    -0.204 F  
DOCKED: ATOM     24  C   UNL     1     -43.962 -18.720   7.051 -0.21 +0.00    +0.001 A  
DOCKED: ENDBRANCH   2  18
DOCKED: TORSDOF 5
DOCKED: TER
DOCKED: ENDMDL
________________________________________________________________________________


    FINAL DOCKED STATE:
    ________________________


Run:   347 / 512
Time taken for this run:   0.002s

DOCKED: MODEL        347
DOCKED: USER    Run = 347
DOCKED: USER
DOCKED: USER    Estimated Free Energy of Binding    =  -3.83 kcal/mol  [=(1)+(2)+(3)-(4)]
DOCKED: USER
DOCKED: USER    (1) Final Intermolecular Energy     =  -5.32 kcal/mol
DOCKED: USER        vdW + Hbond + desolv Energy     =  -5.32 kcal/mol
DOCKED: USER        Electrostatic Energy            =  +0.00 kcal/mol
DOCKED: USER        Moving Ligand-Fixed Receptor    =  -5.32 kcal/mol
DOCKED: USER        Moving Ligand-Moving Receptor   =  +0.00 kcal/mol
DOCKED: USER    (2) Final Total Internal Energy     =  -1.37 kcal/mol
DOCKED: USER    (3) Torsional Free Energy           =  +1.49 kcal/mol
DOCKED: USER    (4) Unbound System's Energy         =  -1.37 kcal/mol
DOCKED: USER
DOCKED: USER
DOCKED: REMARK  5 active torsions:
DOCKED: REMARK  status: ('A' for Active; 'I' for Inactive)
DOCKED: REMARK    1  A    between atoms: C_2  and  C_19 
DOCKED: REMARK    2  A    between atoms: C_2  and  C_11 
DOCKED: REMARK    3  A    between atoms: C_19  and  C_20 
DOCKED: REMARK    4  A    between atoms: C_20  and  C_21 
DOCKED: REMARK    5  A    between atoms: C_21  and  N_22 
DOCKED: USER                              x       y       z     vdW  Elec       q    Type
DOCKED: USER                           _______ _______ _______ _____ _____    ______ ____
DOCKED: ROOT
DOCKED: ATOM      1  O   UNL     1     -40.117 -19.728   7.298 -0.05 -0.00    -0.346 OA 
DOCKED: ATOM      2  C   UNL     1     -39.424 -20.821   7.982 -0.12 +0.00    +0.130 C  
DOCKED: ATOM      3  C   UNL     1     -40.164 -22.049   7.537 -0.20 +0.00    +0.004 A  
DOCKED: ATOM      4  C   UNL     1     -41.123 -21.702   6.596 -0.27 +0.00    +0.006 A  
DOCKED: ATOM      5  C   UNL     1     -41.077 -20.244   6.347 -0.11 +0.00    +0.169 C  
DOCKED: ATOM      6  C   UNL     1     -39.994 -23.370   7.925 -0.26 -0.00    -0.001 A  
DOCKED: ATOM      7  C   UNL     1     -41.944 -22.655   6.017 -0.33 +0.00    +0.008 A  
DOCKED: ATOM      8  C   UNL     1     -40.817 -24.343   7.354 -0.34 +0.00    +0.010 A  
DOCKED: ATOM      9  C   UNL     1     -41.786 -23.987   6.404 -0.31 +0.00    +0.068 A  
DOCKED: ATOM     10  N   UNL     1     -43.293 -25.817   5.360 -2.55 -0.00    -0.191 NA 
DOCKED: ATOM     11  C   UNL     1     -42.618 -24.996   5.829 -0.36 +0.00    +0.101 C  
DOCKED: ENDROOT
DOCKED: BRANCH   2  12
DOCKED: ATOM     12  C   UNL     1     -37.965 -20.816   7.544 -0.09 +0.00    +0.038 C  
DOCKED: BRANCH  12  13
DOCKED: ATOM     13  C   UNL     1     -37.642 -19.589   6.693 -0.12 +0.00    +0.038 C  
DOCKED: BRANCH  13  14
DOCKED: ATOM     14  C   UNL     1     -37.266 -18.396   7.570 -0.02 +0.00    +0.251 C  
DOCKED: BRANCH  14  15
DOCKED: ATOM     15  N   UNL     1     -38.103 -17.246   7.247 -0.02 +0.00    +0.141 N  
DOCKED: ATOM     16  C   UNL     1     -37.451 -16.002   7.660 -0.00 +0.00    +0.285 C  
DOCKED: ATOM     17  C   UNL     1     -38.402 -17.212   5.815 -0.04 +0.00    +0.285 C  
DOCKED: ENDBRANCH  14  15
DOCKED: ENDBRANCH  13  14
DOCKED: ENDBRANCH  12  13
DOCKED: ENDBRANCH   2  12
DOCKED: BRANCH   2  18
DOCKED: ATOM     18  C   UNL     1     -39.548 -20.567   9.447 -0.04 +0.00    +0.006 A  
DOCKED: ATOM     19  C   UNL     1     -38.662 -21.173  10.336 -0.04 +0.00    +0.001 A  
DOCKED: ATOM     20  C   UNL     1     -38.778 -20.934  11.706 -0.01 +0.00    +0.029 A  
DOCKED: ATOM     21  C   UNL     1     -39.780 -20.090  12.184 -0.00 +0.00    +0.140 A  
DOCKED: ATOM     22  C   UNL     1     -40.666 -19.484  11.294 -0.00 +0.00    +0.029 A  
DOCKED: ATOM     23  F   UNL     1     -39.890 -19.860  13.499 +0.00 -0.00    -0.204 F  
DOCKED: ATOM     24  C   UNL     1     -40.550 -19.722   9.923 -0.02 +0.00    +0.001 A  
DOCKED: ENDBRANCH   2  18
DOCKED: TORSDOF 5
DOCKED: TER
DOCKED: ENDMDL
________________________________________________________________________________


    FINAL DOCKED STATE:
    ________________________


Run:   348 / 512
Time taken for this run:   0.002s

DOCKED: MODEL        348
DOCKED: USER    Run = 348
DOCKED: USER
DOCKED: USER    Estimated Free Energy of Binding    =  -4.33 kcal/mol  [=(1)+(2)+(3)-(4)]
DOCKED: USER
DOCKED: USER    (1) Final Intermolecular Energy     =  -5.82 kcal/mol
DOCKED: USER        vdW + Hbond + desolv Energy     =  -5.82 kcal/mol
DOCKED: USER        Electrostatic Energy            =  +0.00 kcal/mol
DOCKED: USER        Moving Ligand-Fixed Receptor    =  -5.82 kcal/mol
DOCKED: USER        Moving Ligand-Moving Receptor   =  +0.00 kcal/mol
DOCKED: USER    (2) Final Total Internal Energy     =  -1.36 kcal/mol
DOCKED: USER    (3) Torsional Free Energy           =  +1.49 kcal/mol
DOCKED: USER    (4) Unbound System's Energy         =  -1.36 kcal/mol
DOCKED: USER
DOCKED: USER
DOCKED: REMARK  5 active torsions:
DOCKED: REMARK  status: ('A' for Active; 'I' for Inactive)
DOCKED: REMARK    1  A    between atoms: C_2  and  C_19 
DOCKED: REMARK    2  A    between atoms: C_2  and  C_11 
DOCKED: REMARK    3  A    between atoms: C_19  and  C_20 
DOCKED: REMARK    4  A    between atoms: C_20  and  C_21 
DOCKED: REMARK    5  A    between atoms: C_21  and  N_22 
DOCKED: USER                              x       y       z     vdW  Elec       q    Type
DOCKED: USER                           _______ _______ _______ _____ _____    ______ ____
DOCKED: ROOT
DOCKED: ATOM      1  O   UNL     1     -42.699 -24.532   8.757 -0.08 -0.00    -0.346 OA 
DOCKED: ATOM      2  C   UNL     1     -44.038 -24.070   8.388 -0.14 +0.00    +0.130 C  
DOCKED: ATOM      3  C   UNL     1     -44.024 -24.092   6.886 -0.24 +0.00    +0.004 A  
DOCKED: ATOM      4  C   UNL     1     -42.823 -24.625   6.438 -0.31 +0.00    +0.006 A  
DOCKED: ATOM      5  C   UNL     1     -41.977 -24.999   7.594 -0.19 +0.00    +0.169 C  
DOCKED: ATOM      6  C   UNL     1     -45.000 -23.684   5.989 -0.29 -0.00    -0.001 A  
DOCKED: ATOM      7  C   UNL     1     -42.556 -24.763   5.087 -0.46 +0.00    +0.008 A  
DOCKED: ATOM      8  C   UNL     1     -44.744 -23.813   4.623 -0.10 +0.00    +0.010 A  
DOCKED: ATOM      9  C   UNL     1     -43.528 -24.351   4.175 -0.33 +0.00    +0.068 A  
DOCKED: ATOM     10  N   UNL     1     -43.087 -24.581   1.632 -2.56 -0.00    -0.191 NA 
DOCKED: ATOM     11  C   UNL     1     -43.285 -24.477   2.772 -0.28 +0.00    +0.101 C  
DOCKED: ENDROOT
DOCKED: BRANCH   2  12
DOCKED: ATOM     12  C   UNL     1     -45.062 -25.027   8.986 -0.22 +0.00    +0.038 C  
DOCKED: BRANCH  12  13
DOCKED: ATOM     13  C   UNL     1     -44.568 -25.617  10.305 -0.10 +0.00    +0.038 C  
DOCKED: BRANCH  13  14
DOCKED: ATOM     14  C   UNL     1     -45.115 -24.832  11.496 -0.06 +0.00    +0.251 C  
DOCKED: BRANCH  14  15
DOCKED: ATOM     15  N   UNL     1     -44.043 -24.526  12.437 -0.07 +0.00    +0.141 N  
DOCKED: ATOM     16  C   UNL     1     -44.165 -23.152  12.928 -0.00 +0.00    +0.285 C  
DOCKED: ATOM     17  C   UNL     1     -44.055 -25.468  13.557 -0.10 +0.00    +0.285 C  
DOCKED: ENDBRANCH  14  15
DOCKED: ENDBRANCH  13  14
DOCKED: ENDBRANCH  12  13
DOCKED: ENDBRANCH   2  12
DOCKED: BRANCH   2  18
DOCKED: ATOM     18  C   UNL     1     -44.195 -22.696   8.948 -0.08 +0.00    +0.006 A  
DOCKED: ATOM     19  C   UNL     1     -45.456 -22.103   8.996 -0.08 +0.00    +0.001 A  
DOCKED: ATOM     20  C   UNL     1     -45.601 -20.817   9.519 -0.05 +0.00    +0.029 A  
DOCKED: ATOM     21  C   UNL     1     -44.486 -20.128   9.994 -0.01 +0.00    +0.140 A  
DOCKED: ATOM     22  C   UNL     1     -43.226 -20.722   9.946 -0.03 +0.00    +0.029 A  
DOCKED: ATOM     23  F   UNL     1     -44.627 -18.895  10.498 +0.00 -0.00    -0.204 F  
DOCKED: ATOM     24  C   UNL     1     -43.079 -22.007   9.422 -0.06 +0.00    +0.001 A  
DOCKED: ENDBRANCH   2  18
DOCKED: TORSDOF 5
DOCKED: TER
DOCKED: ENDMDL
________________________________________________________________________________


    FINAL DOCKED STATE:
    ________________________


Run:   349 / 512
Time taken for this run:   0.002s

DOCKED: MODEL        349
DOCKED: USER    Run = 349
DOCKED: USER
DOCKED: USER    Estimated Free Energy of Binding    =  -3.75 kcal/mol  [=(1)+(2)+(3)-(4)]
DOCKED: USER
DOCKED: USER    (1) Final Intermolecular Energy     =  -5.25 kcal/mol
DOCKED: USER        vdW + Hbond + desolv Energy     =  -5.25 kcal/mol
DOCKED: USER        Electrostatic Energy            =  +0.00 kcal/mol
DOCKED: USER        Moving Ligand-Fixed Receptor    =  -5.25 kcal/mol
DOCKED: USER        Moving Ligand-Moving Receptor   =  +0.00 kcal/mol
DOCKED: USER    (2) Final Total Internal Energy     =  -1.37 kcal/mol
DOCKED: USER    (3) Torsional Free Energy           =  +1.49 kcal/mol
DOCKED: USER    (4) Unbound System's Energy         =  -1.37 kcal/mol
DOCKED: USER
DOCKED: USER
DOCKED: REMARK  5 active torsions:
DOCKED: REMARK  status: ('A' for Active; 'I' for Inactive)
DOCKED: REMARK    1  A    between atoms: C_2  and  C_19 
DOCKED: REMARK    2  A    between atoms: C_2  and  C_11 
DOCKED: REMARK    3  A    between atoms: C_19  and  C_20 
DOCKED: REMARK    4  A    between atoms: C_20  and  C_21 
DOCKED: REMARK    5  A    between atoms: C_21  and  N_22 
DOCKED: USER                              x       y       z     vdW  Elec       q    Type
DOCKED: USER                           _______ _______ _______ _____ _____    ______ ____
DOCKED: ROOT
DOCKED: ATOM      1  O   UNL     1     -32.580 -21.535  -0.049 +0.01 -0.00    -0.346 OA 
DOCKED: ATOM      2  C   UNL     1     -33.980 -21.135   0.110 -0.06 +0.00    +0.130 C  
DOCKED: ATOM      3  C   UNL     1     -34.576 -22.238   0.936 -0.12 +0.00    +0.004 A  
DOCKED: ATOM      4  C   UNL     1     -33.583 -23.131   1.311 -0.08 +0.00    +0.006 A  
DOCKED: ATOM      5  C   UNL     1     -32.277 -22.683   0.778 -0.02 +0.00    +0.169 C  
DOCKED: ATOM      6  C   UNL     1     -35.892 -22.429   1.334 -0.27 -0.00    -0.001 A  
DOCKED: ATOM      7  C   UNL     1     -33.867 -24.242   2.087 -0.15 +0.00    +0.008 A  
DOCKED: ATOM      8  C   UNL     1     -36.195 -23.546   2.114 -0.32 +0.00    +0.010 A  
DOCKED: ATOM      9  C   UNL     1     -35.188 -24.447   2.489 -0.29 +0.00    +0.068 A  
DOCKED: ATOM     10  N   UNL     1     -35.785 -26.509   3.940 -2.59 -0.00    -0.191 NA 
DOCKED: ATOM     11  C   UNL     1     -35.517 -25.585   3.289 -0.38 +0.00    +0.101 C  
DOCKED: ENDROOT
DOCKED: BRANCH   2  12
DOCKED: ATOM     12  C   UNL     1     -34.019 -19.782   0.809 -0.03 +0.00    +0.038 C  
DOCKED: BRANCH  12  13
DOCKED: ATOM     13  C   UNL     1     -33.694 -18.646  -0.158 -0.01 +0.00    +0.038 C  
DOCKED: BRANCH  13  14
DOCKED: ATOM     14  C   UNL     1     -32.260 -18.756  -0.674 -0.00 +0.00    +0.251 C  
DOCKED: BRANCH  14  15
DOCKED: ATOM     15  N   UNL     1     -32.097 -17.971  -1.892 -0.00 +0.00    +0.141 N  
DOCKED: ATOM     16  C   UNL     1     -31.338 -18.722  -2.893 +0.00 +0.00    +0.285 C  
DOCKED: ATOM     17  C   UNL     1     -33.401 -17.580  -2.431 +0.00 +0.00    +0.285 C  
DOCKED: ENDBRANCH  14  15
DOCKED: ENDBRANCH  13  14
DOCKED: ENDBRANCH  12  13
DOCKED: ENDBRANCH   2  12
DOCKED: BRANCH   2  18
DOCKED: ATOM     18  C   UNL     1     -34.567 -21.051  -1.259 -0.12 +0.00    +0.006 A  
DOCKED: ATOM     19  C   UNL     1     -33.865 -21.560  -2.351 -0.10 +0.00    +0.001 A  
DOCKED: ATOM     20  C   UNL     1     -34.415 -21.480  -3.631 -0.14 +0.00    +0.029 A  
DOCKED: ATOM     21  C   UNL     1     -35.666 -20.894  -3.817 -0.20 +0.00    +0.140 A  
DOCKED: ATOM     22  C   UNL     1     -36.368 -20.386  -2.724 -0.09 +0.00    +0.029 A  
DOCKED: ATOM     23  F   UNL     1     -36.195 -20.819  -5.045 -0.10 -0.00    -0.204 F  
DOCKED: ATOM     24  C   UNL     1     -35.818 -20.464  -1.444 -0.18 +0.00    +0.001 A  
DOCKED: ENDBRANCH   2  18
DOCKED: TORSDOF 5
DOCKED: TER
DOCKED: ENDMDL
________________________________________________________________________________


    FINAL DOCKED STATE:
    ________________________


Run:   350 / 512
Time taken for this run:   0.002s

DOCKED: MODEL        350
DOCKED: USER    Run = 350
DOCKED: USER
DOCKED: USER    Estimated Free Energy of Binding    =  -4.12 kcal/mol  [=(1)+(2)+(3)-(4)]
DOCKED: USER
DOCKED: USER    (1) Final Intermolecular Energy     =  -5.62 kcal/mol
DOCKED: USER        vdW + Hbond + desolv Energy     =  -5.62 kcal/mol
DOCKED: USER        Electrostatic Energy            =  +0.00 kcal/mol
DOCKED: USER        Moving Ligand-Fixed Receptor    =  -5.62 kcal/mol
DOCKED: USER        Moving Ligand-Moving Receptor   =  +0.00 kcal/mol
DOCKED: USER    (2) Final Total Internal Energy     =  -0.96 kcal/mol
DOCKED: USER    (3) Torsional Free Energy           =  +1.49 kcal/mol
DOCKED: USER    (4) Unbound System's Energy         =  -0.96 kcal/mol
DOCKED: USER
DOCKED: USER
DOCKED: REMARK  5 active torsions:
DOCKED: REMARK  status: ('A' for Active; 'I' for Inactive)
DOCKED: REMARK    1  A    between atoms: C_2  and  C_19 
DOCKED: REMARK    2  A    between atoms: C_2  and  C_11 
DOCKED: REMARK    3  A    between atoms: C_19  and  C_20 
DOCKED: REMARK    4  A    between atoms: C_20  and  C_21 
DOCKED: REMARK    5  A    between atoms: C_21  and  N_22 
DOCKED: USER                              x       y       z     vdW  Elec       q    Type
DOCKED: USER                           _______ _______ _______ _____ _____    ______ ____
DOCKED: ROOT
DOCKED: ATOM      1  O   UNL     1     -33.750 -24.081  -1.966 -0.02 -0.00    -0.346 OA 
DOCKED: ATOM      2  C   UNL     1     -33.648 -22.968  -1.022 -0.10 +0.00    +0.130 C  
DOCKED: ATOM      3  C   UNL     1     -34.109 -23.557   0.280 -0.13 +0.00    +0.004 A  
DOCKED: ATOM      4  C   UNL     1     -34.348 -24.915   0.119 -0.18 +0.00    +0.006 A  
DOCKED: ATOM      5  C   UNL     1     -34.054 -25.315  -1.275 -0.02 +0.00    +0.169 C  
DOCKED: ATOM      6  C   UNL     1     -34.291 -22.943   1.511 -0.13 -0.00    -0.001 A  
DOCKED: ATOM      7  C   UNL     1     -34.778 -25.700   1.175 -0.30 +0.00    +0.008 A  
DOCKED: ATOM      8  C   UNL     1     -34.729 -23.721   2.584 -0.23 +0.00    +0.010 A  
DOCKED: ATOM      9  C   UNL     1     -34.971 -25.093   2.416 -0.31 +0.00    +0.068 A  
DOCKED: ATOM     10  N   UNL     1     -35.779 -26.509   4.430 -2.68 -0.00    -0.191 NA 
DOCKED: ATOM     11  C   UNL     1     -35.417 -25.874   3.527 -0.38 +0.00    +0.101 C  
DOCKED: ENDROOT
DOCKED: BRANCH   2  12
DOCKED: ATOM     12  C   UNL     1     -32.197 -22.501  -0.981 -0.03 +0.00    +0.038 C  
DOCKED: BRANCH  12  13
DOCKED: ATOM     13  C   UNL     1     -31.230 -23.676  -1.116 -0.02 +0.00    +0.038 C  
DOCKED: BRANCH  13  14
DOCKED: ATOM     14  C   UNL     1     -29.781 -23.210  -0.994 -0.00 +0.00    +0.251 C  
DOCKED: BRANCH  14  15
DOCKED: ATOM     15  N   UNL     1     -29.409 -23.071   0.409 -0.00 +0.00    +0.141 N  
DOCKED: ATOM     16  C   UNL     1     -29.628 -21.699   0.867 +0.00 +0.00    +0.285 C  
DOCKED: ATOM     17  C   UNL     1     -30.166 -24.010   1.239 -0.01 +0.00    +0.285 C  
DOCKED: ENDBRANCH  14  15
DOCKED: ENDBRANCH  13  14
DOCKED: ENDBRANCH  12  13
DOCKED: ENDBRANCH   2  12
DOCKED: BRANCH   2  18
DOCKED: ATOM     18  C   UNL     1     -34.547 -21.887  -1.522 -0.10 +0.00    +0.006 A  
DOCKED: ATOM     19  C   UNL     1     -34.664 -21.656  -2.892 -0.16 +0.00    +0.001 A  
DOCKED: ATOM     20  C   UNL     1     -35.505 -20.645  -3.358 -0.20 +0.00    +0.029 A  
DOCKED: ATOM     21  C   UNL     1     -36.228 -19.868  -2.454 -0.19 +0.00    +0.140 A  
DOCKED: ATOM     22  C   UNL     1     -36.112 -20.100  -1.084 -0.18 +0.00    +0.029 A  
DOCKED: ATOM     23  F   UNL     1     -37.037 -18.899  -2.902 -0.11 -0.00    -0.204 F  
DOCKED: ATOM     24  C   UNL     1     -35.270 -21.111  -0.617 -0.13 +0.00    +0.001 A  
DOCKED: ENDBRANCH   2  18
DOCKED: TORSDOF 5
DOCKED: TER
DOCKED: ENDMDL
________________________________________________________________________________


    FINAL DOCKED STATE:
    ________________________


Run:   351 / 512
Time taken for this run:   0.002s

DOCKED: MODEL        351
DOCKED: USER    Run = 351
DOCKED: USER
DOCKED: USER    Estimated Free Energy of Binding    =  -4.15 kcal/mol  [=(1)+(2)+(3)-(4)]
DOCKED: USER
DOCKED: USER    (1) Final Intermolecular Energy     =  -5.64 kcal/mol
DOCKED: USER        vdW + Hbond + desolv Energy     =  -5.64 kcal/mol
DOCKED: USER        Electrostatic Energy            =  +0.00 kcal/mol
DOCKED: USER        Moving Ligand-Fixed Receptor    =  -5.64 kcal/mol
DOCKED: USER        Moving Ligand-Moving Receptor   =  +0.00 kcal/mol
DOCKED: USER    (2) Final Total Internal Energy     =  -1.22 kcal/mol
DOCKED: USER    (3) Torsional Free Energy           =  +1.49 kcal/mol
DOCKED: USER    (4) Unbound System's Energy         =  -1.22 kcal/mol
DOCKED: USER
DOCKED: USER
DOCKED: REMARK  5 active torsions:
DOCKED: REMARK  status: ('A' for Active; 'I' for Inactive)
DOCKED: REMARK    1  A    between atoms: C_2  and  C_19 
DOCKED: REMARK    2  A    between atoms: C_2  and  C_11 
DOCKED: REMARK    3  A    between atoms: C_19  and  C_20 
DOCKED: REMARK    4  A    between atoms: C_20  and  C_21 
DOCKED: REMARK    5  A    between atoms: C_21  and  N_22 
DOCKED: USER                              x       y       z     vdW  Elec       q    Type
DOCKED: USER                           _______ _______ _______ _____ _____    ______ ____
DOCKED: ROOT
DOCKED: ATOM      1  O   UNL     1     -43.104 -19.330   7.450 -0.07 -0.00    -0.346 OA 
DOCKED: ATOM      2  C   UNL     1     -41.703 -19.753   7.444 -0.14 +0.00    +0.130 C  
DOCKED: ATOM      3  C   UNL     1     -41.762 -21.188   7.007 -0.23 +0.00    +0.004 A  
DOCKED: ATOM      4  C   UNL     1     -43.070 -21.525   6.685 -0.22 +0.00    +0.006 A  
DOCKED: ATOM      5  C   UNL     1     -43.951 -20.350   6.871 -0.20 +0.00    +0.169 C  
DOCKED: ATOM      6  C   UNL     1     -40.739 -22.118   6.892 -0.26 -0.00    -0.001 A  
DOCKED: ATOM      7  C   UNL     1     -43.399 -22.795   6.245 -0.25 +0.00    +0.008 A  
DOCKED: ATOM      8  C   UNL     1     -41.056 -23.405   6.454 -0.32 +0.00    +0.010 A  
DOCKED: ATOM      9  C   UNL     1     -42.380 -23.741   6.132 -0.29 +0.00    +0.068 A  
DOCKED: ATOM     10  N   UNL     1     -42.933 -26.138   5.316 -2.59 -0.00    -0.191 NA 
DOCKED: ATOM     11  C   UNL     1     -42.685 -25.063   5.683 -0.36 +0.00    +0.101 C  
DOCKED: ENDROOT
DOCKED: BRANCH   2  12
DOCKED: ATOM     12  C   UNL     1     -40.936 -18.867   6.469 -0.16 +0.00    +0.038 C  
DOCKED: BRANCH  12  13
DOCKED: ATOM     13  C   UNL     1     -39.531 -19.408   6.212 -0.18 +0.00    +0.038 C  
DOCKED: BRANCH  13  14
DOCKED: ATOM     14  C   UNL     1     -38.468 -18.465   6.774 -0.06 +0.00    +0.251 C  
DOCKED: BRANCH  14  15
DOCKED: ATOM     15  N   UNL     1     -37.356 -19.228   7.328 -0.06 +0.00    +0.141 N  
DOCKED: ATOM     16  C   UNL     1     -37.829 -20.490   7.900 -0.07 +0.00    +0.285 C  
DOCKED: ATOM     17  C   UNL     1     -36.344 -19.483   6.302 -0.06 +0.00    +0.285 C  
DOCKED: ENDBRANCH  14  15
DOCKED: ENDBRANCH  13  14
DOCKED: ENDBRANCH  12  13
DOCKED: ENDBRANCH   2  12
DOCKED: BRANCH   2  18
DOCKED: ATOM     18  C   UNL     1     -41.191 -19.589   8.836 -0.05 +0.00    +0.006 A  
DOCKED: ATOM     19  C   UNL     1     -41.261 -20.654   9.733 -0.03 +0.00    +0.001 A  
DOCKED: ATOM     20  C   UNL     1     -40.783 -20.500  11.035 -0.01 +0.00    +0.029 A  
DOCKED: ATOM     21  C   UNL     1     -40.235 -19.282  11.437 -0.00 +0.00    +0.140 A  
DOCKED: ATOM     22  C   UNL     1     -40.165 -18.218  10.539 -0.00 +0.00    +0.029 A  
DOCKED: ATOM     23  F   UNL     1     -39.775 -19.135  12.686 +0.00 -0.00    -0.204 F  
DOCKED: ATOM     24  C   UNL     1     -40.644 -18.371   9.236 -0.02 +0.00    +0.001 A  
DOCKED: ENDBRANCH   2  18
DOCKED: TORSDOF 5
DOCKED: TER
DOCKED: ENDMDL
________________________________________________________________________________


    FINAL DOCKED STATE:
    ________________________


Run:   352 / 512
Time taken for this run:   0.002s

DOCKED: MODEL        352
DOCKED: USER    Run = 352
DOCKED: USER
DOCKED: USER    Estimated Free Energy of Binding    =  -3.87 kcal/mol  [=(1)+(2)+(3)-(4)]
DOCKED: USER
DOCKED: USER    (1) Final Intermolecular Energy     =  -5.36 kcal/mol
DOCKED: USER        vdW + Hbond + desolv Energy     =  -5.36 kcal/mol
DOCKED: USER        Electrostatic Energy            =  +0.00 kcal/mol
DOCKED: USER        Moving Ligand-Fixed Receptor    =  -5.36 kcal/mol
DOCKED: USER        Moving Ligand-Moving Receptor   =  +0.00 kcal/mol
DOCKED: USER    (2) Final Total Internal Energy     =  -1.37 kcal/mol
DOCKED: USER    (3) Torsional Free Energy           =  +1.49 kcal/mol
DOCKED: USER    (4) Unbound System's Energy         =  -1.37 kcal/mol
DOCKED: USER
DOCKED: USER
DOCKED: REMARK  5 active torsions:
DOCKED: REMARK  status: ('A' for Active; 'I' for Inactive)
DOCKED: REMARK    1  A    between atoms: C_2  and  C_19 
DOCKED: REMARK    2  A    between atoms: C_2  and  C_11 
DOCKED: REMARK    3  A    between atoms: C_19  and  C_20 
DOCKED: REMARK    4  A    between atoms: C_20  and  C_21 
DOCKED: REMARK    5  A    between atoms: C_21  and  N_22 
DOCKED: USER                              x       y       z     vdW  Elec       q    Type
DOCKED: USER                           _______ _______ _______ _____ _____    ______ ____
DOCKED: ROOT
DOCKED: ATOM      1  O   UNL     1     -32.350 -21.928  -0.030 +0.01 -0.00    -0.346 OA 
DOCKED: ATOM      2  C   UNL     1     -33.775 -21.597  -0.076 -0.06 +0.00    +0.130 C  
DOCKED: ATOM      3  C   UNL     1     -34.409 -22.614   0.828 -0.12 +0.00    +0.004 A  
DOCKED: ATOM      4  C   UNL     1     -33.424 -23.387   1.426 -0.08 +0.00    +0.006 A  
DOCKED: ATOM      5  C   UNL     1     -32.089 -22.935   0.975 -0.02 +0.00    +0.169 C  
DOCKED: ATOM      6  C   UNL     1     -35.751 -22.829   1.108 -0.22 -0.00    -0.001 A  
DOCKED: ATOM      7  C   UNL     1     -33.743 -24.399   2.315 -0.16 +0.00    +0.008 A  
DOCKED: ATOM      8  C   UNL     1     -36.089 -23.849   2.000 -0.33 +0.00    +0.010 A  
DOCKED: ATOM      9  C   UNL     1     -35.089 -24.629   2.600 -0.30 +0.00    +0.068 A  
DOCKED: ATOM     10  N   UNL     1     -35.751 -26.511   4.254 -2.64 -0.00    -0.191 NA 
DOCKED: ATOM     11  C   UNL     1     -35.454 -25.667   3.512 -0.38 +0.00    +0.101 C  
DOCKED: ENDROOT
DOCKED: BRANCH   2  12
DOCKED: ATOM     12  C   UNL     1     -33.954 -20.167   0.420 -0.04 +0.00    +0.038 C  
DOCKED: BRANCH  12  13
DOCKED: ATOM     13  C   UNL     1     -32.983 -19.844   1.553 -0.02 +0.00    +0.038 C  
DOCKED: BRANCH  13  14
DOCKED: ATOM     14  C   UNL     1     -33.731 -19.557   2.853 -0.01 +0.00    +0.251 C  
DOCKED: BRANCH  14  15
DOCKED: ATOM     15  N   UNL     1     -33.423 -20.574   3.851 -0.02 +0.00    +0.141 N  
DOCKED: ATOM     16  C   UNL     1     -31.991 -20.579   4.158 -0.00 +0.00    +0.285 C  
DOCKED: ATOM     17  C   UNL     1     -34.202 -20.354   5.070 -0.04 +0.00    +0.285 C  
DOCKED: ENDBRANCH  14  15
DOCKED: ENDBRANCH  13  14
DOCKED: ENDBRANCH  12  13
DOCKED: ENDBRANCH   2  12
DOCKED: BRANCH   2  18
DOCKED: ATOM     18  C   UNL     1     -34.208 -21.732  -1.498 -0.12 +0.00    +0.006 A  
DOCKED: ATOM     19  C   UNL     1     -33.661 -22.733  -2.300 -0.11 +0.00    +0.001 A  
DOCKED: ATOM     20  C   UNL     1     -34.067 -22.858  -3.630 -0.11 +0.00    +0.029 A  
DOCKED: ATOM     21  C   UNL     1     -35.018 -21.984  -4.154 -0.15 +0.00    +0.140 A  
DOCKED: ATOM     22  C   UNL     1     -35.564 -20.983  -3.350 -0.20 +0.00    +0.029 A  
DOCKED: ATOM     23  F   UNL     1     -35.408 -22.105  -5.429 -0.08 -0.00    -0.204 F  
DOCKED: ATOM     24  C   UNL     1     -35.159 -20.857  -2.021 -0.16 +0.00    +0.001 A  
DOCKED: ENDBRANCH   2  18
DOCKED: TORSDOF 5
DOCKED: TER
DOCKED: ENDMDL
________________________________________________________________________________


    FINAL DOCKED STATE:
    ________________________


Run:   353 / 512
Time taken for this run:   0.002s

DOCKED: MODEL        353
DOCKED: USER    Run = 353
DOCKED: USER
DOCKED: USER    Estimated Free Energy of Binding    =  -4.26 kcal/mol  [=(1)+(2)+(3)-(4)]
DOCKED: USER
DOCKED: USER    (1) Final Intermolecular Energy     =  -5.75 kcal/mol
DOCKED: USER        vdW + Hbond + desolv Energy     =  -5.75 kcal/mol
DOCKED: USER        Electrostatic Energy            =  +0.00 kcal/mol
DOCKED: USER        Moving Ligand-Fixed Receptor    =  -5.75 kcal/mol
DOCKED: USER        Moving Ligand-Moving Receptor   =  +0.00 kcal/mol
DOCKED: USER    (2) Final Total Internal Energy     =  -1.40 kcal/mol
DOCKED: USER    (3) Torsional Free Energy           =  +1.49 kcal/mol
DOCKED: USER    (4) Unbound System's Energy         =  -1.40 kcal/mol
DOCKED: USER
DOCKED: USER
DOCKED: REMARK  5 active torsions:
DOCKED: REMARK  status: ('A' for Active; 'I' for Inactive)
DOCKED: REMARK    1  A    between atoms: C_2  and  C_19 
DOCKED: REMARK    2  A    between atoms: C_2  and  C_11 
DOCKED: REMARK    3  A    between atoms: C_19  and  C_20 
DOCKED: REMARK    4  A    between atoms: C_20  and  C_21 
DOCKED: REMARK    5  A    between atoms: C_21  and  N_22 
DOCKED: USER                              x       y       z     vdW  Elec       q    Type
DOCKED: USER                           _______ _______ _______ _____ _____    ______ ____
DOCKED: ROOT
DOCKED: ATOM      1  O   UNL     1     -43.660 -22.145   8.374 -0.01 -0.00    -0.346 OA 
DOCKED: ATOM      2  C   UNL     1     -42.328 -22.722   8.186 -0.11 +0.00    +0.130 C  
DOCKED: ATOM      3  C   UNL     1     -42.395 -23.344   6.822 -0.26 +0.00    +0.004 A  
DOCKED: ATOM      4  C   UNL     1     -43.619 -23.054   6.236 -0.25 +0.00    +0.006 A  
DOCKED: ATOM      5  C   UNL     1     -44.430 -22.221   7.152 -0.16 +0.00    +0.169 C  
DOCKED: ATOM      6  C   UNL     1     -41.444 -24.097   6.148 -0.38 -0.00    -0.001 A  
DOCKED: ATOM      7  C   UNL     1     -43.935 -23.506   4.966 -0.12 +0.00    +0.008 A  
DOCKED: ATOM      8  C   UNL     1     -41.750 -24.564   4.869 -0.36 +0.00    +0.010 A  
DOCKED: ATOM      9  C   UNL     1     -42.989 -24.270   4.281 -0.41 +0.00    +0.068 A  
DOCKED: ATOM     10  N   UNL     1     -43.523 -25.149   1.903 -2.30 -0.00    -0.191 NA 
DOCKED: ATOM     11  C   UNL     1     -43.284 -24.755   2.970 -0.35 +0.00    +0.101 C  
DOCKED: ENDROOT
DOCKED: BRANCH   2  12
DOCKED: ATOM     12  C   UNL     1     -41.300 -21.601   8.278 -0.13 +0.00    +0.038 C  
DOCKED: BRANCH  12  13
DOCKED: ATOM     13  C   UNL     1     -41.753 -20.506   9.242 -0.05 +0.00    +0.038 C  
DOCKED: BRANCH  13  14
DOCKED: ATOM     14  C   UNL     1     -41.240 -20.773  10.656 -0.01 +0.00    +0.251 C  
DOCKED: BRANCH  14  15
DOCKED: ATOM     15  N   UNL     1     -42.274 -20.465  11.637 -0.00 +0.00    +0.141 N  
DOCKED: ATOM     16  C   UNL     1     -42.332 -19.025  11.891 +0.00 +0.00    +0.285 C  
DOCKED: ATOM     17  C   UNL     1     -43.577 -20.954  11.184 -0.00 +0.00    +0.285 C  
DOCKED: ENDBRANCH  14  15
DOCKED: ENDBRANCH  13  14
DOCKED: ENDBRANCH  12  13
DOCKED: ENDBRANCH   2  12
DOCKED: BRANCH   2  18
DOCKED: ATOM     18  C   UNL     1     -42.129 -23.724   9.274 -0.14 +0.00    +0.006 A  
DOCKED: ATOM     19  C   UNL     1     -43.226 -24.200   9.992 -0.14 +0.00    +0.001 A  
DOCKED: ATOM     20  C   UNL     1     -43.039 -25.137  11.008 -0.11 +0.00    +0.029 A  
DOCKED: ATOM     21  C   UNL     1     -41.757 -25.598  11.305 -0.07 +0.00    +0.140 A  
DOCKED: ATOM     22  C   UNL     1     -40.660 -25.122  10.586 -0.14 +0.00    +0.029 A  
DOCKED: ATOM     23  F   UNL     1     -41.577 -26.499  12.279 -0.06 -0.00    -0.204 F  
DOCKED: ATOM     24  C   UNL     1     -40.846 -24.183   9.569 -0.18 +0.00    +0.001 A  
DOCKED: ENDBRANCH   2  18
DOCKED: TORSDOF 5
DOCKED: TER
DOCKED: ENDMDL
________________________________________________________________________________


    FINAL DOCKED STATE:
    ________________________


Run:   354 / 512
Time taken for this run:   0.002s

DOCKED: MODEL        354
DOCKED: USER    Run = 354
DOCKED: USER
DOCKED: USER    Estimated Free Energy of Binding    =  -4.18 kcal/mol  [=(1)+(2)+(3)-(4)]
DOCKED: USER
DOCKED: USER    (1) Final Intermolecular Energy     =  -5.67 kcal/mol
DOCKED: USER        vdW + Hbond + desolv Energy     =  -5.67 kcal/mol
DOCKED: USER        Electrostatic Energy            =  +0.00 kcal/mol
DOCKED: USER        Moving Ligand-Fixed Receptor    =  -5.67 kcal/mol
DOCKED: USER        Moving Ligand-Moving Receptor   =  +0.00 kcal/mol
DOCKED: USER    (2) Final Total Internal Energy     =  -1.23 kcal/mol
DOCKED: USER    (3) Torsional Free Energy           =  +1.49 kcal/mol
DOCKED: USER    (4) Unbound System's Energy         =  -1.23 kcal/mol
DOCKED: USER
DOCKED: USER
DOCKED: REMARK  5 active torsions:
DOCKED: REMARK  status: ('A' for Active; 'I' for Inactive)
DOCKED: REMARK    1  A    between atoms: C_2  and  C_19 
DOCKED: REMARK    2  A    between atoms: C_2  and  C_11 
DOCKED: REMARK    3  A    between atoms: C_19  and  C_20 
DOCKED: REMARK    4  A    between atoms: C_20  and  C_21 
DOCKED: REMARK    5  A    between atoms: C_21  and  N_22 
DOCKED: USER                              x       y       z     vdW  Elec       q    Type
DOCKED: USER                           _______ _______ _______ _____ _____    ______ ____
DOCKED: ROOT
DOCKED: ATOM      1  O   UNL     1     -38.198 -22.114   8.702 -0.08 -0.00    -0.346 OA 
DOCKED: ATOM      2  C   UNL     1     -39.310 -21.198   8.448 -0.11 +0.00    +0.130 C  
DOCKED: ATOM      3  C   UNL     1     -40.318 -22.046   7.728 -0.20 +0.00    +0.004 A  
DOCKED: ATOM      4  C   UNL     1     -39.870 -23.358   7.673 -0.25 +0.00    +0.006 A  
DOCKED: ATOM      5  C   UNL     1     -38.561 -23.471   8.355 -0.10 +0.00    +0.169 C  
DOCKED: ATOM      6  C   UNL     1     -41.539 -21.688   7.175 -0.23 -0.00    -0.001 A  
DOCKED: ATOM      7  C   UNL     1     -40.619 -24.351   7.065 -0.35 +0.00    +0.008 A  
DOCKED: ATOM      8  C   UNL     1     -42.304 -22.676   6.554 -0.28 +0.00    +0.010 A  
DOCKED: ATOM      9  C   UNL     1     -41.847 -24.001   6.500 -0.30 +0.00    +0.068 A  
DOCKED: ATOM     10  N   UNL     1     -43.294 -25.813   5.345 -2.56 -0.00    -0.191 NA 
DOCKED: ATOM     11  C   UNL     1     -42.645 -25.000   5.863 -0.35 +0.00    +0.101 C  
DOCKED: ENDROOT
DOCKED: BRANCH   2  12
DOCKED: ATOM     12  C   UNL     1     -39.821 -20.675   9.785 -0.04 +0.00    +0.038 C  
DOCKED: BRANCH  12  13
DOCKED: ATOM     13  C   UNL     1     -38.941 -21.147  10.941 -0.03 +0.00    +0.038 C  
DOCKED: BRANCH  13  14
DOCKED: ATOM     14  C   UNL     1     -39.528 -22.391  11.606 -0.03 +0.00    +0.251 C  
DOCKED: BRANCH  14  15
DOCKED: ATOM     15  N   UNL     1     -38.670 -23.545  11.370 -0.08 +0.00    +0.141 N  
DOCKED: ATOM     16  C   UNL     1     -37.265 -23.200  11.594 -0.05 +0.00    +0.285 C  
DOCKED: ATOM     17  C   UNL     1     -39.061 -24.663  12.230 -0.10 +0.00    +0.285 C  
DOCKED: ENDBRANCH  14  15
DOCKED: ENDBRANCH  13  14
DOCKED: ENDBRANCH  12  13
DOCKED: ENDBRANCH   2  12
DOCKED: BRANCH   2  18
DOCKED: ATOM     18  C   UNL     1     -38.776 -20.088   7.605 -0.12 +0.00    +0.006 A  
DOCKED: ATOM     19  C   UNL     1     -37.897 -19.156   8.155 -0.05 +0.00    +0.001 A  
DOCKED: ATOM     20  C   UNL     1     -37.399 -18.119   7.366 -0.03 +0.00    +0.029 A  
DOCKED: ATOM     21  C   UNL     1     -37.780 -18.015   6.029 -0.05 +0.00    +0.140 A  
DOCKED: ATOM     22  C   UNL     1     -38.659 -18.947   5.479 -0.14 +0.00    +0.029 A  
DOCKED: ATOM     23  F   UNL     1     -37.300 -17.020   5.272 -0.00 -0.00    -0.204 F  
DOCKED: ATOM     24  C   UNL     1     -39.158 -19.985   6.268 -0.13 +0.00    +0.001 A  
DOCKED: ENDBRANCH   2  18
DOCKED: TORSDOF 5
DOCKED: TER
DOCKED: ENDMDL
________________________________________________________________________________


    FINAL DOCKED STATE:
    ________________________


Run:   355 / 512
Time taken for this run:   0.002s

DOCKED: MODEL        355
DOCKED: USER    Run = 355
DOCKED: USER
DOCKED: USER    Estimated Free Energy of Binding    =  -4.63 kcal/mol  [=(1)+(2)+(3)-(4)]
DOCKED: USER
DOCKED: USER    (1) Final Intermolecular Energy     =  -6.12 kcal/mol
DOCKED: USER        vdW + Hbond + desolv Energy     =  -6.12 kcal/mol
DOCKED: USER        Electrostatic Energy            =  +0.00 kcal/mol
DOCKED: USER        Moving Ligand-Fixed Receptor    =  -6.12 kcal/mol
DOCKED: USER        Moving Ligand-Moving Receptor   =  +0.00 kcal/mol
DOCKED: USER    (2) Final Total Internal Energy     =  -1.06 kcal/mol
DOCKED: USER    (3) Torsional Free Energy           =  +1.49 kcal/mol
DOCKED: USER    (4) Unbound System's Energy         =  -1.06 kcal/mol
DOCKED: USER
DOCKED: USER
DOCKED: REMARK  5 active torsions:
DOCKED: REMARK  status: ('A' for Active; 'I' for Inactive)
DOCKED: REMARK    1  A    between atoms: C_2  and  C_19 
DOCKED: REMARK    2  A    between atoms: C_2  and  C_11 
DOCKED: REMARK    3  A    between atoms: C_19  and  C_20 
DOCKED: REMARK    4  A    between atoms: C_20  and  C_21 
DOCKED: REMARK    5  A    between atoms: C_21  and  N_22 
DOCKED: USER                              x       y       z     vdW  Elec       q    Type
DOCKED: USER                           _______ _______ _______ _____ _____    ______ ____
DOCKED: ROOT
DOCKED: ATOM      1  O   UNL     1     -44.369 -23.391   9.047 +0.00 -0.00    -0.346 OA 
DOCKED: ATOM      2  C   UNL     1     -43.042 -22.871   8.714 -0.08 +0.00    +0.130 C  
DOCKED: ATOM      3  C   UNL     1     -42.890 -23.182   7.253 -0.20 +0.00    +0.004 A  
DOCKED: ATOM      4  C   UNL     1     -44.068 -23.731   6.767 -0.24 +0.00    +0.006 A  
DOCKED: ATOM      5  C   UNL     1     -45.071 -23.809   7.853 -0.13 +0.00    +0.169 C  
DOCKED: ATOM      6  C   UNL     1     -41.800 -22.983   6.419 -0.33 -0.00    -0.001 A  
DOCKED: ATOM      7  C   UNL     1     -44.196 -24.102   5.440 -0.33 +0.00    +0.008 A  
DOCKED: ATOM      8  C   UNL     1     -41.911 -23.357   5.078 -0.33 +0.00    +0.010 A  
DOCKED: ATOM      9  C   UNL     1     -43.104 -23.914   4.592 -0.35 +0.00    +0.068 A  
DOCKED: ATOM     10  N   UNL     1     -43.279 -24.592   2.097 -2.40 -0.00    -0.191 NA 
DOCKED: ATOM     11  C   UNL     1     -43.200 -24.288   3.216 -0.38 +0.00    +0.101 C  
DOCKED: ENDROOT
DOCKED: BRANCH   2  12
DOCKED: ATOM     12  C   UNL     1     -43.023 -21.376   9.008 -0.07 +0.00    +0.038 C  
DOCKED: BRANCH  12  13
DOCKED: ATOM     13  C   UNL     1     -43.390 -20.560   7.770 -0.17 +0.00    +0.038 C  
DOCKED: BRANCH  13  14
DOCKED: ATOM     14  C   UNL     1     -44.143 -19.288   8.154 -0.07 +0.00    +0.251 C  
DOCKED: BRANCH  14  15
DOCKED: ATOM     15  N   UNL     1     -43.867 -18.226   7.194 -0.13 +0.00    +0.141 N  
DOCKED: ATOM     16  C   UNL     1     -43.208 -17.095   7.850 -0.03 +0.00    +0.285 C  
DOCKED: ATOM     17  C   UNL     1     -43.041 -18.726   6.095 -0.03 +0.00    +0.285 C  
DOCKED: ENDBRANCH  14  15
DOCKED: ENDBRANCH  13  14
DOCKED: ENDBRANCH  12  13
DOCKED: ENDBRANCH   2  12
DOCKED: BRANCH   2  18
DOCKED: ATOM     18  C   UNL     1     -42.061 -23.600   9.569 -0.12 +0.00    +0.006 A  
DOCKED: ATOM     19  C   UNL     1     -42.326 -24.908   9.974 -0.21 +0.00    +0.001 A  
DOCKED: ATOM     20  C   UNL     1     -41.407 -25.589  10.774 -0.18 +0.00    +0.029 A  
DOCKED: ATOM     21  C   UNL     1     -40.226 -24.962  11.167 -0.08 +0.00    +0.140 A  
DOCKED: ATOM     22  C   UNL     1     -39.961 -23.654  10.762 -0.12 +0.00    +0.029 A  
DOCKED: ATOM     23  F   UNL     1     -39.343 -25.617  11.933 -0.06 -0.00    -0.204 F  
DOCKED: ATOM     24  C   UNL     1     -40.880 -22.972   9.963 -0.10 +0.00    +0.001 A  
DOCKED: ENDBRANCH   2  18
DOCKED: TORSDOF 5
DOCKED: TER
DOCKED: ENDMDL
________________________________________________________________________________


    FINAL DOCKED STATE:
    ________________________


Run:   356 / 512
Time taken for this run:   0.002s

DOCKED: MODEL        356
DOCKED: USER    Run = 356
DOCKED: USER
DOCKED: USER    Estimated Free Energy of Binding    =  -3.90 kcal/mol  [=(1)+(2)+(3)-(4)]
DOCKED: USER
DOCKED: USER    (1) Final Intermolecular Energy     =  -5.39 kcal/mol
DOCKED: USER        vdW + Hbond + desolv Energy     =  -5.39 kcal/mol
DOCKED: USER        Electrostatic Energy            =  +0.00 kcal/mol
DOCKED: USER        Moving Ligand-Fixed Receptor    =  -5.39 kcal/mol
DOCKED: USER        Moving Ligand-Moving Receptor   =  +0.00 kcal/mol
DOCKED: USER    (2) Final Total Internal Energy     =  -1.44 kcal/mol
DOCKED: USER    (3) Torsional Free Energy           =  +1.49 kcal/mol
DOCKED: USER    (4) Unbound System's Energy         =  -1.44 kcal/mol
DOCKED: USER
DOCKED: USER
DOCKED: REMARK  5 active torsions:
DOCKED: REMARK  status: ('A' for Active; 'I' for Inactive)
DOCKED: REMARK    1  A    between atoms: C_2  and  C_19 
DOCKED: REMARK    2  A    between atoms: C_2  and  C_11 
DOCKED: REMARK    3  A    between atoms: C_19  and  C_20 
DOCKED: REMARK    4  A    between atoms: C_20  and  C_21 
DOCKED: REMARK    5  A    between atoms: C_21  and  N_22 
DOCKED: USER                              x       y       z     vdW  Elec       q    Type
DOCKED: USER                           _______ _______ _______ _____ _____    ______ ____
DOCKED: ROOT
DOCKED: ATOM      1  O   UNL     1     -34.011 -11.782  -3.622 +0.00 -0.00    -0.346 OA 
DOCKED: ATOM      2  C   UNL     1     -34.506 -12.582  -2.501 -0.05 +0.00    +0.130 C  
DOCKED: ATOM      3  C   UNL     1     -35.963 -12.773  -2.811 -0.14 +0.00    +0.004 A  
DOCKED: ATOM      4  C   UNL     1     -36.251 -12.227  -4.054 -0.18 +0.00    +0.006 A  
DOCKED: ATOM      5  C   UNL     1     -35.022 -11.656  -4.649 -0.10 +0.00    +0.169 C  
DOCKED: ATOM      6  C   UNL     1     -36.951 -13.392  -2.059 -0.18 -0.00    -0.001 A  
DOCKED: ATOM      7  C   UNL     1     -37.530 -12.275  -4.583 -0.32 +0.00    +0.008 A  
DOCKED: ATOM      8  C   UNL     1     -38.246 -13.445  -2.577 -0.30 +0.00    +0.010 A  
DOCKED: ATOM      9  C   UNL     1     -38.534 -12.889  -3.833 -0.36 +0.00    +0.068 A  
DOCKED: ATOM     10  N   UNL     1     -40.947 -13.008  -4.767 -2.45 -0.00    -0.191 NA 
DOCKED: ATOM     11  C   UNL     1     -39.865 -12.954  -4.348 -0.37 +0.00    +0.101 C  
DOCKED: ENDROOT
DOCKED: BRANCH   2  12
DOCKED: ATOM     12  C   UNL     1     -33.730 -13.893  -2.464 -0.02 +0.00    +0.038 C  
DOCKED: BRANCH  12  13
DOCKED: ATOM     13  C   UNL     1     -34.523 -15.028  -3.110 -0.03 +0.00    +0.038 C  
DOCKED: BRANCH  13  14
DOCKED: ATOM     14  C   UNL     1     -34.341 -15.031  -4.627 -0.01 +0.00    +0.251 C  
DOCKED: BRANCH  14  15
DOCKED: ATOM     15  N   UNL     1     -35.477 -15.677  -5.273 -0.08 +0.00    +0.141 N  
DOCKED: ATOM     16  C   UNL     1     -36.497 -16.036  -4.286 -0.10 +0.00    +0.285 C  
DOCKED: ATOM     17  C   UNL     1     -36.050 -14.806  -6.301 -0.11 +0.00    +0.285 C  
DOCKED: ENDBRANCH  14  15
DOCKED: ENDBRANCH  13  14
DOCKED: ENDBRANCH  12  13
DOCKED: ENDBRANCH   2  12
DOCKED: BRANCH   2  18
DOCKED: ATOM     18  C   UNL     1     -34.276 -11.785  -1.261 -0.09 +0.00    +0.006 A  
DOCKED: ATOM     19  C   UNL     1     -33.462 -12.291  -0.248 -0.07 +0.00    +0.001 A  
DOCKED: ATOM     20  C   UNL     1     -33.247 -11.545   0.911 -0.07 +0.00    +0.029 A  
DOCKED: ATOM     21  C   UNL     1     -33.846 -10.295   1.056 -0.06 +0.00    +0.140 A  
DOCKED: ATOM     22  C   UNL     1     -34.660  -9.789   0.043 -0.12 +0.00    +0.029 A  
DOCKED: ATOM     23  F   UNL     1     -33.638  -9.578   2.168 -0.03 -0.00    -0.204 F  
DOCKED: ATOM     24  C   UNL     1     -34.876 -10.535  -1.117 -0.15 +0.00    +0.001 A  
DOCKED: ENDBRANCH   2  18
DOCKED: TORSDOF 5
DOCKED: TER
DOCKED: ENDMDL
________________________________________________________________________________


    FINAL DOCKED STATE:
    ________________________


Run:   357 / 512
Time taken for this run:   0.002s

DOCKED: MODEL        357
DOCKED: USER    Run = 357
DOCKED: USER
DOCKED: USER    Estimated Free Energy of Binding    =  -4.61 kcal/mol  [=(1)+(2)+(3)-(4)]
DOCKED: USER
DOCKED: USER    (1) Final Intermolecular Energy     =  -6.10 kcal/mol
DOCKED: USER        vdW + Hbond + desolv Energy     =  -6.10 kcal/mol
DOCKED: USER        Electrostatic Energy            =  +0.00 kcal/mol
DOCKED: USER        Moving Ligand-Fixed Receptor    =  -6.10 kcal/mol
DOCKED: USER        Moving Ligand-Moving Receptor   =  +0.00 kcal/mol
DOCKED: USER    (2) Final Total Internal Energy     =  -1.29 kcal/mol
DOCKED: USER    (3) Torsional Free Energy           =  +1.49 kcal/mol
DOCKED: USER    (4) Unbound System's Energy         =  -1.29 kcal/mol
DOCKED: USER
DOCKED: USER
DOCKED: REMARK  5 active torsions:
DOCKED: REMARK  status: ('A' for Active; 'I' for Inactive)
DOCKED: REMARK    1  A    between atoms: C_2  and  C_19 
DOCKED: REMARK    2  A    between atoms: C_2  and  C_11 
DOCKED: REMARK    3  A    between atoms: C_19  and  C_20 
DOCKED: REMARK    4  A    between atoms: C_20  and  C_21 
DOCKED: REMARK    5  A    between atoms: C_21  and  N_22 
DOCKED: USER                              x       y       z     vdW  Elec       q    Type
DOCKED: USER                           _______ _______ _______ _____ _____    ______ ____
DOCKED: ROOT
DOCKED: ATOM      1  O   UNL     1     -39.280 -16.067   1.201 -0.08 -0.00    -0.346 OA 
DOCKED: ATOM      2  C   UNL     1     -37.989 -15.973   0.519 -0.16 +0.00    +0.130 C  
DOCKED: ATOM      3  C   UNL     1     -38.311 -15.262  -0.764 -0.26 +0.00    +0.004 A  
DOCKED: ATOM      4  C   UNL     1     -39.646 -14.885  -0.767 -0.29 +0.00    +0.006 A  
DOCKED: ATOM      5  C   UNL     1     -40.288 -15.302   0.500 -0.22 +0.00    +0.169 C  
DOCKED: ATOM      6  C   UNL     1     -37.485 -14.964  -1.838 -0.21 -0.00    -0.001 A  
DOCKED: ATOM      7  C   UNL     1     -40.200 -14.204  -1.837 -0.27 +0.00    +0.008 A  
DOCKED: ATOM      8  C   UNL     1     -38.030 -14.282  -2.927 -0.27 +0.00    +0.010 A  
DOCKED: ATOM      9  C   UNL     1     -39.381 -13.903  -2.926 -0.26 +0.00    +0.068 A  
DOCKED: ATOM     10  N   UNL     1     -40.360 -12.634  -4.961 -2.36 -0.00    -0.191 NA 
DOCKED: ATOM     11  C   UNL     1     -39.921 -13.204  -4.049 -0.34 +0.00    +0.101 C  
DOCKED: ENDROOT
DOCKED: BRANCH   2  12
DOCKED: ATOM     12  C   UNL     1     -37.030 -15.189   1.407 -0.16 +0.00    +0.038 C  
DOCKED: BRANCH  12  13
DOCKED: ATOM     13  C   UNL     1     -37.548 -15.098   2.841 -0.15 +0.00    +0.038 C  
DOCKED: BRANCH  13  14
DOCKED: ATOM     14  C   UNL     1     -36.438 -15.400   3.846 -0.06 +0.00    +0.251 C  
DOCKED: BRANCH  14  15
DOCKED: ATOM     15  N   UNL     1     -36.198 -16.836   3.922 -0.02 +0.00    +0.141 N  
DOCKED: ATOM     16  C   UNL     1     -35.425 -17.168   5.119 -0.01 +0.00    +0.285 C  
DOCKED: ATOM     17  C   UNL     1     -37.464 -17.571   3.915 -0.04 +0.00    +0.285 C  
DOCKED: ENDBRANCH  14  15
DOCKED: ENDBRANCH  13  14
DOCKED: ENDBRANCH  12  13
DOCKED: ENDBRANCH   2  12
DOCKED: BRANCH   2  18
DOCKED: ATOM     18  C   UNL     1     -37.505 -17.369   0.305 -0.13 +0.00    +0.006 A  
DOCKED: ATOM     19  C   UNL     1     -36.275 -17.593  -0.311 -0.07 +0.00    +0.001 A  
DOCKED: ATOM     20  C   UNL     1     -35.824 -18.898  -0.510 -0.10 +0.00    +0.029 A  
DOCKED: ATOM     21  C   UNL     1     -36.604 -19.977  -0.093 -0.16 +0.00    +0.140 A  
DOCKED: ATOM     22  C   UNL     1     -37.834 -19.751   0.523 -0.20 +0.00    +0.029 A  
DOCKED: ATOM     23  F   UNL     1     -36.170 -21.229  -0.283 -0.07 -0.00    -0.204 F  
DOCKED: ATOM     24  C   UNL     1     -38.286 -18.446   0.722 -0.21 +0.00    +0.001 A  
DOCKED: ENDBRANCH   2  18
DOCKED: TORSDOF 5
DOCKED: TER
DOCKED: ENDMDL
________________________________________________________________________________


    FINAL DOCKED STATE:
    ________________________


Run:   358 / 512
Time taken for this run:   0.002s

DOCKED: MODEL        358
DOCKED: USER    Run = 358
DOCKED: USER
DOCKED: USER    Estimated Free Energy of Binding    =  -3.99 kcal/mol  [=(1)+(2)+(3)-(4)]
DOCKED: USER
DOCKED: USER    (1) Final Intermolecular Energy     =  -5.48 kcal/mol
DOCKED: USER        vdW + Hbond + desolv Energy     =  -5.48 kcal/mol
DOCKED: USER        Electrostatic Energy            =  +0.00 kcal/mol
DOCKED: USER        Moving Ligand-Fixed Receptor    =  -5.48 kcal/mol
DOCKED: USER        Moving Ligand-Moving Receptor   =  +0.00 kcal/mol
DOCKED: USER    (2) Final Total Internal Energy     =  -1.21 kcal/mol
DOCKED: USER    (3) Torsional Free Energy           =  +1.49 kcal/mol
DOCKED: USER    (4) Unbound System's Energy         =  -1.21 kcal/mol
DOCKED: USER
DOCKED: USER
DOCKED: REMARK  5 active torsions:
DOCKED: REMARK  status: ('A' for Active; 'I' for Inactive)
DOCKED: REMARK    1  A    between atoms: C_2  and  C_19 
DOCKED: REMARK    2  A    between atoms: C_2  and  C_11 
DOCKED: REMARK    3  A    between atoms: C_19  and  C_20 
DOCKED: REMARK    4  A    between atoms: C_20  and  C_21 
DOCKED: REMARK    5  A    between atoms: C_21  and  N_22 
DOCKED: USER                              x       y       z     vdW  Elec       q    Type
DOCKED: USER                           _______ _______ _______ _____ _____    ______ ____
DOCKED: ROOT
DOCKED: ATOM      1  O   UNL     1     -38.909 -21.842   8.881 -0.06 -0.00    -0.346 OA 
DOCKED: ATOM      2  C   UNL     1     -39.945 -21.010   8.268 -0.11 +0.00    +0.130 C  
DOCKED: ATOM      3  C   UNL     1     -40.754 -21.982   7.458 -0.22 +0.00    +0.004 A  
DOCKED: ATOM      4  C   UNL     1     -40.289 -23.271   7.676 -0.26 +0.00    +0.006 A  
DOCKED: ATOM      5  C   UNL     1     -39.167 -23.244   8.640 -0.16 +0.00    +0.169 C  
DOCKED: ATOM      6  C   UNL     1     -41.822 -21.745   6.606 -0.28 -0.00    -0.001 A  
DOCKED: ATOM      7  C   UNL     1     -40.870 -24.361   7.051 -0.36 +0.00    +0.008 A  
DOCKED: ATOM      8  C   UNL     1     -42.415 -22.833   5.964 -0.32 +0.00    +0.010 A  
DOCKED: ATOM      9  C   UNL     1     -41.941 -24.135   6.186 -0.32 +0.00    +0.068 A  
DOCKED: ATOM     10  N   UNL     1     -43.068 -26.133   4.983 -2.38 -0.00    -0.191 NA 
DOCKED: ATOM     11  C   UNL     1     -42.563 -25.237   5.522 -0.34 +0.00    +0.101 C  
DOCKED: ENDROOT
DOCKED: BRANCH   2  12
DOCKED: ATOM     12  C   UNL     1     -40.752 -20.347   9.379 -0.05 +0.00    +0.038 C  
DOCKED: BRANCH  12  13
DOCKED: ATOM     13  C   UNL     1     -41.713 -19.300   8.820 -0.05 +0.00    +0.038 C  
DOCKED: BRANCH  13  14
DOCKED: ATOM     14  C   UNL     1     -43.166 -19.696   9.076 -0.02 +0.00    +0.251 C  
DOCKED: BRANCH  14  15
DOCKED: ATOM     15  N   UNL     1     -43.233 -20.773  10.057 -0.02 +0.00    +0.141 N  
DOCKED: ATOM     16  C   UNL     1     -44.062 -20.381  11.197 +0.00 +0.00    +0.285 C  
DOCKED: ATOM     17  C   UNL     1     -43.757 -21.995   9.445 -0.01 +0.00    +0.285 C  
DOCKED: ENDBRANCH  14  15
DOCKED: ENDBRANCH  13  14
DOCKED: ENDBRANCH  12  13
DOCKED: ENDBRANCH   2  12
DOCKED: BRANCH   2  18
DOCKED: ATOM     18  C   UNL     1     -39.248 -19.992   7.429 -0.13 +0.00    +0.006 A  
DOCKED: ATOM     19  C   UNL     1     -38.449 -19.021   8.031 -0.05 +0.00    +0.001 A  
DOCKED: ATOM     20  C   UNL     1     -37.798 -18.070   7.245 -0.04 +0.00    +0.029 A  
DOCKED: ATOM     21  C   UNL     1     -37.946 -18.091   5.859 -0.06 +0.00    +0.140 A  
DOCKED: ATOM     22  C   UNL     1     -38.745 -19.062   5.257 -0.14 +0.00    +0.029 A  
DOCKED: ATOM     23  F   UNL     1     -37.319 -17.179   5.104 -0.00 -0.00    -0.204 F  
DOCKED: ATOM     24  C   UNL     1     -39.397 -20.014   6.043 -0.10 +0.00    +0.001 A  
DOCKED: ENDBRANCH   2  18
DOCKED: TORSDOF 5
DOCKED: TER
DOCKED: ENDMDL
________________________________________________________________________________


    FINAL DOCKED STATE:
    ________________________


Run:   359 / 512
Time taken for this run:   0.002s

DOCKED: MODEL        359
DOCKED: USER    Run = 359
DOCKED: USER
DOCKED: USER    Estimated Free Energy of Binding    =  -4.91 kcal/mol  [=(1)+(2)+(3)-(4)]
DOCKED: USER
DOCKED: USER    (1) Final Intermolecular Energy     =  -6.40 kcal/mol
DOCKED: USER        vdW + Hbond + desolv Energy     =  -6.40 kcal/mol
DOCKED: USER        Electrostatic Energy            =  +0.00 kcal/mol
DOCKED: USER        Moving Ligand-Fixed Receptor    =  -6.40 kcal/mol
DOCKED: USER        Moving Ligand-Moving Receptor   =  +0.00 kcal/mol
DOCKED: USER    (2) Final Total Internal Energy     =  -1.01 kcal/mol
DOCKED: USER    (3) Torsional Free Energy           =  +1.49 kcal/mol
DOCKED: USER    (4) Unbound System's Energy         =  -1.01 kcal/mol
DOCKED: USER
DOCKED: USER
DOCKED: REMARK  5 active torsions:
DOCKED: REMARK  status: ('A' for Active; 'I' for Inactive)
DOCKED: REMARK    1  A    between atoms: C_2  and  C_19 
DOCKED: REMARK    2  A    between atoms: C_2  and  C_11 
DOCKED: REMARK    3  A    between atoms: C_19  and  C_20 
DOCKED: REMARK    4  A    between atoms: C_20  and  C_21 
DOCKED: REMARK    5  A    between atoms: C_21  and  N_22 
DOCKED: USER                              x       y       z     vdW  Elec       q    Type
DOCKED: USER                           _______ _______ _______ _____ _____    ______ ____
DOCKED: ROOT
DOCKED: ATOM      1  O   UNL     1     -39.174 -15.701   0.928 -0.10 -0.00    -0.346 OA 
DOCKED: ATOM      2  C   UNL     1     -37.911 -15.730   0.189 -0.17 +0.00    +0.130 C  
DOCKED: ATOM      3  C   UNL     1     -38.239 -15.058  -1.112 -0.26 +0.00    +0.004 A  
DOCKED: ATOM      4  C   UNL     1     -39.544 -14.587  -1.078 -0.20 +0.00    +0.006 A  
DOCKED: ATOM      5  C   UNL     1     -40.157 -14.899   0.233 -0.23 +0.00    +0.169 C  
DOCKED: ATOM      6  C   UNL     1     -37.443 -14.868  -2.232 -0.22 -0.00    -0.001 A  
DOCKED: ATOM      7  C   UNL     1     -40.097 -13.918  -2.156 -0.32 +0.00    +0.008 A  
DOCKED: ATOM      8  C   UNL     1     -37.988 -14.199  -3.330 -0.26 +0.00    +0.010 A  
DOCKED: ATOM      9  C   UNL     1     -39.308 -13.726  -3.291 -0.27 +0.00    +0.068 A  
DOCKED: ATOM     10  N   UNL     1     -40.287 -12.484  -5.344 -2.51 -0.00    -0.191 NA 
DOCKED: ATOM     11  C   UNL     1     -39.848 -13.041  -4.423 -0.35 +0.00    +0.101 C  
DOCKED: ENDROOT
DOCKED: BRANCH   2  12
DOCKED: ATOM     12  C   UNL     1     -36.862 -14.977   0.998 -0.16 +0.00    +0.038 C  
DOCKED: BRANCH  12  13
DOCKED: ATOM     13  C   UNL     1     -35.479 -15.088   0.358 -0.10 +0.00    +0.038 C  
DOCKED: BRANCH  13  14
DOCKED: ATOM     14  C   UNL     1     -34.638 -13.846   0.648 -0.08 +0.00    +0.251 C  
DOCKED: BRANCH  14  15
DOCKED: ATOM     15  N   UNL     1     -34.411 -13.091  -0.579 -0.07 +0.00    +0.141 N  
DOCKED: ATOM     16  C   UNL     1     -33.266 -12.192  -0.426 -0.03 +0.00    +0.285 C  
DOCKED: ATOM     17  C   UNL     1     -34.198 -13.996  -1.710 -0.01 +0.00    +0.285 C  
DOCKED: ENDBRANCH  14  15
DOCKED: ENDBRANCH  13  14
DOCKED: ENDBRANCH  12  13
DOCKED: ENDBRANCH   2  12
DOCKED: BRANCH   2  18
DOCKED: ATOM     18  C   UNL     1     -37.535 -17.165   0.024 -0.14 +0.00    +0.006 A  
DOCKED: ATOM     19  C   UNL     1     -36.901 -17.589  -1.143 -0.15 +0.00    +0.001 A  
DOCKED: ATOM     20  C   UNL     1     -36.550 -18.931  -1.297 -0.18 +0.00    +0.029 A  
DOCKED: ATOM     21  C   UNL     1     -36.833 -19.846  -0.284 -0.17 +0.00    +0.140 A  
DOCKED: ATOM     22  C   UNL     1     -37.467 -19.421   0.883 -0.21 +0.00    +0.029 A  
DOCKED: ATOM     23  F   UNL     1     -36.495 -21.133  -0.431 -0.04 -0.00    -0.204 F  
DOCKED: ATOM     24  C   UNL     1     -37.819 -18.079   1.038 -0.16 +0.00    +0.001 A  
DOCKED: ENDBRANCH   2  18
DOCKED: TORSDOF 5
DOCKED: TER
DOCKED: ENDMDL
________________________________________________________________________________


    FINAL DOCKED STATE:
    ________________________


Run:   360 / 512
Time taken for this run:   0.002s

DOCKED: MODEL        360
DOCKED: USER    Run = 360
DOCKED: USER
DOCKED: USER    Estimated Free Energy of Binding    =  -5.11 kcal/mol  [=(1)+(2)+(3)-(4)]
DOCKED: USER
DOCKED: USER    (1) Final Intermolecular Energy     =  -6.61 kcal/mol
DOCKED: USER        vdW + Hbond + desolv Energy     =  -6.61 kcal/mol
DOCKED: USER        Electrostatic Energy            =  +0.00 kcal/mol
DOCKED: USER        Moving Ligand-Fixed Receptor    =  -6.61 kcal/mol
DOCKED: USER        Moving Ligand-Moving Receptor   =  +0.00 kcal/mol
DOCKED: USER    (2) Final Total Internal Energy     =  -1.10 kcal/mol
DOCKED: USER    (3) Torsional Free Energy           =  +1.49 kcal/mol
DOCKED: USER    (4) Unbound System's Energy         =  -1.10 kcal/mol
DOCKED: USER
DOCKED: USER
DOCKED: REMARK  5 active torsions:
DOCKED: REMARK  status: ('A' for Active; 'I' for Inactive)
DOCKED: REMARK    1  A    between atoms: C_2  and  C_19 
DOCKED: REMARK    2  A    between atoms: C_2  and  C_11 
DOCKED: REMARK    3  A    between atoms: C_19  and  C_20 
DOCKED: REMARK    4  A    between atoms: C_20  and  C_21 
DOCKED: REMARK    5  A    between atoms: C_21  and  N_22 
DOCKED: USER                              x       y       z     vdW  Elec       q    Type
DOCKED: USER                           _______ _______ _______ _____ _____    ______ ____
DOCKED: ROOT
DOCKED: ATOM      1  O   UNL     1     -40.719 -21.598   7.899 -0.06 -0.00    -0.346 OA 
DOCKED: ATOM      2  C   UNL     1     -40.400 -23.023   8.002 -0.21 +0.00    +0.130 C  
DOCKED: ATOM      3  C   UNL     1     -41.019 -23.620   6.772 -0.32 +0.00    +0.004 A  
DOCKED: ATOM      4  C   UNL     1     -41.549 -22.611   5.979 -0.32 +0.00    +0.006 A  
DOCKED: ATOM      5  C   UNL     1     -41.311 -21.296   6.614 -0.23 +0.00    +0.169 C  
DOCKED: ATOM      6  C   UNL     1     -41.097 -24.948   6.379 -0.42 -0.00    -0.001 A  
DOCKED: ATOM      7  C   UNL     1     -42.176 -22.893   4.777 -0.19 +0.00    +0.008 A  
DOCKED: ATOM      8  C   UNL     1     -41.729 -25.249   5.171 -0.44 +0.00    +0.010 A  
DOCKED: ATOM      9  C   UNL     1     -42.265 -24.227   4.375 -0.41 +0.00    +0.068 A  
DOCKED: ATOM     10  N   UNL     1     -43.428 -24.819   2.136 -2.24 -0.00    -0.191 NA 
DOCKED: ATOM     11  C   UNL     1     -42.907 -24.554   3.141 -0.51 +0.00    +0.101 C  
DOCKED: ENDROOT
DOCKED: BRANCH   2  12
DOCKED: ATOM     12  C   UNL     1     -38.884 -23.176   8.038 -0.16 +0.00    +0.038 C  
DOCKED: BRANCH  12  13
DOCKED: ATOM     13  C   UNL     1     -38.224 -22.017   8.782 -0.16 +0.00    +0.038 C  
DOCKED: BRANCH  13  14
DOCKED: ATOM     14  C   UNL     1     -37.786 -20.921   7.814 -0.07 +0.00    +0.251 C  
DOCKED: BRANCH  14  15
DOCKED: ATOM     15  N   UNL     1     -36.343 -20.723   7.891 -0.07 +0.00    +0.141 N  
DOCKED: ATOM     16  C   UNL     1     -35.761 -21.571   8.932 -0.04 +0.00    +0.285 C  
DOCKED: ATOM     17  C   UNL     1     -35.715 -21.002   6.598 -0.05 +0.00    +0.285 C  
DOCKED: ENDBRANCH  14  15
DOCKED: ENDBRANCH  13  14
DOCKED: ENDBRANCH  12  13
DOCKED: ENDBRANCH   2  12
DOCKED: BRANCH   2  18
DOCKED: ATOM     18  C   UNL     1     -41.021 -23.519   9.265 -0.15 +0.00    +0.006 A  
DOCKED: ATOM     19  C   UNL     1     -40.291 -24.337  10.126 -0.09 +0.00    +0.001 A  
DOCKED: ATOM     20  C   UNL     1     -40.873 -24.801  11.306 -0.19 +0.00    +0.029 A  
DOCKED: ATOM     21  C   UNL     1     -42.183 -24.446  11.624 -0.09 +0.00    +0.140 A  
DOCKED: ATOM     22  C   UNL     1     -42.913 -23.627  10.763 -0.08 +0.00    +0.029 A  
DOCKED: ATOM     23  F   UNL     1     -42.741 -24.889  12.758 -0.01 -0.00    -0.204 F  
DOCKED: ATOM     24  C   UNL     1     -42.332 -23.163   9.581 -0.09 +0.00    +0.001 A  
DOCKED: ENDBRANCH   2  18
DOCKED: TORSDOF 5
DOCKED: TER
DOCKED: ENDMDL
________________________________________________________________________________


    FINAL DOCKED STATE:
    ________________________


Run:   361 / 512
Time taken for this run:   0.002s

DOCKED: MODEL        361
DOCKED: USER    Run = 361
DOCKED: USER
DOCKED: USER    Estimated Free Energy of Binding    =  -5.37 kcal/mol  [=(1)+(2)+(3)-(4)]
DOCKED: USER
DOCKED: USER    (1) Final Intermolecular Energy     =  -6.86 kcal/mol
DOCKED: USER        vdW + Hbond + desolv Energy     =  -6.86 kcal/mol
DOCKED: USER        Electrostatic Energy            =  +0.00 kcal/mol
DOCKED: USER        Moving Ligand-Fixed Receptor    =  -6.86 kcal/mol
DOCKED: USER        Moving Ligand-Moving Receptor   =  +0.00 kcal/mol
DOCKED: USER    (2) Final Total Internal Energy     =  -1.43 kcal/mol
DOCKED: USER    (3) Torsional Free Energy           =  +1.49 kcal/mol
DOCKED: USER    (4) Unbound System's Energy         =  -1.43 kcal/mol
DOCKED: USER
DOCKED: USER
DOCKED: REMARK  5 active torsions:
DOCKED: REMARK  status: ('A' for Active; 'I' for Inactive)
DOCKED: REMARK    1  A    between atoms: C_2  and  C_19 
DOCKED: REMARK    2  A    between atoms: C_2  and  C_11 
DOCKED: REMARK    3  A    between atoms: C_19  and  C_20 
DOCKED: REMARK    4  A    between atoms: C_20  and  C_21 
DOCKED: REMARK    5  A    between atoms: C_21  and  N_22 
DOCKED: USER                              x       y       z     vdW  Elec       q    Type
DOCKED: USER                           _______ _______ _______ _____ _____    ______ ____
DOCKED: ROOT
DOCKED: ATOM      1  O   UNL     1     -40.921 -23.679   7.895 -0.09 -0.00    -0.346 OA 
DOCKED: ATOM      2  C   UNL     1     -42.381 -23.597   7.961 -0.15 +0.00    +0.130 C  
DOCKED: ATOM      3  C   UNL     1     -42.816 -23.786   6.536 -0.28 +0.00    +0.004 A  
DOCKED: ATOM      4  C   UNL     1     -41.711 -24.063   5.743 -0.39 +0.00    +0.006 A  
DOCKED: ATOM      5  C   UNL     1     -40.488 -24.088   6.577 -0.18 +0.00    +0.169 C  
DOCKED: ATOM      6  C   UNL     1     -44.089 -23.729   5.988 -0.29 -0.00    -0.001 A  
DOCKED: ATOM      7  C   UNL     1     -41.838 -24.286   4.383 -0.23 +0.00    +0.008 A  
DOCKED: ATOM      8  C   UNL     1     -44.233 -23.949   4.617 -0.26 +0.00    +0.010 A  
DOCKED: ATOM      9  C   UNL     1     -43.113 -24.226   3.819 -0.40 +0.00    +0.068 A  
DOCKED: ATOM     10  N   UNL     1     -43.416 -24.633   1.278 -3.13 -0.00    -0.191 NA 
DOCKED: ATOM     11  C   UNL     1     -43.280 -24.450   2.417 -0.28 +0.00    +0.101 C  
DOCKED: ENDROOT
DOCKED: BRANCH   2  12
DOCKED: ATOM     12  C   UNL     1     -42.885 -24.697   8.886 -0.23 +0.00    +0.038 C  
DOCKED: BRANCH  12  13
DOCKED: ATOM     13  C   UNL     1     -41.802 -25.740   9.154 -0.25 +0.00    +0.038 C  
DOCKED: BRANCH  13  14
DOCKED: ATOM     14  C   UNL     1     -41.238 -25.598  10.566 -0.11 +0.00    +0.251 C  
DOCKED: BRANCH  14  15
DOCKED: ATOM     15  N   UNL     1     -41.796 -24.418  11.218 -0.11 +0.00    +0.141 N  
DOCKED: ATOM     16  C   UNL     1     -42.456 -24.785  12.472 -0.06 +0.00    +0.285 C  
DOCKED: ATOM     17  C   UNL     1     -40.750 -23.424  11.467 -0.05 +0.00    +0.285 C  
DOCKED: ENDBRANCH  14  15
DOCKED: ENDBRANCH  13  14
DOCKED: ENDBRANCH  12  13
DOCKED: ENDBRANCH   2  12
DOCKED: BRANCH   2  18
DOCKED: ATOM     18  C   UNL     1     -42.718 -22.246   8.497 -0.10 +0.00    +0.006 A  
DOCKED: ATOM     19  C   UNL     1     -41.838 -21.181   8.307 -0.10 +0.00    +0.001 A  
DOCKED: ATOM     20  C   UNL     1     -42.155 -19.918   8.809 -0.05 +0.00    +0.029 A  
DOCKED: ATOM     21  C   UNL     1     -43.350 -19.722   9.500 -0.02 +0.00    +0.140 A  
DOCKED: ATOM     22  C   UNL     1     -44.229 -20.787   9.689 -0.03 +0.00    +0.029 A  
DOCKED: ATOM     23  F   UNL     1     -43.654 -18.509   9.980 +0.00 -0.00    -0.204 F  
DOCKED: ATOM     24  C   UNL     1     -43.913 -22.051   9.188 -0.06 +0.00    +0.001 A  
DOCKED: ENDBRANCH   2  18
DOCKED: TORSDOF 5
DOCKED: TER
DOCKED: ENDMDL
________________________________________________________________________________


    FINAL DOCKED STATE:
    ________________________


Run:   362 / 512
Time taken for this run:   0.002s

DOCKED: MODEL        362
DOCKED: USER    Run = 362
DOCKED: USER
DOCKED: USER    Estimated Free Energy of Binding    =  -3.07 kcal/mol  [=(1)+(2)+(3)-(4)]
DOCKED: USER
DOCKED: USER    (1) Final Intermolecular Energy     =  -4.56 kcal/mol
DOCKED: USER        vdW + Hbond + desolv Energy     =  -4.56 kcal/mol
DOCKED: USER        Electrostatic Energy            =  +0.00 kcal/mol
DOCKED: USER        Moving Ligand-Fixed Receptor    =  -4.56 kcal/mol
DOCKED: USER        Moving Ligand-Moving Receptor   =  +0.00 kcal/mol
DOCKED: USER    (2) Final Total Internal Energy     =  -1.61 kcal/mol
DOCKED: USER    (3) Torsional Free Energy           =  +1.49 kcal/mol
DOCKED: USER    (4) Unbound System's Energy         =  -1.61 kcal/mol
DOCKED: USER
DOCKED: USER
DOCKED: REMARK  5 active torsions:
DOCKED: REMARK  status: ('A' for Active; 'I' for Inactive)
DOCKED: REMARK    1  A    between atoms: C_2  and  C_19 
DOCKED: REMARK    2  A    between atoms: C_2  and  C_11 
DOCKED: REMARK    3  A    between atoms: C_19  and  C_20 
DOCKED: REMARK    4  A    between atoms: C_20  and  C_21 
DOCKED: REMARK    5  A    between atoms: C_21  and  N_22 
DOCKED: USER                              x       y       z     vdW  Elec       q    Type
DOCKED: USER                           _______ _______ _______ _____ _____    ______ ____
DOCKED: ROOT
DOCKED: ATOM      1  O   UNL     1     -41.107 -18.965   6.902 -0.06 -0.00    -0.346 OA 
DOCKED: ATOM      2  C   UNL     1     -39.961 -19.806   7.252 -0.14 +0.00    +0.130 C  
DOCKED: ATOM      3  C   UNL     1     -40.511 -21.202   7.202 -0.21 +0.00    +0.004 A  
DOCKED: ATOM      4  C   UNL     1     -41.824 -21.171   6.754 -0.25 +0.00    +0.006 A  
DOCKED: ATOM      5  C   UNL     1     -42.225 -19.775   6.470 -0.15 +0.00    +0.169 C  
DOCKED: ATOM      6  C   UNL     1     -39.894 -22.405   7.515 -0.18 -0.00    -0.001 A  
DOCKED: ATOM      7  C   UNL     1     -42.564 -22.332   6.610 -0.26 +0.00    +0.008 A  
DOCKED: ATOM      8  C   UNL     1     -40.629 -23.584   7.379 -0.29 +0.00    +0.010 A  
DOCKED: ATOM      9  C   UNL     1     -41.957 -23.548   6.928 -0.24 +0.00    +0.068 A  
DOCKED: ATOM     10  N   UNL     1     -43.289 -25.756   6.682 -2.02 -0.00    -0.191 NA 
DOCKED: ATOM     11  C   UNL     1     -42.692 -24.765   6.793 -0.24 +0.00    +0.101 C  
DOCKED: ENDROOT
DOCKED: BRANCH   2  12
DOCKED: ATOM     12  C   UNL     1     -38.856 -19.566   6.230 -0.17 +0.00    +0.038 C  
DOCKED: BRANCH  12  13
DOCKED: ATOM     13  C   UNL     1     -39.103 -18.286   5.434 -0.13 +0.00    +0.038 C  
DOCKED: BRANCH  13  14
DOCKED: ATOM     14  C   UNL     1     -38.680 -17.053   6.230 -0.03 +0.00    +0.251 C  
DOCKED: BRANCH  14  15
DOCKED: ATOM     15  N   UNL     1     -39.806 -16.536   6.999 -0.02 +0.00    +0.141 N  
DOCKED: ATOM     16  C   UNL     1     -39.339 -15.644   8.062 -0.00 +0.00    +0.285 C  
DOCKED: ATOM     17  C   UNL     1     -40.748 -15.835   6.126 -0.04 +0.00    +0.285 C  
DOCKED: ENDBRANCH  14  15
DOCKED: ENDBRANCH  13  14
DOCKED: ENDBRANCH  12  13
DOCKED: ENDBRANCH   2  12
DOCKED: BRANCH   2  18
DOCKED: ATOM     18  C   UNL     1     -39.526 -19.402   8.621 -0.05 +0.00    +0.006 A  
DOCKED: ATOM     19  C   UNL     1     -38.170 -19.395   8.947 -0.03 +0.00    +0.001 A  
DOCKED: ATOM     20  C   UNL     1     -37.764 -19.017  10.228 -0.01 +0.00    +0.029 A  
DOCKED: ATOM     21  C   UNL     1     -38.714 -18.646  11.179 -0.00 +0.00    +0.140 A  
DOCKED: ATOM     22  C   UNL     1     -40.069 -18.653  10.852 -0.00 +0.00    +0.029 A  
DOCKED: ATOM     23  F   UNL     1     -38.324 -18.281  12.407 +0.00 -0.00    -0.204 F  
DOCKED: ATOM     24  C   UNL     1     -40.476 -19.031   9.571 -0.02 +0.00    +0.001 A  
DOCKED: ENDBRANCH   2  18
DOCKED: TORSDOF 5
DOCKED: TER
DOCKED: ENDMDL
________________________________________________________________________________


    FINAL DOCKED STATE:
    ________________________


Run:   363 / 512
Time taken for this run:   0.002s

DOCKED: MODEL        363
DOCKED: USER    Run = 363
DOCKED: USER
DOCKED: USER    Estimated Free Energy of Binding    =  -5.09 kcal/mol  [=(1)+(2)+(3)-(4)]
DOCKED: USER
DOCKED: USER    (1) Final Intermolecular Energy     =  -6.59 kcal/mol
DOCKED: USER        vdW + Hbond + desolv Energy     =  -6.59 kcal/mol
DOCKED: USER        Electrostatic Energy            =  +0.00 kcal/mol
DOCKED: USER        Moving Ligand-Fixed Receptor    =  -6.59 kcal/mol
DOCKED: USER        Moving Ligand-Moving Receptor   =  +0.00 kcal/mol
DOCKED: USER    (2) Final Total Internal Energy     =  -0.97 kcal/mol
DOCKED: USER    (3) Torsional Free Energy           =  +1.49 kcal/mol
DOCKED: USER    (4) Unbound System's Energy         =  -0.97 kcal/mol
DOCKED: USER
DOCKED: USER
DOCKED: REMARK  5 active torsions:
DOCKED: REMARK  status: ('A' for Active; 'I' for Inactive)
DOCKED: REMARK    1  A    between atoms: C_2  and  C_19 
DOCKED: REMARK    2  A    between atoms: C_2  and  C_11 
DOCKED: REMARK    3  A    between atoms: C_19  and  C_20 
DOCKED: REMARK    4  A    between atoms: C_20  and  C_21 
DOCKED: REMARK    5  A    between atoms: C_21  and  N_22 
DOCKED: USER                              x       y       z     vdW  Elec       q    Type
DOCKED: USER                           _______ _______ _______ _____ _____    ______ ____
DOCKED: ROOT
DOCKED: ATOM      1  O   UNL     1     -42.389 -24.659   9.042 -0.08 -0.00    -0.346 OA 
DOCKED: ATOM      2  C   UNL     1     -41.897 -23.362   8.575 -0.13 +0.00    +0.130 C  
DOCKED: ATOM      3  C   UNL     1     -42.103 -23.414   7.089 -0.25 +0.00    +0.004 A  
DOCKED: ATOM      4  C   UNL     1     -42.757 -24.589   6.748 -0.29 +0.00    +0.006 A  
DOCKED: ATOM      5  C   UNL     1     -43.036 -25.380   7.968 -0.14 +0.00    +0.169 C  
DOCKED: ATOM      6  C   UNL     1     -41.750 -22.489   6.117 -0.33 -0.00    -0.001 A  
DOCKED: ATOM      7  C   UNL     1     -43.075 -24.882   5.433 -0.40 +0.00    +0.008 A  
DOCKED: ATOM      8  C   UNL     1     -42.060 -22.771   4.785 -0.12 +0.00    +0.010 A  
DOCKED: ATOM      9  C   UNL     1     -42.720 -23.962   4.446 -0.39 +0.00    +0.068 A  
DOCKED: ATOM     10  N   UNL     1     -43.285 -24.454   1.965 -2.57 -0.00    -0.191 NA 
DOCKED: ATOM     11  C   UNL     1     -43.031 -24.234   3.078 -0.44 +0.00    +0.101 C  
DOCKED: ENDROOT
DOCKED: BRANCH   2  12
DOCKED: ATOM     12  C   UNL     1     -42.712 -22.265   9.249 -0.08 +0.00    +0.038 C  
DOCKED: BRANCH  12  13
DOCKED: ATOM     13  C   UNL     1     -42.423 -20.898   8.633 -0.09 +0.00    +0.038 C  
DOCKED: BRANCH  13  14
DOCKED: ATOM     14  C   UNL     1     -43.681 -20.299   8.008 -0.09 +0.00    +0.251 C  
DOCKED: BRANCH  14  15
DOCKED: ATOM     15  N   UNL     1     -43.471 -18.891   7.693 -0.10 +0.00    +0.141 N  
DOCKED: ATOM     16  C   UNL     1     -42.736 -18.748   6.435 -0.14 +0.00    +0.285 C  
DOCKED: ATOM     17  C   UNL     1     -44.750 -18.183   7.617 -0.08 +0.00    +0.285 C  
DOCKED: ENDBRANCH  14  15
DOCKED: ENDBRANCH  13  14
DOCKED: ENDBRANCH  12  13
DOCKED: ENDBRANCH   2  12
DOCKED: BRANCH   2  18
DOCKED: ATOM     18  C   UNL     1     -40.458 -23.278   8.960 -0.17 +0.00    +0.006 A  
DOCKED: ATOM     19  C   UNL     1     -39.470 -23.309   7.976 -0.24 +0.00    +0.001 A  
DOCKED: ATOM     20  C   UNL     1     -38.125 -23.230   8.337 -0.15 +0.00    +0.029 A  
DOCKED: ATOM     21  C   UNL     1     -37.769 -23.119   9.681 -0.10 +0.00    +0.140 A  
DOCKED: ATOM     22  C   UNL     1     -38.757 -23.087  10.664 -0.10 +0.00    +0.029 A  
DOCKED: ATOM     23  F   UNL     1     -36.478 -23.042  10.027 -0.02 -0.00    -0.204 F  
DOCKED: ATOM     24  C   UNL     1     -40.103 -23.167  10.304 -0.11 +0.00    +0.001 A  
DOCKED: ENDBRANCH   2  18
DOCKED: TORSDOF 5
DOCKED: TER
DOCKED: ENDMDL
________________________________________________________________________________


    FINAL DOCKED STATE:
    ________________________


Run:   364 / 512
Time taken for this run:   0.002s

DOCKED: MODEL        364
DOCKED: USER    Run = 364
DOCKED: USER
DOCKED: USER    Estimated Free Energy of Binding    =  -3.45 kcal/mol  [=(1)+(2)+(3)-(4)]
DOCKED: USER
DOCKED: USER    (1) Final Intermolecular Energy     =  -4.94 kcal/mol
DOCKED: USER        vdW + Hbond + desolv Energy     =  -4.94 kcal/mol
DOCKED: USER        Electrostatic Energy            =  +0.00 kcal/mol
DOCKED: USER        Moving Ligand-Fixed Receptor    =  -4.94 kcal/mol
DOCKED: USER        Moving Ligand-Moving Receptor   =  +0.00 kcal/mol
DOCKED: USER    (2) Final Total Internal Energy     =  -1.47 kcal/mol
DOCKED: USER    (3) Torsional Free Energy           =  +1.49 kcal/mol
DOCKED: USER    (4) Unbound System's Energy         =  -1.47 kcal/mol
DOCKED: USER
DOCKED: USER
DOCKED: REMARK  5 active torsions:
DOCKED: REMARK  status: ('A' for Active; 'I' for Inactive)
DOCKED: REMARK    1  A    between atoms: C_2  and  C_19 
DOCKED: REMARK    2  A    between atoms: C_2  and  C_11 
DOCKED: REMARK    3  A    between atoms: C_19  and  C_20 
DOCKED: REMARK    4  A    between atoms: C_20  and  C_21 
DOCKED: REMARK    5  A    between atoms: C_21  and  N_22 
DOCKED: USER                              x       y       z     vdW  Elec       q    Type
DOCKED: USER                           _______ _______ _______ _____ _____    ______ ____
DOCKED: ROOT
DOCKED: ATOM      1  O   UNL     1     -36.664 -20.076   1.730 -0.04 -0.00    -0.346 OA 
DOCKED: ATOM      2  C   UNL     1     -35.591 -20.082   2.726 -0.10 +0.00    +0.130 C  
DOCKED: ATOM      3  C   UNL     1     -35.409 -21.536   3.050 -0.17 +0.00    +0.004 A  
DOCKED: ATOM      4  C   UNL     1     -36.227 -22.303   2.232 -0.27 +0.00    +0.006 A  
DOCKED: ATOM      5  C   UNL     1     -36.986 -21.423   1.314 -0.28 +0.00    +0.169 C  
DOCKED: ATOM      6  C   UNL     1     -34.578 -22.134   3.986 -0.15 -0.00    -0.001 A  
DOCKED: ATOM      7  C   UNL     1     -36.246 -23.684   2.323 -0.30 +0.00    +0.008 A  
DOCKED: ATOM      8  C   UNL     1     -34.589 -23.526   4.093 -0.22 +0.00    +0.010 A  
DOCKED: ATOM      9  C   UNL     1     -35.418 -24.296   3.265 -0.25 +0.00    +0.068 A  
DOCKED: ATOM     10  N   UNL     1     -35.410 -26.878   3.486 -2.15 -0.00    -0.191 NA 
DOCKED: ATOM     11  C   UNL     1     -35.414 -25.720   3.387 -0.41 +0.00    +0.101 C  
DOCKED: ENDROOT
DOCKED: BRANCH   2  12
DOCKED: ATOM     12  C   UNL     1     -34.351 -19.453   2.102 -0.03 +0.00    +0.038 C  
DOCKED: BRANCH  12  13
DOCKED: ATOM     13  C   UNL     1     -34.592 -19.073   0.643 -0.03 +0.00    +0.038 C  
DOCKED: BRANCH  13  14
DOCKED: ATOM     14  C   UNL     1     -33.670 -19.857  -0.289 -0.01 +0.00    +0.251 C  
DOCKED: BRANCH  14  15
DOCKED: ATOM     15  N   UNL     1     -33.719 -21.279   0.027 -0.04 +0.00    +0.141 N  
DOCKED: ATOM     16  C   UNL     1     -34.246 -22.042  -1.105 -0.08 +0.00    +0.285 C  
DOCKED: ATOM     17  C   UNL     1     -32.391 -21.772   0.396 -0.00 +0.00    +0.285 C  
DOCKED: ENDBRANCH  14  15
DOCKED: ENDBRANCH  13  14
DOCKED: ENDBRANCH  12  13
DOCKED: ENDBRANCH   2  12
DOCKED: BRANCH   2  18
DOCKED: ATOM     18  C   UNL     1     -36.073 -19.282   3.890 -0.10 +0.00    +0.006 A  
DOCKED: ATOM     19  C   UNL     1     -35.231 -18.345   4.488 -0.03 +0.00    +0.001 A  
DOCKED: ATOM     20  C   UNL     1     -35.682 -17.599   5.577 -0.02 +0.00    +0.029 A  
DOCKED: ATOM     21  C   UNL     1     -36.974 -17.789   6.066 -0.03 +0.00    +0.140 A  
DOCKED: ATOM     22  C   UNL     1     -37.815 -18.726   5.467 -0.12 +0.00    +0.029 A  
DOCKED: ATOM     23  F   UNL     1     -37.407 -17.071   7.110 +0.00 -0.00    -0.204 F  
DOCKED: ATOM     24  C   UNL     1     -37.365 -19.474   4.378 -0.13 +0.00    +0.001 A  
DOCKED: ENDBRANCH   2  18
DOCKED: TORSDOF 5
DOCKED: TER
DOCKED: ENDMDL
________________________________________________________________________________


    FINAL DOCKED STATE:
    ________________________


Run:   365 / 512
Time taken for this run:   0.002s

DOCKED: MODEL        365
DOCKED: USER    Run = 365
DOCKED: USER
DOCKED: USER    Estimated Free Energy of Binding    =  -4.30 kcal/mol  [=(1)+(2)+(3)-(4)]
DOCKED: USER
DOCKED: USER    (1) Final Intermolecular Energy     =  -5.79 kcal/mol
DOCKED: USER        vdW + Hbond + desolv Energy     =  -5.79 kcal/mol
DOCKED: USER        Electrostatic Energy            =  +0.00 kcal/mol
DOCKED: USER        Moving Ligand-Fixed Receptor    =  -5.79 kcal/mol
DOCKED: USER        Moving Ligand-Moving Receptor   =  +0.00 kcal/mol
DOCKED: USER    (2) Final Total Internal Energy     =  -1.27 kcal/mol
DOCKED: USER    (3) Torsional Free Energy           =  +1.49 kcal/mol
DOCKED: USER    (4) Unbound System's Energy         =  -1.27 kcal/mol
DOCKED: USER
DOCKED: USER
DOCKED: REMARK  5 active torsions:
DOCKED: REMARK  status: ('A' for Active; 'I' for Inactive)
DOCKED: REMARK    1  A    between atoms: C_2  and  C_19 
DOCKED: REMARK    2  A    between atoms: C_2  and  C_11 
DOCKED: REMARK    3  A    between atoms: C_19  and  C_20 
DOCKED: REMARK    4  A    between atoms: C_20  and  C_21 
DOCKED: REMARK    5  A    between atoms: C_21  and  N_22 
DOCKED: USER                              x       y       z     vdW  Elec       q    Type
DOCKED: USER                           _______ _______ _______ _____ _____    ______ ____
DOCKED: ROOT
DOCKED: ATOM      1  O   UNL     1     -40.668 -19.476   7.317 -0.05 -0.00    -0.346 OA 
DOCKED: ATOM      2  C   UNL     1     -42.103 -19.468   7.608 -0.13 +0.00    +0.130 C  
DOCKED: ATOM      3  C   UNL     1     -42.570 -20.819   7.147 -0.21 +0.00    +0.004 A  
DOCKED: ATOM      4  C   UNL     1     -41.481 -21.573   6.732 -0.27 +0.00    +0.006 A  
DOCKED: ATOM      5  C   UNL     1     -40.235 -20.791   6.899 -0.18 +0.00    +0.169 C  
DOCKED: ATOM      6  C   UNL     1     -43.854 -21.342   7.109 -0.21 -0.00    -0.001 A  
DOCKED: ATOM      7  C   UNL     1     -41.637 -22.866   6.264 -0.33 +0.00    +0.008 A  
DOCKED: ATOM      8  C   UNL     1     -44.028 -22.643   6.634 -0.22 +0.00    +0.010 A  
DOCKED: ATOM      9  C   UNL     1     -42.925 -23.401   6.214 -0.25 +0.00    +0.068 A  
DOCKED: ATOM     10  N   UNL     1     -43.283 -25.816   5.344 -2.56 -0.00    -0.191 NA 
DOCKED: ATOM     11  C   UNL     1     -43.122 -24.733   5.734 -0.36 +0.00    +0.101 C  
DOCKED: ENDROOT
DOCKED: BRANCH   2  12
DOCKED: ATOM     12  C   UNL     1     -42.291 -19.255   9.105 -0.04 +0.00    +0.038 C  
DOCKED: BRANCH  12  13
DOCKED: ATOM     13  C   UNL     1     -40.975 -19.425   9.862 -0.02 +0.00    +0.038 C  
DOCKED: BRANCH  13  14
DOCKED: ATOM     14  C   UNL     1     -40.936 -20.760  10.603 -0.01 +0.00    +0.251 C  
DOCKED: BRANCH  14  15
DOCKED: ATOM     15  N   UNL     1     -39.717 -21.489  10.273 -0.03 +0.00    +0.141 N  
DOCKED: ATOM     16  C   UNL     1     -38.962 -21.807  11.486 -0.01 +0.00    +0.285 C  
DOCKED: ATOM     17  C   UNL     1     -40.031 -22.713   9.535 -0.07 +0.00    +0.285 C  
DOCKED: ENDBRANCH  14  15
DOCKED: ENDBRANCH  13  14
DOCKED: ENDBRANCH  12  13
DOCKED: ENDBRANCH   2  12
DOCKED: BRANCH   2  18
DOCKED: ATOM     18  C   UNL     1     -42.701 -18.348   6.825 -0.18 +0.00    +0.006 A  
DOCKED: ATOM     19  C   UNL     1     -43.971 -17.872   7.148 -0.16 +0.00    +0.001 A  
DOCKED: ATOM     20  C   UNL     1     -44.529 -16.825   6.415 -0.15 +0.00    +0.029 A  
DOCKED: ATOM     21  C   UNL     1     -43.817 -16.254   5.361 -0.12 +0.00    +0.140 A  
DOCKED: ATOM     22  C   UNL     1     -42.546 -16.730   5.039 -0.13 +0.00    +0.029 A  
DOCKED: ATOM     23  F   UNL     1     -44.353 -15.247   4.659 -0.02 -0.00    -0.204 F  
DOCKED: ATOM     24  C   UNL     1     -41.987 -17.778   5.771 -0.08 +0.00    +0.001 A  
DOCKED: ENDBRANCH   2  18
DOCKED: TORSDOF 5
DOCKED: TER
DOCKED: ENDMDL
________________________________________________________________________________


    FINAL DOCKED STATE:
    ________________________


Run:   366 / 512
Time taken for this run:   0.002s

DOCKED: MODEL        366
DOCKED: USER    Run = 366
DOCKED: USER
DOCKED: USER    Estimated Free Energy of Binding    =  -4.33 kcal/mol  [=(1)+(2)+(3)-(4)]
DOCKED: USER
DOCKED: USER    (1) Final Intermolecular Energy     =  -5.82 kcal/mol
DOCKED: USER        vdW + Hbond + desolv Energy     =  -5.82 kcal/mol
DOCKED: USER        Electrostatic Energy            =  +0.00 kcal/mol
DOCKED: USER        Moving Ligand-Fixed Receptor    =  -5.82 kcal/mol
DOCKED: USER        Moving Ligand-Moving Receptor   =  +0.00 kcal/mol
DOCKED: USER    (2) Final Total Internal Energy     =  -1.41 kcal/mol
DOCKED: USER    (3) Torsional Free Energy           =  +1.49 kcal/mol
DOCKED: USER    (4) Unbound System's Energy         =  -1.41 kcal/mol
DOCKED: USER
DOCKED: USER
DOCKED: REMARK  5 active torsions:
DOCKED: REMARK  status: ('A' for Active; 'I' for Inactive)
DOCKED: REMARK    1  A    between atoms: C_2  and  C_19 
DOCKED: REMARK    2  A    between atoms: C_2  and  C_11 
DOCKED: REMARK    3  A    between atoms: C_19  and  C_20 
DOCKED: REMARK    4  A    between atoms: C_20  and  C_21 
DOCKED: REMARK    5  A    between atoms: C_21  and  N_22 
DOCKED: USER                              x       y       z     vdW  Elec       q    Type
DOCKED: USER                           _______ _______ _______ _____ _____    ______ ____
DOCKED: ROOT
DOCKED: ATOM      1  O   UNL     1     -40.662 -19.348   6.677 -0.08 -0.00    -0.346 OA 
DOCKED: ATOM      2  C   UNL     1     -41.969 -19.435   7.329 -0.15 +0.00    +0.130 C  
DOCKED: ATOM      3  C   UNL     1     -42.452 -20.814   6.985 -0.22 +0.00    +0.004 A  
DOCKED: ATOM      4  C   UNL     1     -41.462 -21.496   6.291 -0.26 +0.00    +0.006 A  
DOCKED: ATOM      5  C   UNL     1     -40.269 -20.633   6.141 -0.08 +0.00    +0.169 C  
DOCKED: ATOM      6  C   UNL     1     -43.666 -21.421   7.272 -0.20 -0.00    -0.001 A  
DOCKED: ATOM      7  C   UNL     1     -41.651 -22.798   5.859 -0.33 +0.00    +0.008 A  
DOCKED: ATOM      8  C   UNL     1     -43.873 -22.732   6.840 -0.22 +0.00    +0.010 A  
DOCKED: ATOM      9  C   UNL     1     -42.870 -23.417   6.137 -0.26 +0.00    +0.068 A  
DOCKED: ATOM     10  N   UNL     1     -43.285 -25.851   5.354 -2.56 -0.00    -0.191 NA 
DOCKED: ATOM     11  C   UNL     1     -43.099 -24.759   5.705 -0.36 +0.00    +0.101 C  
DOCKED: ENDROOT
DOCKED: BRANCH   2  12
DOCKED: ATOM     12  C   UNL     1     -41.776 -19.231   8.827 -0.05 +0.00    +0.038 C  
DOCKED: BRANCH  12  13
DOCKED: ATOM     13  C   UNL     1     -41.365 -17.794   9.145 -0.02 +0.00    +0.038 C  
DOCKED: BRANCH  13  14
DOCKED: ATOM     14  C   UNL     1     -39.929 -17.735   9.661 -0.00 +0.00    +0.251 C  
DOCKED: BRANCH  14  15
DOCKED: ATOM     15  N   UNL     1     -39.100 -16.938   8.764 -0.01 +0.00    +0.141 N  
DOCKED: ATOM     16  C   UNL     1     -38.367 -17.800   7.837 -0.01 +0.00    +0.285 C  
DOCKED: ATOM     17  C   UNL     1     -39.919 -15.976   8.024 -0.00 +0.00    +0.285 C  
DOCKED: ENDBRANCH  14  15
DOCKED: ENDBRANCH  13  14
DOCKED: ENDBRANCH  12  13
DOCKED: ENDBRANCH   2  12
DOCKED: BRANCH   2  18
DOCKED: ATOM     18  C   UNL     1     -42.821 -18.358   6.745 -0.19 +0.00    +0.006 A  
DOCKED: ATOM     19  C   UNL     1     -44.177 -18.292   7.063 -0.19 +0.00    +0.001 A  
DOCKED: ATOM     20  C   UNL     1     -44.972 -17.285   6.516 -0.17 +0.00    +0.029 A  
DOCKED: ATOM     21  C   UNL     1     -44.411 -16.345   5.652 -0.12 +0.00    +0.140 A  
DOCKED: ATOM     22  C   UNL     1     -43.055 -16.412   5.334 -0.16 +0.00    +0.029 A  
DOCKED: ATOM     23  F   UNL     1     -45.175 -15.377   5.128 -0.02 -0.00    -0.204 F  
DOCKED: ATOM     24  C   UNL     1     -42.259 -17.420   5.881 -0.16 +0.00    +0.001 A  
DOCKED: ENDBRANCH   2  18
DOCKED: TORSDOF 5
DOCKED: TER
DOCKED: ENDMDL
________________________________________________________________________________


    FINAL DOCKED STATE:
    ________________________


Run:   367 / 512
Time taken for this run:   0.002s

DOCKED: MODEL        367
DOCKED: USER    Run = 367
DOCKED: USER
DOCKED: USER    Estimated Free Energy of Binding    =  -3.89 kcal/mol  [=(1)+(2)+(3)-(4)]
DOCKED: USER
DOCKED: USER    (1) Final Intermolecular Energy     =  -5.39 kcal/mol
DOCKED: USER        vdW + Hbond + desolv Energy     =  -5.39 kcal/mol
DOCKED: USER        Electrostatic Energy            =  +0.00 kcal/mol
DOCKED: USER        Moving Ligand-Fixed Receptor    =  -5.39 kcal/mol
DOCKED: USER        Moving Ligand-Moving Receptor   =  +0.00 kcal/mol
DOCKED: USER    (2) Final Total Internal Energy     =  -1.11 kcal/mol
DOCKED: USER    (3) Torsional Free Energy           =  +1.49 kcal/mol
DOCKED: USER    (4) Unbound System's Energy         =  -1.11 kcal/mol
DOCKED: USER
DOCKED: USER
DOCKED: REMARK  5 active torsions:
DOCKED: REMARK  status: ('A' for Active; 'I' for Inactive)
DOCKED: REMARK    1  A    between atoms: C_2  and  C_19 
DOCKED: REMARK    2  A    between atoms: C_2  and  C_11 
DOCKED: REMARK    3  A    between atoms: C_19  and  C_20 
DOCKED: REMARK    4  A    between atoms: C_20  and  C_21 
DOCKED: REMARK    5  A    between atoms: C_21  and  N_22 
DOCKED: USER                              x       y       z     vdW  Elec       q    Type
DOCKED: USER                           _______ _______ _______ _____ _____    ______ ____
DOCKED: ROOT
DOCKED: ATOM      1  O   UNL     1     -38.682 -16.277   0.845 -0.06 -0.00    -0.346 OA 
DOCKED: ATOM      2  C   UNL     1     -37.500 -15.496   0.477 -0.15 +0.00    +0.130 C  
DOCKED: ATOM      3  C   UNL     1     -37.916 -14.785  -0.778 -0.17 +0.00    +0.004 A  
DOCKED: ATOM      4  C   UNL     1     -39.252 -15.048  -1.043 -0.28 +0.00    +0.006 A  
DOCKED: ATOM      5  C   UNL     1     -39.809 -15.928   0.009 -0.14 +0.00    +0.169 C  
DOCKED: ATOM      6  C   UNL     1     -37.174 -13.961  -1.612 -0.16 -0.00    -0.001 A  
DOCKED: ATOM      7  C   UNL     1     -39.889 -14.505  -2.146 -0.22 +0.00    +0.008 A  
DOCKED: ATOM      8  C   UNL     1     -37.801 -13.410  -2.731 -0.27 +0.00    +0.010 A  
DOCKED: ATOM      9  C   UNL     1     -39.151 -13.680  -2.996 -0.34 +0.00    +0.068 A  
DOCKED: ATOM     10  N   UNL     1     -40.285 -12.636  -5.079 -2.47 -0.00    -0.191 NA 
DOCKED: ATOM     11  C   UNL     1     -39.776 -13.105  -4.145 -0.38 +0.00    +0.101 C  
DOCKED: ENDROOT
DOCKED: BRANCH   2  12
DOCKED: ATOM     12  C   UNL     1     -37.177 -14.541   1.620 -0.12 +0.00    +0.038 C  
DOCKED: BRANCH  12  13
DOCKED: ATOM     13  C   UNL     1     -38.271 -14.558   2.686 -0.20 +0.00    +0.038 C  
DOCKED: BRANCH  13  14
DOCKED: ATOM     14  C   UNL     1     -37.791 -13.895   3.976 -0.05 +0.00    +0.251 C  
DOCKED: BRANCH  14  15
DOCKED: ATOM     15  N   UNL     1     -37.319 -14.902   4.919 -0.05 +0.00    +0.141 N  
DOCKED: ATOM     16  C   UNL     1     -37.824 -14.625   6.265 -0.02 +0.00    +0.285 C  
DOCKED: ATOM     17  C   UNL     1     -37.725 -16.241   4.490 -0.03 +0.00    +0.285 C  
DOCKED: ENDBRANCH  14  15
DOCKED: ENDBRANCH  13  14
DOCKED: ENDBRANCH  12  13
DOCKED: ENDBRANCH   2  12
DOCKED: BRANCH   2  18
DOCKED: ATOM     18  C   UNL     1     -36.388 -16.466   0.255 -0.07 +0.00    +0.006 A  
DOCKED: ATOM     19  C   UNL     1     -35.148 -16.253   0.855 -0.03 +0.00    +0.001 A  
DOCKED: ATOM     20  C   UNL     1     -34.108 -17.160   0.646 -0.01 +0.00    +0.029 A  
DOCKED: ATOM     21  C   UNL     1     -34.311 -18.279  -0.161 -0.01 +0.00    +0.140 A  
DOCKED: ATOM     22  C   UNL     1     -35.552 -18.491  -0.761 -0.06 +0.00    +0.029 A  
DOCKED: ATOM     23  F   UNL     1     -33.314 -19.151  -0.360 +0.00 -0.00    -0.204 F  
DOCKED: ATOM     24  C   UNL     1     -36.592 -17.584  -0.553 -0.10 +0.00    +0.001 A  
DOCKED: ENDBRANCH   2  18
DOCKED: TORSDOF 5
DOCKED: TER
DOCKED: ENDMDL
________________________________________________________________________________


    FINAL DOCKED STATE:
    ________________________


Run:   368 / 512
Time taken for this run:   0.002s

DOCKED: MODEL        368
DOCKED: USER    Run = 368
DOCKED: USER
DOCKED: USER    Estimated Free Energy of Binding    =  -3.57 kcal/mol  [=(1)+(2)+(3)-(4)]
DOCKED: USER
DOCKED: USER    (1) Final Intermolecular Energy     =  -5.06 kcal/mol
DOCKED: USER        vdW + Hbond + desolv Energy     =  -5.06 kcal/mol
DOCKED: USER        Electrostatic Energy            =  +0.00 kcal/mol
DOCKED: USER        Moving Ligand-Fixed Receptor    =  -5.06 kcal/mol
DOCKED: USER        Moving Ligand-Moving Receptor   =  +0.00 kcal/mol
DOCKED: USER    (2) Final Total Internal Energy     =  -1.34 kcal/mol
DOCKED: USER    (3) Torsional Free Energy           =  +1.49 kcal/mol
DOCKED: USER    (4) Unbound System's Energy         =  -1.34 kcal/mol
DOCKED: USER
DOCKED: USER
DOCKED: REMARK  5 active torsions:
DOCKED: REMARK  status: ('A' for Active; 'I' for Inactive)
DOCKED: REMARK    1  A    between atoms: C_2  and  C_19 
DOCKED: REMARK    2  A    between atoms: C_2  and  C_11 
DOCKED: REMARK    3  A    between atoms: C_19  and  C_20 
DOCKED: REMARK    4  A    between atoms: C_20  and  C_21 
DOCKED: REMARK    5  A    between atoms: C_21  and  N_22 
DOCKED: USER                              x       y       z     vdW  Elec       q    Type
DOCKED: USER                           _______ _______ _______ _____ _____    ______ ____
DOCKED: ROOT
DOCKED: ATOM      1  O   UNL     1     -35.291 -16.151  -2.173 +0.01 -0.00    -0.346 OA 
DOCKED: ATOM      2  C   UNL     1     -35.001 -14.742  -1.900 -0.04 +0.00    +0.130 C  
DOCKED: ATOM      3  C   UNL     1     -36.078 -14.003  -2.640 -0.11 +0.00    +0.004 A  
DOCKED: ATOM      4  C   UNL     1     -36.969 -14.909  -3.195 -0.17 +0.00    +0.006 A  
DOCKED: ATOM      5  C   UNL     1     -36.559 -16.290  -2.856 -0.12 +0.00    +0.169 C  
DOCKED: ATOM      6  C   UNL     1     -36.260 -12.637  -2.799 -0.17 -0.00    -0.001 A  
DOCKED: ATOM      7  C   UNL     1     -38.065 -14.486  -3.928 -0.03 +0.00    +0.008 A  
DOCKED: ATOM      8  C   UNL     1     -37.357 -12.194  -3.539 -0.28 +0.00    +0.010 A  
DOCKED: ATOM      9  C   UNL     1     -38.255 -13.114  -4.100 -0.32 +0.00    +0.068 A  
DOCKED: ATOM     10  N   UNL     1     -40.285 -12.258  -5.464 -2.52 -0.00    -0.191 NA 
DOCKED: ATOM     11  C   UNL     1     -39.374 -12.642  -4.853 -0.43 +0.00    +0.101 C  
DOCKED: ENDROOT
DOCKED: BRANCH   2  12
DOCKED: ATOM     12  C   UNL     1     -35.058 -14.522  -0.393 -0.09 +0.00    +0.038 C  
DOCKED: BRANCH  12  13
DOCKED: ATOM     13  C   UNL     1     -36.499 -14.489   0.112 -0.15 +0.00    +0.038 C  
DOCKED: BRANCH  13  14
DOCKED: ATOM     14  C   UNL     1     -36.973 -15.886   0.509 -0.08 +0.00    +0.251 C  
DOCKED: BRANCH  14  15
DOCKED: ATOM     15  N   UNL     1     -38.118 -16.283  -0.303 -0.16 +0.00    +0.141 N  
DOCKED: ATOM     16  C   UNL     1     -38.630 -17.584   0.128 -0.15 +0.00    +0.285 C  
DOCKED: ATOM     17  C   UNL     1     -39.175 -15.273  -0.232 -0.21 +0.00    +0.285 C  
DOCKED: ENDBRANCH  14  15
DOCKED: ENDBRANCH  13  14
DOCKED: ENDBRANCH  12  13
DOCKED: ENDBRANCH   2  12
DOCKED: BRANCH   2  18
DOCKED: ATOM     18  C   UNL     1     -33.635 -14.467  -2.433 -0.01 +0.00    +0.006 A  
DOCKED: ATOM     19  C   UNL     1     -33.481 -13.924  -3.708 -0.01 +0.00    +0.001 A  
DOCKED: ATOM     20  C   UNL     1     -32.202 -13.668  -4.206 -0.00 +0.00    +0.029 A  
DOCKED: ATOM     21  C   UNL     1     -31.081 -13.954  -3.428 -0.00 +0.00    +0.140 A  
DOCKED: ATOM     22  C   UNL     1     -31.236 -14.497  -2.153 -0.00 +0.00    +0.029 A  
DOCKED: ATOM     23  F   UNL     1     -29.854 -13.706  -3.906 +0.00 -0.00    -0.204 F  
DOCKED: ATOM     24  C   UNL     1     -32.514 -14.755  -1.655 -0.01 +0.00    +0.001 A  
DOCKED: ENDBRANCH   2  18
DOCKED: TORSDOF 5
DOCKED: TER
DOCKED: ENDMDL
________________________________________________________________________________


    FINAL DOCKED STATE:
    ________________________


Run:   369 / 512
Time taken for this run:   0.002s

DOCKED: MODEL        369
DOCKED: USER    Run = 369
DOCKED: USER
DOCKED: USER    Estimated Free Energy of Binding    =  -4.65 kcal/mol  [=(1)+(2)+(3)-(4)]
DOCKED: USER
DOCKED: USER    (1) Final Intermolecular Energy     =  -6.15 kcal/mol
DOCKED: USER        vdW + Hbond + desolv Energy     =  -6.15 kcal/mol
DOCKED: USER        Electrostatic Energy            =  +0.00 kcal/mol
DOCKED: USER        Moving Ligand-Fixed Receptor    =  -6.15 kcal/mol
DOCKED: USER        Moving Ligand-Moving Receptor   =  +0.00 kcal/mol
DOCKED: USER    (2) Final Total Internal Energy     =  -1.14 kcal/mol
DOCKED: USER    (3) Torsional Free Energy           =  +1.49 kcal/mol
DOCKED: USER    (4) Unbound System's Energy         =  -1.14 kcal/mol
DOCKED: USER
DOCKED: USER
DOCKED: REMARK  5 active torsions:
DOCKED: REMARK  status: ('A' for Active; 'I' for Inactive)
DOCKED: REMARK    1  A    between atoms: C_2  and  C_19 
DOCKED: REMARK    2  A    between atoms: C_2  and  C_11 
DOCKED: REMARK    3  A    between atoms: C_19  and  C_20 
DOCKED: REMARK    4  A    between atoms: C_20  and  C_21 
DOCKED: REMARK    5  A    between atoms: C_21  and  N_22 
DOCKED: USER                              x       y       z     vdW  Elec       q    Type
DOCKED: USER                           _______ _______ _______ _____ _____    ______ ____
DOCKED: ROOT
DOCKED: ATOM      1  O   UNL     1     -41.515 -21.355   8.109 -0.03 -0.00    -0.346 OA 
DOCKED: ATOM      2  C   UNL     1     -40.765 -22.611   8.132 -0.17 +0.00    +0.130 C  
DOCKED: ATOM      3  C   UNL     1     -41.210 -23.318   6.885 -0.31 +0.00    +0.004 A  
DOCKED: ATOM      4  C   UNL     1     -42.055 -22.494   6.157 -0.32 +0.00    +0.006 A  
DOCKED: ATOM      5  C   UNL     1     -42.216 -21.198   6.854 -0.20 +0.00    +0.169 C  
DOCKED: ATOM      6  C   UNL     1     -40.883 -24.586   6.426 -0.39 -0.00    -0.001 A  
DOCKED: ATOM      7  C   UNL     1     -42.604 -22.906   4.954 -0.03 +0.00    +0.008 A  
DOCKED: ATOM      8  C   UNL     1     -41.432 -25.018   5.218 -0.36 +0.00    +0.010 A  
DOCKED: ATOM      9  C   UNL     1     -42.288 -24.182   4.485 -0.40 +0.00    +0.068 A  
DOCKED: ATOM     10  N   UNL     1     -43.286 -25.012   2.243 -2.10 -0.00    -0.191 NA 
DOCKED: ATOM     11  C   UNL     1     -42.839 -24.640   3.249 -0.51 +0.00    +0.101 C  
DOCKED: ENDROOT
DOCKED: BRANCH   2  12
DOCKED: ATOM     12  C   UNL     1     -39.276 -22.284   8.130 -0.19 +0.00    +0.038 C  
DOCKED: BRANCH  12  13
DOCKED: ATOM     13  C   UNL     1     -38.460 -23.397   8.783 -0.11 +0.00    +0.038 C  
DOCKED: BRANCH  13  14
DOCKED: ATOM     14  C   UNL     1     -37.233 -22.833   9.497 -0.10 +0.00    +0.251 C  
DOCKED: BRANCH  14  15
DOCKED: ATOM     15  N   UNL     1     -37.466 -22.770  10.935 -0.06 +0.00    +0.141 N  
DOCKED: ATOM     16  C   UNL     1     -38.009 -21.464  11.313 -0.01 +0.00    +0.285 C  
DOCKED: ATOM     17  C   UNL     1     -38.374 -23.838  11.357 -0.06 +0.00    +0.285 C  
DOCKED: ENDBRANCH  14  15
DOCKED: ENDBRANCH  13  14
DOCKED: ENDBRANCH  12  13
DOCKED: ENDBRANCH   2  12
DOCKED: BRANCH   2  18
DOCKED: ATOM     18  C   UNL     1     -41.156 -23.330   9.380 -0.13 +0.00    +0.006 A  
DOCKED: ATOM     19  C   UNL     1     -41.240 -24.722   9.385 -0.23 +0.00    +0.001 A  
DOCKED: ATOM     20  C   UNL     1     -41.606 -25.393  10.552 -0.20 +0.00    +0.029 A  
DOCKED: ATOM     21  C   UNL     1     -41.887 -24.672  11.712 -0.11 +0.00    +0.140 A  
DOCKED: ATOM     22  C   UNL     1     -41.802 -23.280  11.707 -0.05 +0.00    +0.029 A  
DOCKED: ATOM     23  F   UNL     1     -42.236 -25.317  12.833 -0.02 -0.00    -0.204 F  
DOCKED: ATOM     24  C   UNL     1     -41.436 -22.608  10.539 -0.06 +0.00    +0.001 A  
DOCKED: ENDBRANCH   2  18
DOCKED: TORSDOF 5
DOCKED: TER
DOCKED: ENDMDL
________________________________________________________________________________


    FINAL DOCKED STATE:
    ________________________


Run:   370 / 512
Time taken for this run:   0.002s

DOCKED: MODEL        370
DOCKED: USER    Run = 370
DOCKED: USER
DOCKED: USER    Estimated Free Energy of Binding    =  -4.31 kcal/mol  [=(1)+(2)+(3)-(4)]
DOCKED: USER
DOCKED: USER    (1) Final Intermolecular Energy     =  -5.80 kcal/mol
DOCKED: USER        vdW + Hbond + desolv Energy     =  -5.80 kcal/mol
DOCKED: USER        Electrostatic Energy            =  +0.00 kcal/mol
DOCKED: USER        Moving Ligand-Fixed Receptor    =  -5.80 kcal/mol
DOCKED: USER        Moving Ligand-Moving Receptor   =  +0.00 kcal/mol
DOCKED: USER    (2) Final Total Internal Energy     =  -1.32 kcal/mol
DOCKED: USER    (3) Torsional Free Energy           =  +1.49 kcal/mol
DOCKED: USER    (4) Unbound System's Energy         =  -1.32 kcal/mol
DOCKED: USER
DOCKED: USER
DOCKED: REMARK  5 active torsions:
DOCKED: REMARK  status: ('A' for Active; 'I' for Inactive)
DOCKED: REMARK    1  A    between atoms: C_2  and  C_19 
DOCKED: REMARK    2  A    between atoms: C_2  and  C_11 
DOCKED: REMARK    3  A    between atoms: C_19  and  C_20 
DOCKED: REMARK    4  A    between atoms: C_20  and  C_21 
DOCKED: REMARK    5  A    between atoms: C_21  and  N_22 
DOCKED: USER                              x       y       z     vdW  Elec       q    Type
DOCKED: USER                           _______ _______ _______ _____ _____    ______ ____
DOCKED: ROOT
DOCKED: ATOM      1  O   UNL     1     -38.621 -22.058   8.568 -0.08 -0.00    -0.346 OA 
DOCKED: ATOM      2  C   UNL     1     -39.653 -21.173   8.026 -0.14 +0.00    +0.130 C  
DOCKED: ATOM      3  C   UNL     1     -40.571 -22.102   7.285 -0.23 +0.00    +0.004 A  
DOCKED: ATOM      4  C   UNL     1     -40.163 -23.414   7.479 -0.26 +0.00    +0.006 A  
DOCKED: ATOM      5  C   UNL     1     -38.973 -23.445   8.359 -0.15 +0.00    +0.169 C  
DOCKED: ATOM      6  C   UNL     1     -41.684 -21.810   6.511 -0.29 -0.00    -0.001 A  
DOCKED: ATOM      7  C   UNL     1     -40.846 -24.473   6.907 -0.37 +0.00    +0.008 A  
DOCKED: ATOM      8  C   UNL     1     -42.381 -22.867   5.923 -0.33 +0.00    +0.010 A  
DOCKED: ATOM      9  C   UNL     1     -41.965 -24.192   6.121 -0.33 +0.00    +0.068 A  
DOCKED: ATOM     10  N   UNL     1     -43.284 -26.130   5.019 -2.38 -0.00    -0.191 NA 
DOCKED: ATOM     11  C   UNL     1     -42.692 -25.261   5.513 -0.34 +0.00    +0.101 C  
DOCKED: ENDROOT
DOCKED: BRANCH   2  12
DOCKED: ATOM     12  C   UNL     1     -40.339 -20.462   9.187 -0.05 +0.00    +0.038 C  
DOCKED: BRANCH  12  13
DOCKED: ATOM     13  C   UNL     1     -39.569 -20.657  10.492 -0.03 +0.00    +0.038 C  
DOCKED: BRANCH  13  14
DOCKED: ATOM     14  C   UNL     1     -40.349 -21.539  11.464 -0.01 +0.00    +0.251 C  
DOCKED: BRANCH  14  15
DOCKED: ATOM     15  N   UNL     1     -39.482 -22.571  12.020 -0.03 +0.00    +0.141 N  
DOCKED: ATOM     16  C   UNL     1     -39.945 -23.902  11.626 -0.07 +0.00    +0.285 C  
DOCKED: ATOM     17  C   UNL     1     -38.097 -22.368  11.591 -0.03 +0.00    +0.285 C  
DOCKED: ENDBRANCH  14  15
DOCKED: ENDBRANCH  13  14
DOCKED: ENDBRANCH  12  13
DOCKED: ENDBRANCH   2  12
DOCKED: BRANCH   2  18
DOCKED: ATOM     18  C   UNL     1     -38.965 -20.198   7.129 -0.14 +0.00    +0.006 A  
DOCKED: ATOM     19  C   UNL     1     -37.576 -20.222   7.010 -0.09 +0.00    +0.001 A  
DOCKED: ATOM     20  C   UNL     1     -36.933 -19.310   6.172 -0.10 +0.00    +0.029 A  
DOCKED: ATOM     21  C   UNL     1     -37.680 -18.377   5.454 -0.08 +0.00    +0.140 A  
DOCKED: ATOM     22  C   UNL     1     -39.069 -18.354   5.573 -0.12 +0.00    +0.029 A  
DOCKED: ATOM     23  F   UNL     1     -37.063 -17.503   4.648 -0.00 -0.00    -0.204 F  
DOCKED: ATOM     24  C   UNL     1     -39.713 -19.266   6.412 -0.16 +0.00    +0.001 A  
DOCKED: ENDBRANCH   2  18
DOCKED: TORSDOF 5
DOCKED: TER
DOCKED: ENDMDL
________________________________________________________________________________


    FINAL DOCKED STATE:
    ________________________


Run:   371 / 512
Time taken for this run:   0.002s

DOCKED: MODEL        371
DOCKED: USER    Run = 371
DOCKED: USER
DOCKED: USER    Estimated Free Energy of Binding    =  -4.02 kcal/mol  [=(1)+(2)+(3)-(4)]
DOCKED: USER
DOCKED: USER    (1) Final Intermolecular Energy     =  -5.51 kcal/mol
DOCKED: USER        vdW + Hbond + desolv Energy     =  -5.51 kcal/mol
DOCKED: USER        Electrostatic Energy            =  +0.00 kcal/mol
DOCKED: USER        Moving Ligand-Fixed Receptor    =  -5.51 kcal/mol
DOCKED: USER        Moving Ligand-Moving Receptor   =  +0.00 kcal/mol
DOCKED: USER    (2) Final Total Internal Energy     =  -1.45 kcal/mol
DOCKED: USER    (3) Torsional Free Energy           =  +1.49 kcal/mol
DOCKED: USER    (4) Unbound System's Energy         =  -1.45 kcal/mol
DOCKED: USER
DOCKED: USER
DOCKED: REMARK  5 active torsions:
DOCKED: REMARK  status: ('A' for Active; 'I' for Inactive)
DOCKED: REMARK    1  A    between atoms: C_2  and  C_19 
DOCKED: REMARK    2  A    between atoms: C_2  and  C_11 
DOCKED: REMARK    3  A    between atoms: C_19  and  C_20 
DOCKED: REMARK    4  A    between atoms: C_20  and  C_21 
DOCKED: REMARK    5  A    between atoms: C_21  and  N_22 
DOCKED: USER                              x       y       z     vdW  Elec       q    Type
DOCKED: USER                           _______ _______ _______ _____ _____    ______ ____
DOCKED: ROOT
DOCKED: ATOM      1  O   UNL     1     -40.751 -19.622   7.300 -0.05 -0.00    -0.346 OA 
DOCKED: ATOM      2  C   UNL     1     -41.969 -19.925   8.052 -0.10 +0.00    +0.130 C  
DOCKED: ATOM      3  C   UNL     1     -42.364 -21.288   7.563 -0.17 +0.00    +0.004 A  
DOCKED: ATOM      4  C   UNL     1     -41.398 -21.770   6.691 -0.28 +0.00    +0.006 A  
DOCKED: ATOM      5  C   UNL     1     -40.307 -20.779   6.554 -0.18 +0.00    +0.169 C  
DOCKED: ATOM      6  C   UNL     1     -43.483 -22.047   7.874 -0.14 -0.00    -0.001 A  
DOCKED: ATOM      7  C   UNL     1     -41.518 -23.015   6.099 -0.34 +0.00    +0.008 A  
DOCKED: ATOM      8  C   UNL     1     -43.621 -23.304   7.282 -0.19 +0.00    +0.010 A  
DOCKED: ATOM      9  C   UNL     1     -42.643 -23.785   6.400 -0.25 +0.00    +0.068 A  
DOCKED: ATOM     10  N   UNL     1     -42.926 -26.125   5.322 -2.60 -0.00    -0.191 NA 
DOCKED: ATOM     11  C   UNL     1     -42.799 -25.075   5.805 -0.32 +0.00    +0.101 C  
DOCKED: ENDROOT
DOCKED: BRANCH   2  12
DOCKED: ATOM     12  C   UNL     1     -41.636 -19.902   9.539 -0.03 +0.00    +0.038 C  
DOCKED: BRANCH  12  13
DOCKED: ATOM     13  C   UNL     1     -40.127 -19.954   9.773 -0.03 +0.00    +0.038 C  
DOCKED: BRANCH  13  14
DOCKED: ATOM     14  C   UNL     1     -39.644 -21.396   9.921 -0.03 +0.00    +0.251 C  
DOCKED: BRANCH  14  15
DOCKED: ATOM     15  N   UNL     1     -40.754 -22.267  10.292 -0.04 +0.00    +0.141 N  
DOCKED: ATOM     16  C   UNL     1     -40.633 -23.566   9.629 -0.08 +0.00    +0.285 C  
DOCKED: ATOM     17  C   UNL     1     -40.810 -22.441  11.744 -0.01 +0.00    +0.285 C  
DOCKED: ENDBRANCH  14  15
DOCKED: ENDBRANCH  13  14
DOCKED: ENDBRANCH  12  13
DOCKED: ENDBRANCH   2  12
DOCKED: BRANCH   2  18
DOCKED: ATOM     18  C   UNL     1     -42.968 -18.872   7.708 -0.13 +0.00    +0.006 A  
DOCKED: ATOM     19  C   UNL     1     -43.055 -18.395   6.401 -0.20 +0.00    +0.001 A  
DOCKED: ATOM     20  C   UNL     1     -43.990 -17.409   6.080 -0.17 +0.00    +0.029 A  
DOCKED: ATOM     21  C   UNL     1     -44.836 -16.903   7.066 -0.08 +0.00    +0.140 A  
DOCKED: ATOM     22  C   UNL     1     -44.748 -17.381   8.373 -0.05 +0.00    +0.029 A  
DOCKED: ATOM     23  F   UNL     1     -45.734 -15.959   6.757 +0.00 -0.00    -0.204 F  
DOCKED: ATOM     24  C   UNL     1     -43.813 -18.366   8.695 -0.05 +0.00    +0.001 A  
DOCKED: ENDBRANCH   2  18
DOCKED: TORSDOF 5
DOCKED: TER
DOCKED: ENDMDL
________________________________________________________________________________


    FINAL DOCKED STATE:
    ________________________


Run:   372 / 512
Time taken for this run:   0.002s

DOCKED: MODEL        372
DOCKED: USER    Run = 372
DOCKED: USER
DOCKED: USER    Estimated Free Energy of Binding    =  -4.84 kcal/mol  [=(1)+(2)+(3)-(4)]
DOCKED: USER
DOCKED: USER    (1) Final Intermolecular Energy     =  -6.33 kcal/mol
DOCKED: USER        vdW + Hbond + desolv Energy     =  -6.33 kcal/mol
DOCKED: USER        Electrostatic Energy            =  +0.00 kcal/mol
DOCKED: USER        Moving Ligand-Fixed Receptor    =  -6.33 kcal/mol
DOCKED: USER        Moving Ligand-Moving Receptor   =  +0.00 kcal/mol
DOCKED: USER    (2) Final Total Internal Energy     =  -1.08 kcal/mol
DOCKED: USER    (3) Torsional Free Energy           =  +1.49 kcal/mol
DOCKED: USER    (4) Unbound System's Energy         =  -1.08 kcal/mol
DOCKED: USER
DOCKED: USER
DOCKED: REMARK  5 active torsions:
DOCKED: REMARK  status: ('A' for Active; 'I' for Inactive)
DOCKED: REMARK    1  A    between atoms: C_2  and  C_19 
DOCKED: REMARK    2  A    between atoms: C_2  and  C_11 
DOCKED: REMARK    3  A    between atoms: C_19  and  C_20 
DOCKED: REMARK    4  A    between atoms: C_20  and  C_21 
DOCKED: REMARK    5  A    between atoms: C_21  and  N_22 
DOCKED: USER                              x       y       z     vdW  Elec       q    Type
DOCKED: USER                           _______ _______ _______ _____ _____    ______ ____
DOCKED: ROOT
DOCKED: ATOM      1  O   UNL     1     -40.580 -24.617   8.616 -0.10 -0.00    -0.346 OA 
DOCKED: ATOM      2  C   UNL     1     -41.453 -23.458   8.427 -0.16 +0.00    +0.130 C  
DOCKED: ATOM      3  C   UNL     1     -41.952 -23.609   7.019 -0.27 +0.00    +0.004 A  
DOCKED: ATOM      4  C   UNL     1     -41.494 -24.806   6.488 -0.37 +0.00    +0.006 A  
DOCKED: ATOM      5  C   UNL     1     -40.683 -25.526   7.495 -0.23 +0.00    +0.169 C  
DOCKED: ATOM      6  C   UNL     1     -42.757 -22.761   6.273 -0.29 -0.00    -0.001 A  
DOCKED: ATOM      7  C   UNL     1     -41.818 -25.193   5.198 -0.46 +0.00    +0.008 A  
DOCKED: ATOM      8  C   UNL     1     -43.089 -23.135   4.969 +0.01 +0.00    +0.010 A  
DOCKED: ATOM      9  C   UNL     1     -42.622 -24.345   4.435 -0.42 +0.00    +0.068 A  
DOCKED: ATOM     10  N   UNL     1     -43.261 -25.012   2.015 -2.28 -0.00    -0.191 NA 
DOCKED: ATOM     11  C   UNL     1     -42.974 -24.713   3.100 -0.49 +0.00    +0.101 C  
DOCKED: ENDROOT
DOCKED: BRANCH   2  12
DOCKED: ATOM     12  C   UNL     1     -42.570 -23.521   9.462 -0.13 +0.00    +0.038 C  
DOCKED: BRANCH  12  13
DOCKED: ATOM     13  C   UNL     1     -43.945 -23.437   8.804 -0.13 +0.00    +0.038 C  
DOCKED: BRANCH  13  14
DOCKED: ATOM     14  C   UNL     1     -44.807 -24.642   9.176 -0.08 +0.00    +0.251 C  
DOCKED: BRANCH  14  15
DOCKED: ATOM     15  N   UNL     1     -45.078 -25.456   7.997 -0.15 +0.00    +0.141 N  
DOCKED: ATOM     16  C   UNL     1     -46.189 -26.375   8.249 -0.13 +0.00    +0.285 C  
DOCKED: ATOM     17  C   UNL     1     -45.373 -24.607   6.842 -0.07 +0.00    +0.285 C  
DOCKED: ENDBRANCH  14  15
DOCKED: ENDBRANCH  13  14
DOCKED: ENDBRANCH  12  13
DOCKED: ENDBRANCH   2  12
DOCKED: BRANCH   2  18
DOCKED: ATOM     18  C   UNL     1     -40.610 -22.241   8.617 -0.14 +0.00    +0.006 A  
DOCKED: ATOM     19  C   UNL     1     -40.558 -21.618   9.864 -0.05 +0.00    +0.001 A  
DOCKED: ATOM     20  C   UNL     1     -39.769 -20.480  10.040 -0.02 +0.00    +0.029 A  
DOCKED: ATOM     21  C   UNL     1     -39.035 -19.968   8.971 -0.03 +0.00    +0.140 A  
DOCKED: ATOM     22  C   UNL     1     -39.088 -20.592   7.725 -0.13 +0.00    +0.029 A  
DOCKED: ATOM     23  F   UNL     1     -38.277 -18.877   9.142 -0.00 -0.00    -0.204 F  
DOCKED: ATOM     24  C   UNL     1     -39.877 -21.730   7.547 -0.18 +0.00    +0.001 A  
DOCKED: ENDBRANCH   2  18
DOCKED: TORSDOF 5
DOCKED: TER
DOCKED: ENDMDL
________________________________________________________________________________


    FINAL DOCKED STATE:
    ________________________


Run:   373 / 512
Time taken for this run:   0.002s

DOCKED: MODEL        373
DOCKED: USER    Run = 373
DOCKED: USER
DOCKED: USER    Estimated Free Energy of Binding    =  -4.00 kcal/mol  [=(1)+(2)+(3)-(4)]
DOCKED: USER
DOCKED: USER    (1) Final Intermolecular Energy     =  -5.49 kcal/mol
DOCKED: USER        vdW + Hbond + desolv Energy     =  -5.49 kcal/mol
DOCKED: USER        Electrostatic Energy            =  +0.00 kcal/mol
DOCKED: USER        Moving Ligand-Fixed Receptor    =  -5.49 kcal/mol
DOCKED: USER        Moving Ligand-Moving Receptor   =  +0.00 kcal/mol
DOCKED: USER    (2) Final Total Internal Energy     =  -1.29 kcal/mol
DOCKED: USER    (3) Torsional Free Energy           =  +1.49 kcal/mol
DOCKED: USER    (4) Unbound System's Energy         =  -1.29 kcal/mol
DOCKED: USER
DOCKED: USER
DOCKED: REMARK  5 active torsions:
DOCKED: REMARK  status: ('A' for Active; 'I' for Inactive)
DOCKED: REMARK    1  A    between atoms: C_2  and  C_19 
DOCKED: REMARK    2  A    between atoms: C_2  and  C_11 
DOCKED: REMARK    3  A    between atoms: C_19  and  C_20 
DOCKED: REMARK    4  A    between atoms: C_20  and  C_21 
DOCKED: REMARK    5  A    between atoms: C_21  and  N_22 
DOCKED: USER                              x       y       z     vdW  Elec       q    Type
DOCKED: USER                           _______ _______ _______ _____ _____    ______ ____
DOCKED: ROOT
DOCKED: ATOM      1  O   UNL     1     -39.218 -21.046   8.675 -0.04 -0.00    -0.346 OA 
DOCKED: ATOM      2  C   UNL     1     -40.363 -20.398   8.033 -0.11 +0.00    +0.130 C  
DOCKED: ATOM      3  C   UNL     1     -41.065 -21.524   7.330 -0.21 +0.00    +0.004 A  
DOCKED: ATOM      4  C   UNL     1     -40.442 -22.726   7.634 -0.24 +0.00    +0.006 A  
DOCKED: ATOM      5  C   UNL     1     -39.309 -22.485   8.555 -0.15 +0.00    +0.169 C  
DOCKED: ATOM      6  C   UNL     1     -42.174 -21.488   6.497 -0.27 -0.00    -0.001 A  
DOCKED: ATOM      7  C   UNL     1     -40.899 -23.926   7.116 -0.33 +0.00    +0.008 A  
DOCKED: ATOM      8  C   UNL     1     -42.644 -22.689   5.964 -0.29 +0.00    +0.010 A  
DOCKED: ATOM      9  C   UNL     1     -42.010 -23.902   6.272 -0.30 +0.00    +0.068 A  
DOCKED: ATOM     10  N   UNL     1     -42.912 -26.114   5.269 -2.56 -0.00    -0.191 NA 
DOCKED: ATOM     11  C   UNL     1     -42.507 -25.122   5.719 -0.32 +0.00    +0.101 C  
DOCKED: ENDROOT
DOCKED: BRANCH   2  12
DOCKED: ATOM     12  C   UNL     1     -41.218 -19.748   9.114 -0.04 +0.00    +0.038 C  
DOCKED: BRANCH  12  13
DOCKED: ATOM     13  C   UNL     1     -40.916 -20.334  10.491 -0.02 +0.00    +0.038 C  
DOCKED: BRANCH  13  14
DOCKED: ATOM     14  C   UNL     1     -39.792 -19.563  11.181 -0.00 +0.00    +0.251 C  
DOCKED: BRANCH  14  15
DOCKED: ATOM     15  N   UNL     1     -39.172 -20.386  12.213 -0.00 +0.00    +0.141 N  
DOCKED: ATOM     16  C   UNL     1     -39.430 -21.805  11.966 -0.01 +0.00    +0.285 C  
DOCKED: ATOM     17  C   UNL     1     -37.731 -20.136  12.276 -0.00 +0.00    +0.285 C  
DOCKED: ENDBRANCH  14  15
DOCKED: ENDBRANCH  13  14
DOCKED: ENDBRANCH  12  13
DOCKED: ENDBRANCH   2  12
DOCKED: BRANCH   2  18
DOCKED: ATOM     18  C   UNL     1     -39.815 -19.377   7.093 -0.14 +0.00    +0.006 A  
DOCKED: ATOM     19  C   UNL     1     -39.962 -18.020   7.375 -0.07 +0.00    +0.001 A  
DOCKED: ATOM     20  C   UNL     1     -39.450 -17.066   6.495 -0.06 +0.00    +0.029 A  
DOCKED: ATOM     21  C   UNL     1     -38.791 -17.470   5.335 -0.07 +0.00    +0.140 A  
DOCKED: ATOM     22  C   UNL     1     -38.643 -18.828   5.053 -0.13 +0.00    +0.029 A  
DOCKED: ATOM     23  F   UNL     1     -38.297 -16.554   4.492 -0.01 -0.00    -0.204 F  
DOCKED: ATOM     24  C   UNL     1     -39.156 -19.783   5.933 -0.13 +0.00    +0.001 A  
DOCKED: ENDBRANCH   2  18
DOCKED: TORSDOF 5
DOCKED: TER
DOCKED: ENDMDL
________________________________________________________________________________


    FINAL DOCKED STATE:
    ________________________


Run:   374 / 512
Time taken for this run:   0.002s

DOCKED: MODEL        374
DOCKED: USER    Run = 374
DOCKED: USER
DOCKED: USER    Estimated Free Energy of Binding    =  -3.66 kcal/mol  [=(1)+(2)+(3)-(4)]
DOCKED: USER
DOCKED: USER    (1) Final Intermolecular Energy     =  -5.15 kcal/mol
DOCKED: USER        vdW + Hbond + desolv Energy     =  -5.15 kcal/mol
DOCKED: USER        Electrostatic Energy            =  +0.00 kcal/mol
DOCKED: USER        Moving Ligand-Fixed Receptor    =  -5.15 kcal/mol
DOCKED: USER        Moving Ligand-Moving Receptor   =  +0.00 kcal/mol
DOCKED: USER    (2) Final Total Internal Energy     =  -1.28 kcal/mol
DOCKED: USER    (3) Torsional Free Energy           =  +1.49 kcal/mol
DOCKED: USER    (4) Unbound System's Energy         =  -1.28 kcal/mol
DOCKED: USER
DOCKED: USER
DOCKED: REMARK  5 active torsions:
DOCKED: REMARK  status: ('A' for Active; 'I' for Inactive)
DOCKED: REMARK    1  A    between atoms: C_2  and  C_19 
DOCKED: REMARK    2  A    between atoms: C_2  and  C_11 
DOCKED: REMARK    3  A    between atoms: C_19  and  C_20 
DOCKED: REMARK    4  A    between atoms: C_20  and  C_21 
DOCKED: REMARK    5  A    between atoms: C_21  and  N_22 
DOCKED: USER                              x       y       z     vdW  Elec       q    Type
DOCKED: USER                           _______ _______ _______ _____ _____    ______ ____
DOCKED: ROOT
DOCKED: ATOM      1  O   UNL     1     -36.583 -20.266   0.849 -0.03 -0.00    -0.346 OA 
DOCKED: ATOM      2  C   UNL     1     -35.195 -20.672   0.624 -0.10 +0.00    +0.130 C  
DOCKED: ATOM      3  C   UNL     1     -35.099 -22.010   1.299 -0.16 +0.00    +0.004 A  
DOCKED: ATOM      4  C   UNL     1     -36.348 -22.386   1.771 -0.31 +0.00    +0.006 A  
DOCKED: ATOM      5  C   UNL     1     -37.346 -21.345   1.436 -0.28 +0.00    +0.169 C  
DOCKED: ATOM      6  C   UNL     1     -33.996 -22.834   1.470 -0.10 -0.00    -0.001 A  
DOCKED: ATOM      7  C   UNL     1     -36.537 -23.588   2.431 -0.13 +0.00    +0.008 A  
DOCKED: ATOM      8  C   UNL     1     -34.169 -24.047   2.138 -0.17 +0.00    +0.010 A  
DOCKED: ATOM      9  C   UNL     1     -35.434 -24.423   2.615 -0.31 +0.00    +0.068 A  
DOCKED: ATOM     10  N   UNL     1     -35.722 -26.684   3.846 -2.42 -0.00    -0.191 NA 
DOCKED: ATOM     11  C   UNL     1     -35.593 -25.670   3.294 -0.37 +0.00    +0.101 C  
DOCKED: ENDROOT
DOCKED: BRANCH   2  12
DOCKED: ATOM     12  C   UNL     1     -34.952 -20.747  -0.879 -0.13 +0.00    +0.038 C  
DOCKED: BRANCH  12  13
DOCKED: ATOM     13  C   UNL     1     -34.805 -19.354  -1.489 -0.07 +0.00    +0.038 C  
DOCKED: BRANCH  13  14
DOCKED: ATOM     14  C   UNL     1     -35.885 -19.098  -2.539 -0.14 +0.00    +0.251 C  
DOCKED: BRANCH  14  15
DOCKED: ATOM     15  N   UNL     1     -36.900 -18.192  -2.013 -0.18 +0.00    +0.141 N  
DOCKED: ATOM     16  C   UNL     1     -36.424 -17.537  -0.793 -0.06 +0.00    +0.285 C  
DOCKED: ATOM     17  C   UNL     1     -37.267 -17.191  -3.016 -0.10 +0.00    +0.285 C  
DOCKED: ENDBRANCH  14  15
DOCKED: ENDBRANCH  13  14
DOCKED: ENDBRANCH  12  13
DOCKED: ENDBRANCH   2  12
DOCKED: BRANCH   2  18
DOCKED: ATOM     18  C   UNL     1     -34.329 -19.637   1.259 -0.03 +0.00    +0.006 A  
DOCKED: ATOM     19  C   UNL     1     -32.950 -19.659   1.052 -0.01 +0.00    +0.001 A  
DOCKED: ATOM     20  C   UNL     1     -32.141 -18.690   1.647 -0.00 +0.00    +0.029 A  
DOCKED: ATOM     21  C   UNL     1     -32.711 -17.701   2.448 -0.00 +0.00    +0.140 A  
DOCKED: ATOM     22  C   UNL     1     -34.091 -17.680   2.654 -0.01 +0.00    +0.029 A  
DOCKED: ATOM     23  F   UNL     1     -31.935 -16.770   3.017 +0.00 -0.00    -0.204 F  
DOCKED: ATOM     24  C   UNL     1     -34.901 -18.648   2.060 -0.03 +0.00    +0.001 A  
DOCKED: ENDBRANCH   2  18
DOCKED: TORSDOF 5
DOCKED: TER
DOCKED: ENDMDL
________________________________________________________________________________


    FINAL DOCKED STATE:
    ________________________


Run:   375 / 512
Time taken for this run:   0.002s

DOCKED: MODEL        375
DOCKED: USER    Run = 375
DOCKED: USER
DOCKED: USER    Estimated Free Energy of Binding    =  -3.97 kcal/mol  [=(1)+(2)+(3)-(4)]
DOCKED: USER
DOCKED: USER    (1) Final Intermolecular Energy     =  -5.46 kcal/mol
DOCKED: USER        vdW + Hbond + desolv Energy     =  -5.46 kcal/mol
DOCKED: USER        Electrostatic Energy            =  +0.00 kcal/mol
DOCKED: USER        Moving Ligand-Fixed Receptor    =  -5.46 kcal/mol
DOCKED: USER        Moving Ligand-Moving Receptor   =  +0.00 kcal/mol
DOCKED: USER    (2) Final Total Internal Energy     =  -1.25 kcal/mol
DOCKED: USER    (3) Torsional Free Energy           =  +1.49 kcal/mol
DOCKED: USER    (4) Unbound System's Energy         =  -1.25 kcal/mol
DOCKED: USER
DOCKED: USER
DOCKED: REMARK  5 active torsions:
DOCKED: REMARK  status: ('A' for Active; 'I' for Inactive)
DOCKED: REMARK    1  A    between atoms: C_2  and  C_19 
DOCKED: REMARK    2  A    between atoms: C_2  and  C_11 
DOCKED: REMARK    3  A    between atoms: C_19  and  C_20 
DOCKED: REMARK    4  A    between atoms: C_20  and  C_21 
DOCKED: REMARK    5  A    between atoms: C_21  and  N_22 
DOCKED: USER                              x       y       z     vdW  Elec       q    Type
DOCKED: USER                           _______ _______ _______ _____ _____    ______ ____
DOCKED: ROOT
DOCKED: ATOM      1  O   UNL     1     -38.455 -21.768   8.649 -0.07 -0.00    -0.346 OA 
DOCKED: ATOM      2  C   UNL     1     -39.634 -20.942   8.384 -0.10 +0.00    +0.130 C  
DOCKED: ATOM      3  C   UNL     1     -40.574 -21.875   7.676 -0.20 +0.00    +0.004 A  
DOCKED: ATOM      4  C   UNL     1     -40.026 -23.149   7.638 -0.25 +0.00    +0.006 A  
DOCKED: ATOM      5  C   UNL     1     -38.712 -23.152   8.319 -0.16 +0.00    +0.169 C  
DOCKED: ATOM      6  C   UNL     1     -41.819 -21.618   7.120 -0.23 -0.00    -0.001 A  
DOCKED: ATOM      7  C   UNL     1     -40.697 -24.204   7.043 -0.35 +0.00    +0.008 A  
DOCKED: ATOM      8  C   UNL     1     -42.506 -22.670   6.513 -0.28 +0.00    +0.010 A  
DOCKED: ATOM      9  C   UNL     1     -41.948 -23.957   6.475 -0.29 +0.00    +0.068 A  
DOCKED: ATOM     10  N   UNL     1     -43.252 -25.889   5.344 -2.55 -0.00    -0.191 NA 
DOCKED: ATOM     11  C   UNL     1     -42.667 -25.022   5.851 -0.34 +0.00    +0.101 C  
DOCKED: ENDROOT
DOCKED: BRANCH   2  12
DOCKED: ATOM     12  C   UNL     1     -40.184 -20.444   9.715 -0.04 +0.00    +0.038 C  
DOCKED: BRANCH  12  13
DOCKED: ATOM     13  C   UNL     1     -41.233 -21.401  10.278 -0.04 +0.00    +0.038 C  
DOCKED: BRANCH  13  14
DOCKED: ATOM     14  C   UNL     1     -42.502 -20.650  10.680 -0.00 +0.00    +0.251 C  
DOCKED: BRANCH  14  15
DOCKED: ATOM     15  N   UNL     1     -42.627 -19.418   9.910 -0.01 +0.00    +0.141 N  
DOCKED: ATOM     16  C   UNL     1     -43.843 -19.440   9.096 -0.02 +0.00    +0.285 C  
DOCKED: ATOM     17  C   UNL     1     -42.632 -18.254  10.798 -0.00 +0.00    +0.285 C  
DOCKED: ENDBRANCH  14  15
DOCKED: ENDBRANCH  13  14
DOCKED: ENDBRANCH  12  13
DOCKED: ENDBRANCH   2  12
DOCKED: BRANCH   2  18
DOCKED: ATOM     18  C   UNL     1     -39.187 -19.805   7.527 -0.12 +0.00    +0.006 A  
DOCKED: ATOM     19  C   UNL     1     -39.353 -19.868   6.144 -0.15 +0.00    +0.001 A  
DOCKED: ATOM     20  C   UNL     1     -38.934 -18.805   5.344 -0.12 +0.00    +0.029 A  
DOCKED: ATOM     21  C   UNL     1     -38.351 -17.681   5.927 -0.06 +0.00    +0.140 A  
DOCKED: ATOM     22  C   UNL     1     -38.186 -17.619   7.310 -0.03 +0.00    +0.029 A  
DOCKED: ATOM     23  F   UNL     1     -37.951 -16.659   5.158 -0.00 -0.00    -0.204 F  
DOCKED: ATOM     24  C   UNL     1     -38.604 -18.682   8.111 -0.04 +0.00    +0.001 A  
DOCKED: ENDBRANCH   2  18
DOCKED: TORSDOF 5
DOCKED: TER
DOCKED: ENDMDL
________________________________________________________________________________


    FINAL DOCKED STATE:
    ________________________


Run:   376 / 512
Time taken for this run:   0.002s

DOCKED: MODEL        376
DOCKED: USER    Run = 376
DOCKED: USER
DOCKED: USER    Estimated Free Energy of Binding    =  -3.68 kcal/mol  [=(1)+(2)+(3)-(4)]
DOCKED: USER
DOCKED: USER    (1) Final Intermolecular Energy     =  -5.17 kcal/mol
DOCKED: USER        vdW + Hbond + desolv Energy     =  -5.17 kcal/mol
DOCKED: USER        Electrostatic Energy            =  +0.00 kcal/mol
DOCKED: USER        Moving Ligand-Fixed Receptor    =  -5.17 kcal/mol
DOCKED: USER        Moving Ligand-Moving Receptor   =  +0.00 kcal/mol
DOCKED: USER    (2) Final Total Internal Energy     =  -1.34 kcal/mol
DOCKED: USER    (3) Torsional Free Energy           =  +1.49 kcal/mol
DOCKED: USER    (4) Unbound System's Energy         =  -1.34 kcal/mol
DOCKED: USER
DOCKED: USER
DOCKED: REMARK  5 active torsions:
DOCKED: REMARK  status: ('A' for Active; 'I' for Inactive)
DOCKED: REMARK    1  A    between atoms: C_2  and  C_19 
DOCKED: REMARK    2  A    between atoms: C_2  and  C_11 
DOCKED: REMARK    3  A    between atoms: C_19  and  C_20 
DOCKED: REMARK    4  A    between atoms: C_20  and  C_21 
DOCKED: REMARK    5  A    between atoms: C_21  and  N_22 
DOCKED: USER                              x       y       z     vdW  Elec       q    Type
DOCKED: USER                           _______ _______ _______ _____ _____    ______ ____
DOCKED: ROOT
DOCKED: ATOM      1  O   UNL     1     -40.408 -19.629   7.677 -0.03 -0.00    -0.346 OA 
DOCKED: ATOM      2  C   UNL     1     -39.881 -20.674   8.556 -0.08 +0.00    +0.130 C  
DOCKED: ATOM      3  C   UNL     1     -40.478 -21.939   8.009 -0.17 +0.00    +0.004 A  
DOCKED: ATOM      4  C   UNL     1     -41.194 -21.656   6.855 -0.26 +0.00    +0.006 A  
DOCKED: ATOM      5  C   UNL     1     -41.111 -20.210   6.553 -0.18 +0.00    +0.169 C  
DOCKED: ATOM      6  C   UNL     1     -40.385 -23.237   8.490 -0.21 -0.00    -0.001 A  
DOCKED: ATOM      7  C   UNL     1     -41.841 -22.654   6.146 -0.33 +0.00    +0.008 A  
DOCKED: ATOM      8  C   UNL     1     -41.037 -24.253   7.790 -0.30 +0.00    +0.010 A  
DOCKED: ATOM      9  C   UNL     1     -41.761 -23.963   6.623 -0.29 +0.00    +0.068 A  
DOCKED: ATOM     10  N   UNL     1     -42.954 -25.875   5.344 -2.48 -0.00    -0.191 NA 
DOCKED: ATOM     11  C   UNL     1     -42.419 -25.017   5.918 -0.33 +0.00    +0.101 C  
DOCKED: ENDROOT
DOCKED: BRANCH   2  12
DOCKED: ATOM     12  C   UNL     1     -38.359 -20.652   8.472 -0.10 +0.00    +0.038 C  
DOCKED: BRANCH  12  13
DOCKED: ATOM     13  C   UNL     1     -37.883 -20.281   7.069 -0.09 +0.00    +0.038 C  
DOCKED: BRANCH  13  14
DOCKED: ATOM     14  C   UNL     1     -37.377 -18.840   7.023 -0.05 +0.00    +0.251 C  
DOCKED: BRANCH  14  15
DOCKED: ATOM     15  N   UNL     1     -37.915 -18.151   5.856 -0.06 +0.00    +0.141 N  
DOCKED: ATOM     16  C   UNL     1     -38.442 -19.112   4.886 -0.09 +0.00    +0.285 C  
DOCKED: ATOM     17  C   UNL     1     -38.959 -17.205   6.252 -0.04 +0.00    +0.285 C  
DOCKED: ENDBRANCH  14  15
DOCKED: ENDBRANCH  13  14
DOCKED: ENDBRANCH  12  13
DOCKED: ENDBRANCH   2  12
DOCKED: BRANCH   2  18
DOCKED: ATOM     18  C   UNL     1     -40.349 -20.359   9.937 -0.03 +0.00    +0.006 A  
DOCKED: ATOM     19  C   UNL     1     -39.863 -21.089  11.021 -0.02 +0.00    +0.001 A  
DOCKED: ATOM     20  C   UNL     1     -40.302 -20.794  12.312 -0.00 +0.00    +0.029 A  
DOCKED: ATOM     21  C   UNL     1     -41.225 -19.770  12.518 +0.00 +0.00    +0.140 A  
DOCKED: ATOM     22  C   UNL     1     -41.710 -19.039  11.433 -0.00 +0.00    +0.029 A  
DOCKED: ATOM     23  F   UNL     1     -41.644 -19.485  13.757 +0.00 -0.00    -0.204 F  
DOCKED: ATOM     24  C   UNL     1     -41.272 -19.334  10.141 -0.01 +0.00    +0.001 A  
DOCKED: ENDBRANCH   2  18
DOCKED: TORSDOF 5
DOCKED: TER
DOCKED: ENDMDL
________________________________________________________________________________


    FINAL DOCKED STATE:
    ________________________


Run:   377 / 512
Time taken for this run:   0.002s

DOCKED: MODEL        377
DOCKED: USER    Run = 377
DOCKED: USER
DOCKED: USER    Estimated Free Energy of Binding    =  -4.67 kcal/mol  [=(1)+(2)+(3)-(4)]
DOCKED: USER
DOCKED: USER    (1) Final Intermolecular Energy     =  -6.17 kcal/mol
DOCKED: USER        vdW + Hbond + desolv Energy     =  -6.17 kcal/mol
DOCKED: USER        Electrostatic Energy            =  +0.00 kcal/mol
DOCKED: USER        Moving Ligand-Fixed Receptor    =  -6.17 kcal/mol
DOCKED: USER        Moving Ligand-Moving Receptor   =  +0.00 kcal/mol
DOCKED: USER    (2) Final Total Internal Energy     =  -1.23 kcal/mol
DOCKED: USER    (3) Torsional Free Energy           =  +1.49 kcal/mol
DOCKED: USER    (4) Unbound System's Energy         =  -1.23 kcal/mol
DOCKED: USER
DOCKED: USER
DOCKED: REMARK  5 active torsions:
DOCKED: REMARK  status: ('A' for Active; 'I' for Inactive)
DOCKED: REMARK    1  A    between atoms: C_2  and  C_19 
DOCKED: REMARK    2  A    between atoms: C_2  and  C_11 
DOCKED: REMARK    3  A    between atoms: C_19  and  C_20 
DOCKED: REMARK    4  A    between atoms: C_20  and  C_21 
DOCKED: REMARK    5  A    between atoms: C_21  and  N_22 
DOCKED: USER                              x       y       z     vdW  Elec       q    Type
DOCKED: USER                           _______ _______ _______ _____ _____    ______ ____
DOCKED: ROOT
DOCKED: ATOM      1  O   UNL     1     -38.564 -21.588   8.506 -0.07 -0.00    -0.346 OA 
DOCKED: ATOM      2  C   UNL     1     -39.461 -20.750   7.709 -0.14 +0.00    +0.130 C  
DOCKED: ATOM      3  C   UNL     1     -40.399 -21.734   7.071 -0.21 +0.00    +0.004 A  
DOCKED: ATOM      4  C   UNL     1     -40.132 -23.010   7.548 -0.24 +0.00    +0.006 A  
DOCKED: ATOM      5  C   UNL     1     -39.025 -22.959   8.529 -0.17 +0.00    +0.169 C  
DOCKED: ATOM      6  C   UNL     1     -41.414 -21.516   6.151 -0.26 -0.00    -0.001 A  
DOCKED: ATOM      7  C   UNL     1     -40.863 -24.106   7.122 -0.34 +0.00    +0.008 A  
DOCKED: ATOM      8  C   UNL     1     -42.157 -22.612   5.709 -0.32 +0.00    +0.010 A  
DOCKED: ATOM      9  C   UNL     1     -41.883 -23.900   6.192 -0.31 +0.00    +0.068 A  
DOCKED: ATOM     10  N   UNL     1     -43.285 -25.911   5.353 -2.56 -0.00    -0.191 NA 
DOCKED: ATOM     11  C   UNL     1     -42.656 -25.009   5.729 -0.38 +0.00    +0.101 C  
DOCKED: ENDROOT
DOCKED: BRANCH   2  12
DOCKED: ATOM     12  C   UNL     1     -40.169 -19.776   8.643 -0.06 +0.00    +0.038 C  
DOCKED: BRANCH  12  13
DOCKED: ATOM     13  C   UNL     1     -41.517 -20.326   9.104 -0.05 +0.00    +0.038 C  
DOCKED: BRANCH  13  14
DOCKED: ATOM     14  C   UNL     1     -42.657 -19.387   8.710 -0.03 +0.00    +0.251 C  
DOCKED: BRANCH  14  15
DOCKED: ATOM     15  N   UNL     1     -43.441 -19.968   7.627 -0.12 +0.00    +0.141 N  
DOCKED: ATOM     16  C   UNL     1     -44.209 -21.119   8.105 -0.06 +0.00    +0.285 C  
DOCKED: ATOM     17  C   UNL     1     -44.335 -18.967   7.043 -0.15 +0.00    +0.285 C  
DOCKED: ENDBRANCH  14  15
DOCKED: ENDBRANCH  13  14
DOCKED: ENDBRANCH  12  13
DOCKED: ENDBRANCH   2  12
DOCKED: BRANCH   2  18
DOCKED: ATOM     18  C   UNL     1     -38.614 -20.026   6.716 -0.13 +0.00    +0.006 A  
DOCKED: ATOM     19  C   UNL     1     -37.225 -20.107   6.795 -0.10 +0.00    +0.001 A  
DOCKED: ATOM     20  C   UNL     1     -36.434 -19.430   5.866 -0.09 +0.00    +0.029 A  
DOCKED: ATOM     21  C   UNL     1     -37.034 -18.673   4.860 -0.08 +0.00    +0.140 A  
DOCKED: ATOM     22  C   UNL     1     -38.424 -18.593   4.782 -0.13 +0.00    +0.029 A  
DOCKED: ATOM     23  F   UNL     1     -36.275 -18.024   3.968 -0.00 -0.00    -0.204 F  
DOCKED: ATOM     24  C   UNL     1     -39.216 -19.270   5.711 -0.15 +0.00    +0.001 A  
DOCKED: ENDBRANCH   2  18
DOCKED: TORSDOF 5
DOCKED: TER
DOCKED: ENDMDL
________________________________________________________________________________


    FINAL DOCKED STATE:
    ________________________


Run:   378 / 512
Time taken for this run:   0.002s

DOCKED: MODEL        378
DOCKED: USER    Run = 378
DOCKED: USER
DOCKED: USER    Estimated Free Energy of Binding    =  -4.20 kcal/mol  [=(1)+(2)+(3)-(4)]
DOCKED: USER
DOCKED: USER    (1) Final Intermolecular Energy     =  -5.69 kcal/mol
DOCKED: USER        vdW + Hbond + desolv Energy     =  -5.69 kcal/mol
DOCKED: USER        Electrostatic Energy            =  +0.00 kcal/mol
DOCKED: USER        Moving Ligand-Fixed Receptor    =  -5.69 kcal/mol
DOCKED: USER        Moving Ligand-Moving Receptor   =  +0.00 kcal/mol
DOCKED: USER    (2) Final Total Internal Energy     =  -1.48 kcal/mol
DOCKED: USER    (3) Torsional Free Energy           =  +1.49 kcal/mol
DOCKED: USER    (4) Unbound System's Energy         =  -1.48 kcal/mol
DOCKED: USER
DOCKED: USER
DOCKED: REMARK  5 active torsions:
DOCKED: REMARK  status: ('A' for Active; 'I' for Inactive)
DOCKED: REMARK    1  A    between atoms: C_2  and  C_19 
DOCKED: REMARK    2  A    between atoms: C_2  and  C_11 
DOCKED: REMARK    3  A    between atoms: C_19  and  C_20 
DOCKED: REMARK    4  A    between atoms: C_20  and  C_21 
DOCKED: REMARK    5  A    between atoms: C_21  and  N_22 
DOCKED: USER                              x       y       z     vdW  Elec       q    Type
DOCKED: USER                           _______ _______ _______ _____ _____    ______ ____
DOCKED: ROOT
DOCKED: ATOM      1  O   UNL     1     -40.276 -20.081   8.002 -0.03 -0.00    -0.346 OA 
DOCKED: ATOM      2  C   UNL     1     -41.722 -19.904   7.863 -0.11 +0.00    +0.130 C  
DOCKED: ATOM      3  C   UNL     1     -42.188 -21.205   7.274 -0.20 +0.00    +0.004 A  
DOCKED: ATOM      4  C   UNL     1     -41.120 -22.087   7.187 -0.24 +0.00    +0.006 A  
DOCKED: ATOM      5  C   UNL     1     -39.895 -21.447   7.716 -0.15 +0.00    +0.169 C  
DOCKED: ATOM      6  C   UNL     1     -43.457 -21.580   6.859 -0.23 -0.00    -0.001 A  
DOCKED: ATOM      7  C   UNL     1     -41.282 -23.366   6.682 -0.32 +0.00    +0.008 A  
DOCKED: ATOM      8  C   UNL     1     -43.635 -22.865   6.343 -0.24 +0.00    +0.010 A  
DOCKED: ATOM      9  C   UNL     1     -42.553 -23.753   6.256 -0.27 +0.00    +0.068 A  
DOCKED: ATOM     10  N   UNL     1     -42.919 -26.133   5.298 -2.59 -0.00    -0.191 NA 
DOCKED: ATOM     11  C   UNL     1     -42.754 -25.065   5.727 -0.35 +0.00    +0.101 C  
DOCKED: ENDROOT
DOCKED: BRANCH   2  12
DOCKED: ATOM     12  C   UNL     1     -42.310 -19.633   9.242 -0.04 +0.00    +0.038 C  
DOCKED: BRANCH  12  13
DOCKED: ATOM     13  C   UNL     1     -41.232 -19.195  10.231 -0.01 +0.00    +0.038 C  
DOCKED: BRANCH  13  14
DOCKED: ATOM     14  C   UNL     1     -40.775 -17.765   9.947 -0.00 +0.00    +0.251 C  
DOCKED: BRANCH  14  15
DOCKED: ATOM     15  N   UNL     1     -39.356 -17.617  10.249 -0.00 +0.00    +0.141 N  
DOCKED: ATOM     16  C   UNL     1     -38.868 -18.766  11.014 -0.00 +0.00    +0.285 C  
DOCKED: ATOM     17  C   UNL     1     -38.581 -17.461   9.017 -0.00 +0.00    +0.285 C  
DOCKED: ENDBRANCH  14  15
DOCKED: ENDBRANCH  13  14
DOCKED: ENDBRANCH  12  13
DOCKED: ENDBRANCH   2  12
DOCKED: BRANCH   2  18
DOCKED: ATOM     18  C   UNL     1     -41.934 -18.743   6.949 -0.16 +0.00    +0.006 A  
DOCKED: ATOM     19  C   UNL     1     -40.848 -18.164   6.295 -0.12 +0.00    +0.001 A  
DOCKED: ATOM     20  C   UNL     1     -41.048 -17.078   5.442 -0.10 +0.00    +0.029 A  
DOCKED: ATOM     21  C   UNL     1     -42.332 -16.574   5.244 -0.12 +0.00    +0.140 A  
DOCKED: ATOM     22  C   UNL     1     -43.418 -17.154   5.898 -0.16 +0.00    +0.029 A  
DOCKED: ATOM     23  F   UNL     1     -42.524 -15.533   4.423 -0.03 -0.00    -0.204 F  
DOCKED: ATOM     24  C   UNL     1     -43.220 -18.240   6.752 -0.20 +0.00    +0.001 A  
DOCKED: ENDBRANCH   2  18
DOCKED: TORSDOF 5
DOCKED: TER
DOCKED: ENDMDL
________________________________________________________________________________


    FINAL DOCKED STATE:
    ________________________


Run:   379 / 512
Time taken for this run:   0.002s

DOCKED: MODEL        379
DOCKED: USER    Run = 379
DOCKED: USER
DOCKED: USER    Estimated Free Energy of Binding    =  -3.25 kcal/mol  [=(1)+(2)+(3)-(4)]
DOCKED: USER
DOCKED: USER    (1) Final Intermolecular Energy     =  -4.74 kcal/mol
DOCKED: USER        vdW + Hbond + desolv Energy     =  -4.74 kcal/mol
DOCKED: USER        Electrostatic Energy            =  +0.00 kcal/mol
DOCKED: USER        Moving Ligand-Fixed Receptor    =  -4.74 kcal/mol
DOCKED: USER        Moving Ligand-Moving Receptor   =  +0.00 kcal/mol
DOCKED: USER    (2) Final Total Internal Energy     =  -1.13 kcal/mol
DOCKED: USER    (3) Torsional Free Energy           =  +1.49 kcal/mol
DOCKED: USER    (4) Unbound System's Energy         =  -1.13 kcal/mol
DOCKED: USER
DOCKED: USER
DOCKED: REMARK  5 active torsions:
DOCKED: REMARK  status: ('A' for Active; 'I' for Inactive)
DOCKED: REMARK    1  A    between atoms: C_2  and  C_19 
DOCKED: REMARK    2  A    between atoms: C_2  and  C_11 
DOCKED: REMARK    3  A    between atoms: C_19  and  C_20 
DOCKED: REMARK    4  A    between atoms: C_20  and  C_21 
DOCKED: REMARK    5  A    between atoms: C_21  and  N_22 
DOCKED: USER                              x       y       z     vdW  Elec       q    Type
DOCKED: USER                           _______ _______ _______ _____ _____    ______ ____
DOCKED: ROOT
DOCKED: ATOM      1  O   UNL     1     -34.094 -11.649  -2.547 -0.00 -0.00    -0.346 OA 
DOCKED: ATOM      2  C   UNL     1     -33.952 -12.200  -3.895 -0.04 +0.00    +0.130 C  
DOCKED: ATOM      3  C   UNL     1     -35.367 -12.398  -4.354 -0.11 +0.00    +0.004 A  
DOCKED: ATOM      4  C   UNL     1     -36.242 -11.901  -3.398 -0.19 +0.00    +0.006 A  
DOCKED: ATOM      5  C   UNL     1     -35.478 -11.337  -2.263 -0.14 +0.00    +0.169 C  
DOCKED: ATOM      6  C   UNL     1     -35.843 -12.962  -5.529 -0.13 -0.00    -0.001 A  
DOCKED: ATOM      7  C   UNL     1     -37.613 -11.954  -3.580 -0.29 +0.00    +0.008 A  
DOCKED: ATOM      8  C   UNL     1     -37.223 -13.027  -5.725 -0.26 +0.00    +0.010 A  
DOCKED: ATOM      9  C   UNL     1     -38.104 -12.525  -4.755 -0.34 +0.00    +0.068 A  
DOCKED: ATOM     10  N   UNL     1     -40.661 -12.656  -5.152 -2.54 -0.00    -0.191 NA 
DOCKED: ATOM     11  C   UNL     1     -39.514 -12.598  -4.973 -0.39 +0.00    +0.101 C  
DOCKED: ENDROOT
DOCKED: BRANCH   2  12
DOCKED: ATOM     12  C   UNL     1     -33.186 -11.196  -4.749 -0.06 +0.00    +0.038 C  
DOCKED: BRANCH  12  13
DOCKED: ATOM     13  C   UNL     1     -33.061 -11.674  -6.194 -0.06 +0.00    +0.038 C  
DOCKED: BRANCH  13  14
DOCKED: ATOM     14  C   UNL     1     -33.669 -10.660  -7.162 +0.00 +0.00    +0.251 C  
DOCKED: BRANCH  14  15
DOCKED: ATOM     15  N   UNL     1     -33.764 -11.231  -8.500 -0.10 +0.00    +0.141 N  
DOCKED: ATOM     16  C   UNL     1     -32.595 -12.062  -8.791 -0.01 +0.00    +0.285 C  
DOCKED: ATOM     17  C   UNL     1     -34.992 -12.016  -8.640 -0.06 +0.00    +0.285 C  
DOCKED: ENDBRANCH  14  15
DOCKED: ENDBRANCH  13  14
DOCKED: ENDBRANCH  12  13
DOCKED: ENDBRANCH   2  12
DOCKED: BRANCH   2  18
DOCKED: ATOM     18  C   UNL     1     -33.198 -13.481  -3.766 -0.01 +0.00    +0.006 A  
DOCKED: ATOM     19  C   UNL     1     -31.804 -13.476  -3.800 -0.00 +0.00    +0.001 A  
DOCKED: ATOM     20  C   UNL     1     -31.100 -14.675  -3.679 -0.00 +0.00    +0.029 A  
DOCKED: ATOM     21  C   UNL     1     -31.791 -15.876  -3.523 -0.00 +0.00    +0.140 A  
DOCKED: ATOM     22  C   UNL     1     -33.185 -15.881  -3.489 -0.00 +0.00    +0.029 A  
DOCKED: ATOM     23  F   UNL     1     -31.115 -17.027  -3.405 +0.00 -0.00    -0.204 F  
DOCKED: ATOM     24  C   UNL     1     -33.890 -14.682  -3.610 -0.01 +0.00    +0.001 A  
DOCKED: ENDBRANCH   2  18
DOCKED: TORSDOF 5
DOCKED: TER
DOCKED: ENDMDL
________________________________________________________________________________


    FINAL DOCKED STATE:
    ________________________


Run:   380 / 512
Time taken for this run:   0.002s

DOCKED: MODEL        380
DOCKED: USER    Run = 380
DOCKED: USER
DOCKED: USER    Estimated Free Energy of Binding    =  -4.87 kcal/mol  [=(1)+(2)+(3)-(4)]
DOCKED: USER
DOCKED: USER    (1) Final Intermolecular Energy     =  -6.36 kcal/mol
DOCKED: USER        vdW + Hbond + desolv Energy     =  -6.36 kcal/mol
DOCKED: USER        Electrostatic Energy            =  +0.00 kcal/mol
DOCKED: USER        Moving Ligand-Fixed Receptor    =  -6.36 kcal/mol
DOCKED: USER        Moving Ligand-Moving Receptor   =  +0.00 kcal/mol
DOCKED: USER    (2) Final Total Internal Energy     =  -1.10 kcal/mol
DOCKED: USER    (3) Torsional Free Energy           =  +1.49 kcal/mol
DOCKED: USER    (4) Unbound System's Energy         =  -1.10 kcal/mol
DOCKED: USER
DOCKED: USER
DOCKED: REMARK  5 active torsions:
DOCKED: REMARK  status: ('A' for Active; 'I' for Inactive)
DOCKED: REMARK    1  A    between atoms: C_2  and  C_19 
DOCKED: REMARK    2  A    between atoms: C_2  and  C_11 
DOCKED: REMARK    3  A    between atoms: C_19  and  C_20 
DOCKED: REMARK    4  A    between atoms: C_20  and  C_21 
DOCKED: REMARK    5  A    between atoms: C_21  and  N_22 
DOCKED: USER                              x       y       z     vdW  Elec       q    Type
DOCKED: USER                           _______ _______ _______ _____ _____    ______ ____
DOCKED: ROOT
DOCKED: ATOM      1  O   UNL     1     -36.883 -15.278   0.383 -0.06 -0.00    -0.346 OA 
DOCKED: ATOM      2  C   UNL     1     -38.315 -15.515   0.573 -0.20 +0.00    +0.130 C  
DOCKED: ATOM      3  C   UNL     1     -38.947 -14.884  -0.634 -0.27 +0.00    +0.004 A  
DOCKED: ATOM      4  C   UNL     1     -37.958 -14.424  -1.492 -0.21 +0.00    +0.006 A  
DOCKED: ATOM      5  C   UNL     1     -36.623 -14.726  -0.929 -0.12 +0.00    +0.169 C  
DOCKED: ATOM      6  C   UNL     1     -40.289 -14.738  -0.952 +0.08 -0.00    -0.001 A  
DOCKED: ATOM      7  C   UNL     1     -38.274 -13.803  -2.688 -0.31 +0.00    +0.008 A  
DOCKED: ATOM      8  C   UNL     1     -40.624 -14.109  -2.152 -0.32 +0.00    +0.010 A  
DOCKED: ATOM      9  C   UNL     1     -39.621 -13.645  -3.016 -0.34 +0.00    +0.068 A  
DOCKED: ATOM     10  N   UNL     1     -40.278 -12.487  -5.240 -2.48 -0.00    -0.191 NA 
DOCKED: ATOM     11  C   UNL     1     -39.983 -13.006  -4.242 -0.36 +0.00    +0.101 C  
DOCKED: ENDROOT
DOCKED: BRANCH   2  12
DOCKED: ATOM     12  C   UNL     1     -38.549 -17.019   0.647 -0.21 +0.00    +0.038 C  
DOCKED: BRANCH  12  13
DOCKED: ATOM     13  C   UNL     1     -38.684 -17.492   2.093 -0.16 +0.00    +0.038 C  
DOCKED: BRANCH  13  14
DOCKED: ATOM     14  C   UNL     1     -37.402 -18.170   2.571 -0.07 +0.00    +0.251 C  
DOCKED: BRANCH  14  15
DOCKED: ATOM     15  N   UNL     1     -37.433 -18.352   4.018 -0.08 +0.00    +0.141 N  
DOCKED: ATOM     16  C   UNL     1     -36.851 -19.643   4.388 -0.09 +0.00    +0.285 C  
DOCKED: ATOM     17  C   UNL     1     -36.723 -17.263   4.690 -0.02 +0.00    +0.285 C  
DOCKED: ENDBRANCH  14  15
DOCKED: ENDBRANCH  13  14
DOCKED: ENDBRANCH  12  13
DOCKED: ENDBRANCH   2  12
DOCKED: BRANCH   2  18
DOCKED: ATOM     18  C   UNL     1     -38.702 -14.847   1.849 -0.20 +0.00    +0.006 A  
DOCKED: ATOM     19  C   UNL     1     -40.041 -14.551   2.103 -0.28 +0.00    +0.001 A  
DOCKED: ATOM     20  C   UNL     1     -40.401 -13.925   3.297 -0.23 +0.00    +0.029 A  
DOCKED: ATOM     21  C   UNL     1     -39.424 -13.597   4.235 -0.15 +0.00    +0.140 A  
DOCKED: ATOM     22  C   UNL     1     -38.085 -13.893   3.981 -0.12 +0.00    +0.029 A  
DOCKED: ATOM     23  F   UNL     1     -39.770 -12.998   5.382 -0.03 -0.00    -0.204 F  
DOCKED: ATOM     24  C   UNL     1     -37.723 -14.519   2.786 -0.15 +0.00    +0.001 A  
DOCKED: ENDBRANCH   2  18
DOCKED: TORSDOF 5
DOCKED: TER
DOCKED: ENDMDL
________________________________________________________________________________


    FINAL DOCKED STATE:
    ________________________


Run:   381 / 512
Time taken for this run:   0.002s

DOCKED: MODEL        381
DOCKED: USER    Run = 381
DOCKED: USER
DOCKED: USER    Estimated Free Energy of Binding    =  -5.40 kcal/mol  [=(1)+(2)+(3)-(4)]
DOCKED: USER
DOCKED: USER    (1) Final Intermolecular Energy     =  -6.89 kcal/mol
DOCKED: USER        vdW + Hbond + desolv Energy     =  -6.89 kcal/mol
DOCKED: USER        Electrostatic Energy            =  +0.00 kcal/mol
DOCKED: USER        Moving Ligand-Fixed Receptor    =  -6.89 kcal/mol
DOCKED: USER        Moving Ligand-Moving Receptor   =  +0.00 kcal/mol
DOCKED: USER    (2) Final Total Internal Energy     =  -0.99 kcal/mol
DOCKED: USER    (3) Torsional Free Energy           =  +1.49 kcal/mol
DOCKED: USER    (4) Unbound System's Energy         =  -0.99 kcal/mol
DOCKED: USER
DOCKED: USER
DOCKED: REMARK  5 active torsions:
DOCKED: REMARK  status: ('A' for Active; 'I' for Inactive)
DOCKED: REMARK    1  A    between atoms: C_2  and  C_19 
DOCKED: REMARK    2  A    between atoms: C_2  and  C_11 
DOCKED: REMARK    3  A    between atoms: C_19  and  C_20 
DOCKED: REMARK    4  A    between atoms: C_20  and  C_21 
DOCKED: REMARK    5  A    between atoms: C_21  and  N_22 
DOCKED: USER                              x       y       z     vdW  Elec       q    Type
DOCKED: USER                           _______ _______ _______ _____ _____    ______ ____
DOCKED: ROOT
DOCKED: ATOM      1  O   UNL     1     -44.473 -22.915   8.152 -0.01 -0.00    -0.346 OA 
DOCKED: ATOM      2  C   UNL     1     -43.029 -22.890   7.915 -0.12 +0.00    +0.130 C  
DOCKED: ATOM      3  C   UNL     1     -42.892 -23.327   6.485 -0.27 +0.00    +0.004 A  
DOCKED: ATOM      4  C   UNL     1     -44.150 -23.481   5.921 -0.28 +0.00    +0.006 A  
DOCKED: ATOM      5  C   UNL     1     -45.192 -23.149   6.919 -0.18 +0.00    +0.169 C  
DOCKED: ATOM      6  C   UNL     1     -41.745 -23.559   5.740 -0.38 -0.00    -0.001 A  
DOCKED: ATOM      7  C   UNL     1     -44.306 -23.873   4.603 -0.22 +0.00    +0.008 A  
DOCKED: ATOM      8  C   UNL     1     -41.885 -23.959   4.410 -0.19 +0.00    +0.010 A  
DOCKED: ATOM      9  C   UNL     1     -43.159 -24.115   3.844 -0.37 +0.00    +0.068 A  
DOCKED: ATOM     10  N   UNL     1     -43.385 -24.854   1.371 -2.86 -0.00    -0.191 NA 
DOCKED: ATOM     11  C   UNL     1     -43.284 -24.523   2.481 -0.28 +0.00    +0.101 C  
DOCKED: ENDROOT
DOCKED: BRANCH   2  12
DOCKED: ATOM     12  C   UNL     1     -42.524 -21.472   8.153 -0.13 +0.00    +0.038 C  
DOCKED: BRANCH  12  13
DOCKED: ATOM     13  C   UNL     1     -43.675 -20.517   8.464 -0.10 +0.00    +0.038 C  
DOCKED: BRANCH  13  14
DOCKED: ATOM     14  C   UNL     1     -44.154 -19.804   7.201 -0.16 +0.00    +0.251 C  
DOCKED: BRANCH  14  15
DOCKED: ATOM     15  N   UNL     1     -43.230 -18.736   6.839 -0.18 +0.00    +0.141 N  
DOCKED: ATOM     16  C   UNL     1     -43.925 -17.678   6.105 -0.11 +0.00    +0.285 C  
DOCKED: ATOM     17  C   UNL     1     -42.585 -18.186   8.033 -0.05 +0.00    +0.285 C  
DOCKED: ENDBRANCH  14  15
DOCKED: ENDBRANCH  13  14
DOCKED: ENDBRANCH  12  13
DOCKED: ENDBRANCH   2  12
DOCKED: BRANCH   2  18
DOCKED: ATOM     18  C   UNL     1     -42.412 -23.850   8.878 -0.15 +0.00    +0.006 A  
DOCKED: ATOM     19  C   UNL     1     -42.463 -23.592  10.247 -0.10 +0.00    +0.001 A  
DOCKED: ATOM     20  C   UNL     1     -41.886 -24.490  11.146 -0.15 +0.00    +0.029 A  
DOCKED: ATOM     21  C   UNL     1     -41.260 -25.643  10.675 -0.12 +0.00    +0.140 A  
DOCKED: ATOM     22  C   UNL     1     -41.210 -25.900   9.305 -0.08 +0.00    +0.029 A  
DOCKED: ATOM     23  F   UNL     1     -40.708 -26.505  11.539 -0.11 -0.00    -0.204 F  
DOCKED: ATOM     24  C   UNL     1     -41.786 -25.002   8.405 -0.29 +0.00    +0.001 A  
DOCKED: ENDBRANCH   2  18
DOCKED: TORSDOF 5
DOCKED: TER
DOCKED: ENDMDL
________________________________________________________________________________


    FINAL DOCKED STATE:
    ________________________


Run:   382 / 512
Time taken for this run:   0.002s

DOCKED: MODEL        382
DOCKED: USER    Run = 382
DOCKED: USER
DOCKED: USER    Estimated Free Energy of Binding    =  -4.05 kcal/mol  [=(1)+(2)+(3)-(4)]
DOCKED: USER
DOCKED: USER    (1) Final Intermolecular Energy     =  -5.54 kcal/mol
DOCKED: USER        vdW + Hbond + desolv Energy     =  -5.54 kcal/mol
DOCKED: USER        Electrostatic Energy            =  +0.00 kcal/mol
DOCKED: USER        Moving Ligand-Fixed Receptor    =  -5.54 kcal/mol
DOCKED: USER        Moving Ligand-Moving Receptor   =  +0.00 kcal/mol
DOCKED: USER    (2) Final Total Internal Energy     =  -1.32 kcal/mol
DOCKED: USER    (3) Torsional Free Energy           =  +1.49 kcal/mol
DOCKED: USER    (4) Unbound System's Energy         =  -1.32 kcal/mol
DOCKED: USER
DOCKED: USER
DOCKED: REMARK  5 active torsions:
DOCKED: REMARK  status: ('A' for Active; 'I' for Inactive)
DOCKED: REMARK    1  A    between atoms: C_2  and  C_19 
DOCKED: REMARK    2  A    between atoms: C_2  and  C_11 
DOCKED: REMARK    3  A    between atoms: C_19  and  C_20 
DOCKED: REMARK    4  A    between atoms: C_20  and  C_21 
DOCKED: REMARK    5  A    between atoms: C_21  and  N_22 
DOCKED: USER                              x       y       z     vdW  Elec       q    Type
DOCKED: USER                           _______ _______ _______ _____ _____    ______ ____
DOCKED: ROOT
DOCKED: ATOM      1  O   UNL     1     -32.233 -22.391  -0.427 +0.01 -0.00    -0.346 OA 
DOCKED: ATOM      2  C   UNL     1     -33.481 -21.702  -0.095 -0.05 +0.00    +0.130 C  
DOCKED: ATOM      3  C   UNL     1     -34.167 -22.638   0.857 -0.11 +0.00    +0.004 A  
DOCKED: ATOM      4  C   UNL     1     -33.337 -23.715   1.132 -0.08 +0.00    +0.006 A  
DOCKED: ATOM      5  C   UNL     1     -32.057 -23.562   0.403 -0.02 +0.00    +0.169 C  
DOCKED: ATOM      6  C   UNL     1     -35.422 -22.540   1.441 -0.23 -0.00    -0.001 A  
DOCKED: ATOM      7  C   UNL     1     -33.729 -24.726   1.992 -0.17 +0.00    +0.008 A  
DOCKED: ATOM      8  C   UNL     1     -35.834 -23.554   2.307 -0.31 +0.00    +0.010 A  
DOCKED: ATOM      9  C   UNL     1     -34.991 -24.641   2.582 -0.29 +0.00    +0.068 A  
DOCKED: ATOM     10  N   UNL     1     -35.785 -26.504   4.199 -2.67 -0.00    -0.191 NA 
DOCKED: ATOM     11  C   UNL     1     -35.429 -25.669   3.473 -0.40 +0.00    +0.101 C  
DOCKED: ENDROOT
DOCKED: BRANCH   2  12
DOCKED: ATOM     12  C   UNL     1     -33.138 -20.359   0.537 -0.02 +0.00    +0.038 C  
DOCKED: BRANCH  12  13
DOCKED: ATOM     13  C   UNL     1     -33.056 -20.464   2.059 -0.03 +0.00    +0.038 C  
DOCKED: BRANCH  13  14
DOCKED: ATOM     14  C   UNL     1     -33.903 -19.386   2.731 -0.01 +0.00    +0.251 C  
DOCKED: BRANCH  14  15
DOCKED: ATOM     15  N   UNL     1     -35.321 -19.648   2.518 -0.04 +0.00    +0.141 N  
DOCKED: ATOM     16  C   UNL     1     -36.007 -19.850   3.795 -0.08 +0.00    +0.285 C  
DOCKED: ATOM     17  C   UNL     1     -35.943 -18.550   1.777 -0.02 +0.00    +0.285 C  
DOCKED: ENDBRANCH  14  15
DOCKED: ENDBRANCH  13  14
DOCKED: ENDBRANCH  12  13
DOCKED: ENDBRANCH   2  12
DOCKED: BRANCH   2  18
DOCKED: ATOM     18  C   UNL     1     -34.231 -21.519  -1.373 -0.11 +0.00    +0.006 A  
DOCKED: ATOM     19  C   UNL     1     -33.826 -22.198  -2.521 -0.12 +0.00    +0.001 A  
DOCKED: ATOM     20  C   UNL     1     -34.528 -22.026  -3.715 -0.16 +0.00    +0.029 A  
DOCKED: ATOM     21  C   UNL     1     -35.632 -21.177  -3.759 -0.18 +0.00    +0.140 A  
DOCKED: ATOM     22  C   UNL     1     -36.037 -20.498  -2.610 -0.17 +0.00    +0.029 A  
DOCKED: ATOM     23  F   UNL     1     -36.307 -21.014  -4.904 -0.11 -0.00    -0.204 F  
DOCKED: ATOM     24  C   UNL     1     -35.335 -20.669  -1.415 -0.16 +0.00    +0.001 A  
DOCKED: ENDBRANCH   2  18
DOCKED: TORSDOF 5
DOCKED: TER
DOCKED: ENDMDL
________________________________________________________________________________


    FINAL DOCKED STATE:
    ________________________


Run:   383 / 512
Time taken for this run:   0.002s

DOCKED: MODEL        383
DOCKED: USER    Run = 383
DOCKED: USER
DOCKED: USER    Estimated Free Energy of Binding    =  -4.79 kcal/mol  [=(1)+(2)+(3)-(4)]
DOCKED: USER
DOCKED: USER    (1) Final Intermolecular Energy     =  -6.29 kcal/mol
DOCKED: USER        vdW + Hbond + desolv Energy     =  -6.29 kcal/mol
DOCKED: USER        Electrostatic Energy            =  +0.00 kcal/mol
DOCKED: USER        Moving Ligand-Fixed Receptor    =  -6.29 kcal/mol
DOCKED: USER        Moving Ligand-Moving Receptor   =  +0.00 kcal/mol
DOCKED: USER    (2) Final Total Internal Energy     =  -1.21 kcal/mol
DOCKED: USER    (3) Torsional Free Energy           =  +1.49 kcal/mol
DOCKED: USER    (4) Unbound System's Energy         =  -1.21 kcal/mol
DOCKED: USER
DOCKED: USER
DOCKED: REMARK  5 active torsions:
DOCKED: REMARK  status: ('A' for Active; 'I' for Inactive)
DOCKED: REMARK    1  A    between atoms: C_2  and  C_19 
DOCKED: REMARK    2  A    between atoms: C_2  and  C_11 
DOCKED: REMARK    3  A    between atoms: C_19  and  C_20 
DOCKED: REMARK    4  A    between atoms: C_20  and  C_21 
DOCKED: REMARK    5  A    between atoms: C_21  and  N_22 
DOCKED: USER                              x       y       z     vdW  Elec       q    Type
DOCKED: USER                           _______ _______ _______ _____ _____    ______ ____
DOCKED: ROOT
DOCKED: ATOM      1  O   UNL     1     -41.962 -21.905   9.114 -0.01 -0.00    -0.346 OA 
DOCKED: ATOM      2  C   UNL     1     -41.039 -23.035   8.999 -0.12 +0.00    +0.130 C  
DOCKED: ATOM      3  C   UNL     1     -41.319 -23.590   7.632 -0.26 +0.00    +0.004 A  
DOCKED: ATOM      4  C   UNL     1     -42.240 -22.783   6.980 -0.24 +0.00    +0.006 A  
DOCKED: ATOM      5  C   UNL     1     -42.619 -21.648   7.851 -0.11 +0.00    +0.169 C  
DOCKED: ATOM      6  C   UNL     1     -40.791 -24.713   7.012 -0.39 -0.00    -0.001 A  
DOCKED: ATOM      7  C   UNL     1     -42.667 -23.071   5.695 -0.32 +0.00    +0.008 A  
DOCKED: ATOM      8  C   UNL     1     -41.215 -25.019   5.717 -0.39 +0.00    +0.010 A  
DOCKED: ATOM      9  C   UNL     1     -42.148 -24.201   5.062 -0.39 +0.00    +0.068 A  
DOCKED: ATOM     10  N   UNL     1     -42.910 -24.795   2.658 -1.87 -0.00    -0.191 NA 
DOCKED: ATOM     11  C   UNL     1     -42.569 -24.529   3.737 -0.52 +0.00    +0.101 C  
DOCKED: ENDROOT
DOCKED: BRANCH   2  12
DOCKED: ATOM     12  C   UNL     1     -39.615 -22.512   9.147 -0.16 +0.00    +0.038 C  
DOCKED: BRANCH  12  13
DOCKED: ATOM     13  C   UNL     1     -39.538 -21.015   8.851 -0.10 +0.00    +0.038 C  
DOCKED: BRANCH  13  14
DOCKED: ATOM     14  C   UNL     1     -39.033 -20.761   7.432 -0.09 +0.00    +0.251 C  
DOCKED: BRANCH  14  15
DOCKED: ATOM     15  N   UNL     1     -39.374 -19.408   7.007 -0.11 +0.00    +0.141 N  
DOCKED: ATOM     16  C   UNL     1     -38.444 -18.940   5.978 -0.10 +0.00    +0.285 C  
DOCKED: ATOM     17  C   UNL     1     -40.750 -19.356   6.509 -0.12 +0.00    +0.285 C  
DOCKED: ENDBRANCH  14  15
DOCKED: ENDBRANCH  13  14
DOCKED: ENDBRANCH  12  13
DOCKED: ENDBRANCH   2  12
DOCKED: BRANCH   2  18
DOCKED: ATOM     18  C   UNL     1     -41.378 -23.989  10.095 -0.15 +0.00    +0.006 A  
DOCKED: ATOM     19  C   UNL     1     -40.361 -24.635  10.796 -0.15 +0.00    +0.001 A  
DOCKED: ATOM     20  C   UNL     1     -40.680 -25.527  11.820 -0.24 +0.00    +0.029 A  
DOCKED: ATOM     21  C   UNL     1     -42.014 -25.771  12.142 -0.13 +0.00    +0.140 A  
DOCKED: ATOM     22  C   UNL     1     -43.031 -25.124  11.441 -0.13 +0.00    +0.029 A  
DOCKED: ATOM     23  F   UNL     1     -42.320 -26.626  13.127 -0.05 -0.00    -0.204 F  
DOCKED: ATOM     24  C   UNL     1     -42.713 -24.232  10.416 -0.14 +0.00    +0.001 A  
DOCKED: ENDBRANCH   2  18
DOCKED: TORSDOF 5
DOCKED: TER
DOCKED: ENDMDL
________________________________________________________________________________


    FINAL DOCKED STATE:
    ________________________


Run:   384 / 512
Time taken for this run:   0.002s

DOCKED: MODEL        384
DOCKED: USER    Run = 384
DOCKED: USER
DOCKED: USER    Estimated Free Energy of Binding    =  -4.06 kcal/mol  [=(1)+(2)+(3)-(4)]
DOCKED: USER
DOCKED: USER    (1) Final Intermolecular Energy     =  -5.55 kcal/mol
DOCKED: USER        vdW + Hbond + desolv Energy     =  -5.55 kcal/mol
DOCKED: USER        Electrostatic Energy            =  +0.00 kcal/mol
DOCKED: USER        Moving Ligand-Fixed Receptor    =  -5.55 kcal/mol
DOCKED: USER        Moving Ligand-Moving Receptor   =  +0.00 kcal/mol
DOCKED: USER    (2) Final Total Internal Energy     =  -1.26 kcal/mol
DOCKED: USER    (3) Torsional Free Energy           =  +1.49 kcal/mol
DOCKED: USER    (4) Unbound System's Energy         =  -1.26 kcal/mol
DOCKED: USER
DOCKED: USER
DOCKED: REMARK  5 active torsions:
DOCKED: REMARK  status: ('A' for Active; 'I' for Inactive)
DOCKED: REMARK    1  A    between atoms: C_2  and  C_19 
DOCKED: REMARK    2  A    between atoms: C_2  and  C_11 
DOCKED: REMARK    3  A    between atoms: C_19  and  C_20 
DOCKED: REMARK    4  A    between atoms: C_20  and  C_21 
DOCKED: REMARK    5  A    between atoms: C_21  and  N_22 
DOCKED: USER                              x       y       z     vdW  Elec       q    Type
DOCKED: USER                           _______ _______ _______ _____ _____    ______ ____
DOCKED: ROOT
DOCKED: ATOM      1  O   UNL     1     -34.492 -11.164  -1.716 -0.02 -0.00    -0.346 OA 
DOCKED: ATOM      2  C   UNL     1     -34.360 -10.919  -3.153 -0.08 +0.00    +0.130 C  
DOCKED: ATOM      3  C   UNL     1     -35.682 -11.354  -3.715 -0.09 +0.00    +0.004 A  
DOCKED: ATOM      4  C   UNL     1     -36.535 -11.710  -2.680 -0.22 +0.00    +0.006 A  
DOCKED: ATOM      5  C   UNL     1     -35.851 -11.528  -1.380 -0.16 +0.00    +0.169 C  
DOCKED: ATOM      6  C   UNL     1     -36.101 -11.417  -5.036 -0.11 -0.00    -0.001 A  
DOCKED: ATOM      7  C   UNL     1     -37.826 -12.144  -2.927 -0.32 +0.00    +0.008 A  
DOCKED: ATOM      8  C   UNL     1     -37.399 -11.857  -5.302 -0.25 +0.00    +0.010 A  
DOCKED: ATOM      9  C   UNL     1     -38.257 -12.218  -4.252 -0.35 +0.00    +0.068 A  
DOCKED: ATOM     10  N   UNL     1     -40.662 -13.025  -4.781 -2.50 -0.00    -0.191 NA 
DOCKED: ATOM     11  C   UNL     1     -39.583 -12.664  -4.544 -0.42 +0.00    +0.101 C  
DOCKED: ENDROOT
DOCKED: BRANCH   2  12
DOCKED: ATOM     12  C   UNL     1     -34.082  -9.436  -3.366 -0.12 +0.00    +0.038 C  
DOCKED: BRANCH  12  13
DOCKED: ATOM     13  C   UNL     1     -35.375  -8.622  -3.363 -0.15 +0.00    +0.038 C  
DOCKED: BRANCH  13  14
DOCKED: ATOM     14  C   UNL     1     -35.620  -7.985  -1.997 -0.11 +0.00    +0.251 C  
DOCKED: BRANCH  14  15
DOCKED: ATOM     15  N   UNL     1     -37.051  -7.855  -1.747 -0.21 +0.00    +0.141 N  
DOCKED: ATOM     16  C   UNL     1     -37.477  -8.773  -0.690 -0.23 +0.00    +0.285 C  
DOCKED: ATOM     17  C   UNL     1     -37.388  -6.476  -1.389 -0.10 +0.00    +0.285 C  
DOCKED: ENDBRANCH  14  15
DOCKED: ENDBRANCH  13  14
DOCKED: ENDBRANCH  12  13
DOCKED: ENDBRANCH   2  12
DOCKED: BRANCH   2  18
DOCKED: ATOM     18  C   UNL     1     -33.220 -11.754  -3.634 -0.03 +0.00    +0.006 A  
DOCKED: ATOM     19  C   UNL     1     -32.807 -11.669  -4.963 -0.04 +0.00    +0.001 A  
DOCKED: ATOM     20  C   UNL     1     -31.742 -12.451  -5.412 -0.01 +0.00    +0.029 A  
DOCKED: ATOM     21  C   UNL     1     -31.092 -13.316  -4.532 +0.00 +0.00    +0.140 A  
DOCKED: ATOM     22  C   UNL     1     -31.506 -13.400  -3.203 -0.00 +0.00    +0.029 A  
DOCKED: ATOM     23  F   UNL     1     -30.069 -14.065  -4.963 +0.00 -0.00    -0.204 F  
DOCKED: ATOM     24  C   UNL     1     -32.572 -12.619  -2.753 -0.01 +0.00    +0.001 A  
DOCKED: ENDBRANCH   2  18
DOCKED: TORSDOF 5
DOCKED: TER
DOCKED: ENDMDL
________________________________________________________________________________


    FINAL DOCKED STATE:
    ________________________


Run:   385 / 512
Time taken for this run:   0.002s

DOCKED: MODEL        385
DOCKED: USER    Run = 385
DOCKED: USER
DOCKED: USER    Estimated Free Energy of Binding    =  -4.48 kcal/mol  [=(1)+(2)+(3)-(4)]
DOCKED: USER
DOCKED: USER    (1) Final Intermolecular Energy     =  -5.97 kcal/mol
DOCKED: USER        vdW + Hbond + desolv Energy     =  -5.97 kcal/mol
DOCKED: USER        Electrostatic Energy            =  +0.00 kcal/mol
DOCKED: USER        Moving Ligand-Fixed Receptor    =  -5.97 kcal/mol
DOCKED: USER        Moving Ligand-Moving Receptor   =  +0.00 kcal/mol
DOCKED: USER    (2) Final Total Internal Energy     =  -1.04 kcal/mol
DOCKED: USER    (3) Torsional Free Energy           =  +1.49 kcal/mol
DOCKED: USER    (4) Unbound System's Energy         =  -1.04 kcal/mol
DOCKED: USER
DOCKED: USER
DOCKED: REMARK  5 active torsions:
DOCKED: REMARK  status: ('A' for Active; 'I' for Inactive)
DOCKED: REMARK    1  A    between atoms: C_2  and  C_19 
DOCKED: REMARK    2  A    between atoms: C_2  and  C_11 
DOCKED: REMARK    3  A    between atoms: C_19  and  C_20 
DOCKED: REMARK    4  A    between atoms: C_20  and  C_21 
DOCKED: REMARK    5  A    between atoms: C_21  and  N_22 
DOCKED: USER                              x       y       z     vdW  Elec       q    Type
DOCKED: USER                           _______ _______ _______ _____ _____    ______ ____
DOCKED: ROOT
DOCKED: ATOM      1  O   UNL     1     -39.415 -15.804   1.615 -0.09 -0.00    -0.346 OA 
DOCKED: ATOM      2  C   UNL     1     -38.226 -16.042   0.796 -0.17 +0.00    +0.130 C  
DOCKED: ATOM      3  C   UNL     1     -38.569 -15.419  -0.526 -0.27 +0.00    +0.004 A  
DOCKED: ATOM      4  C   UNL     1     -39.800 -14.785  -0.438 -0.20 +0.00    +0.006 A  
DOCKED: ATOM      5  C   UNL     1     -40.343 -14.930   0.932 -0.28 +0.00    +0.169 C  
DOCKED: ATOM      6  C   UNL     1     -37.845 -15.405  -1.709 -0.24 -0.00    -0.001 A  
DOCKED: ATOM      7  C   UNL     1     -40.349 -14.122  -1.522 -0.06 +0.00    +0.008 A  
DOCKED: ATOM      8  C   UNL     1     -38.388 -14.745  -2.813 -0.17 +0.00    +0.010 A  
DOCKED: ATOM      9  C   UNL     1     -39.633 -14.107  -2.720 -0.19 +0.00    +0.068 A  
DOCKED: ATOM     10  N   UNL     1     -40.608 -12.886  -4.787 -2.41 -0.00    -0.191 NA 
DOCKED: ATOM     11  C   UNL     1     -40.171 -13.434  -3.860 -0.18 +0.00    +0.101 C  
DOCKED: ENDROOT
DOCKED: BRANCH   2  12
DOCKED: ATOM     12  C   UNL     1     -37.033 -15.377   1.473 -0.15 +0.00    +0.038 C  
DOCKED: BRANCH  12  13
DOCKED: ATOM     13  C   UNL     1     -35.904 -15.114   0.478 -0.12 +0.00    +0.038 C  
DOCKED: BRANCH  13  14
DOCKED: ATOM     14  C   UNL     1     -35.457 -13.654   0.528 -0.07 +0.00    +0.251 C  
DOCKED: BRANCH  14  15
DOCKED: ATOM     15  N   UNL     1     -34.992 -13.222  -0.785 -0.10 +0.00    +0.141 N  
DOCKED: ATOM     16  C   UNL     1     -34.456 -14.354  -1.542 -0.02 +0.00    +0.285 C  
DOCKED: ATOM     17  C   UNL     1     -36.077 -12.582  -1.531 -0.09 +0.00    +0.285 C  
DOCKED: ENDBRANCH  14  15
DOCKED: ENDBRANCH  13  14
DOCKED: ENDBRANCH  12  13
DOCKED: ENDBRANCH   2  12
DOCKED: BRANCH   2  18
DOCKED: ATOM     18  C   UNL     1     -38.042 -17.520   0.712 -0.16 +0.00    +0.006 A  
DOCKED: ATOM     19  C   UNL     1     -38.538 -18.342   1.723 -0.17 +0.00    +0.001 A  
DOCKED: ATOM     20  C   UNL     1     -38.365 -19.725   1.644 -0.27 +0.00    +0.029 A  
DOCKED: ATOM     21  C   UNL     1     -37.698 -20.283   0.554 -0.19 +0.00    +0.140 A  
DOCKED: ATOM     22  C   UNL     1     -37.203 -19.460  -0.457 -0.15 +0.00    +0.029 A  
DOCKED: ATOM     23  F   UNL     1     -37.534 -21.610   0.477 -0.08 -0.00    -0.204 F  
DOCKED: ATOM     24  C   UNL     1     -37.375 -18.077  -0.378 -0.17 +0.00    +0.001 A  
DOCKED: ENDBRANCH   2  18
DOCKED: TORSDOF 5
DOCKED: TER
DOCKED: ENDMDL
________________________________________________________________________________


    FINAL DOCKED STATE:
    ________________________


Run:   386 / 512
Time taken for this run:   0.002s

DOCKED: MODEL        386
DOCKED: USER    Run = 386
DOCKED: USER
DOCKED: USER    Estimated Free Energy of Binding    =  -4.24 kcal/mol  [=(1)+(2)+(3)-(4)]
DOCKED: USER
DOCKED: USER    (1) Final Intermolecular Energy     =  -5.73 kcal/mol
DOCKED: USER        vdW + Hbond + desolv Energy     =  -5.73 kcal/mol
DOCKED: USER        Electrostatic Energy            =  +0.00 kcal/mol
DOCKED: USER        Moving Ligand-Fixed Receptor    =  -5.73 kcal/mol
DOCKED: USER        Moving Ligand-Moving Receptor   =  +0.00 kcal/mol
DOCKED: USER    (2) Final Total Internal Energy     =  -1.18 kcal/mol
DOCKED: USER    (3) Torsional Free Energy           =  +1.49 kcal/mol
DOCKED: USER    (4) Unbound System's Energy         =  -1.18 kcal/mol
DOCKED: USER
DOCKED: USER
DOCKED: REMARK  5 active torsions:
DOCKED: REMARK  status: ('A' for Active; 'I' for Inactive)
DOCKED: REMARK    1  A    between atoms: C_2  and  C_19 
DOCKED: REMARK    2  A    between atoms: C_2  and  C_11 
DOCKED: REMARK    3  A    between atoms: C_19  and  C_20 
DOCKED: REMARK    4  A    between atoms: C_20  and  C_21 
DOCKED: REMARK    5  A    between atoms: C_21  and  N_22 
DOCKED: USER                              x       y       z     vdW  Elec       q    Type
DOCKED: USER                           _______ _______ _______ _____ _____    ______ ____
DOCKED: ROOT
DOCKED: ATOM      1  O   UNL     1     -39.064 -20.864   8.235 -0.06 -0.00    -0.346 OA 
DOCKED: ATOM      2  C   UNL     1     -40.231 -20.255   7.594 -0.14 +0.00    +0.130 C  
DOCKED: ATOM      3  C   UNL     1     -40.965 -21.422   7.001 -0.24 +0.00    +0.004 A  
DOCKED: ATOM      4  C   UNL     1     -40.335 -22.604   7.364 -0.23 +0.00    +0.006 A  
DOCKED: ATOM      5  C   UNL     1     -39.165 -22.307   8.220 -0.15 +0.00    +0.169 C  
DOCKED: ATOM      6  C   UNL     1     -42.107 -21.437   6.213 -0.23 -0.00    -0.001 A  
DOCKED: ATOM      7  C   UNL     1     -40.818 -23.834   6.951 -0.32 +0.00    +0.008 A  
DOCKED: ATOM      8  C   UNL     1     -42.603 -22.670   5.785 -0.28 +0.00    +0.010 A  
DOCKED: ATOM      9  C   UNL     1     -41.962 -23.862   6.153 -0.31 +0.00    +0.068 A  
DOCKED: ATOM     10  N   UNL     1     -42.913 -26.133   5.345 -2.62 -0.00    -0.191 NA 
DOCKED: ATOM     11  C   UNL     1     -42.486 -25.114   5.707 -0.33 +0.00    +0.101 C  
DOCKED: ENDROOT
DOCKED: BRANCH   2  12
DOCKED: ATOM     12  C   UNL     1     -41.039 -19.524   8.659 -0.06 +0.00    +0.038 C  
DOCKED: BRANCH  12  13
DOCKED: ATOM     13  C   UNL     1     -40.997 -20.263   9.996 -0.03 +0.00    +0.038 C  
DOCKED: BRANCH  13  14
DOCKED: ATOM     14  C   UNL     1     -42.191 -21.204  10.141 -0.01 +0.00    +0.251 C  
DOCKED: BRANCH  14  15
DOCKED: ATOM     15  N   UNL     1     -43.353 -20.476  10.637 -0.01 +0.00    +0.141 N  
DOCKED: ATOM     16  C   UNL     1     -42.940 -19.252  11.325 +0.00 +0.00    +0.285 C  
DOCKED: ATOM     17  C   UNL     1     -44.269 -20.157   9.540 -0.00 +0.00    +0.285 C  
DOCKED: ENDBRANCH  14  15
DOCKED: ENDBRANCH  13  14
DOCKED: ENDBRANCH  12  13
DOCKED: ENDBRANCH   2  12
DOCKED: BRANCH   2  18
DOCKED: ATOM     18  C   UNL     1     -39.717 -19.306   6.563 -0.16 +0.00    +0.006 A  
DOCKED: ATOM     19  C   UNL     1     -38.646 -19.675   5.750 -0.11 +0.00    +0.001 A  
DOCKED: ATOM     20  C   UNL     1     -38.166 -18.787   4.786 -0.14 +0.00    +0.029 A  
DOCKED: ATOM     21  C   UNL     1     -38.757 -17.533   4.637 -0.08 +0.00    +0.140 A  
DOCKED: ATOM     22  C   UNL     1     -39.829 -17.166   5.451 -0.10 +0.00    +0.029 A  
DOCKED: ATOM     23  F   UNL     1     -38.298 -16.682   3.711 -0.01 -0.00    -0.204 F  
DOCKED: ATOM     24  C   UNL     1     -40.309 -18.053   6.416 -0.12 +0.00    +0.001 A  
DOCKED: ENDBRANCH   2  18
DOCKED: TORSDOF 5
DOCKED: TER
DOCKED: ENDMDL
________________________________________________________________________________


    FINAL DOCKED STATE:
    ________________________


Run:   387 / 512
Time taken for this run:   0.002s

DOCKED: MODEL        387
DOCKED: USER    Run = 387
DOCKED: USER
DOCKED: USER    Estimated Free Energy of Binding    =  -4.08 kcal/mol  [=(1)+(2)+(3)-(4)]
DOCKED: USER
DOCKED: USER    (1) Final Intermolecular Energy     =  -5.57 kcal/mol
DOCKED: USER        vdW + Hbond + desolv Energy     =  -5.57 kcal/mol
DOCKED: USER        Electrostatic Energy            =  +0.00 kcal/mol
DOCKED: USER        Moving Ligand-Fixed Receptor    =  -5.57 kcal/mol
DOCKED: USER        Moving Ligand-Moving Receptor   =  +0.00 kcal/mol
DOCKED: USER    (2) Final Total Internal Energy     =  -1.39 kcal/mol
DOCKED: USER    (3) Torsional Free Energy           =  +1.49 kcal/mol
DOCKED: USER    (4) Unbound System's Energy         =  -1.39 kcal/mol
DOCKED: USER
DOCKED: USER
DOCKED: REMARK  5 active torsions:
DOCKED: REMARK  status: ('A' for Active; 'I' for Inactive)
DOCKED: REMARK    1  A    between atoms: C_2  and  C_19 
DOCKED: REMARK    2  A    between atoms: C_2  and  C_11 
DOCKED: REMARK    3  A    between atoms: C_19  and  C_20 
DOCKED: REMARK    4  A    between atoms: C_20  and  C_21 
DOCKED: REMARK    5  A    between atoms: C_21  and  N_22 
DOCKED: USER                              x       y       z     vdW  Elec       q    Type
DOCKED: USER                           _______ _______ _______ _____ _____    ______ ____
DOCKED: ROOT
DOCKED: ATOM      1  O   UNL     1     -38.529 -22.071   9.121 -0.06 -0.00    -0.346 OA 
DOCKED: ATOM      2  C   UNL     1     -39.346 -21.116   8.370 -0.11 +0.00    +0.130 C  
DOCKED: ATOM      3  C   UNL     1     -40.295 -21.984   7.597 -0.21 +0.00    +0.004 A  
DOCKED: ATOM      4  C   UNL     1     -40.112 -23.312   7.956 -0.25 +0.00    +0.006 A  
DOCKED: ATOM      5  C   UNL     1     -39.054 -23.412   8.987 -0.09 +0.00    +0.169 C  
DOCKED: ATOM      6  C   UNL     1     -41.252 -21.627   6.658 -0.27 -0.00    -0.001 A  
DOCKED: ATOM      7  C   UNL     1     -40.871 -24.323   7.391 -0.34 +0.00    +0.008 A  
DOCKED: ATOM      8  C   UNL     1     -42.022 -22.635   6.076 -0.33 +0.00    +0.010 A  
DOCKED: ATOM      9  C   UNL     1     -41.832 -23.976   6.441 -0.30 +0.00    +0.068 A  
DOCKED: ATOM     10  N   UNL     1     -43.282 -25.823   5.345 -2.56 -0.00    -0.191 NA 
DOCKED: ATOM     11  C   UNL     1     -42.632 -24.995   5.836 -0.35 +0.00    +0.101 C  
DOCKED: ENDROOT
DOCKED: BRANCH   2  12
DOCKED: ATOM     12  C   UNL     1     -40.053 -20.201   9.363 -0.04 +0.00    +0.038 C  
DOCKED: BRANCH  12  13
DOCKED: ATOM     13  C   UNL     1     -39.082 -19.657  10.409 -0.01 +0.00    +0.038 C  
DOCKED: BRANCH  13  14
DOCKED: ATOM     14  C   UNL     1     -39.405 -20.206  11.797 -0.00 +0.00    +0.251 C  
DOCKED: BRANCH  14  15
DOCKED: ATOM     15  N   UNL     1     -39.249 -21.656  11.818 -0.01 +0.00    +0.141 N  
DOCKED: ATOM     16  C   UNL     1     -37.855 -22.020  12.078 -0.01 +0.00    +0.285 C  
DOCKED: ATOM     17  C   UNL     1     -40.126 -22.254  12.826 -0.01 +0.00    +0.285 C  
DOCKED: ENDBRANCH  14  15
DOCKED: ENDBRANCH  13  14
DOCKED: ENDBRANCH  12  13
DOCKED: ENDBRANCH   2  12
DOCKED: BRANCH   2  18
DOCKED: ATOM     18  C   UNL     1     -38.418 -20.343   7.493 -0.12 +0.00    +0.006 A  
DOCKED: ATOM     19  C   UNL     1     -38.895 -19.257   6.761 -0.13 +0.00    +0.001 A  
DOCKED: ATOM     20  C   UNL     1     -38.026 -18.535   5.940 -0.10 +0.00    +0.029 A  
DOCKED: ATOM     21  C   UNL     1     -36.684 -18.901   5.854 -0.07 +0.00    +0.140 A  
DOCKED: ATOM     22  C   UNL     1     -36.207 -19.987   6.588 -0.10 +0.00    +0.029 A  
DOCKED: ATOM     23  F   UNL     1     -35.850 -18.207   5.069 -0.00 -0.00    -0.204 F  
DOCKED: ATOM     24  C   UNL     1     -37.076 -20.710   7.408 -0.08 +0.00    +0.001 A  
DOCKED: ENDBRANCH   2  18
DOCKED: TORSDOF 5
DOCKED: TER
DOCKED: ENDMDL
________________________________________________________________________________


    FINAL DOCKED STATE:
    ________________________


Run:   388 / 512
Time taken for this run:   0.002s

DOCKED: MODEL        388
DOCKED: USER    Run = 388
DOCKED: USER
DOCKED: USER    Estimated Free Energy of Binding    =  -5.45 kcal/mol  [=(1)+(2)+(3)-(4)]
DOCKED: USER
DOCKED: USER    (1) Final Intermolecular Energy     =  -6.94 kcal/mol
DOCKED: USER        vdW + Hbond + desolv Energy     =  -6.94 kcal/mol
DOCKED: USER        Electrostatic Energy            =  +0.00 kcal/mol
DOCKED: USER        Moving Ligand-Fixed Receptor    =  -6.94 kcal/mol
DOCKED: USER        Moving Ligand-Moving Receptor   =  +0.00 kcal/mol
DOCKED: USER    (2) Final Total Internal Energy     =  -1.15 kcal/mol
DOCKED: USER    (3) Torsional Free Energy           =  +1.49 kcal/mol
DOCKED: USER    (4) Unbound System's Energy         =  -1.15 kcal/mol
DOCKED: USER
DOCKED: USER
DOCKED: REMARK  5 active torsions:
DOCKED: REMARK  status: ('A' for Active; 'I' for Inactive)
DOCKED: REMARK    1  A    between atoms: C_2  and  C_19 
DOCKED: REMARK    2  A    between atoms: C_2  and  C_11 
DOCKED: REMARK    3  A    between atoms: C_19  and  C_20 
DOCKED: REMARK    4  A    between atoms: C_20  and  C_21 
DOCKED: REMARK    5  A    between atoms: C_21  and  N_22 
DOCKED: USER                              x       y       z     vdW  Elec       q    Type
DOCKED: USER                           _______ _______ _______ _____ _____    ______ ____
DOCKED: ROOT
DOCKED: ATOM      1  O   UNL     1     -41.011 -23.575   8.062 -0.07 -0.00    -0.346 OA 
DOCKED: ATOM      2  C   UNL     1     -42.469 -23.682   8.131 -0.15 +0.00    +0.130 C  
DOCKED: ATOM      3  C   UNL     1     -42.884 -23.873   6.701 -0.26 +0.00    +0.004 A  
DOCKED: ATOM      4  C   UNL     1     -41.757 -23.977   5.898 -0.38 +0.00    +0.006 A  
DOCKED: ATOM      5  C   UNL     1     -40.537 -23.877   6.729 -0.22 +0.00    +0.169 C  
DOCKED: ATOM      6  C   UNL     1     -44.157 -23.959   6.155 -0.29 -0.00    -0.001 A  
DOCKED: ATOM      7  C   UNL     1     -41.861 -24.164   4.530 -0.28 +0.00    +0.008 A  
DOCKED: ATOM      8  C   UNL     1     -44.279 -24.143   4.777 -0.31 +0.00    +0.010 A  
DOCKED: ATOM      9  C   UNL     1     -43.137 -24.246   3.969 -0.40 +0.00    +0.068 A  
DOCKED: ATOM     10  N   UNL     1     -43.399 -24.594   1.415 -3.07 -0.00    -0.191 NA 
DOCKED: ATOM     11  C   UNL     1     -43.281 -24.437   2.560 -0.27 +0.00    +0.101 C  
DOCKED: ENDROOT
DOCKED: BRANCH   2  12
DOCKED: ATOM     12  C   UNL     1     -42.824 -24.872   9.015 -0.25 +0.00    +0.038 C  
DOCKED: BRANCH  12  13
DOCKED: ATOM     13  C   UNL     1     -41.577 -25.493   9.640 -0.25 +0.00    +0.038 C  
DOCKED: BRANCH  13  14
DOCKED: ATOM     14  C   UNL     1     -41.022 -24.608  10.755 -0.14 +0.00    +0.251 C  
DOCKED: BRANCH  14  15
DOCKED: ATOM     15  N   UNL     1     -41.319 -25.188  12.059 -0.15 +0.00    +0.141 N  
DOCKED: ATOM     16  C   UNL     1     -41.159 -24.189  13.117 -0.03 +0.00    +0.285 C  
DOCKED: ATOM     17  C   UNL     1     -42.675 -25.739  12.082 -0.04 +0.00    +0.285 C  
DOCKED: ENDBRANCH  14  15
DOCKED: ENDBRANCH  13  14
DOCKED: ENDBRANCH  12  13
DOCKED: ENDBRANCH   2  12
DOCKED: BRANCH   2  18
DOCKED: ATOM     18  C   UNL     1     -42.973 -22.406   8.718 -0.09 +0.00    +0.006 A  
DOCKED: ATOM     19  C   UNL     1     -43.312 -22.347  10.069 -0.05 +0.00    +0.001 A  
DOCKED: ATOM     20  C   UNL     1     -43.784 -21.153  10.616 -0.02 +0.00    +0.029 A  
DOCKED: ATOM     21  C   UNL     1     -43.915 -20.021   9.812 -0.01 +0.00    +0.140 A  
DOCKED: ATOM     22  C   UNL     1     -43.575 -20.081   8.461 -0.08 +0.00    +0.029 A  
DOCKED: ATOM     23  F   UNL     1     -44.366 -18.875  10.338 +0.00 -0.00    -0.204 F  
DOCKED: ATOM     24  C   UNL     1     -43.104 -21.275   7.912 -0.14 +0.00    +0.001 A  
DOCKED: ENDBRANCH   2  18
DOCKED: TORSDOF 5
DOCKED: TER
DOCKED: ENDMDL
________________________________________________________________________________


    FINAL DOCKED STATE:
    ________________________


Run:   389 / 512
Time taken for this run:   0.002s

DOCKED: MODEL        389
DOCKED: USER    Run = 389
DOCKED: USER
DOCKED: USER    Estimated Free Energy of Binding    =  -5.82 kcal/mol  [=(1)+(2)+(3)-(4)]
DOCKED: USER
DOCKED: USER    (1) Final Intermolecular Energy     =  -7.31 kcal/mol
DOCKED: USER        vdW + Hbond + desolv Energy     =  -7.31 kcal/mol
DOCKED: USER        Electrostatic Energy            =  +0.00 kcal/mol
DOCKED: USER        Moving Ligand-Fixed Receptor    =  -7.31 kcal/mol
DOCKED: USER        Moving Ligand-Moving Receptor   =  +0.00 kcal/mol
DOCKED: USER    (2) Final Total Internal Energy     =  -1.16 kcal/mol
DOCKED: USER    (3) Torsional Free Energy           =  +1.49 kcal/mol
DOCKED: USER    (4) Unbound System's Energy         =  -1.16 kcal/mol
DOCKED: USER
DOCKED: USER
DOCKED: REMARK  5 active torsions:
DOCKED: REMARK  status: ('A' for Active; 'I' for Inactive)
DOCKED: REMARK    1  A    between atoms: C_2  and  C_19 
DOCKED: REMARK    2  A    between atoms: C_2  and  C_11 
DOCKED: REMARK    3  A    between atoms: C_19  and  C_20 
DOCKED: REMARK    4  A    between atoms: C_20  and  C_21 
DOCKED: REMARK    5  A    between atoms: C_21  and  N_22 
DOCKED: USER                              x       y       z     vdW  Elec       q    Type
DOCKED: USER                           _______ _______ _______ _____ _____    ______ ____
DOCKED: ROOT
DOCKED: ATOM      1  O   UNL     1     -41.305 -21.934   7.850 -0.05 -0.00    -0.346 OA 
DOCKED: ATOM      2  C   UNL     1     -40.891 -23.338   7.859 -0.22 +0.00    +0.130 C  
DOCKED: ATOM      3  C   UNL     1     -41.371 -23.863   6.537 -0.35 +0.00    +0.004 A  
DOCKED: ATOM      4  C   UNL     1     -41.913 -22.825   5.792 -0.35 +0.00    +0.006 A  
DOCKED: ATOM      5  C   UNL     1     -41.819 -21.558   6.551 -0.23 +0.00    +0.169 C  
DOCKED: ATOM      6  C   UNL     1     -41.322 -25.153   6.030 -0.37 -0.00    -0.001 A  
DOCKED: ATOM      7  C   UNL     1     -42.425 -23.040   4.523 -0.07 +0.00    +0.008 A  
DOCKED: ATOM      8  C   UNL     1     -41.838 -25.387   4.754 -0.44 +0.00    +0.010 A  
DOCKED: ATOM      9  C   UNL     1     -42.387 -24.335   4.005 -0.43 +0.00    +0.068 A  
DOCKED: ATOM     10  N   UNL     1     -43.332 -24.802   1.638 -2.78 -0.00    -0.191 NA 
DOCKED: ATOM     11  C   UNL     1     -42.909 -24.593   2.700 -0.41 +0.00    +0.101 C  
DOCKED: ENDROOT
DOCKED: BRANCH   2  12
DOCKED: ATOM     12  C   UNL     1     -39.375 -23.393   8.004 -0.25 +0.00    +0.038 C  
DOCKED: BRANCH  12  13
DOCKED: ATOM     13  C   UNL     1     -38.885 -22.438   9.091 -0.16 +0.00    +0.038 C  
DOCKED: BRANCH  13  14
DOCKED: ATOM     14  C   UNL     1     -37.809 -21.498   8.552 -0.09 +0.00    +0.251 C  
DOCKED: BRANCH  14  15
DOCKED: ATOM     15  N   UNL     1     -38.381 -20.190   8.253 -0.07 +0.00    +0.141 N  
DOCKED: ATOM     16  C   UNL     1     -37.379 -19.137   8.424 -0.02 +0.00    +0.285 C  
DOCKED: ATOM     17  C   UNL     1     -38.919 -20.161   6.892 -0.10 +0.00    +0.285 C  
DOCKED: ENDBRANCH  14  15
DOCKED: ENDBRANCH  13  14
DOCKED: ENDBRANCH  12  13
DOCKED: ENDBRANCH   2  12
DOCKED: BRANCH   2  18
DOCKED: ATOM     18  C   UNL     1     -41.567 -23.985   9.022 -0.18 +0.00    +0.006 A  
DOCKED: ATOM     19  C   UNL     1     -42.938 -23.815   9.213 -0.13 +0.00    +0.001 A  
DOCKED: ATOM     20  C   UNL     1     -43.568 -24.420  10.301 -0.13 +0.00    +0.029 A  
DOCKED: ATOM     21  C   UNL     1     -42.829 -25.194  11.194 -0.06 +0.00    +0.140 A  
DOCKED: ATOM     22  C   UNL     1     -41.458 -25.363  11.002 -0.22 +0.00    +0.029 A  
DOCKED: ATOM     23  F   UNL     1     -43.435 -25.776  12.237 -0.04 -0.00    -0.204 F  
DOCKED: ATOM     24  C   UNL     1     -40.826 -24.758   9.914 -0.15 +0.00    +0.001 A  
DOCKED: ENDBRANCH   2  18
DOCKED: TORSDOF 5
DOCKED: TER
DOCKED: ENDMDL
________________________________________________________________________________


    FINAL DOCKED STATE:
    ________________________


Run:   390 / 512
Time taken for this run:   0.002s

DOCKED: MODEL        390
DOCKED: USER    Run = 390
DOCKED: USER
DOCKED: USER    Estimated Free Energy of Binding    =  -3.98 kcal/mol  [=(1)+(2)+(3)-(4)]
DOCKED: USER
DOCKED: USER    (1) Final Intermolecular Energy     =  -5.47 kcal/mol
DOCKED: USER        vdW + Hbond + desolv Energy     =  -5.47 kcal/mol
DOCKED: USER        Electrostatic Energy            =  +0.00 kcal/mol
DOCKED: USER        Moving Ligand-Fixed Receptor    =  -5.47 kcal/mol
DOCKED: USER        Moving Ligand-Moving Receptor   =  +0.00 kcal/mol
DOCKED: USER    (2) Final Total Internal Energy     =  -1.25 kcal/mol
DOCKED: USER    (3) Torsional Free Energy           =  +1.49 kcal/mol
DOCKED: USER    (4) Unbound System's Energy         =  -1.25 kcal/mol
DOCKED: USER
DOCKED: USER
DOCKED: REMARK  5 active torsions:
DOCKED: REMARK  status: ('A' for Active; 'I' for Inactive)
DOCKED: REMARK    1  A    between atoms: C_2  and  C_19 
DOCKED: REMARK    2  A    between atoms: C_2  and  C_11 
DOCKED: REMARK    3  A    between atoms: C_19  and  C_20 
DOCKED: REMARK    4  A    between atoms: C_20  and  C_21 
DOCKED: REMARK    5  A    between atoms: C_21  and  N_22 
DOCKED: USER                              x       y       z     vdW  Elec       q    Type
DOCKED: USER                           _______ _______ _______ _____ _____    ______ ____
DOCKED: ROOT
DOCKED: ATOM      1  O   UNL     1     -40.568 -21.269   9.615 -0.01 -0.00    -0.346 OA 
DOCKED: ATOM      2  C   UNL     1     -40.873 -20.570   8.366 -0.08 +0.00    +0.130 C  
DOCKED: ATOM      3  C   UNL     1     -41.344 -21.663   7.449 -0.20 +0.00    +0.004 A  
DOCKED: ATOM      4  C   UNL     1     -41.408 -22.861   8.146 -0.17 +0.00    +0.006 A  
DOCKED: ATOM      5  C   UNL     1     -41.003 -22.647   9.553 -0.07 +0.00    +0.169 C  
DOCKED: ATOM      6  C   UNL     1     -41.698 -21.598   6.110 -0.27 -0.00    -0.001 A  
DOCKED: ATOM      7  C   UNL     1     -41.821 -24.031   7.531 -0.26 +0.00    +0.008 A  
DOCKED: ATOM      8  C   UNL     1     -42.112 -22.770   5.474 -0.33 +0.00    +0.010 A  
DOCKED: ATOM      9  C   UNL     1     -42.174 -23.980   6.181 -0.31 +0.00    +0.068 A  
DOCKED: ATOM     10  N   UNL     1     -42.953 -26.135   4.973 -2.38 -0.00    -0.191 NA 
DOCKED: ATOM     11  C   UNL     1     -42.603 -25.168   5.515 -0.36 +0.00    +0.101 C  
DOCKED: ENDROOT
DOCKED: BRANCH   2  12
DOCKED: ATOM     12  C   UNL     1     -41.948 -19.527   8.646 -0.06 +0.00    +0.038 C  
DOCKED: BRANCH  12  13
DOCKED: ATOM     13  C   UNL     1     -42.976 -19.469   7.518 -0.18 +0.00    +0.038 C  
DOCKED: BRANCH  13  14
DOCKED: ATOM     14  C   UNL     1     -44.346 -19.944   7.998 -0.09 +0.00    +0.251 C  
DOCKED: BRANCH  14  15
DOCKED: ATOM     15  N   UNL     1     -44.473 -21.386   7.821 -0.11 +0.00    +0.141 N  
DOCKED: ATOM     16  C   UNL     1     -44.887 -22.025   9.071 -0.01 +0.00    +0.285 C  
DOCKED: ATOM     17  C   UNL     1     -45.426 -21.693   6.754 -0.10 +0.00    +0.285 C  
DOCKED: ENDBRANCH  14  15
DOCKED: ENDBRANCH  13  14
DOCKED: ENDBRANCH  12  13
DOCKED: ENDBRANCH   2  12
DOCKED: BRANCH   2  18
DOCKED: ATOM     18  C   UNL     1     -39.607 -19.929   7.904 -0.11 +0.00    +0.006 A  
DOCKED: ATOM     19  C   UNL     1     -39.602 -18.585   7.532 -0.07 +0.00    +0.001 A  
DOCKED: ATOM     20  C   UNL     1     -38.418 -17.987   7.100 -0.05 +0.00    +0.029 A  
DOCKED: ATOM     21  C   UNL     1     -37.241 -18.732   7.041 -0.05 +0.00    +0.140 A  
DOCKED: ATOM     22  C   UNL     1     -37.247 -20.076   7.413 -0.10 +0.00    +0.029 A  
DOCKED: ATOM     23  F   UNL     1     -36.104 -18.157   6.628 -0.00 -0.00    -0.204 F  
DOCKED: ATOM     24  C   UNL     1     -38.431 -20.676   7.845 -0.12 +0.00    +0.001 A  
DOCKED: ENDBRANCH   2  18
DOCKED: TORSDOF 5
DOCKED: TER
DOCKED: ENDMDL
________________________________________________________________________________


    FINAL DOCKED STATE:
    ________________________


Run:   391 / 512
Time taken for this run:   0.002s

DOCKED: MODEL        391
DOCKED: USER    Run = 391
DOCKED: USER
DOCKED: USER    Estimated Free Energy of Binding    =  -3.54 kcal/mol  [=(1)+(2)+(3)-(4)]
DOCKED: USER
DOCKED: USER    (1) Final Intermolecular Energy     =  -5.03 kcal/mol
DOCKED: USER        vdW + Hbond + desolv Energy     =  -5.03 kcal/mol
DOCKED: USER        Electrostatic Energy            =  +0.00 kcal/mol
DOCKED: USER        Moving Ligand-Fixed Receptor    =  -5.03 kcal/mol
DOCKED: USER        Moving Ligand-Moving Receptor   =  +0.00 kcal/mol
DOCKED: USER    (2) Final Total Internal Energy     =  -1.52 kcal/mol
DOCKED: USER    (3) Torsional Free Energy           =  +1.49 kcal/mol
DOCKED: USER    (4) Unbound System's Energy         =  -1.52 kcal/mol
DOCKED: USER
DOCKED: USER
DOCKED: REMARK  5 active torsions:
DOCKED: REMARK  status: ('A' for Active; 'I' for Inactive)
DOCKED: REMARK    1  A    between atoms: C_2  and  C_19 
DOCKED: REMARK    2  A    between atoms: C_2  and  C_11 
DOCKED: REMARK    3  A    between atoms: C_19  and  C_20 
DOCKED: REMARK    4  A    between atoms: C_20  and  C_21 
DOCKED: REMARK    5  A    between atoms: C_21  and  N_22 
DOCKED: USER                              x       y       z     vdW  Elec       q    Type
DOCKED: USER                           _______ _______ _______ _____ _____    ______ ____
DOCKED: ROOT
DOCKED: ATOM      1  O   UNL     1     -34.739 -15.892  -2.500 +0.01 -0.00    -0.346 OA 
DOCKED: ATOM      2  C   UNL     1     -35.779 -15.807  -1.474 -0.06 +0.00    +0.130 C  
DOCKED: ATOM      3  C   UNL     1     -36.888 -15.053  -2.148 -0.16 +0.00    +0.004 A  
DOCKED: ATOM      4  C   UNL     1     -36.557 -14.823  -3.476 -0.14 +0.00    +0.006 A  
DOCKED: ATOM      5  C   UNL     1     -35.232 -15.412  -3.772 -0.04 +0.00    +0.169 C  
DOCKED: ATOM      6  C   UNL     1     -38.099 -14.615  -1.631 -0.26 -0.00    -0.001 A  
DOCKED: ATOM      7  C   UNL     1     -37.416 -14.149  -4.327 -0.22 +0.00    +0.008 A  
DOCKED: ATOM      8  C   UNL     1     -38.974 -13.929  -2.475 -0.34 +0.00    +0.010 A  
DOCKED: ATOM      9  C   UNL     1     -38.634 -13.698  -3.816 -0.25 +0.00    +0.068 A  
DOCKED: ATOM     10  N   UNL     1     -40.284 -12.427  -5.357 -2.50 -0.00    -0.191 NA 
DOCKED: ATOM     11  C   UNL     1     -39.544 -12.996  -4.666 -0.39 +0.00    +0.101 C  
DOCKED: ENDROOT
DOCKED: BRANCH   2  12
DOCKED: ATOM     12  C   UNL     1     -36.180 -17.222  -1.075 -0.09 +0.00    +0.038 C  
DOCKED: BRANCH  12  13
DOCKED: ATOM     13  C   UNL     1     -35.668 -18.250  -2.082 -0.10 +0.00    +0.038 C  
DOCKED: BRANCH  13  14
DOCKED: ATOM     14  C   UNL     1     -34.308 -18.803  -1.659 -0.02 +0.00    +0.251 C  
DOCKED: BRANCH  14  15
DOCKED: ATOM     15  N   UNL     1     -33.787 -18.053  -0.523 -0.00 +0.00    +0.141 N  
DOCKED: ATOM     16  C   UNL     1     -33.625 -18.926   0.641 -0.00 +0.00    +0.285 C  
DOCKED: ATOM     17  C   UNL     1     -32.512 -17.419  -0.863 +0.00 +0.00    +0.285 C  
DOCKED: ENDBRANCH  14  15
DOCKED: ENDBRANCH  13  14
DOCKED: ENDBRANCH  12  13
DOCKED: ENDBRANCH   2  12
DOCKED: BRANCH   2  18
DOCKED: ATOM     18  C   UNL     1     -35.192 -15.068  -0.318 -0.07 +0.00    +0.006 A  
DOCKED: ATOM     19  C   UNL     1     -34.070 -14.261  -0.503 -0.05 +0.00    +0.001 A  
DOCKED: ATOM     20  C   UNL     1     -33.523 -13.571   0.579 -0.06 +0.00    +0.029 A  
DOCKED: ATOM     21  C   UNL     1     -34.098 -13.688   1.844 -0.07 +0.00    +0.140 A  
DOCKED: ATOM     22  C   UNL     1     -35.220 -14.495   2.028 -0.10 +0.00    +0.029 A  
DOCKED: ATOM     23  F   UNL     1     -33.573 -13.024   2.882 -0.03 -0.00    -0.204 F  
DOCKED: ATOM     24  C   UNL     1     -35.768 -15.186   0.947 -0.10 +0.00    +0.001 A  
DOCKED: ENDBRANCH   2  18
DOCKED: TORSDOF 5
DOCKED: TER
DOCKED: ENDMDL
________________________________________________________________________________


    FINAL DOCKED STATE:
    ________________________


Run:   392 / 512
Time taken for this run:   0.002s

DOCKED: MODEL        392
DOCKED: USER    Run = 392
DOCKED: USER
DOCKED: USER    Estimated Free Energy of Binding    =  -4.73 kcal/mol  [=(1)+(2)+(3)-(4)]
DOCKED: USER
DOCKED: USER    (1) Final Intermolecular Energy     =  -6.23 kcal/mol
DOCKED: USER        vdW + Hbond + desolv Energy     =  -6.23 kcal/mol
DOCKED: USER        Electrostatic Energy            =  +0.00 kcal/mol
DOCKED: USER        Moving Ligand-Fixed Receptor    =  -6.23 kcal/mol
DOCKED: USER        Moving Ligand-Moving Receptor   =  +0.00 kcal/mol
DOCKED: USER    (2) Final Total Internal Energy     =  -1.11 kcal/mol
DOCKED: USER    (3) Torsional Free Energy           =  +1.49 kcal/mol
DOCKED: USER    (4) Unbound System's Energy         =  -1.11 kcal/mol
DOCKED: USER
DOCKED: USER
DOCKED: REMARK  5 active torsions:
DOCKED: REMARK  status: ('A' for Active; 'I' for Inactive)
DOCKED: REMARK    1  A    between atoms: C_2  and  C_19 
DOCKED: REMARK    2  A    between atoms: C_2  and  C_11 
DOCKED: REMARK    3  A    between atoms: C_19  and  C_20 
DOCKED: REMARK    4  A    between atoms: C_20  and  C_21 
DOCKED: REMARK    5  A    between atoms: C_21  and  N_22 
DOCKED: USER                              x       y       z     vdW  Elec       q    Type
DOCKED: USER                           _______ _______ _______ _____ _____    ______ ____
DOCKED: ROOT
DOCKED: ATOM      1  O   UNL     1     -38.606 -21.632   8.659 -0.06 -0.00    -0.346 OA 
DOCKED: ATOM      2  C   UNL     1     -39.563 -20.825   7.901 -0.13 +0.00    +0.130 C  
DOCKED: ATOM      3  C   UNL     1     -40.427 -21.844   7.214 -0.22 +0.00    +0.004 A  
DOCKED: ATOM      4  C   UNL     1     -40.066 -23.118   7.629 -0.25 +0.00    +0.006 A  
DOCKED: ATOM      5  C   UNL     1     -38.965 -23.033   8.614 -0.17 +0.00    +0.169 C  
DOCKED: ATOM      6  C   UNL     1     -41.457 -21.656   6.304 -0.28 -0.00    -0.001 A  
DOCKED: ATOM      7  C   UNL     1     -40.715 -24.242   7.148 -0.35 +0.00    +0.008 A  
DOCKED: ATOM      8  C   UNL     1     -42.118 -22.781   5.806 -0.34 +0.00    +0.010 A  
DOCKED: ATOM      9  C   UNL     1     -41.749 -24.067   6.227 -0.32 +0.00    +0.068 A  
DOCKED: ATOM     10  N   UNL     1     -43.000 -26.133   5.289 -2.57 -0.00    -0.191 NA 
DOCKED: ATOM     11  C   UNL     1     -42.438 -25.206   5.709 -0.28 +0.00    +0.101 C  
DOCKED: ENDROOT
DOCKED: BRANCH   2  12
DOCKED: ATOM     12  C   UNL     1     -40.339 -19.952   8.880 -0.06 +0.00    +0.038 C  
DOCKED: BRANCH  12  13
DOCKED: ATOM     13  C   UNL     1     -41.220 -18.942   8.147 -0.08 +0.00    +0.038 C  
DOCKED: BRANCH  13  14
DOCKED: ATOM     14  C   UNL     1     -42.692 -19.347   8.212 -0.06 +0.00    +0.251 C  
DOCKED: BRANCH  14  15
DOCKED: ATOM     15  N   UNL     1     -43.326 -19.162   6.912 -0.19 +0.00    +0.141 N  
DOCKED: ATOM     16  C   UNL     1     -44.708 -18.705   7.073 -0.14 +0.00    +0.285 C  
DOCKED: ATOM     17  C   UNL     1     -42.568 -18.210   6.099 -0.11 +0.00    +0.285 C  
DOCKED: ENDBRANCH  14  15
DOCKED: ENDBRANCH  13  14
DOCKED: ENDBRANCH  12  13
DOCKED: ENDBRANCH   2  12
DOCKED: BRANCH   2  18
DOCKED: ATOM     18  C   UNL     1     -38.774 -19.993   6.946 -0.14 +0.00    +0.006 A  
DOCKED: ATOM     19  C   UNL     1     -37.469 -19.617   7.264 -0.10 +0.00    +0.001 A  
DOCKED: ATOM     20  C   UNL     1     -36.732 -18.839   6.371 -0.07 +0.00    +0.029 A  
DOCKED: ATOM     21  C   UNL     1     -37.300 -18.439   5.162 -0.07 +0.00    +0.140 A  
DOCKED: ATOM     22  C   UNL     1     -38.604 -18.816   4.845 -0.12 +0.00    +0.029 A  
DOCKED: ATOM     23  F   UNL     1     -36.591 -17.694   4.304 -0.00 -0.00    -0.204 F  
DOCKED: ATOM     24  C   UNL     1     -39.343 -19.594   5.738 -0.12 +0.00    +0.001 A  
DOCKED: ENDBRANCH   2  18
DOCKED: TORSDOF 5
DOCKED: TER
DOCKED: ENDMDL
________________________________________________________________________________


    FINAL DOCKED STATE:
    ________________________


Run:   393 / 512
Time taken for this run:   0.002s

DOCKED: MODEL        393
DOCKED: USER    Run = 393
DOCKED: USER
DOCKED: USER    Estimated Free Energy of Binding    =  -4.92 kcal/mol  [=(1)+(2)+(3)-(4)]
DOCKED: USER
DOCKED: USER    (1) Final Intermolecular Energy     =  -6.41 kcal/mol
DOCKED: USER        vdW + Hbond + desolv Energy     =  -6.41 kcal/mol
DOCKED: USER        Electrostatic Energy            =  +0.00 kcal/mol
DOCKED: USER        Moving Ligand-Fixed Receptor    =  -6.41 kcal/mol
DOCKED: USER        Moving Ligand-Moving Receptor   =  +0.00 kcal/mol
DOCKED: USER    (2) Final Total Internal Energy     =  -1.20 kcal/mol
DOCKED: USER    (3) Torsional Free Energy           =  +1.49 kcal/mol
DOCKED: USER    (4) Unbound System's Energy         =  -1.20 kcal/mol
DOCKED: USER
DOCKED: USER
DOCKED: REMARK  5 active torsions:
DOCKED: REMARK  status: ('A' for Active; 'I' for Inactive)
DOCKED: REMARK    1  A    between atoms: C_2  and  C_19 
DOCKED: REMARK    2  A    between atoms: C_2  and  C_11 
DOCKED: REMARK    3  A    between atoms: C_19  and  C_20 
DOCKED: REMARK    4  A    between atoms: C_20  and  C_21 
DOCKED: REMARK    5  A    between atoms: C_21  and  N_22 
DOCKED: USER                              x       y       z     vdW  Elec       q    Type
DOCKED: USER                           _______ _______ _______ _____ _____    ______ ____
DOCKED: ROOT
DOCKED: ATOM      1  O   UNL     1     -36.814 -15.151   0.270 -0.06 -0.00    -0.346 OA 
DOCKED: ATOM      2  C   UNL     1     -38.232 -15.476   0.429 -0.20 +0.00    +0.130 C  
DOCKED: ATOM      3  C   UNL     1     -38.882 -14.847  -0.769 -0.25 +0.00    +0.004 A  
DOCKED: ATOM      4  C   UNL     1     -37.909 -14.305  -1.597 -0.20 +0.00    +0.006 A  
DOCKED: ATOM      5  C   UNL     1     -36.567 -14.546  -1.020 -0.13 +0.00    +0.169 C  
DOCKED: ATOM      6  C   UNL     1     -40.226 -14.770  -1.105 +0.09 -0.00    -0.001 A  
DOCKED: ATOM      7  C   UNL     1     -38.243 -13.668  -2.780 -0.31 +0.00    +0.008 A  
DOCKED: ATOM      8  C   UNL     1     -40.579 -14.127  -2.293 -0.31 +0.00    +0.010 A  
DOCKED: ATOM      9  C   UNL     1     -39.592 -13.580  -3.126 -0.33 +0.00    +0.068 A  
DOCKED: ATOM     10  N   UNL     1     -40.282 -12.397  -5.326 -2.48 -0.00    -0.191 NA 
DOCKED: ATOM     11  C   UNL     1     -39.972 -12.927  -4.339 -0.30 +0.00    +0.101 C  
DOCKED: ENDROOT
DOCKED: BRANCH   2  12
DOCKED: ATOM     12  C   UNL     1     -38.379 -16.993   0.456 -0.20 +0.00    +0.038 C  
DOCKED: BRANCH  12  13
DOCKED: ATOM     13  C   UNL     1     -37.187 -17.680  -0.208 -0.15 +0.00    +0.038 C  
DOCKED: BRANCH  13  14
DOCKED: ATOM     14  C   UNL     1     -37.431 -17.878  -1.703 -0.17 +0.00    +0.251 C  
DOCKED: BRANCH  14  15
DOCKED: ATOM     15  N   UNL     1     -36.348 -17.283  -2.477 -0.11 +0.00    +0.141 N  
DOCKED: ATOM     16  C   UNL     1     -35.060 -17.505  -1.818 -0.02 +0.00    +0.285 C  
DOCKED: ATOM     17  C   UNL     1     -36.324 -17.828  -3.835 -0.12 +0.00    +0.285 C  
DOCKED: ENDBRANCH  14  15
DOCKED: ENDBRANCH  13  14
DOCKED: ENDBRANCH  12  13
DOCKED: ENDBRANCH   2  12
DOCKED: BRANCH   2  18
DOCKED: ATOM     18  C   UNL     1     -38.677 -14.869   1.718 -0.20 +0.00    +0.006 A  
DOCKED: ATOM     19  C   UNL     1     -39.988 -14.414   1.857 -0.25 +0.00    +0.001 A  
DOCKED: ATOM     20  C   UNL     1     -40.402 -13.846   3.063 -0.24 +0.00    +0.029 A  
DOCKED: ATOM     21  C   UNL     1     -39.507 -13.735   4.126 -0.15 +0.00    +0.140 A  
DOCKED: ATOM     22  C   UNL     1     -38.197 -14.192   3.986 -0.14 +0.00    +0.029 A  
DOCKED: ATOM     23  F   UNL     1     -39.906 -13.192   5.283 -0.02 -0.00    -0.204 F  
DOCKED: ATOM     24  C   UNL     1     -37.781 -14.759   2.780 -0.16 +0.00    +0.001 A  
DOCKED: ENDBRANCH   2  18
DOCKED: TORSDOF 5
DOCKED: TER
DOCKED: ENDMDL
________________________________________________________________________________


    FINAL DOCKED STATE:
    ________________________


Run:   394 / 512
Time taken for this run:   0.002s

DOCKED: MODEL        394
DOCKED: USER    Run = 394
DOCKED: USER
DOCKED: USER    Estimated Free Energy of Binding    =  -5.20 kcal/mol  [=(1)+(2)+(3)-(4)]
DOCKED: USER
DOCKED: USER    (1) Final Intermolecular Energy     =  -6.69 kcal/mol
DOCKED: USER        vdW + Hbond + desolv Energy     =  -6.69 kcal/mol
DOCKED: USER        Electrostatic Energy            =  +0.00 kcal/mol
DOCKED: USER        Moving Ligand-Fixed Receptor    =  -6.69 kcal/mol
DOCKED: USER        Moving Ligand-Moving Receptor   =  +0.00 kcal/mol
DOCKED: USER    (2) Final Total Internal Energy     =  -1.56 kcal/mol
DOCKED: USER    (3) Torsional Free Energy           =  +1.49 kcal/mol
DOCKED: USER    (4) Unbound System's Energy         =  -1.56 kcal/mol
DOCKED: USER
DOCKED: USER
DOCKED: REMARK  5 active torsions:
DOCKED: REMARK  status: ('A' for Active; 'I' for Inactive)
DOCKED: REMARK    1  A    between atoms: C_2  and  C_19 
DOCKED: REMARK    2  A    between atoms: C_2  and  C_11 
DOCKED: REMARK    3  A    between atoms: C_19  and  C_20 
DOCKED: REMARK    4  A    between atoms: C_20  and  C_21 
DOCKED: REMARK    5  A    between atoms: C_21  and  N_22 
DOCKED: USER                              x       y       z     vdW  Elec       q    Type
DOCKED: USER                           _______ _______ _______ _____ _____    ______ ____
DOCKED: ROOT
DOCKED: ATOM      1  O   UNL     1     -41.881 -21.842   7.945 -0.03 -0.00    -0.346 OA 
DOCKED: ATOM      2  C   UNL     1     -41.182 -23.128   7.929 -0.19 +0.00    +0.130 C  
DOCKED: ATOM      3  C   UNL     1     -41.570 -23.732   6.611 -0.33 +0.00    +0.004 A  
DOCKED: ATOM      4  C   UNL     1     -42.333 -22.826   5.888 -0.33 +0.00    +0.006 A  
DOCKED: ATOM      5  C   UNL     1     -42.491 -21.574   6.661 -0.21 +0.00    +0.169 C  
DOCKED: ATOM      6  C   UNL     1     -41.262 -24.980   6.088 -0.42 -0.00    -0.001 A  
DOCKED: ATOM      7  C   UNL     1     -42.817 -23.134   4.628 +0.02 +0.00    +0.008 A  
DOCKED: ATOM      8  C   UNL     1     -41.746 -25.307   4.820 -0.42 +0.00    +0.010 A  
DOCKED: ATOM      9  C   UNL     1     -42.519 -24.389   4.094 -0.45 +0.00    +0.068 A  
DOCKED: ATOM     10  N   UNL     1     -43.396 -25.027   1.741 -2.53 -0.00    -0.191 NA 
DOCKED: ATOM     11  C   UNL     1     -43.003 -24.741   2.797 -0.40 +0.00    +0.101 C  
DOCKED: ENDROOT
DOCKED: BRANCH   2  12
DOCKED: ATOM     12  C   UNL     1     -39.685 -22.865   8.044 -0.24 +0.00    +0.038 C  
DOCKED: BRANCH  12  13
DOCKED: ATOM     13  C   UNL     1     -39.382 -21.368   8.052 -0.16 +0.00    +0.038 C  
DOCKED: BRANCH  13  14
DOCKED: ATOM     14  C   UNL     1     -39.225 -20.847   9.479 -0.03 +0.00    +0.251 C  
DOCKED: BRANCH  14  15
DOCKED: ATOM     15  N   UNL     1     -40.392 -21.197  10.279 -0.02 +0.00    +0.141 N  
DOCKED: ATOM     16  C   UNL     1     -39.986 -21.782  11.557 -0.01 +0.00    +0.285 C  
DOCKED: ATOM     17  C   UNL     1     -41.235 -20.021  10.504 -0.00 +0.00    +0.285 C  
DOCKED: ENDBRANCH  14  15
DOCKED: ENDBRANCH  13  14
DOCKED: ENDBRANCH  12  13
DOCKED: ENDBRANCH   2  12
DOCKED: BRANCH   2  18
DOCKED: ATOM     18  C   UNL     1     -41.682 -23.911   9.097 -0.17 +0.00    +0.006 A  
DOCKED: ATOM     19  C   UNL     1     -43.042 -23.910   9.406 -0.13 +0.00    +0.001 A  
DOCKED: ATOM     20  C   UNL     1     -43.508 -24.642  10.499 -0.14 +0.00    +0.029 A  
DOCKED: ATOM     21  C   UNL     1     -42.615 -25.373  11.280 -0.05 +0.00    +0.140 A  
DOCKED: ATOM     22  C   UNL     1     -41.255 -25.374  10.970 -0.23 +0.00    +0.029 A  
DOCKED: ATOM     23  F   UNL     1     -43.063 -26.077  12.328 -0.03 -0.00    -0.204 F  
DOCKED: ATOM     24  C   UNL     1     -40.788 -24.642   9.878 -0.17 +0.00    +0.001 A  
DOCKED: ENDBRANCH   2  18
DOCKED: TORSDOF 5
DOCKED: TER
DOCKED: ENDMDL
________________________________________________________________________________


    FINAL DOCKED STATE:
    ________________________


Run:   395 / 512
Time taken for this run:   0.002s

DOCKED: MODEL        395
DOCKED: USER    Run = 395
DOCKED: USER
DOCKED: USER    Estimated Free Energy of Binding    =  -4.30 kcal/mol  [=(1)+(2)+(3)-(4)]
DOCKED: USER
DOCKED: USER    (1) Final Intermolecular Energy     =  -5.79 kcal/mol
DOCKED: USER        vdW + Hbond + desolv Energy     =  -5.79 kcal/mol
DOCKED: USER        Electrostatic Energy            =  +0.00 kcal/mol
DOCKED: USER        Moving Ligand-Fixed Receptor    =  -5.79 kcal/mol
DOCKED: USER        Moving Ligand-Moving Receptor   =  +0.00 kcal/mol
DOCKED: USER    (2) Final Total Internal Energy     =  -1.20 kcal/mol
DOCKED: USER    (3) Torsional Free Energy           =  +1.49 kcal/mol
DOCKED: USER    (4) Unbound System's Energy         =  -1.20 kcal/mol
DOCKED: USER
DOCKED: USER
DOCKED: REMARK  5 active torsions:
DOCKED: REMARK  status: ('A' for Active; 'I' for Inactive)
DOCKED: REMARK    1  A    between atoms: C_2  and  C_19 
DOCKED: REMARK    2  A    between atoms: C_2  and  C_11 
DOCKED: REMARK    3  A    between atoms: C_19  and  C_20 
DOCKED: REMARK    4  A    between atoms: C_20  and  C_21 
DOCKED: REMARK    5  A    between atoms: C_21  and  N_22 
DOCKED: USER                              x       y       z     vdW  Elec       q    Type
DOCKED: USER                           _______ _______ _______ _____ _____    ______ ____
DOCKED: ROOT
DOCKED: ATOM      1  O   UNL     1     -40.920 -24.915   9.406 -0.11 -0.00    -0.346 OA 
DOCKED: ATOM      2  C   UNL     1     -40.833 -23.503   9.034 -0.15 +0.00    +0.130 C  
DOCKED: ATOM      3  C   UNL     1     -41.246 -23.485   7.591 -0.26 +0.00    +0.004 A  
DOCKED: ATOM      4  C   UNL     1     -41.640 -24.758   7.202 -0.31 +0.00    +0.006 A  
DOCKED: ATOM      5  C   UNL     1     -41.529 -25.689   8.347 -0.20 +0.00    +0.169 C  
DOCKED: ATOM      6  C   UNL     1     -41.280 -22.425   6.696 -0.29 -0.00    -0.001 A  
DOCKED: ATOM      7  C   UNL     1     -42.075 -25.015   5.913 -0.36 +0.00    +0.008 A  
DOCKED: ATOM      8  C   UNL     1     -41.713 -22.670   5.391 -0.27 +0.00    +0.010 A  
DOCKED: ATOM      9  C   UNL     1     -42.108 -23.958   5.002 -0.37 +0.00    +0.068 A  
DOCKED: ATOM     10  N   UNL     1     -42.910 -24.376   2.574 -1.87 -0.00    -0.191 NA 
DOCKED: ATOM     11  C   UNL     1     -42.550 -24.189   3.663 -0.51 +0.00    +0.101 C  
DOCKED: ENDROOT
DOCKED: BRANCH   2  12
DOCKED: ATOM     12  C   UNL     1     -41.777 -22.709   9.930 -0.08 +0.00    +0.038 C  
DOCKED: BRANCH  12  13
DOCKED: ATOM     13  C   UNL     1     -42.967 -23.557  10.375 -0.10 +0.00    +0.038 C  
DOCKED: BRANCH  13  14
DOCKED: ATOM     14  C   UNL     1     -44.081 -23.532   9.329 -0.04 +0.00    +0.251 C  
DOCKED: BRANCH  14  15
DOCKED: ATOM     15  N   UNL     1     -45.215 -24.331   9.777 -0.08 +0.00    +0.141 N  
DOCKED: ATOM     16  C   UNL     1     -46.045 -24.731   8.640 -0.07 +0.00    +0.285 C  
DOCKED: ATOM     17  C   UNL     1     -44.756 -25.511  10.511 -0.04 +0.00    +0.285 C  
DOCKED: ENDBRANCH  14  15
DOCKED: ENDBRANCH  13  14
DOCKED: ENDBRANCH  12  13
DOCKED: ENDBRANCH   2  12
DOCKED: BRANCH   2  18
DOCKED: ATOM     18  C   UNL     1     -39.416 -23.083   9.239 -0.17 +0.00    +0.006 A  
DOCKED: ATOM     19  C   UNL     1     -38.954 -22.795  10.523 -0.09 +0.00    +0.001 A  
DOCKED: ATOM     20  C   UNL     1     -37.628 -22.403  10.713 -0.07 +0.00    +0.029 A  
DOCKED: ATOM     21  C   UNL     1     -36.768 -22.300   9.621 -0.07 +0.00    +0.140 A  
DOCKED: ATOM     22  C   UNL     1     -37.231 -22.589   8.338 -0.15 +0.00    +0.029 A  
DOCKED: ATOM     23  F   UNL     1     -35.495 -21.925   9.804 -0.00 -0.00    -0.204 F  
DOCKED: ATOM     24  C   UNL     1     -38.557 -22.981   8.146 -0.12 +0.00    +0.001 A  
DOCKED: ENDBRANCH   2  18
DOCKED: TORSDOF 5
DOCKED: TER
DOCKED: ENDMDL
________________________________________________________________________________


    FINAL DOCKED STATE:
    ________________________


Run:   396 / 512
Time taken for this run:   0.002s

DOCKED: MODEL        396
DOCKED: USER    Run = 396
DOCKED: USER
DOCKED: USER    Estimated Free Energy of Binding    =  -3.94 kcal/mol  [=(1)+(2)+(3)-(4)]
DOCKED: USER
DOCKED: USER    (1) Final Intermolecular Energy     =  -5.43 kcal/mol
DOCKED: USER        vdW + Hbond + desolv Energy     =  -5.43 kcal/mol
DOCKED: USER        Electrostatic Energy            =  +0.00 kcal/mol
DOCKED: USER        Moving Ligand-Fixed Receptor    =  -5.43 kcal/mol
DOCKED: USER        Moving Ligand-Moving Receptor   =  +0.00 kcal/mol
DOCKED: USER    (2) Final Total Internal Energy     =  -1.43 kcal/mol
DOCKED: USER    (3) Torsional Free Energy           =  +1.49 kcal/mol
DOCKED: USER    (4) Unbound System's Energy         =  -1.43 kcal/mol
DOCKED: USER
DOCKED: USER
DOCKED: REMARK  5 active torsions:
DOCKED: REMARK  status: ('A' for Active; 'I' for Inactive)
DOCKED: REMARK    1  A    between atoms: C_2  and  C_19 
DOCKED: REMARK    2  A    between atoms: C_2  and  C_11 
DOCKED: REMARK    3  A    between atoms: C_19  and  C_20 
DOCKED: REMARK    4  A    between atoms: C_20  and  C_21 
DOCKED: REMARK    5  A    between atoms: C_21  and  N_22 
DOCKED: USER                              x       y       z     vdW  Elec       q    Type
DOCKED: USER                           _______ _______ _______ _____ _____    ______ ____
DOCKED: ROOT
DOCKED: ATOM      1  O   UNL     1     -32.429 -23.285  -1.295 +0.00 -0.00    -0.346 OA 
DOCKED: ATOM      2  C   UNL     1     -33.253 -22.277  -0.627 -0.06 +0.00    +0.130 C  
DOCKED: ATOM      3  C   UNL     1     -33.932 -23.040   0.474 -0.10 +0.00    +0.004 A  
DOCKED: ATOM      4  C   UNL     1     -33.454 -24.342   0.503 -0.11 +0.00    +0.006 A  
DOCKED: ATOM      5  C   UNL     1     -32.433 -24.526  -0.552 -0.04 +0.00    +0.169 C  
DOCKED: ATOM      6  C   UNL     1     -34.887 -22.612   1.384 -0.17 -0.00    -0.001 A  
DOCKED: ATOM      7  C   UNL     1     -33.915 -25.258   1.433 -0.21 +0.00    +0.008 A  
DOCKED: ATOM      8  C   UNL     1     -35.365 -23.525   2.326 -0.29 +0.00    +0.010 A  
DOCKED: ATOM      9  C   UNL     1     -34.880 -24.841   2.350 -0.28 +0.00    +0.068 A  
DOCKED: ATOM     10  N   UNL     1     -35.784 -26.509   4.115 -2.65 -0.00    -0.191 NA 
DOCKED: ATOM     11  C   UNL     1     -35.379 -25.761   3.323 -0.40 +0.00    +0.101 C  
DOCKED: ENDROOT
DOCKED: BRANCH   2  12
DOCKED: ATOM     12  C   UNL     1     -32.339 -21.173  -0.108 -0.01 +0.00    +0.038 C  
DOCKED: BRANCH  12  13
DOCKED: ATOM     13  C   UNL     1     -31.239 -21.737   0.789 -0.01 +0.00    +0.038 C  
DOCKED: BRANCH  13  14
DOCKED: ATOM     14  C   UNL     1     -31.623 -21.631   2.264 -0.00 +0.00    +0.251 C  
DOCKED: BRANCH  14  15
DOCKED: ATOM     15  N   UNL     1     -31.450 -22.917   2.927 -0.02 +0.00    +0.141 N  
DOCKED: ATOM     16  C   UNL     1     -30.321 -23.648   2.349 -0.00 +0.00    +0.285 C  
DOCKED: ATOM     17  C   UNL     1     -31.253 -22.733   4.366 -0.00 +0.00    +0.285 C  
DOCKED: ENDBRANCH  14  15
DOCKED: ENDBRANCH  13  14
DOCKED: ENDBRANCH  12  13
DOCKED: ENDBRANCH   2  12
DOCKED: BRANCH   2  18
DOCKED: ATOM     18  C   UNL     1     -34.209 -21.751  -1.645 -0.12 +0.00    +0.006 A  
DOCKED: ATOM     19  C   UNL     1     -34.233 -22.299  -2.927 -0.14 +0.00    +0.001 A  
DOCKED: ATOM     20  C   UNL     1     -35.127 -21.805  -3.878 -0.17 +0.00    +0.029 A  
DOCKED: ATOM     21  C   UNL     1     -35.995 -20.766  -3.546 -0.18 +0.00    +0.140 A  
DOCKED: ATOM     22  C   UNL     1     -35.970 -20.218  -2.263 -0.19 +0.00    +0.029 A  
DOCKED: ATOM     23  F   UNL     1     -36.854 -20.293  -4.458 -0.14 -0.00    -0.204 F  
DOCKED: ATOM     24  C   UNL     1     -35.076 -20.711  -1.311 -0.14 +0.00    +0.001 A  
DOCKED: ENDBRANCH   2  18
DOCKED: TORSDOF 5
DOCKED: TER
DOCKED: ENDMDL
________________________________________________________________________________


    FINAL DOCKED STATE:
    ________________________


Run:   397 / 512
Time taken for this run:   0.002s

DOCKED: MODEL        397
DOCKED: USER    Run = 397
DOCKED: USER
DOCKED: USER    Estimated Free Energy of Binding    =  -4.15 kcal/mol  [=(1)+(2)+(3)-(4)]
DOCKED: USER
DOCKED: USER    (1) Final Intermolecular Energy     =  -5.65 kcal/mol
DOCKED: USER        vdW + Hbond + desolv Energy     =  -5.65 kcal/mol
DOCKED: USER        Electrostatic Energy            =  +0.00 kcal/mol
DOCKED: USER        Moving Ligand-Fixed Receptor    =  -5.65 kcal/mol
DOCKED: USER        Moving Ligand-Moving Receptor   =  +0.00 kcal/mol
DOCKED: USER    (2) Final Total Internal Energy     =  -1.42 kcal/mol
DOCKED: USER    (3) Torsional Free Energy           =  +1.49 kcal/mol
DOCKED: USER    (4) Unbound System's Energy         =  -1.42 kcal/mol
DOCKED: USER
DOCKED: USER
DOCKED: REMARK  5 active torsions:
DOCKED: REMARK  status: ('A' for Active; 'I' for Inactive)
DOCKED: REMARK    1  A    between atoms: C_2  and  C_19 
DOCKED: REMARK    2  A    between atoms: C_2  and  C_11 
DOCKED: REMARK    3  A    between atoms: C_19  and  C_20 
DOCKED: REMARK    4  A    between atoms: C_20  and  C_21 
DOCKED: REMARK    5  A    between atoms: C_21  and  N_22 
DOCKED: USER                              x       y       z     vdW  Elec       q    Type
DOCKED: USER                           _______ _______ _______ _____ _____    ______ ____
DOCKED: ROOT
DOCKED: ATOM      1  O   UNL     1     -40.725 -19.600   7.164 -0.06 -0.00    -0.346 OA 
DOCKED: ATOM      2  C   UNL     1     -41.916 -19.890   7.963 -0.10 +0.00    +0.130 C  
DOCKED: ATOM      3  C   UNL     1     -42.332 -21.258   7.504 -0.18 +0.00    +0.004 A  
DOCKED: ATOM      4  C   UNL     1     -41.399 -21.752   6.604 -0.28 +0.00    +0.006 A  
DOCKED: ATOM      5  C   UNL     1     -40.310 -20.767   6.417 -0.16 +0.00    +0.169 C  
DOCKED: ATOM      6  C   UNL     1     -43.441 -22.010   7.863 -0.14 -0.00    -0.001 A  
DOCKED: ATOM      7  C   UNL     1     -41.542 -23.005   6.032 -0.34 +0.00    +0.008 A  
DOCKED: ATOM      8  C   UNL     1     -43.603 -23.273   7.292 -0.19 +0.00    +0.010 A  
DOCKED: ATOM      9  C   UNL     1     -42.658 -23.768   6.381 -0.25 +0.00    +0.068 A  
DOCKED: ATOM     10  N   UNL     1     -42.985 -26.119   5.342 -2.60 -0.00    -0.191 NA 
DOCKED: ATOM     11  C   UNL     1     -42.838 -25.064   5.807 -0.32 +0.00    +0.101 C  
DOCKED: ENDROOT
DOCKED: BRANCH   2  12
DOCKED: ATOM     12  C   UNL     1     -41.531 -19.850   9.437 -0.04 +0.00    +0.038 C  
DOCKED: BRANCH  12  13
DOCKED: ATOM     13  C   UNL     1     -40.906 -21.170   9.885 -0.05 +0.00    +0.038 C  
DOCKED: BRANCH  13  14
DOCKED: ATOM     14  C   UNL     1     -39.386 -21.055   9.978 -0.02 +0.00    +0.251 C  
DOCKED: BRANCH  14  15
DOCKED: ATOM     15  N   UNL     1     -38.761 -22.341   9.692 -0.08 +0.00    +0.141 N  
DOCKED: ATOM     16  C   UNL     1     -39.762 -23.315   9.254 -0.09 +0.00    +0.285 C  
DOCKED: ATOM     17  C   UNL     1     -37.718 -22.194   8.676 -0.10 +0.00    +0.285 C  
DOCKED: ENDBRANCH  14  15
DOCKED: ENDBRANCH  13  14
DOCKED: ENDBRANCH  12  13
DOCKED: ENDBRANCH   2  12
DOCKED: BRANCH   2  18
DOCKED: ATOM     18  C   UNL     1     -42.924 -18.838   7.641 -0.13 +0.00    +0.006 A  
DOCKED: ATOM     19  C   UNL     1     -43.065 -18.385   6.330 -0.19 +0.00    +0.001 A  
DOCKED: ATOM     20  C   UNL     1     -44.008 -17.401   6.031 -0.15 +0.00    +0.029 A  
DOCKED: ATOM     21  C   UNL     1     -44.808 -16.872   7.042 -0.08 +0.00    +0.140 A  
DOCKED: ATOM     22  C   UNL     1     -44.667 -17.325   8.353 -0.05 +0.00    +0.029 A  
DOCKED: ATOM     23  F   UNL     1     -45.714 -15.928   6.754 +0.00 -0.00    -0.204 F  
DOCKED: ATOM     24  C   UNL     1     -43.724 -18.309   8.654 -0.05 +0.00    +0.001 A  
DOCKED: ENDBRANCH   2  18
DOCKED: TORSDOF 5
DOCKED: TER
DOCKED: ENDMDL
________________________________________________________________________________


    FINAL DOCKED STATE:
    ________________________


Run:   398 / 512
Time taken for this run:   0.002s

DOCKED: MODEL        398
DOCKED: USER    Run = 398
DOCKED: USER
DOCKED: USER    Estimated Free Energy of Binding    =  -3.88 kcal/mol  [=(1)+(2)+(3)-(4)]
DOCKED: USER
DOCKED: USER    (1) Final Intermolecular Energy     =  -5.37 kcal/mol
DOCKED: USER        vdW + Hbond + desolv Energy     =  -5.37 kcal/mol
DOCKED: USER        Electrostatic Energy            =  +0.00 kcal/mol
DOCKED: USER        Moving Ligand-Fixed Receptor    =  -5.37 kcal/mol
DOCKED: USER        Moving Ligand-Moving Receptor   =  +0.00 kcal/mol
DOCKED: USER    (2) Final Total Internal Energy     =  -1.39 kcal/mol
DOCKED: USER    (3) Torsional Free Energy           =  +1.49 kcal/mol
DOCKED: USER    (4) Unbound System's Energy         =  -1.39 kcal/mol
DOCKED: USER
DOCKED: USER
DOCKED: REMARK  5 active torsions:
DOCKED: REMARK  status: ('A' for Active; 'I' for Inactive)
DOCKED: REMARK    1  A    between atoms: C_2  and  C_19 
DOCKED: REMARK    2  A    between atoms: C_2  and  C_11 
DOCKED: REMARK    3  A    between atoms: C_19  and  C_20 
DOCKED: REMARK    4  A    between atoms: C_20  and  C_21 
DOCKED: REMARK    5  A    between atoms: C_21  and  N_22 
DOCKED: USER                              x       y       z     vdW  Elec       q    Type
DOCKED: USER                           _______ _______ _______ _____ _____    ______ ____
DOCKED: ROOT
DOCKED: ATOM      1  O   UNL     1     -35.036 -15.743  -2.112 +0.01 -0.00    -0.346 OA 
DOCKED: ATOM      2  C   UNL     1     -35.112 -14.392  -1.554 -0.06 +0.00    +0.130 C  
DOCKED: ATOM      3  C   UNL     1     -36.218 -13.742  -2.336 -0.13 +0.00    +0.004 A  
DOCKED: ATOM      4  C   UNL     1     -36.797 -14.672  -3.187 -0.16 +0.00    +0.006 A  
DOCKED: ATOM      5  C   UNL     1     -36.134 -15.985  -3.022 -0.10 +0.00    +0.169 C  
DOCKED: ATOM      6  C   UNL     1     -36.681 -12.436  -2.288 -0.21 -0.00    -0.001 A  
DOCKED: ATOM      7  C   UNL     1     -37.850 -14.331  -4.019 -0.17 +0.00    +0.008 A  
DOCKED: ATOM      8  C   UNL     1     -37.739 -12.074  -3.124 -0.32 +0.00    +0.010 A  
DOCKED: ATOM      9  C   UNL     1     -38.321 -13.017  -3.984 -0.34 +0.00    +0.068 A  
DOCKED: ATOM     10  N   UNL     1     -40.287 -12.315  -5.519 -2.55 -0.00    -0.191 NA 
DOCKED: ATOM     11  C   UNL     1     -39.405 -12.630  -4.831 -0.43 +0.00    +0.101 C  
DOCKED: ENDROOT
DOCKED: BRANCH   2  12
DOCKED: ATOM     12  C   UNL     1     -35.422 -14.501  -0.066 -0.12 +0.00    +0.038 C  
DOCKED: BRANCH  12  13
DOCKED: ATOM     13  C   UNL     1     -36.928 -14.519   0.190 -0.12 +0.00    +0.038 C  
DOCKED: BRANCH  13  14
DOCKED: ATOM     14  C   UNL     1     -37.345 -15.790   0.925 -0.10 +0.00    +0.251 C  
DOCKED: BRANCH  14  15
DOCKED: ATOM     15  N   UNL     1     -38.576 -16.325   0.356 -0.16 +0.00    +0.141 N  
DOCKED: ATOM     16  C   UNL     1     -39.391 -15.250  -0.214 -0.21 +0.00    +0.285 C  
DOCKED: ATOM     17  C   UNL     1     -38.278 -17.331  -0.665 -0.13 +0.00    +0.285 C  
DOCKED: ENDBRANCH  14  15
DOCKED: ENDBRANCH  13  14
DOCKED: ENDBRANCH  12  13
DOCKED: ENDBRANCH   2  12
DOCKED: BRANCH   2  18
DOCKED: ATOM     18  C   UNL     1     -33.784 -13.751  -1.783 -0.03 +0.00    +0.006 A  
DOCKED: ATOM     19  C   UNL     1     -32.932 -13.511  -0.705 -0.02 +0.00    +0.001 A  
DOCKED: ATOM     20  C   UNL     1     -31.691 -12.911  -0.920 -0.01 +0.00    +0.029 A  
DOCKED: ATOM     21  C   UNL     1     -31.304 -12.552  -2.210 +0.00 +0.00    +0.140 A  
DOCKED: ATOM     22  C   UNL     1     -32.156 -12.792  -3.287 -0.01 +0.00    +0.029 A  
DOCKED: ATOM     23  F   UNL     1     -30.111 -11.978  -2.416 +0.00 -0.00    -0.204 F  
DOCKED: ATOM     24  C   UNL     1     -33.399 -13.392  -3.073 -0.02 +0.00    +0.001 A  
DOCKED: ENDBRANCH   2  18
DOCKED: TORSDOF 5
DOCKED: TER
DOCKED: ENDMDL
________________________________________________________________________________


    FINAL DOCKED STATE:
    ________________________


Run:   399 / 512
Time taken for this run:   0.002s

DOCKED: MODEL        399
DOCKED: USER    Run = 399
DOCKED: USER
DOCKED: USER    Estimated Free Energy of Binding    =  -4.08 kcal/mol  [=(1)+(2)+(3)-(4)]
DOCKED: USER
DOCKED: USER    (1) Final Intermolecular Energy     =  -5.57 kcal/mol
DOCKED: USER        vdW + Hbond + desolv Energy     =  -5.57 kcal/mol
DOCKED: USER        Electrostatic Energy            =  +0.00 kcal/mol
DOCKED: USER        Moving Ligand-Fixed Receptor    =  -5.57 kcal/mol
DOCKED: USER        Moving Ligand-Moving Receptor   =  +0.00 kcal/mol
DOCKED: USER    (2) Final Total Internal Energy     =  -1.43 kcal/mol
DOCKED: USER    (3) Torsional Free Energy           =  +1.49 kcal/mol
DOCKED: USER    (4) Unbound System's Energy         =  -1.43 kcal/mol
DOCKED: USER
DOCKED: USER
DOCKED: REMARK  5 active torsions:
DOCKED: REMARK  status: ('A' for Active; 'I' for Inactive)
DOCKED: REMARK    1  A    between atoms: C_2  and  C_19 
DOCKED: REMARK    2  A    between atoms: C_2  and  C_11 
DOCKED: REMARK    3  A    between atoms: C_19  and  C_20 
DOCKED: REMARK    4  A    between atoms: C_20  and  C_21 
DOCKED: REMARK    5  A    between atoms: C_21  and  N_22 
DOCKED: USER                              x       y       z     vdW  Elec       q    Type
DOCKED: USER                           _______ _______ _______ _____ _____    ______ ____
DOCKED: ROOT
DOCKED: ATOM      1  O   UNL     1     -39.013 -21.033   8.477 -0.05 -0.00    -0.346 OA 
DOCKED: ATOM      2  C   UNL     1     -40.205 -20.388   7.924 -0.11 +0.00    +0.130 C  
DOCKED: ATOM      3  C   UNL     1     -40.951 -21.514   7.268 -0.22 +0.00    +0.004 A  
DOCKED: ATOM      4  C   UNL     1     -40.300 -22.714   7.519 -0.24 +0.00    +0.006 A  
DOCKED: ATOM      5  C   UNL     1     -39.104 -22.471   8.356 -0.16 +0.00    +0.169 C  
DOCKED: ATOM      6  C   UNL     1     -42.118 -21.481   6.519 -0.27 -0.00    -0.001 A  
DOCKED: ATOM      7  C   UNL     1     -40.787 -23.914   7.030 -0.33 +0.00    +0.008 A  
DOCKED: ATOM      8  C   UNL     1     -42.619 -22.682   6.015 -0.30 +0.00    +0.010 A  
DOCKED: ATOM      9  C   UNL     1     -41.958 -23.893   6.270 -0.30 +0.00    +0.068 A  
DOCKED: ATOM     10  N   UNL     1     -42.919 -26.105   5.324 -2.59 -0.00    -0.191 NA 
DOCKED: ATOM     11  C   UNL     1     -42.487 -25.113   5.748 -0.31 +0.00    +0.101 C  
DOCKED: ENDROOT
DOCKED: BRANCH   2  12
DOCKED: ATOM     12  C   UNL     1     -40.982 -19.748   9.068 -0.05 +0.00    +0.038 C  
DOCKED: BRANCH  12  13
DOCKED: ATOM     13  C   UNL     1     -41.153 -20.717  10.236 -0.03 +0.00    +0.038 C  
DOCKED: BRANCH  13  14
DOCKED: ATOM     14  C   UNL     1     -42.631 -20.940  10.553 -0.01 +0.00    +0.251 C  
DOCKED: BRANCH  14  15
DOCKED: ATOM     15  N   UNL     1     -43.337 -21.418   9.369 -0.03 +0.00    +0.141 N  
DOCKED: ATOM     16  C   UNL     1     -43.830 -22.780   9.577 -0.01 +0.00    +0.285 C  
DOCKED: ATOM     17  C   UNL     1     -44.446 -20.522   9.034 -0.01 +0.00    +0.285 C  
DOCKED: ENDBRANCH  14  15
DOCKED: ENDBRANCH  13  14
DOCKED: ENDBRANCH  12  13
DOCKED: ENDBRANCH   2  12
DOCKED: BRANCH   2  18
DOCKED: ATOM     18  C   UNL     1     -39.733 -19.359   6.951 -0.14 +0.00    +0.006 A  
DOCKED: ATOM     19  C   UNL     1     -39.811 -18.006   7.276 -0.07 +0.00    +0.001 A  
DOCKED: ATOM     20  C   UNL     1     -39.370 -17.045   6.366 -0.06 +0.00    +0.029 A  
DOCKED: ATOM     21  C   UNL     1     -38.850 -17.438   5.134 -0.07 +0.00    +0.140 A  
DOCKED: ATOM     22  C   UNL     1     -38.772 -18.792   4.810 -0.09 +0.00    +0.029 A  
DOCKED: ATOM     23  F   UNL     1     -38.425 -16.516   4.261 -0.01 -0.00    -0.204 F  
DOCKED: ATOM     24  C   UNL     1     -39.213 -19.755   5.719 -0.11 +0.00    +0.001 A  
DOCKED: ENDBRANCH   2  18
DOCKED: TORSDOF 5
DOCKED: TER
DOCKED: ENDMDL
________________________________________________________________________________


    FINAL DOCKED STATE:
    ________________________


Run:   400 / 512
Time taken for this run:   0.002s

DOCKED: MODEL        400
DOCKED: USER    Run = 400
DOCKED: USER
DOCKED: USER    Estimated Free Energy of Binding    =  -4.21 kcal/mol  [=(1)+(2)+(3)-(4)]
DOCKED: USER
DOCKED: USER    (1) Final Intermolecular Energy     =  -5.70 kcal/mol
DOCKED: USER        vdW + Hbond + desolv Energy     =  -5.70 kcal/mol
DOCKED: USER        Electrostatic Energy            =  +0.00 kcal/mol
DOCKED: USER        Moving Ligand-Fixed Receptor    =  -5.70 kcal/mol
DOCKED: USER        Moving Ligand-Moving Receptor   =  +0.00 kcal/mol
DOCKED: USER    (2) Final Total Internal Energy     =  -1.44 kcal/mol
DOCKED: USER    (3) Torsional Free Energy           =  +1.49 kcal/mol
DOCKED: USER    (4) Unbound System's Energy         =  -1.44 kcal/mol
DOCKED: USER
DOCKED: USER
DOCKED: REMARK  5 active torsions:
DOCKED: REMARK  status: ('A' for Active; 'I' for Inactive)
DOCKED: REMARK    1  A    between atoms: C_2  and  C_19 
DOCKED: REMARK    2  A    between atoms: C_2  and  C_11 
DOCKED: REMARK    3  A    between atoms: C_19  and  C_20 
DOCKED: REMARK    4  A    between atoms: C_20  and  C_21 
DOCKED: REMARK    5  A    between atoms: C_21  and  N_22 
DOCKED: USER                              x       y       z     vdW  Elec       q    Type
DOCKED: USER                           _______ _______ _______ _____ _____    ______ ____
DOCKED: ROOT
DOCKED: ATOM      1  O   UNL     1     -40.623 -19.940   7.873 -0.03 -0.00    -0.346 OA 
DOCKED: ATOM      2  C   UNL     1     -42.084 -19.944   7.957 -0.10 +0.00    +0.130 C  
DOCKED: ATOM      3  C   UNL     1     -42.476 -21.260   7.351 -0.20 +0.00    +0.004 A  
DOCKED: ATOM      4  C   UNL     1     -41.336 -21.993   7.049 -0.25 +0.00    +0.006 A  
DOCKED: ATOM      5  C   UNL     1     -40.130 -21.229   7.439 -0.16 +0.00    +0.169 C  
DOCKED: ATOM      6  C   UNL     1     -43.739 -21.774   7.099 -0.21 -0.00    -0.001 A  
DOCKED: ATOM      7  C   UNL     1     -41.419 -23.254   6.484 -0.33 +0.00    +0.008 A  
DOCKED: ATOM      8  C   UNL     1     -43.840 -23.042   6.525 -0.24 +0.00    +0.010 A  
DOCKED: ATOM      9  C   UNL     1     -42.685 -23.779   6.220 -0.27 +0.00    +0.068 A  
DOCKED: ATOM     10  N   UNL     1     -42.907 -26.132   5.159 -2.50 -0.00    -0.191 NA 
DOCKED: ATOM     11  C   UNL     1     -42.807 -25.076   5.634 -0.36 +0.00    +0.101 C  
DOCKED: ENDROOT
DOCKED: BRANCH   2  12
DOCKED: ATOM     12  C   UNL     1     -42.483 -19.822   9.423 -0.04 +0.00    +0.038 C  
DOCKED: BRANCH  12  13
DOCKED: ATOM     13  C   UNL     1     -42.651 -21.195  10.070 -0.04 +0.00    +0.038 C  
DOCKED: BRANCH  13  14
DOCKED: ATOM     14  C   UNL     1     -41.481 -21.511  10.999 -0.01 +0.00    +0.251 C  
DOCKED: BRANCH  14  15
DOCKED: ATOM     15  N   UNL     1     -41.106 -22.916  10.883 -0.04 +0.00    +0.141 N  
DOCKED: ATOM     16  C   UNL     1     -42.054 -23.634  10.031 -0.05 +0.00    +0.285 C  
DOCKED: ATOM     17  C   UNL     1     -39.747 -23.045  10.353 -0.06 +0.00    +0.285 C  
DOCKED: ENDBRANCH  14  15
DOCKED: ENDBRANCH  13  14
DOCKED: ENDBRANCH  12  13
DOCKED: ENDBRANCH   2  12
DOCKED: BRANCH   2  18
DOCKED: ATOM     18  C   UNL     1     -42.569 -18.773   7.168 -0.17 +0.00    +0.006 A  
DOCKED: ATOM     19  C   UNL     1     -43.779 -18.164   7.498 -0.14 +0.00    +0.001 A  
DOCKED: ATOM     20  C   UNL     1     -44.232 -17.070   6.759 -0.14 +0.00    +0.029 A  
DOCKED: ATOM     21  C   UNL     1     -43.475 -16.588   5.693 -0.13 +0.00    +0.140 A  
DOCKED: ATOM     22  C   UNL     1     -42.265 -17.198   5.363 -0.10 +0.00    +0.029 A  
DOCKED: ATOM     23  F   UNL     1     -43.909 -15.536   4.985 -0.03 -0.00    -0.204 F  
DOCKED: ATOM     24  C   UNL     1     -41.811 -18.292   6.101 -0.11 +0.00    +0.001 A  
DOCKED: ENDBRANCH   2  18
DOCKED: TORSDOF 5
DOCKED: TER
DOCKED: ENDMDL
________________________________________________________________________________


    FINAL DOCKED STATE:
    ________________________


Run:   401 / 512
Time taken for this run:   0.002s

DOCKED: MODEL        401
DOCKED: USER    Run = 401
DOCKED: USER
DOCKED: USER    Estimated Free Energy of Binding    =  -3.90 kcal/mol  [=(1)+(2)+(3)-(4)]
DOCKED: USER
DOCKED: USER    (1) Final Intermolecular Energy     =  -5.39 kcal/mol
DOCKED: USER        vdW + Hbond + desolv Energy     =  -5.39 kcal/mol
DOCKED: USER        Electrostatic Energy            =  +0.00 kcal/mol
DOCKED: USER        Moving Ligand-Fixed Receptor    =  -5.39 kcal/mol
DOCKED: USER        Moving Ligand-Moving Receptor   =  +0.00 kcal/mol
DOCKED: USER    (2) Final Total Internal Energy     =  -1.11 kcal/mol
DOCKED: USER    (3) Torsional Free Energy           =  +1.49 kcal/mol
DOCKED: USER    (4) Unbound System's Energy         =  -1.11 kcal/mol
DOCKED: USER
DOCKED: USER
DOCKED: REMARK  5 active torsions:
DOCKED: REMARK  status: ('A' for Active; 'I' for Inactive)
DOCKED: REMARK    1  A    between atoms: C_2  and  C_19 
DOCKED: REMARK    2  A    between atoms: C_2  and  C_11 
DOCKED: REMARK    3  A    between atoms: C_19  and  C_20 
DOCKED: REMARK    4  A    between atoms: C_20  and  C_21 
DOCKED: REMARK    5  A    between atoms: C_21  and  N_22 
DOCKED: USER                              x       y       z     vdW  Elec       q    Type
DOCKED: USER                           _______ _______ _______ _____ _____    ______ ____
DOCKED: ROOT
DOCKED: ATOM      1  O   UNL     1     -33.702 -20.013   1.808 +0.00 -0.00    -0.346 OA 
DOCKED: ATOM      2  C   UNL     1     -35.049 -20.231   1.278 -0.07 +0.00    +0.130 C  
DOCKED: ATOM      3  C   UNL     1     -35.396 -21.617   1.738 -0.18 +0.00    +0.004 A  
DOCKED: ATOM      4  C   UNL     1     -34.384 -22.107   2.552 -0.12 +0.00    +0.006 A  
DOCKED: ATOM      5  C   UNL     1     -33.319 -21.089   2.695 -0.03 +0.00    +0.169 C  
DOCKED: ATOM      6  C   UNL     1     -36.523 -22.380   1.467 -0.31 -0.00    -0.001 A  
DOCKED: ATOM      7  C   UNL     1     -34.460 -23.369   3.116 -0.19 +0.00    +0.008 A  
DOCKED: ATOM      8  C   UNL     1     -36.612 -23.657   2.025 -0.18 +0.00    +0.010 A  
DOCKED: ATOM      9  C   UNL     1     -35.585 -24.148   2.846 -0.27 +0.00    +0.068 A  
DOCKED: ATOM     10  N   UNL     1     -35.785 -26.519   3.870 -2.56 -0.00    -0.191 NA 
DOCKED: ATOM     11  C   UNL     1     -35.695 -25.456   3.410 -0.26 +0.00    +0.101 C  
DOCKED: ENDROOT
DOCKED: BRANCH   2  12
DOCKED: ATOM     12  C   UNL     1     -35.973 -19.165   1.856 -0.08 +0.00    +0.038 C  
DOCKED: BRANCH  12  13
DOCKED: ATOM     13  C   UNL     1     -36.233 -18.048   0.848 -0.07 +0.00    +0.038 C  
DOCKED: BRANCH  13  14
DOCKED: ATOM     14  C   UNL     1     -37.707 -17.999   0.450 -0.12 +0.00    +0.251 C  
DOCKED: BRANCH  14  15
DOCKED: ATOM     15  N   UNL     1     -37.921 -16.986  -0.577 -0.15 +0.00    +0.141 N  
DOCKED: ATOM     16  C   UNL     1     -37.196 -15.758  -0.250 -0.09 +0.00    +0.285 C  
DOCKED: ATOM     17  C   UNL     1     -37.507 -17.486  -1.889 -0.16 +0.00    +0.285 C  
DOCKED: ENDBRANCH  14  15
DOCKED: ENDBRANCH  13  14
DOCKED: ENDBRANCH  12  13
DOCKED: ENDBRANCH   2  12
DOCKED: BRANCH   2  18
DOCKED: ATOM     18  C   UNL     1     -34.958 -20.117  -0.207 -0.09 +0.00    +0.006 A  
DOCKED: ATOM     19  C   UNL     1     -36.012 -20.559  -1.006 -0.15 +0.00    +0.001 A  
DOCKED: ATOM     20  C   UNL     1     -35.925 -20.451  -2.394 -0.18 +0.00    +0.029 A  
DOCKED: ATOM     21  C   UNL     1     -34.786 -19.902  -2.981 -0.08 +0.00    +0.140 A  
DOCKED: ATOM     22  C   UNL     1     -33.732 -19.460  -2.182 -0.02 +0.00    +0.029 A  
DOCKED: ATOM     23  F   UNL     1     -34.703 -19.798  -4.314 -0.01 -0.00    -0.204 F  
DOCKED: ATOM     24  C   UNL     1     -33.818 -19.567  -0.792 -0.02 +0.00    +0.001 A  
DOCKED: ENDBRANCH   2  18
DOCKED: TORSDOF 5
DOCKED: TER
DOCKED: ENDMDL
________________________________________________________________________________


    FINAL DOCKED STATE:
    ________________________


Run:   402 / 512
Time taken for this run:   0.002s

DOCKED: MODEL        402
DOCKED: USER    Run = 402
DOCKED: USER
DOCKED: USER    Estimated Free Energy of Binding    =  -3.66 kcal/mol  [=(1)+(2)+(3)-(4)]
DOCKED: USER
DOCKED: USER    (1) Final Intermolecular Energy     =  -5.15 kcal/mol
DOCKED: USER        vdW + Hbond + desolv Energy     =  -5.15 kcal/mol
DOCKED: USER        Electrostatic Energy            =  +0.00 kcal/mol
DOCKED: USER        Moving Ligand-Fixed Receptor    =  -5.15 kcal/mol
DOCKED: USER        Moving Ligand-Moving Receptor   =  +0.00 kcal/mol
DOCKED: USER    (2) Final Total Internal Energy     =  -1.54 kcal/mol
DOCKED: USER    (3) Torsional Free Energy           =  +1.49 kcal/mol
DOCKED: USER    (4) Unbound System's Energy         =  -1.54 kcal/mol
DOCKED: USER
DOCKED: USER
DOCKED: REMARK  5 active torsions:
DOCKED: REMARK  status: ('A' for Active; 'I' for Inactive)
DOCKED: REMARK    1  A    between atoms: C_2  and  C_19 
DOCKED: REMARK    2  A    between atoms: C_2  and  C_11 
DOCKED: REMARK    3  A    between atoms: C_19  and  C_20 
DOCKED: REMARK    4  A    between atoms: C_20  and  C_21 
DOCKED: REMARK    5  A    between atoms: C_21  and  N_22 
DOCKED: USER                              x       y       z     vdW  Elec       q    Type
DOCKED: USER                           _______ _______ _______ _____ _____    ______ ____
DOCKED: ROOT
DOCKED: ATOM      1  O   UNL     1     -40.196 -20.513   8.168 -0.03 -0.00    -0.346 OA 
DOCKED: ATOM      2  C   UNL     1     -39.506 -21.719   8.629 -0.12 +0.00    +0.130 C  
DOCKED: ATOM      3  C   UNL     1     -40.226 -22.835   7.928 -0.23 +0.00    +0.004 A  
DOCKED: ATOM      4  C   UNL     1     -41.171 -22.308   7.059 -0.26 +0.00    +0.006 A  
DOCKED: ATOM      5  C   UNL     1     -41.134 -20.829   7.113 -0.19 +0.00    +0.169 C  
DOCKED: ATOM      6  C   UNL     1     -40.051 -24.206   8.043 -0.21 -0.00    -0.001 A  
DOCKED: ATOM      7  C   UNL     1     -41.971 -23.128   6.282 -0.33 +0.00    +0.008 A  
DOCKED: ATOM      8  C   UNL     1     -40.853 -25.046   7.269 -0.38 +0.00    +0.010 A  
DOCKED: ATOM      9  C   UNL     1     -41.808 -24.509   6.393 -0.33 +0.00    +0.068 A  
DOCKED: ATOM     10  N   UNL     1     -43.279 -26.097   4.967 -2.33 -0.00    -0.191 NA 
DOCKED: ATOM     11  C   UNL     1     -42.620 -25.385   5.607 -0.25 +0.00    +0.101 C  
DOCKED: ENDROOT
DOCKED: BRANCH   2  12
DOCKED: ATOM     12  C   UNL     1     -38.038 -21.617   8.230 -0.14 +0.00    +0.038 C  
DOCKED: BRANCH  12  13
DOCKED: ATOM     13  C   UNL     1     -37.782 -20.390   7.358 -0.11 +0.00    +0.038 C  
DOCKED: BRANCH  13  14
DOCKED: ATOM     14  C   UNL     1     -37.167 -19.254   8.175 -0.03 +0.00    +0.251 C  
DOCKED: BRANCH  14  15
DOCKED: ATOM     15  N   UNL     1     -37.587 -19.347   9.568 -0.01 +0.00    +0.141 N  
DOCKED: ATOM     16  C   UNL     1     -36.432 -19.251  10.463 -0.00 +0.00    +0.285 C  
DOCKED: ATOM     17  C   UNL     1     -38.561 -18.302   9.884 -0.00 +0.00    +0.285 C  
DOCKED: ENDBRANCH  14  15
DOCKED: ENDBRANCH  13  14
DOCKED: ENDBRANCH  12  13
DOCKED: ENDBRANCH   2  12
DOCKED: BRANCH   2  18
DOCKED: ATOM     18  C   UNL     1     -39.659 -21.770  10.112 -0.06 +0.00    +0.006 A  
DOCKED: ATOM     19  C   UNL     1     -40.808 -21.255  10.712 -0.03 +0.00    +0.001 A  
DOCKED: ATOM     20  C   UNL     1     -40.949 -21.303  12.100 -0.01 +0.00    +0.029 A  
DOCKED: ATOM     21  C   UNL     1     -39.943 -21.864  12.884 -0.01 +0.00    +0.140 A  
DOCKED: ATOM     22  C   UNL     1     -38.794 -22.379  12.284 -0.03 +0.00    +0.029 A  
DOCKED: ATOM     23  F   UNL     1     -40.080 -21.911  14.216 +0.00 -0.00    -0.204 F  
DOCKED: ATOM     24  C   UNL     1     -38.652 -22.331  10.896 -0.07 +0.00    +0.001 A  
DOCKED: ENDBRANCH   2  18
DOCKED: TORSDOF 5
DOCKED: TER
DOCKED: ENDMDL
________________________________________________________________________________


    FINAL DOCKED STATE:
    ________________________


Run:   403 / 512
Time taken for this run:   0.002s

DOCKED: MODEL        403
DOCKED: USER    Run = 403
DOCKED: USER
DOCKED: USER    Estimated Free Energy of Binding    =  -4.01 kcal/mol  [=(1)+(2)+(3)-(4)]
DOCKED: USER
DOCKED: USER    (1) Final Intermolecular Energy     =  -5.50 kcal/mol
DOCKED: USER        vdW + Hbond + desolv Energy     =  -5.50 kcal/mol
DOCKED: USER        Electrostatic Energy            =  +0.00 kcal/mol
DOCKED: USER        Moving Ligand-Fixed Receptor    =  -5.50 kcal/mol
DOCKED: USER        Moving Ligand-Moving Receptor   =  +0.00 kcal/mol
DOCKED: USER    (2) Final Total Internal Energy     =  -1.47 kcal/mol
DOCKED: USER    (3) Torsional Free Energy           =  +1.49 kcal/mol
DOCKED: USER    (4) Unbound System's Energy         =  -1.47 kcal/mol
DOCKED: USER
DOCKED: USER
DOCKED: REMARK  5 active torsions:
DOCKED: REMARK  status: ('A' for Active; 'I' for Inactive)
DOCKED: REMARK    1  A    between atoms: C_2  and  C_19 
DOCKED: REMARK    2  A    between atoms: C_2  and  C_11 
DOCKED: REMARK    3  A    between atoms: C_19  and  C_20 
DOCKED: REMARK    4  A    between atoms: C_20  and  C_21 
DOCKED: REMARK    5  A    between atoms: C_21  and  N_22 
DOCKED: USER                              x       y       z     vdW  Elec       q    Type
DOCKED: USER                           _______ _______ _______ _____ _____    ______ ____
DOCKED: ROOT
DOCKED: ATOM      1  O   UNL     1     -32.427 -22.895  -0.936 +0.01 -0.00    -0.346 OA 
DOCKED: ATOM      2  C   UNL     1     -33.403 -21.987  -0.331 -0.06 +0.00    +0.130 C  
DOCKED: ATOM      3  C   UNL     1     -34.071 -22.826   0.720 -0.11 +0.00    +0.004 A  
DOCKED: ATOM      4  C   UNL     1     -33.456 -24.068   0.787 -0.10 +0.00    +0.006 A  
DOCKED: ATOM      5  C   UNL     1     -32.347 -24.133  -0.192 -0.03 +0.00    +0.169 C  
DOCKED: ATOM      6  C   UNL     1     -35.130 -22.511   1.558 -0.19 -0.00    -0.001 A  
DOCKED: ATOM      7  C   UNL     1     -33.877 -25.034   1.684 -0.20 +0.00    +0.008 A  
DOCKED: ATOM      8  C   UNL     1     -35.570 -23.477   2.466 -0.29 +0.00    +0.010 A  
DOCKED: ATOM      9  C   UNL     1     -34.947 -24.731   2.528 -0.29 +0.00    +0.068 A  
DOCKED: ATOM     10  N   UNL     1     -35.785 -26.498   4.228 -2.68 -0.00    -0.191 NA 
DOCKED: ATOM     11  C   UNL     1     -35.409 -25.706   3.465 -0.40 +0.00    +0.101 C  
DOCKED: ENDROOT
DOCKED: BRANCH   2  12
DOCKED: ATOM     12  C   UNL     1     -32.657 -20.792   0.249 -0.02 +0.00    +0.038 C  
DOCKED: BRANCH  12  13
DOCKED: ATOM     13  C   UNL     1     -31.715 -21.217   1.375 -0.01 +0.00    +0.038 C  
DOCKED: BRANCH  13  14
DOCKED: ATOM     14  C   UNL     1     -32.195 -20.682   2.723 -0.01 +0.00    +0.251 C  
DOCKED: BRANCH  14  15
DOCKED: ATOM     15  N   UNL     1     -32.808 -21.751   3.503 -0.02 +0.00    +0.141 N  
DOCKED: ATOM     16  C   UNL     1     -31.792 -22.692   3.977 -0.00 +0.00    +0.285 C  
DOCKED: ATOM     17  C   UNL     1     -33.556 -21.199   4.634 -0.03 +0.00    +0.285 C  
DOCKED: ENDBRANCH  14  15
DOCKED: ENDBRANCH  13  14
DOCKED: ENDBRANCH  12  13
DOCKED: ENDBRANCH   2  12
DOCKED: BRANCH   2  18
DOCKED: ATOM     18  C   UNL     1     -34.336 -21.564  -1.416 -0.12 +0.00    +0.006 A  
DOCKED: ATOM     19  C   UNL     1     -35.277 -20.564  -1.176 -0.15 +0.00    +0.001 A  
DOCKED: ATOM     20  C   UNL     1     -36.149 -20.170  -2.191 -0.19 +0.00    +0.029 A  
DOCKED: ATOM     21  C   UNL     1     -36.078 -20.775  -3.445 -0.16 +0.00    +0.140 A  
DOCKED: ATOM     22  C   UNL     1     -35.136 -21.775  -3.685 -0.16 +0.00    +0.029 A  
DOCKED: ATOM     23  F   UNL     1     -36.914 -20.395  -4.421 -0.14 -0.00    -0.204 F  
DOCKED: ATOM     24  C   UNL     1     -34.264 -22.171  -2.670 -0.14 +0.00    +0.001 A  
DOCKED: ENDBRANCH   2  18
DOCKED: TORSDOF 5
DOCKED: TER
DOCKED: ENDMDL
________________________________________________________________________________


    FINAL DOCKED STATE:
    ________________________


Run:   404 / 512
Time taken for this run:   0.002s

DOCKED: MODEL        404
DOCKED: USER    Run = 404
DOCKED: USER
DOCKED: USER    Estimated Free Energy of Binding    =  -4.14 kcal/mol  [=(1)+(2)+(3)-(4)]
DOCKED: USER
DOCKED: USER    (1) Final Intermolecular Energy     =  -5.64 kcal/mol
DOCKED: USER        vdW + Hbond + desolv Energy     =  -5.64 kcal/mol
DOCKED: USER        Electrostatic Energy            =  +0.00 kcal/mol
DOCKED: USER        Moving Ligand-Fixed Receptor    =  -5.64 kcal/mol
DOCKED: USER        Moving Ligand-Moving Receptor   =  +0.00 kcal/mol
DOCKED: USER    (2) Final Total Internal Energy     =  -1.29 kcal/mol
DOCKED: USER    (3) Torsional Free Energy           =  +1.49 kcal/mol
DOCKED: USER    (4) Unbound System's Energy         =  -1.29 kcal/mol
DOCKED: USER
DOCKED: USER
DOCKED: REMARK  5 active torsions:
DOCKED: REMARK  status: ('A' for Active; 'I' for Inactive)
DOCKED: REMARK    1  A    between atoms: C_2  and  C_19 
DOCKED: REMARK    2  A    between atoms: C_2  and  C_11 
DOCKED: REMARK    3  A    between atoms: C_19  and  C_20 
DOCKED: REMARK    4  A    between atoms: C_20  and  C_21 
DOCKED: REMARK    5  A    between atoms: C_21  and  N_22 
DOCKED: USER                              x       y       z     vdW  Elec       q    Type
DOCKED: USER                           _______ _______ _______ _____ _____    ______ ____
DOCKED: ROOT
DOCKED: ATOM      1  O   UNL     1     -40.880 -19.482   6.830 -0.08 -0.00    -0.346 OA 
DOCKED: ATOM      2  C   UNL     1     -42.019 -19.793   7.694 -0.13 +0.00    +0.130 C  
DOCKED: ATOM      3  C   UNL     1     -42.403 -21.189   7.296 -0.20 +0.00    +0.004 A  
DOCKED: ATOM      4  C   UNL     1     -41.495 -21.675   6.366 -0.28 +0.00    +0.006 A  
DOCKED: ATOM      5  C   UNL     1     -40.456 -20.655   6.097 -0.09 +0.00    +0.169 C  
DOCKED: ATOM      6  C   UNL     1     -43.463 -21.970   7.731 -0.15 -0.00    -0.001 A  
DOCKED: ATOM      7  C   UNL     1     -41.617 -22.949   5.838 -0.33 +0.00    +0.008 A  
DOCKED: ATOM      8  C   UNL     1     -43.602 -23.256   7.204 -0.19 +0.00    +0.010 A  
DOCKED: ATOM      9  C   UNL     1     -42.683 -23.742   6.263 -0.26 +0.00    +0.068 A  
DOCKED: ATOM     10  N   UNL     1     -42.967 -26.135   5.310 -2.58 -0.00    -0.191 NA 
DOCKED: ATOM     11  C   UNL     1     -42.840 -25.061   5.737 -0.35 +0.00    +0.101 C  
DOCKED: ENDROOT
DOCKED: BRANCH   2  12
DOCKED: ATOM     12  C   UNL     1     -41.566 -19.693   9.146 -0.04 +0.00    +0.038 C  
DOCKED: BRANCH  12  13
DOCKED: ATOM     13  C   UNL     1     -40.438 -18.675   9.308 -0.03 +0.00    +0.038 C  
DOCKED: BRANCH  13  14
DOCKED: ATOM     14  C   UNL     1     -39.079 -19.368   9.380 -0.01 +0.00    +0.251 C  
DOCKED: BRANCH  14  15
DOCKED: ATOM     15  N   UNL     1     -38.233 -18.941   8.272 -0.03 +0.00    +0.141 N  
DOCKED: ATOM     16  C   UNL     1     -37.454 -17.759   8.644 -0.00 +0.00    +0.285 C  
DOCKED: ATOM     17  C   UNL     1     -37.341 -20.026   7.857 -0.06 +0.00    +0.285 C  
DOCKED: ENDBRANCH  14  15
DOCKED: ENDBRANCH  13  14
DOCKED: ENDBRANCH  12  13
DOCKED: ENDBRANCH   2  12
DOCKED: BRANCH   2  18
DOCKED: ATOM     18  C   UNL     1     -43.082 -18.790   7.392 -0.16 +0.00    +0.006 A  
DOCKED: ATOM     19  C   UNL     1     -44.272 -18.794   8.119 -0.10 +0.00    +0.001 A  
DOCKED: ATOM     20  C   UNL     1     -45.265 -17.856   7.836 -0.10 +0.00    +0.029 A  
DOCKED: ATOM     21  C   UNL     1     -45.067 -16.915   6.827 -0.10 +0.00    +0.140 A  
DOCKED: ATOM     22  C   UNL     1     -43.877 -16.910   6.100 -0.17 +0.00    +0.029 A  
DOCKED: ATOM     23  F   UNL     1     -46.019 -16.013   6.556 +0.00 -0.00    -0.204 F  
DOCKED: ATOM     24  C   UNL     1     -42.883 -17.849   6.382 -0.19 +0.00    +0.001 A  
DOCKED: ENDBRANCH   2  18
DOCKED: TORSDOF 5
DOCKED: TER
DOCKED: ENDMDL
________________________________________________________________________________


    FINAL DOCKED STATE:
    ________________________


Run:   405 / 512
Time taken for this run:   0.002s

DOCKED: MODEL        405
DOCKED: USER    Run = 405
DOCKED: USER
DOCKED: USER    Estimated Free Energy of Binding    =  -5.75 kcal/mol  [=(1)+(2)+(3)-(4)]
DOCKED: USER
DOCKED: USER    (1) Final Intermolecular Energy     =  -7.24 kcal/mol
DOCKED: USER        vdW + Hbond + desolv Energy     =  -7.24 kcal/mol
DOCKED: USER        Electrostatic Energy            =  +0.00 kcal/mol
DOCKED: USER        Moving Ligand-Fixed Receptor    =  -7.24 kcal/mol
DOCKED: USER        Moving Ligand-Moving Receptor   =  +0.00 kcal/mol
DOCKED: USER    (2) Final Total Internal Energy     =  -1.49 kcal/mol
DOCKED: USER    (3) Torsional Free Energy           =  +1.49 kcal/mol
DOCKED: USER    (4) Unbound System's Energy         =  -1.49 kcal/mol
DOCKED: USER
DOCKED: USER
DOCKED: REMARK  5 active torsions:
DOCKED: REMARK  status: ('A' for Active; 'I' for Inactive)
DOCKED: REMARK    1  A    between atoms: C_2  and  C_19 
DOCKED: REMARK    2  A    between atoms: C_2  and  C_11 
DOCKED: REMARK    3  A    between atoms: C_19  and  C_20 
DOCKED: REMARK    4  A    between atoms: C_20  and  C_21 
DOCKED: REMARK    5  A    between atoms: C_21  and  N_22 
DOCKED: USER                              x       y       z     vdW  Elec       q    Type
DOCKED: USER                           _______ _______ _______ _____ _____    ______ ____
DOCKED: ROOT
DOCKED: ATOM      1  O   UNL     1     -40.836 -21.852   7.777 -0.06 -0.00    -0.346 OA 
DOCKED: ATOM      2  C   UNL     1     -40.687 -23.308   7.817 -0.23 +0.00    +0.130 C  
DOCKED: ATOM      3  C   UNL     1     -41.261 -23.764   6.507 -0.34 +0.00    +0.004 A  
DOCKED: ATOM      4  C   UNL     1     -41.606 -22.661   5.739 -0.32 +0.00    +0.006 A  
DOCKED: ATOM      5  C   UNL     1     -41.278 -21.417   6.470 -0.24 +0.00    +0.169 C  
DOCKED: ATOM      6  C   UNL     1     -41.452 -25.052   6.029 -0.40 -0.00    -0.001 A  
DOCKED: ATOM      7  C   UNL     1     -42.154 -22.806   4.476 +0.04 +0.00    +0.008 A  
DOCKED: ATOM      8  C   UNL     1     -42.008 -25.215   4.759 -0.48 +0.00    +0.010 A  
DOCKED: ATOM      9  C   UNL     1     -42.357 -24.097   3.986 -0.40 +0.00    +0.068 A  
DOCKED: ATOM     10  N   UNL     1     -43.382 -24.434   1.631 -3.03 -0.00    -0.191 NA 
DOCKED: ATOM     11  C   UNL     1     -42.923 -24.283   2.687 -0.43 +0.00    +0.101 C  
DOCKED: ENDROOT
DOCKED: BRANCH   2  12
DOCKED: ATOM     12  C   UNL     1     -39.206 -23.637   7.963 -0.19 +0.00    +0.038 C  
DOCKED: BRANCH  12  13
DOCKED: ATOM     13  C   UNL     1     -38.414 -22.431   8.463 -0.19 +0.00    +0.038 C  
DOCKED: BRANCH  13  14
DOCKED: ATOM     14  C   UNL     1     -38.877 -22.008   9.855 -0.06 +0.00    +0.251 C  
DOCKED: BRANCH  14  15
DOCKED: ATOM     15  N   UNL     1     -38.899 -20.554   9.963 -0.02 +0.00    +0.141 N  
DOCKED: ATOM     16  C   UNL     1     -38.453 -19.937   8.712 -0.04 +0.00    +0.285 C  
DOCKED: ATOM     17  C   UNL     1     -40.241 -20.083  10.310 -0.00 +0.00    +0.285 C  
DOCKED: ENDBRANCH  14  15
DOCKED: ENDBRANCH  13  14
DOCKED: ENDBRANCH  12  13
DOCKED: ENDBRANCH   2  12
DOCKED: BRANCH   2  18
DOCKED: ATOM     18  C   UNL     1     -41.465 -23.794   8.994 -0.17 +0.00    +0.006 A  
DOCKED: ATOM     19  C   UNL     1     -41.039 -24.922   9.693 -0.22 +0.00    +0.001 A  
DOCKED: ATOM     20  C   UNL     1     -41.768 -25.376  10.793 -0.18 +0.00    +0.029 A  
DOCKED: ATOM     21  C   UNL     1     -42.921 -24.701  11.192 -0.10 +0.00    +0.140 A  
DOCKED: ATOM     22  C   UNL     1     -43.346 -23.572  10.493 -0.07 +0.00    +0.029 A  
DOCKED: ATOM     23  F   UNL     1     -43.619 -25.136  12.249 -0.02 -0.00    -0.204 F  
DOCKED: ATOM     24  C   UNL     1     -42.618 -23.118   9.392 -0.09 +0.00    +0.001 A  
DOCKED: ENDBRANCH   2  18
DOCKED: TORSDOF 5
DOCKED: TER
DOCKED: ENDMDL
________________________________________________________________________________


    FINAL DOCKED STATE:
    ________________________


Run:   406 / 512
Time taken for this run:   0.002s

DOCKED: MODEL        406
DOCKED: USER    Run = 406
DOCKED: USER
DOCKED: USER    Estimated Free Energy of Binding    =  -4.16 kcal/mol  [=(1)+(2)+(3)-(4)]
DOCKED: USER
DOCKED: USER    (1) Final Intermolecular Energy     =  -5.65 kcal/mol
DOCKED: USER        vdW + Hbond + desolv Energy     =  -5.65 kcal/mol
DOCKED: USER        Electrostatic Energy            =  +0.00 kcal/mol
DOCKED: USER        Moving Ligand-Fixed Receptor    =  -5.65 kcal/mol
DOCKED: USER        Moving Ligand-Moving Receptor   =  +0.00 kcal/mol
DOCKED: USER    (2) Final Total Internal Energy     =  -1.04 kcal/mol
DOCKED: USER    (3) Torsional Free Energy           =  +1.49 kcal/mol
DOCKED: USER    (4) Unbound System's Energy         =  -1.04 kcal/mol
DOCKED: USER
DOCKED: USER
DOCKED: REMARK  5 active torsions:
DOCKED: REMARK  status: ('A' for Active; 'I' for Inactive)
DOCKED: REMARK    1  A    between atoms: C_2  and  C_19 
DOCKED: REMARK    2  A    between atoms: C_2  and  C_11 
DOCKED: REMARK    3  A    between atoms: C_19  and  C_20 
DOCKED: REMARK    4  A    between atoms: C_20  and  C_21 
DOCKED: REMARK    5  A    between atoms: C_21  and  N_22 
DOCKED: USER                              x       y       z     vdW  Elec       q    Type
DOCKED: USER                           _______ _______ _______ _____ _____    ______ ____
DOCKED: ROOT
DOCKED: ATOM      1  O   UNL     1     -45.536 -20.050   7.993 -0.03 -0.00    -0.346 OA 
DOCKED: ATOM      2  C   UNL     1     -44.212 -19.756   7.444 -0.18 +0.00    +0.130 C  
DOCKED: ATOM      3  C   UNL     1     -43.732 -21.084   6.932 -0.22 +0.00    +0.004 A  
DOCKED: ATOM      4  C   UNL     1     -44.737 -22.030   7.076 -0.21 +0.00    +0.006 A  
DOCKED: ATOM      5  C   UNL     1     -45.937 -21.402   7.671 -0.16 +0.00    +0.169 C  
DOCKED: ATOM      6  C   UNL     1     -42.509 -21.424   6.374 -0.23 -0.00    -0.001 A  
DOCKED: ATOM      7  C   UNL     1     -44.554 -23.342   6.673 -0.24 +0.00    +0.008 A  
DOCKED: ATOM      8  C   UNL     1     -42.307 -22.744   5.967 -0.32 +0.00    +0.010 A  
DOCKED: ATOM      9  C   UNL     1     -43.325 -23.698   6.116 -0.25 +0.00    +0.068 A  
DOCKED: ATOM     10  N   UNL     1     -42.919 -26.138   5.345 -2.61 -0.00    -0.191 NA 
DOCKED: ATOM     11  C   UNL     1     -43.101 -25.044   5.692 -0.35 +0.00    +0.101 C  
DOCKED: ENDROOT
DOCKED: BRANCH   2  12
DOCKED: ATOM     12  C   UNL     1     -44.368 -18.716   6.340 -0.19 +0.00    +0.038 C  
DOCKED: BRANCH  12  13
DOCKED: ATOM     13  C   UNL     1     -44.874 -17.387   6.896 -0.17 +0.00    +0.038 C  
DOCKED: BRANCH  13  14
DOCKED: ATOM     14  C   UNL     1     -46.055 -16.864   6.079 -0.12 +0.00    +0.251 C  
DOCKED: BRANCH  14  15
DOCKED: ATOM     15  N   UNL     1     -46.282 -15.452   6.363 -0.09 +0.00    +0.141 N  
DOCKED: ATOM     16  C   UNL     1     -45.407 -14.995   7.444 -0.00 +0.00    +0.285 C  
DOCKED: ATOM     17  C   UNL     1     -46.069 -14.644   5.161 -0.10 +0.00    +0.285 C  
DOCKED: ENDBRANCH  14  15
DOCKED: ENDBRANCH  13  14
DOCKED: ENDBRANCH  12  13
DOCKED: ENDBRANCH   2  12
DOCKED: BRANCH   2  18
DOCKED: ATOM     18  C   UNL     1     -43.381 -19.230   8.566 -0.07 +0.00    +0.006 A  
DOCKED: ATOM     19  C   UNL     1     -42.025 -18.972   8.367 -0.06 +0.00    +0.001 A  
DOCKED: ATOM     20  C   UNL     1     -41.249 -18.481   9.417 -0.02 +0.00    +0.029 A  
DOCKED: ATOM     21  C   UNL     1     -41.829 -18.248  10.663 -0.00 +0.00    +0.140 A  
DOCKED: ATOM     22  C   UNL     1     -43.185 -18.506  10.861 -0.01 +0.00    +0.029 A  
DOCKED: ATOM     23  F   UNL     1     -41.084 -17.774  11.671 +0.00 -0.00    -0.204 F  
DOCKED: ATOM     24  C   UNL     1     -43.962 -18.998   9.811 -0.02 +0.00    +0.001 A  
DOCKED: ENDBRANCH   2  18
DOCKED: TORSDOF 5
DOCKED: TER
DOCKED: ENDMDL
________________________________________________________________________________


    FINAL DOCKED STATE:
    ________________________


Run:   407 / 512
Time taken for this run:   0.002s

DOCKED: MODEL        407
DOCKED: USER    Run = 407
DOCKED: USER
DOCKED: USER    Estimated Free Energy of Binding    =  -6.13 kcal/mol  [=(1)+(2)+(3)-(4)]
DOCKED: USER
DOCKED: USER    (1) Final Intermolecular Energy     =  -7.62 kcal/mol
DOCKED: USER        vdW + Hbond + desolv Energy     =  -7.62 kcal/mol
DOCKED: USER        Electrostatic Energy            =  +0.00 kcal/mol
DOCKED: USER        Moving Ligand-Fixed Receptor    =  -7.62 kcal/mol
DOCKED: USER        Moving Ligand-Moving Receptor   =  +0.00 kcal/mol
DOCKED: USER    (2) Final Total Internal Energy     =  -0.93 kcal/mol
DOCKED: USER    (3) Torsional Free Energy           =  +1.49 kcal/mol
DOCKED: USER    (4) Unbound System's Energy         =  -0.93 kcal/mol
DOCKED: USER
DOCKED: USER
DOCKED: REMARK  5 active torsions:
DOCKED: REMARK  status: ('A' for Active; 'I' for Inactive)
DOCKED: REMARK    1  A    between atoms: C_2  and  C_19 
DOCKED: REMARK    2  A    between atoms: C_2  and  C_11 
DOCKED: REMARK    3  A    between atoms: C_19  and  C_20 
DOCKED: REMARK    4  A    between atoms: C_20  and  C_21 
DOCKED: REMARK    5  A    between atoms: C_21  and  N_22 
DOCKED: USER                              x       y       z     vdW  Elec       q    Type
DOCKED: USER                           _______ _______ _______ _____ _____    ______ ____
DOCKED: ROOT
DOCKED: ATOM      1  O   UNL     1     -40.137 -25.431   7.397 -0.34 -0.00    -0.346 OA 
DOCKED: ATOM      2  C   UNL     1     -41.078 -24.320   7.537 -0.29 +0.00    +0.130 C  
DOCKED: ATOM      3  C   UNL     1     -41.755 -24.250   6.198 -0.38 +0.00    +0.004 A  
DOCKED: ATOM      4  C   UNL     1     -41.319 -25.298   5.400 -0.36 +0.00    +0.006 A  
DOCKED: ATOM      5  C   UNL     1     -40.349 -26.129   6.147 -0.16 +0.00    +0.169 C  
DOCKED: ATOM      6  C   UNL     1     -42.689 -23.339   5.729 -0.35 -0.00    -0.001 A  
DOCKED: ATOM      7  C   UNL     1     -41.795 -25.469   4.112 -0.25 +0.00    +0.008 A  
DOCKED: ATOM      8  C   UNL     1     -43.176 -23.495   4.430 -0.11 +0.00    +0.010 A  
DOCKED: ATOM      9  C   UNL     1     -42.731 -24.555   3.626 -0.47 +0.00    +0.068 A  
DOCKED: ATOM     10  N   UNL     1     -43.659 -24.818   1.221 -3.17 -0.00    -0.191 NA 
DOCKED: ATOM     11  C   UNL     1     -43.242 -24.700   2.299 -0.24 +0.00    +0.101 C  
DOCKED: ENDROOT
DOCKED: BRANCH   2  12
DOCKED: ATOM     12  C   UNL     1     -42.042 -24.644   8.673 -0.26 +0.00    +0.038 C  
DOCKED: BRANCH  12  13
DOCKED: ATOM     13  C   UNL     1     -41.712 -23.841   9.929 -0.16 +0.00    +0.038 C  
DOCKED: BRANCH  13  14
DOCKED: ATOM     14  C   UNL     1     -42.897 -23.816  10.893 -0.05 +0.00    +0.251 C  
DOCKED: BRANCH  14  15
DOCKED: ATOM     15  N   UNL     1     -42.969 -22.531  11.576 -0.02 +0.00    +0.141 N  
DOCKED: ATOM     16  C   UNL     1     -43.412 -21.481  10.657 -0.00 +0.00    +0.285 C  
DOCKED: ATOM     17  C   UNL     1     -43.868 -22.608  12.729 -0.00 +0.00    +0.285 C  
DOCKED: ENDBRANCH  14  15
DOCKED: ENDBRANCH  13  14
DOCKED: ENDBRANCH  12  13
DOCKED: ENDBRANCH   2  12
DOCKED: BRANCH   2  18
DOCKED: ATOM     18  C   UNL     1     -40.273 -23.102   7.846 -0.24 +0.00    +0.006 A  
DOCKED: ATOM     19  C   UNL     1     -40.786 -21.837   7.562 -0.20 +0.00    +0.001 A  
DOCKED: ATOM     20  C   UNL     1     -40.031 -20.699   7.851 -0.13 +0.00    +0.029 A  
DOCKED: ATOM     21  C   UNL     1     -38.766 -20.828   8.423 -0.08 +0.00    +0.140 A  
DOCKED: ATOM     22  C   UNL     1     -38.254 -22.093   8.706 -0.15 +0.00    +0.029 A  
DOCKED: ATOM     23  F   UNL     1     -38.043 -19.735   8.701 -0.01 -0.00    -0.204 F  
DOCKED: ATOM     24  C   UNL     1     -39.008 -23.232   8.417 -0.21 +0.00    +0.001 A  
DOCKED: ENDBRANCH   2  18
DOCKED: TORSDOF 5
DOCKED: TER
DOCKED: ENDMDL
________________________________________________________________________________


    FINAL DOCKED STATE:
    ________________________


Run:   408 / 512
Time taken for this run:   0.002s

DOCKED: MODEL        408
DOCKED: USER    Run = 408
DOCKED: USER
DOCKED: USER    Estimated Free Energy of Binding    =  -4.17 kcal/mol  [=(1)+(2)+(3)-(4)]
DOCKED: USER
DOCKED: USER    (1) Final Intermolecular Energy     =  -5.66 kcal/mol
DOCKED: USER        vdW + Hbond + desolv Energy     =  -5.66 kcal/mol
DOCKED: USER        Electrostatic Energy            =  +0.00 kcal/mol
DOCKED: USER        Moving Ligand-Fixed Receptor    =  -5.66 kcal/mol
DOCKED: USER        Moving Ligand-Moving Receptor   =  +0.00 kcal/mol
DOCKED: USER    (2) Final Total Internal Energy     =  -1.30 kcal/mol
DOCKED: USER    (3) Torsional Free Energy           =  +1.49 kcal/mol
DOCKED: USER    (4) Unbound System's Energy         =  -1.30 kcal/mol
DOCKED: USER
DOCKED: USER
DOCKED: REMARK  5 active torsions:
DOCKED: REMARK  status: ('A' for Active; 'I' for Inactive)
DOCKED: REMARK    1  A    between atoms: C_2  and  C_19 
DOCKED: REMARK    2  A    between atoms: C_2  and  C_11 
DOCKED: REMARK    3  A    between atoms: C_19  and  C_20 
DOCKED: REMARK    4  A    between atoms: C_20  and  C_21 
DOCKED: REMARK    5  A    between atoms: C_21  and  N_22 
DOCKED: USER                              x       y       z     vdW  Elec       q    Type
DOCKED: USER                           _______ _______ _______ _____ _____    ______ ____
DOCKED: ROOT
DOCKED: ATOM      1  O   UNL     1     -39.064 -21.978   9.647 -0.03 -0.00    -0.346 OA 
DOCKED: ATOM      2  C   UNL     1     -39.355 -21.156   8.471 -0.11 +0.00    +0.130 C  
DOCKED: ATOM      3  C   UNL     1     -40.218 -22.041   7.619 -0.21 +0.00    +0.004 A  
DOCKED: ATOM      4  C   UNL     1     -40.488 -23.222   8.296 -0.22 +0.00    +0.006 A  
DOCKED: ATOM      5  C   UNL     1     -39.844 -23.196   9.628 -0.12 +0.00    +0.169 C  
DOCKED: ATOM      6  C   UNL     1     -40.732 -21.815   6.350 -0.15 -0.00    -0.001 A  
DOCKED: ATOM      7  C   UNL     1     -41.272 -24.213   7.731 -0.29 +0.00    +0.008 A  
DOCKED: ATOM      8  C   UNL     1     -41.521 -22.806   5.765 -0.31 +0.00    +0.010 A  
DOCKED: ATOM      9  C   UNL     1     -41.790 -23.999   6.453 -0.31 +0.00    +0.068 A  
DOCKED: ATOM     10  N   UNL     1     -43.263 -25.817   5.340 -2.55 -0.00    -0.191 NA 
DOCKED: ATOM     11  C   UNL     1     -42.602 -25.002   5.839 -0.35 +0.00    +0.101 C  
DOCKED: ENDROOT
DOCKED: BRANCH   2  12
DOCKED: ATOM     12  C   UNL     1     -40.073 -19.893   8.931 -0.05 +0.00    +0.038 C  
DOCKED: BRANCH  12  13
DOCKED: ATOM     13  C   UNL     1     -41.258 -20.224   9.836 -0.03 +0.00    +0.038 C  
DOCKED: BRANCH  13  14
DOCKED: ATOM     14  C   UNL     1     -42.583 -19.945   9.129 -0.02 +0.00    +0.251 C  
DOCKED: BRANCH  14  15
DOCKED: ATOM     15  N   UNL     1     -42.344 -19.415   7.792 -0.09 +0.00    +0.141 N  
DOCKED: ATOM     16  C   UNL     1     -43.415 -19.816   6.878 -0.16 +0.00    +0.285 C  
DOCKED: ATOM     17  C   UNL     1     -42.226 -17.957   7.828 -0.05 +0.00    +0.285 C  
DOCKED: ENDBRANCH  14  15
DOCKED: ENDBRANCH  13  14
DOCKED: ENDBRANCH  12  13
DOCKED: ENDBRANCH   2  12
DOCKED: BRANCH   2  18
DOCKED: ATOM     18  C   UNL     1     -38.047 -20.830   7.832 -0.11 +0.00    +0.006 A  
DOCKED: ATOM     19  C   UNL     1     -37.973 -19.822   6.872 -0.12 +0.00    +0.001 A  
DOCKED: ATOM     20  C   UNL     1     -36.748 -19.518   6.275 -0.10 +0.00    +0.029 A  
DOCKED: ATOM     21  C   UNL     1     -35.601 -20.221   6.639 -0.07 +0.00    +0.140 A  
DOCKED: ATOM     22  C   UNL     1     -35.676 -21.229   7.600 -0.10 +0.00    +0.029 A  
DOCKED: ATOM     23  F   UNL     1     -34.426 -19.927   6.067 -0.01 -0.00    -0.204 F  
DOCKED: ATOM     24  C   UNL     1     -36.900 -21.534   8.197 -0.12 +0.00    +0.001 A  
DOCKED: ENDBRANCH   2  18
DOCKED: TORSDOF 5
DOCKED: TER
DOCKED: ENDMDL
________________________________________________________________________________


    FINAL DOCKED STATE:
    ________________________


Run:   409 / 512
Time taken for this run:   0.002s

DOCKED: MODEL        409
DOCKED: USER    Run = 409
DOCKED: USER
DOCKED: USER    Estimated Free Energy of Binding    =  -3.90 kcal/mol  [=(1)+(2)+(3)-(4)]
DOCKED: USER
DOCKED: USER    (1) Final Intermolecular Energy     =  -5.39 kcal/mol
DOCKED: USER        vdW + Hbond + desolv Energy     =  -5.39 kcal/mol
DOCKED: USER        Electrostatic Energy            =  +0.00 kcal/mol
DOCKED: USER        Moving Ligand-Fixed Receptor    =  -5.39 kcal/mol
DOCKED: USER        Moving Ligand-Moving Receptor   =  +0.00 kcal/mol
DOCKED: USER    (2) Final Total Internal Energy     =  -1.18 kcal/mol
DOCKED: USER    (3) Torsional Free Energy           =  +1.49 kcal/mol
DOCKED: USER    (4) Unbound System's Energy         =  -1.18 kcal/mol
DOCKED: USER
DOCKED: USER
DOCKED: REMARK  5 active torsions:
DOCKED: REMARK  status: ('A' for Active; 'I' for Inactive)
DOCKED: REMARK    1  A    between atoms: C_2  and  C_19 
DOCKED: REMARK    2  A    between atoms: C_2  and  C_11 
DOCKED: REMARK    3  A    between atoms: C_19  and  C_20 
DOCKED: REMARK    4  A    between atoms: C_20  and  C_21 
DOCKED: REMARK    5  A    between atoms: C_21  and  N_22 
DOCKED: USER                              x       y       z     vdW  Elec       q    Type
DOCKED: USER                           _______ _______ _______ _____ _____    ______ ____
DOCKED: ROOT
DOCKED: ATOM      1  O   UNL     1     -35.390 -14.432  -0.578 -0.03 -0.00    -0.346 OA 
DOCKED: ATOM      2  C   UNL     1     -34.813 -13.486  -1.534 -0.07 +0.00    +0.130 C  
DOCKED: ATOM      3  C   UNL     1     -35.949 -13.180  -2.467 -0.13 +0.00    +0.004 A  
DOCKED: ATOM      4  C   UNL     1     -37.103 -13.809  -2.020 -0.19 +0.00    +0.006 A  
DOCKED: ATOM      5  C   UNL     1     -36.818 -14.552  -0.772 -0.13 +0.00    +0.169 C  
DOCKED: ATOM      6  C   UNL     1     -35.963 -12.400  -3.614 -0.14 -0.00    -0.001 A  
DOCKED: ATOM      7  C   UNL     1     -38.301 -13.684  -2.701 -0.31 +0.00    +0.008 A  
DOCKED: ATOM      8  C   UNL     1     -37.163 -12.267  -4.314 -0.27 +0.00    +0.010 A  
DOCKED: ATOM      9  C   UNL     1     -38.326 -12.906  -3.859 -0.34 +0.00    +0.068 A  
DOCKED: ATOM     10  N   UNL     1     -40.539 -12.635  -5.180 -2.56 -0.00    -0.191 NA 
DOCKED: ATOM     11  C   UNL     1     -39.546 -12.757  -4.588 -0.42 +0.00    +0.101 C  
DOCKED: ENDROOT
DOCKED: BRANCH   2  12
DOCKED: ATOM     12  C   UNL     1     -34.329 -12.260  -0.768 -0.11 +0.00    +0.038 C  
DOCKED: BRANCH  12  13
DOCKED: ATOM     13  C   UNL     1     -35.452 -11.243  -0.576 -0.15 +0.00    +0.038 C  
DOCKED: BRANCH  13  14
DOCKED: ATOM     14  C   UNL     1     -35.096  -9.904  -1.219 -0.11 +0.00    +0.251 C  
DOCKED: BRANCH  14  15
DOCKED: ATOM     15  N   UNL     1     -36.015  -9.605  -2.311 -0.14 +0.00    +0.141 N  
DOCKED: ATOM     16  C   UNL     1     -37.302  -9.141  -1.791 -0.18 +0.00    +0.285 C  
DOCKED: ATOM     17  C   UNL     1     -35.440  -8.603  -3.210 -0.06 +0.00    +0.285 C  
DOCKED: ENDBRANCH  14  15
DOCKED: ENDBRANCH  13  14
DOCKED: ENDBRANCH  12  13
DOCKED: ENDBRANCH   2  12
DOCKED: BRANCH   2  18
DOCKED: ATOM     18  C   UNL     1     -33.679 -14.183  -2.207 -0.02 +0.00    +0.006 A  
DOCKED: ATOM     19  C   UNL     1     -32.827 -15.003  -1.467 -0.01 +0.00    +0.001 A  
DOCKED: ATOM     20  C   UNL     1     -31.766 -15.654  -2.098 -0.00 +0.00    +0.029 A  
DOCKED: ATOM     21  C   UNL     1     -31.559 -15.485  -3.466 -0.00 +0.00    +0.140 A  
DOCKED: ATOM     22  C   UNL     1     -32.411 -14.665  -4.206 -0.00 +0.00    +0.029 A  
DOCKED: ATOM     23  F   UNL     1     -30.542 -16.112  -4.072 +0.00 -0.00    -0.204 F  
DOCKED: ATOM     24  C   UNL     1     -33.472 -14.013  -3.576 -0.01 +0.00    +0.001 A  
DOCKED: ENDBRANCH   2  18
DOCKED: TORSDOF 5
DOCKED: TER
DOCKED: ENDMDL
________________________________________________________________________________


    FINAL DOCKED STATE:
    ________________________


Run:   410 / 512
Time taken for this run:   0.002s

DOCKED: MODEL        410
DOCKED: USER    Run = 410
DOCKED: USER
DOCKED: USER    Estimated Free Energy of Binding    =  -5.43 kcal/mol  [=(1)+(2)+(3)-(4)]
DOCKED: USER
DOCKED: USER    (1) Final Intermolecular Energy     =  -6.92 kcal/mol
DOCKED: USER        vdW + Hbond + desolv Energy     =  -6.92 kcal/mol
DOCKED: USER        Electrostatic Energy            =  +0.00 kcal/mol
DOCKED: USER        Moving Ligand-Fixed Receptor    =  -6.92 kcal/mol
DOCKED: USER        Moving Ligand-Moving Receptor   =  +0.00 kcal/mol
DOCKED: USER    (2) Final Total Internal Energy     =  -1.17 kcal/mol
DOCKED: USER    (3) Torsional Free Energy           =  +1.49 kcal/mol
DOCKED: USER    (4) Unbound System's Energy         =  -1.17 kcal/mol
DOCKED: USER
DOCKED: USER
DOCKED: REMARK  5 active torsions:
DOCKED: REMARK  status: ('A' for Active; 'I' for Inactive)
DOCKED: REMARK    1  A    between atoms: C_2  and  C_19 
DOCKED: REMARK    2  A    between atoms: C_2  and  C_11 
DOCKED: REMARK    3  A    between atoms: C_19  and  C_20 
DOCKED: REMARK    4  A    between atoms: C_20  and  C_21 
DOCKED: REMARK    5  A    between atoms: C_21  and  N_22 
DOCKED: USER                              x       y       z     vdW  Elec       q    Type
DOCKED: USER                           _______ _______ _______ _____ _____    ______ ____
DOCKED: ROOT
DOCKED: ATOM      1  O   UNL     1     -41.874 -21.827   7.904 -0.03 -0.00    -0.346 OA 
DOCKED: ATOM      2  C   UNL     1     -41.156 -23.102   7.865 -0.20 +0.00    +0.130 C  
DOCKED: ATOM      3  C   UNL     1     -41.576 -23.712   6.559 -0.34 +0.00    +0.004 A  
DOCKED: ATOM      4  C   UNL     1     -42.375 -22.817   5.862 -0.33 +0.00    +0.006 A  
DOCKED: ATOM      5  C   UNL     1     -42.528 -21.567   6.640 -0.21 +0.00    +0.169 C  
DOCKED: ATOM      6  C   UNL     1     -41.265 -24.954   6.026 -0.42 -0.00    -0.001 A  
DOCKED: ATOM      7  C   UNL     1     -42.893 -23.132   4.617 +0.10 +0.00    +0.008 A  
DOCKED: ATOM      8  C   UNL     1     -41.783 -25.289   4.773 -0.44 +0.00    +0.010 A  
DOCKED: ATOM      9  C   UNL     1     -42.593 -24.382   4.073 -0.45 +0.00    +0.068 A  
DOCKED: ATOM     10  N   UNL     1     -43.534 -25.033   1.748 -2.59 -0.00    -0.191 NA 
DOCKED: ATOM     11  C   UNL     1     -43.113 -24.741   2.791 -0.37 +0.00    +0.101 C  
DOCKED: ENDROOT
DOCKED: BRANCH   2  12
DOCKED: ATOM     12  C   UNL     1     -39.660 -22.815   7.933 -0.24 +0.00    +0.038 C  
DOCKED: BRANCH  12  13
DOCKED: ATOM     13  C   UNL     1     -39.388 -21.337   8.204 -0.15 +0.00    +0.038 C  
DOCKED: BRANCH  13  14
DOCKED: ATOM     14  C   UNL     1     -39.531 -20.509   6.928 -0.13 +0.00    +0.251 C  
DOCKED: BRANCH  14  15
DOCKED: ATOM     15  N   UNL     1     -39.331 -19.094   7.217 -0.08 +0.00    +0.141 N  
DOCKED: ATOM     16  C   UNL     1     -40.229 -18.270   6.406 -0.09 +0.00    +0.285 C  
DOCKED: ATOM     17  C   UNL     1     -39.539 -18.823   8.640 -0.02 +0.00    +0.285 C  
DOCKED: ENDBRANCH  14  15
DOCKED: ENDBRANCH  13  14
DOCKED: ENDBRANCH  12  13
DOCKED: ENDBRANCH   2  12
DOCKED: BRANCH   2  18
DOCKED: ATOM     18  C   UNL     1     -41.606 -23.893   9.048 -0.17 +0.00    +0.006 A  
DOCKED: ATOM     19  C   UNL     1     -42.967 -24.025   9.320 -0.14 +0.00    +0.001 A  
DOCKED: ATOM     20  C   UNL     1     -43.387 -24.765  10.426 -0.14 +0.00    +0.029 A  
DOCKED: ATOM     21  C   UNL     1     -42.446 -25.371  11.258 -0.06 +0.00    +0.140 A  
DOCKED: ATOM     22  C   UNL     1     -41.085 -25.237  10.985 -0.23 +0.00    +0.029 A  
DOCKED: ATOM     23  F   UNL     1     -42.850 -26.082  12.319 -0.03 -0.00    -0.204 F  
DOCKED: ATOM     24  C   UNL     1     -40.664 -24.497   9.879 -0.16 +0.00    +0.001 A  
DOCKED: ENDBRANCH   2  18
DOCKED: TORSDOF 5
DOCKED: TER
DOCKED: ENDMDL
________________________________________________________________________________


    FINAL DOCKED STATE:
    ________________________


Run:   411 / 512
Time taken for this run:   0.002s

DOCKED: MODEL        411
DOCKED: USER    Run = 411
DOCKED: USER
DOCKED: USER    Estimated Free Energy of Binding    =  -3.66 kcal/mol  [=(1)+(2)+(3)-(4)]
DOCKED: USER
DOCKED: USER    (1) Final Intermolecular Energy     =  -5.16 kcal/mol
DOCKED: USER        vdW + Hbond + desolv Energy     =  -5.16 kcal/mol
DOCKED: USER        Electrostatic Energy            =  +0.00 kcal/mol
DOCKED: USER        Moving Ligand-Fixed Receptor    =  -5.16 kcal/mol
DOCKED: USER        Moving Ligand-Moving Receptor   =  +0.00 kcal/mol
DOCKED: USER    (2) Final Total Internal Energy     =  -1.31 kcal/mol
DOCKED: USER    (3) Torsional Free Energy           =  +1.49 kcal/mol
DOCKED: USER    (4) Unbound System's Energy         =  -1.31 kcal/mol
DOCKED: USER
DOCKED: USER
DOCKED: REMARK  5 active torsions:
DOCKED: REMARK  status: ('A' for Active; 'I' for Inactive)
DOCKED: REMARK    1  A    between atoms: C_2  and  C_19 
DOCKED: REMARK    2  A    between atoms: C_2  and  C_11 
DOCKED: REMARK    3  A    between atoms: C_19  and  C_20 
DOCKED: REMARK    4  A    between atoms: C_20  and  C_21 
DOCKED: REMARK    5  A    between atoms: C_21  and  N_22 
DOCKED: USER                              x       y       z     vdW  Elec       q    Type
DOCKED: USER                           _______ _______ _______ _____ _____    ______ ____
DOCKED: ROOT
DOCKED: ATOM      1  O   UNL     1     -33.533 -20.216   1.747 +0.00 -0.00    -0.346 OA 
DOCKED: ATOM      2  C   UNL     1     -34.987 -20.308   1.614 -0.06 +0.00    +0.130 C  
DOCKED: ATOM      3  C   UNL     1     -35.292 -21.733   1.975 -0.18 +0.00    +0.004 A  
DOCKED: ATOM      4  C   UNL     1     -34.130 -22.370   2.385 -0.10 +0.00    +0.006 A  
DOCKED: ATOM      5  C   UNL     1     -32.994 -21.422   2.338 -0.02 +0.00    +0.169 C  
DOCKED: ATOM      6  C   UNL     1     -36.504 -22.409   1.954 -0.31 -0.00    -0.001 A  
DOCKED: ATOM      7  C   UNL     1     -34.136 -23.697   2.781 -0.17 +0.00    +0.008 A  
DOCKED: ATOM      8  C   UNL     1     -36.526 -23.748   2.346 -0.19 +0.00    +0.010 A  
DOCKED: ATOM      9  C   UNL     1     -35.348 -24.388   2.758 -0.30 +0.00    +0.068 A  
DOCKED: ATOM     10  N   UNL     1     -35.424 -26.874   3.484 -2.14 -0.00    -0.191 NA 
DOCKED: ATOM     11  C   UNL     1     -35.390 -25.759   3.158 -0.42 +0.00    +0.101 C  
DOCKED: ENDROOT
DOCKED: BRANCH   2  12
DOCKED: ATOM     12  C   UNL     1     -35.623 -19.305   2.569 -0.07 +0.00    +0.038 C  
DOCKED: BRANCH  12  13
DOCKED: ATOM     13  C   UNL     1     -35.800 -19.899   3.965 -0.12 +0.00    +0.038 C  
DOCKED: BRANCH  13  14
DOCKED: ATOM     14  C   UNL     1     -34.669 -19.463   4.895 -0.03 +0.00    +0.251 C  
DOCKED: BRANCH  14  15
DOCKED: ATOM     15  N   UNL     1     -34.526 -20.406   5.998 -0.05 +0.00    +0.141 N  
DOCKED: ATOM     16  C   UNL     1     -35.456 -20.080   7.080 -0.05 +0.00    +0.285 C  
DOCKED: ATOM     17  C   UNL     1     -34.747 -21.777   5.535 -0.07 +0.00    +0.285 C  
DOCKED: ENDBRANCH  14  15
DOCKED: ENDBRANCH  13  14
DOCKED: ENDBRANCH  12  13
DOCKED: ENDBRANCH   2  12
DOCKED: BRANCH   2  18
DOCKED: ATOM     18  C   UNL     1     -35.317 -19.984   0.195 -0.10 +0.00    +0.006 A  
DOCKED: ATOM     19  C   UNL     1     -34.771 -20.744  -0.838 -0.11 +0.00    +0.001 A  
DOCKED: ATOM     20  C   UNL     1     -35.080 -20.440  -2.164 -0.14 +0.00    +0.029 A  
DOCKED: ATOM     21  C   UNL     1     -35.934 -19.378  -2.455 -0.16 +0.00    +0.140 A  
DOCKED: ATOM     22  C   UNL     1     -36.481 -18.618  -1.421 -0.16 +0.00    +0.029 A  
DOCKED: ATOM     23  F   UNL     1     -36.232 -19.088  -3.728 -0.07 -0.00    -0.204 F  
DOCKED: ATOM     24  C   UNL     1     -36.172 -18.921  -0.094 -0.12 +0.00    +0.001 A  
DOCKED: ENDBRANCH   2  18
DOCKED: TORSDOF 5
DOCKED: TER
DOCKED: ENDMDL
________________________________________________________________________________


    FINAL DOCKED STATE:
    ________________________


Run:   412 / 512
Time taken for this run:   0.002s

DOCKED: MODEL        412
DOCKED: USER    Run = 412
DOCKED: USER
DOCKED: USER    Estimated Free Energy of Binding    =  -5.73 kcal/mol  [=(1)+(2)+(3)-(4)]
DOCKED: USER
DOCKED: USER    (1) Final Intermolecular Energy     =  -7.22 kcal/mol
DOCKED: USER        vdW + Hbond + desolv Energy     =  -7.22 kcal/mol
DOCKED: USER        Electrostatic Energy            =  +0.00 kcal/mol
DOCKED: USER        Moving Ligand-Fixed Receptor    =  -7.22 kcal/mol
DOCKED: USER        Moving Ligand-Moving Receptor   =  +0.00 kcal/mol
DOCKED: USER    (2) Final Total Internal Energy     =  -1.19 kcal/mol
DOCKED: USER    (3) Torsional Free Energy           =  +1.49 kcal/mol
DOCKED: USER    (4) Unbound System's Energy         =  -1.19 kcal/mol
DOCKED: USER
DOCKED: USER
DOCKED: REMARK  5 active torsions:
DOCKED: REMARK  status: ('A' for Active; 'I' for Inactive)
DOCKED: REMARK    1  A    between atoms: C_2  and  C_19 
DOCKED: REMARK    2  A    between atoms: C_2  and  C_11 
DOCKED: REMARK    3  A    between atoms: C_19  and  C_20 
DOCKED: REMARK    4  A    between atoms: C_20  and  C_21 
DOCKED: REMARK    5  A    between atoms: C_21  and  N_22 
DOCKED: USER                              x       y       z     vdW  Elec       q    Type
DOCKED: USER                           _______ _______ _______ _____ _____    ______ ____
DOCKED: ROOT
DOCKED: ATOM      1  O   UNL     1     -40.583 -24.590   7.813 -0.17 -0.00    -0.346 OA 
DOCKED: ATOM      2  C   UNL     1     -41.943 -24.059   7.928 -0.20 +0.00    +0.130 C  
DOCKED: ATOM      3  C   UNL     1     -42.471 -24.118   6.525 -0.31 +0.00    +0.004 A  
DOCKED: ATOM      4  C   UNL     1     -41.539 -24.730   5.699 -0.43 +0.00    +0.006 A  
DOCKED: ATOM      5  C   UNL     1     -40.351 -25.125   6.490 -0.22 +0.00    +0.169 C  
DOCKED: ATOM      6  C   UNL     1     -43.685 -23.675   6.020 -0.29 -0.00    -0.001 A  
DOCKED: ATOM      7  C   UNL     1     -41.783 -24.916   4.349 -0.35 +0.00    +0.008 A  
DOCKED: ATOM      8  C   UNL     1     -43.945 -23.851   4.660 -0.27 +0.00    +0.010 A  
DOCKED: ATOM      9  C   UNL     1     -42.999 -24.469   3.829 -0.43 +0.00    +0.068 A  
DOCKED: ATOM     10  N   UNL     1     -43.514 -24.786   1.310 -3.04 -0.00    -0.191 NA 
DOCKED: ATOM     11  C   UNL     1     -43.283 -24.643   2.440 -0.29 +0.00    +0.101 C  
DOCKED: ENDROOT
DOCKED: BRANCH   2  12
DOCKED: ATOM     12  C   UNL     1     -42.725 -24.941   8.895 -0.26 +0.00    +0.038 C  
DOCKED: BRANCH  12  13
DOCKED: ATOM     13  C   UNL     1     -41.790 -25.743   9.798 -0.02 +0.00    +0.038 C  
DOCKED: BRANCH  13  14
DOCKED: ATOM     14  C   UNL     1     -41.961 -25.340  11.261 -0.11 +0.00    +0.251 C  
DOCKED: BRANCH  14  15
DOCKED: ATOM     15  N   UNL     1     -40.683 -25.407  11.959 -0.19 +0.00    +0.141 N  
DOCKED: ATOM     16  C   UNL     1     -39.726 -24.466  11.375 -0.07 +0.00    +0.285 C  
DOCKED: ATOM     17  C   UNL     1     -40.858 -25.132  13.386 -0.07 +0.00    +0.285 C  
DOCKED: ENDBRANCH  14  15
DOCKED: ENDBRANCH  13  14
DOCKED: ENDBRANCH  12  13
DOCKED: ENDBRANCH   2  12
DOCKED: BRANCH   2  18
DOCKED: ATOM     18  C   UNL     1     -41.824 -22.665   8.448 -0.12 +0.00    +0.006 A  
DOCKED: ATOM     19  C   UNL     1     -41.631 -21.606   7.562 -0.18 +0.00    +0.001 A  
DOCKED: ATOM     20  C   UNL     1     -41.520 -20.303   8.048 -0.10 +0.00    +0.029 A  
DOCKED: ATOM     21  C   UNL     1     -41.603 -20.061   9.419 -0.02 +0.00    +0.140 A  
DOCKED: ATOM     22  C   UNL     1     -41.796 -21.121  10.304 -0.02 +0.00    +0.029 A  
DOCKED: ATOM     23  F   UNL     1     -41.498 -18.810   9.886 +0.00 -0.00    -0.204 F  
DOCKED: ATOM     24  C   UNL     1     -41.907 -22.425   9.818 -0.06 +0.00    +0.001 A  
DOCKED: ENDBRANCH   2  18
DOCKED: TORSDOF 5
DOCKED: TER
DOCKED: ENDMDL
________________________________________________________________________________


    FINAL DOCKED STATE:
    ________________________


Run:   413 / 512
Time taken for this run:   0.002s

DOCKED: MODEL        413
DOCKED: USER    Run = 413
DOCKED: USER
DOCKED: USER    Estimated Free Energy of Binding    =  -3.88 kcal/mol  [=(1)+(2)+(3)-(4)]
DOCKED: USER
DOCKED: USER    (1) Final Intermolecular Energy     =  -5.37 kcal/mol
DOCKED: USER        vdW + Hbond + desolv Energy     =  -5.37 kcal/mol
DOCKED: USER        Electrostatic Energy            =  +0.00 kcal/mol
DOCKED: USER        Moving Ligand-Fixed Receptor    =  -5.37 kcal/mol
DOCKED: USER        Moving Ligand-Moving Receptor   =  +0.00 kcal/mol
DOCKED: USER    (2) Final Total Internal Energy     =  -1.19 kcal/mol
DOCKED: USER    (3) Torsional Free Energy           =  +1.49 kcal/mol
DOCKED: USER    (4) Unbound System's Energy         =  -1.19 kcal/mol
DOCKED: USER
DOCKED: USER
DOCKED: REMARK  5 active torsions:
DOCKED: REMARK  status: ('A' for Active; 'I' for Inactive)
DOCKED: REMARK    1  A    between atoms: C_2  and  C_19 
DOCKED: REMARK    2  A    between atoms: C_2  and  C_11 
DOCKED: REMARK    3  A    between atoms: C_19  and  C_20 
DOCKED: REMARK    4  A    between atoms: C_20  and  C_21 
DOCKED: REMARK    5  A    between atoms: C_21  and  N_22 
DOCKED: USER                              x       y       z     vdW  Elec       q    Type
DOCKED: USER                           _______ _______ _______ _____ _____    ______ ____
DOCKED: ROOT
DOCKED: ATOM      1  O   UNL     1     -33.944 -11.219  -5.949 -0.03 -0.00    -0.346 OA 
DOCKED: ATOM      2  C   UNL     1     -34.167 -11.177  -4.503 -0.08 +0.00    +0.130 C  
DOCKED: ATOM      3  C   UNL     1     -35.616 -11.541  -4.352 -0.16 +0.00    +0.004 A  
DOCKED: ATOM      4  C   UNL     1     -36.146 -11.871  -5.592 -0.20 +0.00    +0.006 A  
DOCKED: ATOM      5  C   UNL     1     -35.099 -11.761  -6.632 -0.10 +0.00    +0.169 C  
DOCKED: ATOM      6  C   UNL     1     -36.399 -11.589  -3.208 -0.12 -0.00    -0.001 A  
DOCKED: ATOM      7  C   UNL     1     -37.470 -12.252  -5.731 -0.30 +0.00    +0.008 A  
DOCKED: ATOM      8  C   UNL     1     -37.736 -11.968  -3.332 -0.31 +0.00    +0.010 A  
DOCKED: ATOM      9  C   UNL     1     -38.269 -12.298  -4.588 -0.35 +0.00    +0.068 A  
DOCKED: ATOM     10  N   UNL     1     -40.755 -13.002  -4.783 -2.50 -0.00    -0.191 NA 
DOCKED: ATOM     11  C   UNL     1     -39.640 -12.686  -4.695 -0.38 +0.00    +0.101 C  
DOCKED: ENDROOT
DOCKED: BRANCH   2  12
DOCKED: ATOM     12  C   UNL     1     -33.231 -12.181  -3.841 -0.03 +0.00    +0.038 C  
DOCKED: BRANCH  12  13
DOCKED: ATOM     13  C   UNL     1     -33.188 -11.987  -2.327 -0.03 +0.00    +0.038 C  
DOCKED: BRANCH  13  14
DOCKED: ATOM     14  C   UNL     1     -33.661 -13.244  -1.599 -0.02 +0.00    +0.251 C  
DOCKED: BRANCH  14  15
DOCKED: ATOM     15  N   UNL     1     -34.897 -12.975  -0.873 -0.10 +0.00    +0.141 N  
DOCKED: ATOM     16  C   UNL     1     -35.123 -13.992   0.155 -0.09 +0.00    +0.285 C  
DOCKED: ATOM     17  C   UNL     1     -34.860 -11.642  -0.269 -0.08 +0.00    +0.285 C  
DOCKED: ENDBRANCH  14  15
DOCKED: ENDBRANCH  13  14
DOCKED: ENDBRANCH  12  13
DOCKED: ENDBRANCH   2  12
DOCKED: BRANCH   2  18
DOCKED: ATOM     18  C   UNL     1     -33.868  -9.785  -4.056 -0.10 +0.00    +0.006 A  
DOCKED: ATOM     19  C   UNL     1     -34.876  -9.002  -3.496 -0.15 +0.00    +0.001 A  
DOCKED: ATOM     20  C   UNL     1     -34.595  -7.700  -3.078 -0.13 +0.00    +0.029 A  
DOCKED: ATOM     21  C   UNL     1     -33.308  -7.185  -3.220 -0.03 +0.00    +0.140 A  
DOCKED: ATOM     22  C   UNL     1     -32.300  -7.969  -3.780 -0.03 +0.00    +0.029 A  
DOCKED: ATOM     23  F   UNL     1     -33.038  -5.936  -2.818 +0.01 -0.00    -0.204 F  
DOCKED: ATOM     24  C   UNL     1     -32.580  -9.271  -4.199 -0.05 +0.00    +0.001 A  
DOCKED: ENDBRANCH   2  18
DOCKED: TORSDOF 5
DOCKED: TER
DOCKED: ENDMDL
________________________________________________________________________________


    FINAL DOCKED STATE:
    ________________________


Run:   414 / 512
Time taken for this run:   0.002s

DOCKED: MODEL        414
DOCKED: USER    Run = 414
DOCKED: USER
DOCKED: USER    Estimated Free Energy of Binding    =  -5.35 kcal/mol  [=(1)+(2)+(3)-(4)]
DOCKED: USER
DOCKED: USER    (1) Final Intermolecular Energy     =  -6.84 kcal/mol
DOCKED: USER        vdW + Hbond + desolv Energy     =  -6.84 kcal/mol
DOCKED: USER        Electrostatic Energy            =  +0.00 kcal/mol
DOCKED: USER        Moving Ligand-Fixed Receptor    =  -6.84 kcal/mol
DOCKED: USER        Moving Ligand-Moving Receptor   =  +0.00 kcal/mol
DOCKED: USER    (2) Final Total Internal Energy     =  -1.49 kcal/mol
DOCKED: USER    (3) Torsional Free Energy           =  +1.49 kcal/mol
DOCKED: USER    (4) Unbound System's Energy         =  -1.49 kcal/mol
DOCKED: USER
DOCKED: USER
DOCKED: REMARK  5 active torsions:
DOCKED: REMARK  status: ('A' for Active; 'I' for Inactive)
DOCKED: REMARK    1  A    between atoms: C_2  and  C_19 
DOCKED: REMARK    2  A    between atoms: C_2  and  C_11 
DOCKED: REMARK    3  A    between atoms: C_19  and  C_20 
DOCKED: REMARK    4  A    between atoms: C_20  and  C_21 
DOCKED: REMARK    5  A    between atoms: C_21  and  N_22 
DOCKED: USER                              x       y       z     vdW  Elec       q    Type
DOCKED: USER                           _______ _______ _______ _____ _____    ______ ____
DOCKED: ROOT
DOCKED: ATOM      1  O   UNL     1     -41.047 -23.763   8.055 -0.08 -0.00    -0.346 OA 
DOCKED: ATOM      2  C   UNL     1     -42.496 -23.964   8.118 -0.16 +0.00    +0.130 C  
DOCKED: ATOM      3  C   UNL     1     -42.901 -24.114   6.680 -0.27 +0.00    +0.004 A  
DOCKED: ATOM      4  C   UNL     1     -41.772 -24.111   5.874 -0.39 +0.00    +0.006 A  
DOCKED: ATOM      5  C   UNL     1     -40.558 -23.973   6.710 -0.23 +0.00    +0.169 C  
DOCKED: ATOM      6  C   UNL     1     -44.167 -24.254   6.131 -0.30 -0.00    -0.001 A  
DOCKED: ATOM      7  C   UNL     1     -41.868 -24.241   4.499 -0.29 +0.00    +0.008 A  
DOCKED: ATOM      8  C   UNL     1     -44.281 -24.382   4.746 -0.33 +0.00    +0.010 A  
DOCKED: ATOM      9  C   UNL     1     -43.137 -24.377   3.934 -0.41 +0.00    +0.068 A  
DOCKED: ATOM     10  N   UNL     1     -43.383 -24.623   1.367 -3.07 -0.00    -0.191 NA 
DOCKED: ATOM     11  C   UNL     1     -43.273 -24.512   2.518 -0.28 +0.00    +0.101 C  
DOCKED: ENDROOT
DOCKED: BRANCH   2  12
DOCKED: ATOM     12  C   UNL     1     -42.774 -25.213   8.946 -0.26 +0.00    +0.038 C  
DOCKED: BRANCH  12  13
DOCKED: ATOM     13  C   UNL     1     -41.744 -25.382  10.062 -0.24 +0.00    +0.038 C  
DOCKED: BRANCH  13  14
DOCKED: ATOM     14  C   UNL     1     -42.054 -24.461  11.240 -0.09 +0.00    +0.251 C  
DOCKED: BRANCH  14  15
DOCKED: ATOM     15  N   UNL     1     -40.857 -23.731  11.642 -0.07 +0.00    +0.141 N  
DOCKED: ATOM     16  C   UNL     1     -39.730 -24.069  10.771 -0.02 +0.00    +0.285 C  
DOCKED: ATOM     17  C   UNL     1     -41.102 -22.288  11.618 -0.01 +0.00    +0.285 C  
DOCKED: ENDBRANCH  14  15
DOCKED: ENDBRANCH  13  14
DOCKED: ENDBRANCH  12  13
DOCKED: ENDBRANCH   2  12
DOCKED: BRANCH   2  18
DOCKED: ATOM     18  C   UNL     1     -43.077 -22.750   8.762 -0.09 +0.00    +0.006 A  
DOCKED: ATOM     19  C   UNL     1     -42.441 -21.516   8.624 -0.08 +0.00    +0.001 A  
DOCKED: ATOM     20  C   UNL     1     -42.986 -20.382   9.228 -0.04 +0.00    +0.029 A  
DOCKED: ATOM     21  C   UNL     1     -44.163 -20.482   9.967 -0.01 +0.00    +0.140 A  
DOCKED: ATOM     22  C   UNL     1     -44.798 -21.716  10.104 -0.03 +0.00    +0.029 A  
DOCKED: ATOM     23  F   UNL     1     -44.686 -19.393  10.545 +0.01 -0.00    -0.204 F  
DOCKED: ATOM     24  C   UNL     1     -44.254 -22.852   9.502 -0.07 +0.00    +0.001 A  
DOCKED: ENDBRANCH   2  18
DOCKED: TORSDOF 5
DOCKED: TER
DOCKED: ENDMDL
________________________________________________________________________________


    FINAL DOCKED STATE:
    ________________________


Run:   415 / 512
Time taken for this run:   0.002s

DOCKED: MODEL        415
DOCKED: USER    Run = 415
DOCKED: USER
DOCKED: USER    Estimated Free Energy of Binding    =  -4.76 kcal/mol  [=(1)+(2)+(3)-(4)]
DOCKED: USER
DOCKED: USER    (1) Final Intermolecular Energy     =  -6.25 kcal/mol
DOCKED: USER        vdW + Hbond + desolv Energy     =  -6.25 kcal/mol
DOCKED: USER        Electrostatic Energy            =  +0.00 kcal/mol
DOCKED: USER        Moving Ligand-Fixed Receptor    =  -6.25 kcal/mol
DOCKED: USER        Moving Ligand-Moving Receptor   =  +0.00 kcal/mol
DOCKED: USER    (2) Final Total Internal Energy     =  -1.28 kcal/mol
DOCKED: USER    (3) Torsional Free Energy           =  +1.49 kcal/mol
DOCKED: USER    (4) Unbound System's Energy         =  -1.28 kcal/mol
DOCKED: USER
DOCKED: USER
DOCKED: REMARK  5 active torsions:
DOCKED: REMARK  status: ('A' for Active; 'I' for Inactive)
DOCKED: REMARK    1  A    between atoms: C_2  and  C_19 
DOCKED: REMARK    2  A    between atoms: C_2  and  C_11 
DOCKED: REMARK    3  A    between atoms: C_19  and  C_20 
DOCKED: REMARK    4  A    between atoms: C_20  and  C_21 
DOCKED: REMARK    5  A    between atoms: C_21  and  N_22 
DOCKED: USER                              x       y       z     vdW  Elec       q    Type
DOCKED: USER                           _______ _______ _______ _____ _____    ______ ____
DOCKED: ROOT
DOCKED: ATOM      1  O   UNL     1     -44.673 -22.804   8.272 -0.00 -0.00    -0.346 OA 
DOCKED: ATOM      2  C   UNL     1     -43.225 -22.740   8.073 -0.11 +0.00    +0.130 C  
DOCKED: ATOM      3  C   UNL     1     -43.034 -23.220   6.663 -0.25 +0.00    +0.004 A  
DOCKED: ATOM      4  C   UNL     1     -44.271 -23.433   6.071 -0.27 +0.00    +0.006 A  
DOCKED: ATOM      5  C   UNL     1     -45.350 -23.103   7.029 -0.17 +0.00    +0.169 C  
DOCKED: ATOM      6  C   UNL     1     -41.860 -23.438   5.957 -0.37 -0.00    -0.001 A  
DOCKED: ATOM      7  C   UNL     1     -44.377 -23.875   4.764 -0.26 +0.00    +0.008 A  
DOCKED: ATOM      8  C   UNL     1     -41.951 -23.888   4.639 -0.31 +0.00    +0.010 A  
DOCKED: ATOM      9  C   UNL     1     -43.203 -24.104   4.045 -0.37 +0.00    +0.068 A  
DOCKED: ATOM     10  N   UNL     1     -43.336 -24.933   1.594 -2.70 -0.00    -0.191 NA 
DOCKED: ATOM     11  C   UNL     1     -43.276 -24.562   2.694 -0.28 +0.00    +0.101 C  
DOCKED: ENDROOT
DOCKED: BRANCH   2  12
DOCKED: ATOM     12  C   UNL     1     -42.773 -21.298   8.275 -0.11 +0.00    +0.038 C  
DOCKED: BRANCH  12  13
DOCKED: ATOM     13  C   UNL     1     -42.859 -20.889   9.744 -0.04 +0.00    +0.038 C  
DOCKED: BRANCH  13  14
DOCKED: ATOM     14  C   UNL     1     -41.602 -20.138  10.180 -0.01 +0.00    +0.251 C  
DOCKED: BRANCH  14  15
DOCKED: ATOM     15  N   UNL     1     -40.489 -21.066  10.348 -0.02 +0.00    +0.141 N  
DOCKED: ATOM     16  C   UNL     1     -39.475 -20.847   9.316 -0.03 +0.00    +0.285 C  
DOCKED: ATOM     17  C   UNL     1     -39.897 -20.926  11.679 -0.00 +0.00    +0.285 C  
DOCKED: ENDBRANCH  14  15
DOCKED: ENDBRANCH  13  14
DOCKED: ENDBRANCH  12  13
DOCKED: ENDBRANCH   2  12
DOCKED: BRANCH   2  18
DOCKED: ATOM     18  C   UNL     1     -42.605 -23.645   9.084 -0.13 +0.00    +0.006 A  
DOCKED: ATOM     19  C   UNL     1     -43.407 -24.301  10.017 -0.14 +0.00    +0.001 A  
DOCKED: ATOM     20  C   UNL     1     -42.826 -25.147  10.962 -0.11 +0.00    +0.029 A  
DOCKED: ATOM     21  C   UNL     1     -41.445 -25.336  10.974 -0.17 +0.00    +0.140 A  
DOCKED: ATOM     22  C   UNL     1     -40.643 -24.680  10.040 -0.12 +0.00    +0.029 A  
DOCKED: ATOM     23  F   UNL     1     -40.888 -26.150  11.880 -0.10 -0.00    -0.204 F  
DOCKED: ATOM     24  C   UNL     1     -41.223 -23.833   9.094 -0.18 +0.00    +0.001 A  
DOCKED: ENDBRANCH   2  18
DOCKED: TORSDOF 5
DOCKED: TER
DOCKED: ENDMDL
________________________________________________________________________________


    FINAL DOCKED STATE:
    ________________________


Run:   416 / 512
Time taken for this run:   0.002s

DOCKED: MODEL        416
DOCKED: USER    Run = 416
DOCKED: USER
DOCKED: USER    Estimated Free Energy of Binding    =  -3.61 kcal/mol  [=(1)+(2)+(3)-(4)]
DOCKED: USER
DOCKED: USER    (1) Final Intermolecular Energy     =  -5.10 kcal/mol
DOCKED: USER        vdW + Hbond + desolv Energy     =  -5.10 kcal/mol
DOCKED: USER        Electrostatic Energy            =  +0.00 kcal/mol
DOCKED: USER        Moving Ligand-Fixed Receptor    =  -5.10 kcal/mol
DOCKED: USER        Moving Ligand-Moving Receptor   =  +0.00 kcal/mol
DOCKED: USER    (2) Final Total Internal Energy     =  -1.36 kcal/mol
DOCKED: USER    (3) Torsional Free Energy           =  +1.49 kcal/mol
DOCKED: USER    (4) Unbound System's Energy         =  -1.36 kcal/mol
DOCKED: USER
DOCKED: USER
DOCKED: REMARK  5 active torsions:
DOCKED: REMARK  status: ('A' for Active; 'I' for Inactive)
DOCKED: REMARK    1  A    between atoms: C_2  and  C_19 
DOCKED: REMARK    2  A    between atoms: C_2  and  C_11 
DOCKED: REMARK    3  A    between atoms: C_19  and  C_20 
DOCKED: REMARK    4  A    between atoms: C_20  and  C_21 
DOCKED: REMARK    5  A    between atoms: C_21  and  N_22 
DOCKED: USER                              x       y       z     vdW  Elec       q    Type
DOCKED: USER                           _______ _______ _______ _____ _____    ______ ____
DOCKED: ROOT
DOCKED: ATOM      1  O   UNL     1     -34.661 -21.652  -0.667 -0.01 -0.00    -0.346 OA 
DOCKED: ATOM      2  C   UNL     1     -34.762 -20.997   0.638 -0.09 +0.00    +0.130 C  
DOCKED: ATOM      3  C   UNL     1     -34.991 -22.131   1.593 -0.16 +0.00    +0.004 A  
DOCKED: ATOM      4  C   UNL     1     -34.918 -23.338   0.912 -0.18 +0.00    +0.006 A  
DOCKED: ATOM      5  C   UNL     1     -34.626 -23.091  -0.518 +0.10 +0.00    +0.169 C  
DOCKED: ATOM      6  C   UNL     1     -35.234 -22.099   2.959 -0.19 -0.00    -0.001 A  
DOCKED: ATOM      7  C   UNL     1     -35.088 -24.546   1.566 -0.28 +0.00    +0.008 A  
DOCKED: ATOM      8  C   UNL     1     -35.413 -23.309   3.632 -0.13 +0.00    +0.010 A  
DOCKED: ATOM      9  C   UNL     1     -35.340 -24.526   2.938 -0.31 +0.00    +0.068 A  
DOCKED: ATOM     10  N   UNL     1     -35.670 -26.754   4.219 -2.43 -0.00    -0.191 NA 
DOCKED: ATOM     11  C   UNL     1     -35.523 -25.755   3.644 -0.32 +0.00    +0.101 C  
DOCKED: ENDROOT
DOCKED: BRANCH   2  12
DOCKED: ATOM     12  C   UNL     1     -33.460 -20.251   0.904 -0.03 +0.00    +0.038 C  
DOCKED: BRANCH  12  13
DOCKED: ATOM     13  C   UNL     1     -32.297 -21.218   1.119 -0.02 +0.00    +0.038 C  
DOCKED: BRANCH  13  14
DOCKED: ATOM     14  C   UNL     1     -31.368 -20.724   2.227 -0.00 +0.00    +0.251 C  
DOCKED: BRANCH  14  15
DOCKED: ATOM     15  N   UNL     1     -31.399 -21.640   3.361 -0.01 +0.00    +0.141 N  
DOCKED: ATOM     16  C   UNL     1     -32.318 -21.155   4.392 -0.01 +0.00    +0.285 C  
DOCKED: ATOM     17  C   UNL     1     -31.785 -22.984   2.928 -0.00 +0.00    +0.285 C  
DOCKED: ENDBRANCH  14  15
DOCKED: ENDBRANCH  13  14
DOCKED: ENDBRANCH  12  13
DOCKED: ENDBRANCH   2  12
DOCKED: BRANCH   2  18
DOCKED: ATOM     18  C   UNL     1     -35.917 -20.055   0.565 -0.14 +0.00    +0.006 A  
DOCKED: ATOM     19  C   UNL     1     -37.193 -20.488   0.922 -0.28 +0.00    +0.001 A  
DOCKED: ATOM     20  C   UNL     1     -38.272 -19.606   0.853 -0.23 +0.00    +0.029 A  
DOCKED: ATOM     21  C   UNL     1     -38.074 -18.293   0.428 -0.15 +0.00    +0.140 A  
DOCKED: ATOM     22  C   UNL     1     -36.797 -17.860   0.072 -0.10 +0.00    +0.029 A  
DOCKED: ATOM     23  F   UNL     1     -39.110 -17.447   0.364 -0.07 -0.00    -0.204 F  
DOCKED: ATOM     24  C   UNL     1     -35.717 -18.742   0.140 -0.07 +0.00    +0.001 A  
DOCKED: ENDBRANCH   2  18
DOCKED: TORSDOF 5
DOCKED: TER
DOCKED: ENDMDL
________________________________________________________________________________


    FINAL DOCKED STATE:
    ________________________


Run:   417 / 512
Time taken for this run:   0.002s

DOCKED: MODEL        417
DOCKED: USER    Run = 417
DOCKED: USER
DOCKED: USER    Estimated Free Energy of Binding    =  -5.34 kcal/mol  [=(1)+(2)+(3)-(4)]
DOCKED: USER
DOCKED: USER    (1) Final Intermolecular Energy     =  -6.84 kcal/mol
DOCKED: USER        vdW + Hbond + desolv Energy     =  -6.84 kcal/mol
DOCKED: USER        Electrostatic Energy            =  +0.00 kcal/mol
DOCKED: USER        Moving Ligand-Fixed Receptor    =  -6.84 kcal/mol
DOCKED: USER        Moving Ligand-Moving Receptor   =  +0.00 kcal/mol
DOCKED: USER    (2) Final Total Internal Energy     =  -1.52 kcal/mol
DOCKED: USER    (3) Torsional Free Energy           =  +1.49 kcal/mol
DOCKED: USER    (4) Unbound System's Energy         =  -1.52 kcal/mol
DOCKED: USER
DOCKED: USER
DOCKED: REMARK  5 active torsions:
DOCKED: REMARK  status: ('A' for Active; 'I' for Inactive)
DOCKED: REMARK    1  A    between atoms: C_2  and  C_19 
DOCKED: REMARK    2  A    between atoms: C_2  and  C_11 
DOCKED: REMARK    3  A    between atoms: C_19  and  C_20 
DOCKED: REMARK    4  A    between atoms: C_20  and  C_21 
DOCKED: REMARK    5  A    between atoms: C_21  and  N_22 
DOCKED: USER                              x       y       z     vdW  Elec       q    Type
DOCKED: USER                           _______ _______ _______ _____ _____    ______ ____
DOCKED: ROOT
DOCKED: ATOM      1  O   UNL     1     -41.042 -23.090   8.269 -0.05 -0.00    -0.346 OA 
DOCKED: ATOM      2  C   UNL     1     -42.221 -23.954   8.347 -0.16 +0.00    +0.130 C  
DOCKED: ATOM      3  C   UNL     1     -42.634 -24.129   6.915 -0.26 +0.00    +0.004 A  
DOCKED: ATOM      4  C   UNL     1     -41.710 -23.512   6.083 -0.36 +0.00    +0.006 A  
DOCKED: ATOM      5  C   UNL     1     -40.630 -22.906   6.894 -0.22 +0.00    +0.169 C  
DOCKED: ATOM      6  C   UNL     1     -43.734 -24.790   6.389 -0.22 -0.00    -0.001 A  
DOCKED: ATOM      7  C   UNL     1     -41.854 -23.531   4.706 -0.22 +0.00    +0.008 A  
DOCKED: ATOM      8  C   UNL     1     -43.895 -24.815   5.002 -0.39 +0.00    +0.010 A  
DOCKED: ATOM      9  C   UNL     1     -42.960 -24.189   4.166 -0.41 +0.00    +0.068 A  
DOCKED: ATOM     10  N   UNL     1     -43.287 -24.258   1.596 -3.18 -0.00    -0.191 NA 
DOCKED: ATOM     11  C   UNL     1     -43.140 -24.226   2.749 -0.33 +0.00    +0.101 C  
DOCKED: ENDROOT
DOCKED: BRANCH   2  12
DOCKED: ATOM     12  C   UNL     1     -41.816 -25.264   9.012 -0.31 +0.00    +0.038 C  
DOCKED: BRANCH  12  13
DOCKED: ATOM     13  C   UNL     1     -40.794 -25.032  10.124 -0.15 +0.00    +0.038 C  
DOCKED: BRANCH  13  14
DOCKED: ATOM     14  C   UNL     1     -41.437 -25.179  11.501 -0.15 +0.00    +0.251 C  
DOCKED: BRANCH  14  15
DOCKED: ATOM     15  N   UNL     1     -41.274 -23.952  12.271 -0.06 +0.00    +0.141 N  
DOCKED: ATOM     16  C   UNL     1     -40.572 -22.938  11.483 -0.03 +0.00    +0.285 C  
DOCKED: ATOM     17  C   UNL     1     -42.574 -23.442  12.712 -0.01 +0.00    +0.285 C  
DOCKED: ENDBRANCH  14  15
DOCKED: ENDBRANCH  13  14
DOCKED: ENDBRANCH  12  13
DOCKED: ENDBRANCH   2  12
DOCKED: BRANCH   2  18
DOCKED: ATOM     18  C   UNL     1     -43.239 -23.228   9.162 -0.09 +0.00    +0.006 A  
DOCKED: ATOM     19  C   UNL     1     -44.320 -23.922   9.704 -0.11 +0.00    +0.001 A  
DOCKED: ATOM     20  C   UNL     1     -45.272 -23.243  10.465 -0.05 +0.00    +0.029 A  
DOCKED: ATOM     21  C   UNL     1     -45.141 -21.872  10.684 -0.01 +0.00    +0.140 A  
DOCKED: ATOM     22  C   UNL     1     -44.059 -21.179  10.142 -0.02 +0.00    +0.029 A  
DOCKED: ATOM     23  F   UNL     1     -46.054 -21.221  11.416 +0.01 -0.00    -0.204 F  
DOCKED: ATOM     24  C   UNL     1     -43.107 -21.858   9.380 -0.06 +0.00    +0.001 A  
DOCKED: ENDBRANCH   2  18
DOCKED: TORSDOF 5
DOCKED: TER
DOCKED: ENDMDL
________________________________________________________________________________


    FINAL DOCKED STATE:
    ________________________


Run:   418 / 512
Time taken for this run:   0.002s

DOCKED: MODEL        418
DOCKED: USER    Run = 418
DOCKED: USER
DOCKED: USER    Estimated Free Energy of Binding    =  -4.33 kcal/mol  [=(1)+(2)+(3)-(4)]
DOCKED: USER
DOCKED: USER    (1) Final Intermolecular Energy     =  -5.82 kcal/mol
DOCKED: USER        vdW + Hbond + desolv Energy     =  -5.82 kcal/mol
DOCKED: USER        Electrostatic Energy            =  +0.00 kcal/mol
DOCKED: USER        Moving Ligand-Fixed Receptor    =  -5.82 kcal/mol
DOCKED: USER        Moving Ligand-Moving Receptor   =  +0.00 kcal/mol
DOCKED: USER    (2) Final Total Internal Energy     =  -1.17 kcal/mol
DOCKED: USER    (3) Torsional Free Energy           =  +1.49 kcal/mol
DOCKED: USER    (4) Unbound System's Energy         =  -1.17 kcal/mol
DOCKED: USER
DOCKED: USER
DOCKED: REMARK  5 active torsions:
DOCKED: REMARK  status: ('A' for Active; 'I' for Inactive)
DOCKED: REMARK    1  A    between atoms: C_2  and  C_19 
DOCKED: REMARK    2  A    between atoms: C_2  and  C_11 
DOCKED: REMARK    3  A    between atoms: C_19  and  C_20 
DOCKED: REMARK    4  A    between atoms: C_20  and  C_21 
DOCKED: REMARK    5  A    between atoms: C_21  and  N_22 
DOCKED: USER                              x       y       z     vdW  Elec       q    Type
DOCKED: USER                           _______ _______ _______ _____ _____    ______ ____
DOCKED: ROOT
DOCKED: ATOM      1  O   UNL     1     -38.359 -16.145   0.607 -0.06 -0.00    -0.346 OA 
DOCKED: ATOM      2  C   UNL     1     -37.137 -15.618  -0.001 -0.13 +0.00    +0.130 C  
DOCKED: ATOM      3  C   UNL     1     -37.630 -14.865  -1.203 -0.21 +0.00    +0.004 A  
DOCKED: ATOM      4  C   UNL     1     -39.017 -14.868  -1.219 -0.30 +0.00    +0.006 A  
DOCKED: ATOM      5  C   UNL     1     -39.532 -15.600  -0.040 -0.25 +0.00    +0.169 C  
DOCKED: ATOM      6  C   UNL     1     -36.908 -14.219  -2.196 -0.17 -0.00    -0.001 A  
DOCKED: ATOM      7  C   UNL     1     -39.727 -14.234  -2.224 -0.32 +0.00    +0.008 A  
DOCKED: ATOM      8  C   UNL     1     -37.610 -13.579  -3.219 -0.25 +0.00    +0.010 A  
DOCKED: ATOM      9  C   UNL     1     -39.012 -13.586  -3.232 -0.33 +0.00    +0.068 A  
DOCKED: ATOM     10  N   UNL     1     -40.284 -12.383  -5.143 -2.40 -0.00    -0.191 NA 
DOCKED: ATOM     11  C   UNL     1     -39.714 -12.923  -4.286 -0.40 +0.00    +0.101 C  
DOCKED: ENDROOT
DOCKED: BRANCH   2  12
DOCKED: ATOM     12  C   UNL     1     -36.439 -14.722   1.015 -0.15 +0.00    +0.038 C  
DOCKED: BRANCH  12  13
DOCKED: ATOM     13  C   UNL     1     -36.341 -15.400   2.380 -0.11 +0.00    +0.038 C  
DOCKED: BRANCH  13  14
DOCKED: ATOM     14  C   UNL     1     -36.707 -14.431   3.503 -0.08 +0.00    +0.251 C  
DOCKED: BRANCH  14  15
DOCKED: ATOM     15  N   UNL     1     -37.897 -14.895   4.206 -0.08 +0.00    +0.141 N  
DOCKED: ATOM     16  C   UNL     1     -38.258 -13.966   5.278 -0.07 +0.00    +0.285 C  
DOCKED: ATOM     17  C   UNL     1     -39.015 -15.056   3.275 -0.12 +0.00    +0.285 C  
DOCKED: ENDBRANCH  14  15
DOCKED: ENDBRANCH  13  14
DOCKED: ENDBRANCH  12  13
DOCKED: ENDBRANCH   2  12
DOCKED: BRANCH   2  18
DOCKED: ATOM     18  C   UNL     1     -36.286 -16.791  -0.358 -0.07 +0.00    +0.006 A  
DOCKED: ATOM     19  C   UNL     1     -36.793 -18.083  -0.234 -0.12 +0.00    +0.001 A  
DOCKED: ATOM     20  C   UNL     1     -35.996 -19.179  -0.568 -0.13 +0.00    +0.029 A  
DOCKED: ATOM     21  C   UNL     1     -34.695 -18.981  -1.026 -0.03 +0.00    +0.140 A  
DOCKED: ATOM     22  C   UNL     1     -34.188 -17.688  -1.151 -0.01 +0.00    +0.029 A  
DOCKED: ATOM     23  F   UNL     1     -33.931 -20.033  -1.348 -0.00 -0.00    -0.204 F  
DOCKED: ATOM     24  C   UNL     1     -34.984 -16.591  -0.816 -0.02 +0.00    +0.001 A  
DOCKED: ENDBRANCH   2  18
DOCKED: TORSDOF 5
DOCKED: TER
DOCKED: ENDMDL
________________________________________________________________________________


    FINAL DOCKED STATE:
    ________________________


Run:   419 / 512
Time taken for this run:   0.002s

DOCKED: MODEL        419
DOCKED: USER    Run = 419
DOCKED: USER
DOCKED: USER    Estimated Free Energy of Binding    =  -4.27 kcal/mol  [=(1)+(2)+(3)-(4)]
DOCKED: USER
DOCKED: USER    (1) Final Intermolecular Energy     =  -5.76 kcal/mol
DOCKED: USER        vdW + Hbond + desolv Energy     =  -5.76 kcal/mol
DOCKED: USER        Electrostatic Energy            =  +0.00 kcal/mol
DOCKED: USER        Moving Ligand-Fixed Receptor    =  -5.76 kcal/mol
DOCKED: USER        Moving Ligand-Moving Receptor   =  +0.00 kcal/mol
DOCKED: USER    (2) Final Total Internal Energy     =  -1.37 kcal/mol
DOCKED: USER    (3) Torsional Free Energy           =  +1.49 kcal/mol
DOCKED: USER    (4) Unbound System's Energy         =  -1.37 kcal/mol
DOCKED: USER
DOCKED: USER
DOCKED: REMARK  5 active torsions:
DOCKED: REMARK  status: ('A' for Active; 'I' for Inactive)
DOCKED: REMARK    1  A    between atoms: C_2  and  C_19 
DOCKED: REMARK    2  A    between atoms: C_2  and  C_11 
DOCKED: REMARK    3  A    between atoms: C_19  and  C_20 
DOCKED: REMARK    4  A    between atoms: C_20  and  C_21 
DOCKED: REMARK    5  A    between atoms: C_21  and  N_22 
DOCKED: USER                              x       y       z     vdW  Elec       q    Type
DOCKED: USER                           _______ _______ _______ _____ _____    ______ ____
DOCKED: ROOT
DOCKED: ATOM      1  O   UNL     1     -41.150 -19.267   7.432 -0.04 -0.00    -0.346 OA 
DOCKED: ATOM      2  C   UNL     1     -42.608 -19.309   7.550 -0.14 +0.00    +0.130 C  
DOCKED: ATOM      3  C   UNL     1     -42.967 -20.689   7.079 -0.22 +0.00    +0.004 A  
DOCKED: ATOM      4  C   UNL     1     -41.809 -21.410   6.821 -0.25 +0.00    +0.006 A  
DOCKED: ATOM      5  C   UNL     1     -40.622 -20.574   7.110 -0.17 +0.00    +0.169 C  
DOCKED: ATOM      6  C   UNL     1     -44.217 -21.265   6.905 -0.22 -0.00    -0.001 A  
DOCKED: ATOM      7  C   UNL     1     -41.860 -22.720   6.378 -0.32 +0.00    +0.008 A  
DOCKED: ATOM      8  C   UNL     1     -44.285 -22.584   6.455 -0.22 +0.00    +0.010 A  
DOCKED: ATOM      9  C   UNL     1     -43.112 -23.308   6.193 -0.24 +0.00    +0.068 A  
DOCKED: ATOM     10  N   UNL     1     -43.274 -25.757   5.363 -2.55 -0.00    -0.191 NA 
DOCKED: ATOM     11  C   UNL     1     -43.201 -24.659   5.735 -0.35 +0.00    +0.101 C  
DOCKED: ENDROOT
DOCKED: BRANCH   2  12
DOCKED: ATOM     12  C   UNL     1     -42.982 -19.063   9.007 -0.05 +0.00    +0.038 C  
DOCKED: BRANCH  12  13
DOCKED: ATOM     13  C   UNL     1     -42.206 -19.987   9.944 -0.02 +0.00    +0.038 C  
DOCKED: BRANCH  13  14
DOCKED: ATOM     14  C   UNL     1     -43.092 -20.478  11.088 -0.00 +0.00    +0.251 C  
DOCKED: BRANCH  14  15
DOCKED: ATOM     15  N   UNL     1     -43.290 -21.919  10.994 -0.01 +0.00    +0.141 N  
DOCKED: ATOM     16  C   UNL     1     -44.415 -22.229  10.110 -0.00 +0.00    +0.285 C  
DOCKED: ATOM     17  C   UNL     1     -42.073 -22.577  10.515 -0.02 +0.00    +0.285 C  
DOCKED: ENDBRANCH  14  15
DOCKED: ENDBRANCH  13  14
DOCKED: ENDBRANCH  12  13
DOCKED: ENDBRANCH   2  12
DOCKED: BRANCH   2  18
DOCKED: ATOM     18  C   UNL     1     -43.149 -18.235   6.666 -0.20 +0.00    +0.006 A  
DOCKED: ATOM     19  C   UNL     1     -42.283 -17.481   5.876 -0.16 +0.00    +0.001 A  
DOCKED: ATOM     20  C   UNL     1     -42.790 -16.477   5.050 -0.14 +0.00    +0.029 A  
DOCKED: ATOM     21  C   UNL     1     -44.161 -16.228   5.017 -0.08 +0.00    +0.140 A  
DOCKED: ATOM     22  C   UNL     1     -45.027 -16.983   5.808 -0.12 +0.00    +0.029 A  
DOCKED: ATOM     23  F   UNL     1     -44.648 -15.265   4.223 -0.03 -0.00    -0.204 F  
DOCKED: ATOM     24  C   UNL     1     -44.521 -17.987   6.634 -0.20 +0.00    +0.001 A  
DOCKED: ENDBRANCH   2  18
DOCKED: TORSDOF 5
DOCKED: TER
DOCKED: ENDMDL
________________________________________________________________________________


    FINAL DOCKED STATE:
    ________________________


Run:   420 / 512
Time taken for this run:   0.002s

DOCKED: MODEL        420
DOCKED: USER    Run = 420
DOCKED: USER
DOCKED: USER    Estimated Free Energy of Binding    =  -3.91 kcal/mol  [=(1)+(2)+(3)-(4)]
DOCKED: USER
DOCKED: USER    (1) Final Intermolecular Energy     =  -5.40 kcal/mol
DOCKED: USER        vdW + Hbond + desolv Energy     =  -5.40 kcal/mol
DOCKED: USER        Electrostatic Energy            =  +0.00 kcal/mol
DOCKED: USER        Moving Ligand-Fixed Receptor    =  -5.40 kcal/mol
DOCKED: USER        Moving Ligand-Moving Receptor   =  +0.00 kcal/mol
DOCKED: USER    (2) Final Total Internal Energy     =  -1.27 kcal/mol
DOCKED: USER    (3) Torsional Free Energy           =  +1.49 kcal/mol
DOCKED: USER    (4) Unbound System's Energy         =  -1.27 kcal/mol
DOCKED: USER
DOCKED: USER
DOCKED: REMARK  5 active torsions:
DOCKED: REMARK  status: ('A' for Active; 'I' for Inactive)
DOCKED: REMARK    1  A    between atoms: C_2  and  C_19 
DOCKED: REMARK    2  A    between atoms: C_2  and  C_11 
DOCKED: REMARK    3  A    between atoms: C_19  and  C_20 
DOCKED: REMARK    4  A    between atoms: C_20  and  C_21 
DOCKED: REMARK    5  A    between atoms: C_21  and  N_22 
DOCKED: USER                              x       y       z     vdW  Elec       q    Type
DOCKED: USER                           _______ _______ _______ _____ _____    ______ ____
DOCKED: ROOT
DOCKED: ATOM      1  O   UNL     1     -41.867 -20.855   9.670 -0.00 -0.00    -0.346 OA 
DOCKED: ATOM      2  C   UNL     1     -41.485 -20.358   8.348 -0.08 +0.00    +0.130 C  
DOCKED: ATOM      3  C   UNL     1     -41.728 -21.528   7.440 -0.19 +0.00    +0.004 A  
DOCKED: ATOM      4  C   UNL     1     -42.302 -22.566   8.159 -0.13 +0.00    +0.006 A  
DOCKED: ATOM      5  C   UNL     1     -42.489 -22.157   9.569 -0.04 +0.00    +0.169 C  
DOCKED: ATOM      6  C   UNL     1     -41.471 -21.659   6.083 -0.27 -0.00    -0.001 A  
DOCKED: ATOM      7  C   UNL     1     -42.634 -23.766   7.553 -0.20 +0.00    +0.008 A  
DOCKED: ATOM      8  C   UNL     1     -41.797 -22.864   5.458 -0.34 +0.00    +0.010 A  
DOCKED: ATOM      9  C   UNL     1     -42.376 -23.912   6.189 -0.29 +0.00    +0.068 A  
DOCKED: ATOM     10  N   UNL     1     -42.972 -26.134   4.998 -2.39 -0.00    -0.191 NA 
DOCKED: ATOM     11  C   UNL     1     -42.704 -25.138   5.532 -0.37 +0.00    +0.101 C  
DOCKED: ENDROOT
DOCKED: BRANCH   2  12
DOCKED: ATOM     12  C   UNL     1     -42.360 -19.155   8.013 -0.10 +0.00    +0.038 C  
DOCKED: BRANCH  12  13
DOCKED: ATOM     13  C   UNL     1     -43.842 -19.476   8.197 -0.11 +0.00    +0.038 C  
DOCKED: BRANCH  13  14
DOCKED: ATOM     14  C   UNL     1     -44.427 -20.110   6.936 -0.17 +0.00    +0.251 C  
DOCKED: BRANCH  14  15
DOCKED: ATOM     15  N   UNL     1     -45.789 -20.569   7.184 -0.18 +0.00    +0.141 N  
DOCKED: ATOM     16  C   UNL     1     -45.968 -21.940   6.704 -0.13 +0.00    +0.285 C  
DOCKED: ATOM     17  C   UNL     1     -46.109 -20.485   8.610 -0.03 +0.00    +0.285 C  
DOCKED: ENDBRANCH  14  15
DOCKED: ENDBRANCH  13  14
DOCKED: ENDBRANCH  12  13
DOCKED: ENDBRANCH   2  12
DOCKED: BRANCH   2  18
DOCKED: ATOM     18  C   UNL     1     -40.046 -19.971   8.426 -0.07 +0.00    +0.006 A  
DOCKED: ATOM     19  C   UNL     1     -39.064 -20.838   7.948 -0.13 +0.00    +0.001 A  
DOCKED: ATOM     20  C   UNL     1     -37.719 -20.476   8.022 -0.10 +0.00    +0.029 A  
DOCKED: ATOM     21  C   UNL     1     -37.357 -19.247   8.574 -0.03 +0.00    +0.140 A  
DOCKED: ATOM     22  C   UNL     1     -38.339 -18.380   9.052 -0.02 +0.00    +0.029 A  
DOCKED: ATOM     23  F   UNL     1     -36.066 -18.899   8.643 -0.00 -0.00    -0.204 F  
DOCKED: ATOM     24  C   UNL     1     -39.685 -18.742   8.978 -0.03 +0.00    +0.001 A  
DOCKED: ENDBRANCH   2  18
DOCKED: TORSDOF 5
DOCKED: TER
DOCKED: ENDMDL
________________________________________________________________________________


    FINAL DOCKED STATE:
    ________________________


Run:   421 / 512
Time taken for this run:   0.002s

DOCKED: MODEL        421
DOCKED: USER    Run = 421
DOCKED: USER
DOCKED: USER    Estimated Free Energy of Binding    =  -4.45 kcal/mol  [=(1)+(2)+(3)-(4)]
DOCKED: USER
DOCKED: USER    (1) Final Intermolecular Energy     =  -5.94 kcal/mol
DOCKED: USER        vdW + Hbond + desolv Energy     =  -5.94 kcal/mol
DOCKED: USER        Electrostatic Energy            =  +0.00 kcal/mol
DOCKED: USER        Moving Ligand-Fixed Receptor    =  -5.94 kcal/mol
DOCKED: USER        Moving Ligand-Moving Receptor   =  +0.00 kcal/mol
DOCKED: USER    (2) Final Total Internal Energy     =  -1.23 kcal/mol
DOCKED: USER    (3) Torsional Free Energy           =  +1.49 kcal/mol
DOCKED: USER    (4) Unbound System's Energy         =  -1.23 kcal/mol
DOCKED: USER
DOCKED: USER
DOCKED: REMARK  5 active torsions:
DOCKED: REMARK  status: ('A' for Active; 'I' for Inactive)
DOCKED: REMARK    1  A    between atoms: C_2  and  C_19 
DOCKED: REMARK    2  A    between atoms: C_2  and  C_11 
DOCKED: REMARK    3  A    between atoms: C_19  and  C_20 
DOCKED: REMARK    4  A    between atoms: C_20  and  C_21 
DOCKED: REMARK    5  A    between atoms: C_21  and  N_22 
DOCKED: USER                              x       y       z     vdW  Elec       q    Type
DOCKED: USER                           _______ _______ _______ _____ _____    ______ ____
DOCKED: ROOT
DOCKED: ATOM      1  O   UNL     1     -41.212 -19.403   6.920 -0.07 -0.00    -0.346 OA 
DOCKED: ATOM      2  C   UNL     1     -42.512 -19.657   7.542 -0.15 +0.00    +0.130 C  
DOCKED: ATOM      3  C   UNL     1     -42.830 -21.070   7.146 -0.21 +0.00    +0.004 A  
DOCKED: ATOM      4  C   UNL     1     -41.758 -21.613   6.453 -0.28 +0.00    +0.006 A  
DOCKED: ATOM      5  C   UNL     1     -40.668 -20.618   6.354 -0.18 +0.00    +0.169 C  
DOCKED: ATOM      6  C   UNL     1     -43.973 -21.818   7.391 -0.19 -0.00    -0.001 A  
DOCKED: ATOM      7  C   UNL     1     -41.792 -22.913   5.978 -0.35 +0.00    +0.008 A  
DOCKED: ATOM      8  C   UNL     1     -44.024 -23.129   6.915 -0.21 +0.00    +0.010 A  
DOCKED: ATOM      9  C   UNL     1     -42.938 -23.674   6.212 -0.25 +0.00    +0.068 A  
DOCKED: ATOM     10  N   UNL     1     -43.063 -26.113   5.347 -2.58 -0.00    -0.191 NA 
DOCKED: ATOM     11  C   UNL     1     -43.007 -25.019   5.734 -0.36 +0.00    +0.101 C  
DOCKED: ENDROOT
DOCKED: BRANCH   2  12
DOCKED: ATOM     12  C   UNL     1     -42.368 -19.481   9.049 -0.05 +0.00    +0.038 C  
DOCKED: BRANCH  12  13
DOCKED: ATOM     13  C   UNL     1     -41.782 -20.732   9.702 -0.04 +0.00    +0.038 C  
DOCKED: BRANCH  13  14
DOCKED: ATOM     14  C   UNL     1     -40.276 -20.587   9.913 -0.01 +0.00    +0.251 C  
DOCKED: BRANCH  14  15
DOCKED: ATOM     15  N   UNL     1     -39.820 -19.288   9.435 -0.02 +0.00    +0.141 N  
DOCKED: ATOM     16  C   UNL     1     -39.631 -18.363  10.553 -0.00 +0.00    +0.285 C  
DOCKED: ATOM     17  C   UNL     1     -38.576 -19.426   8.676 -0.03 +0.00    +0.285 C  
DOCKED: ENDBRANCH  14  15
DOCKED: ENDBRANCH  13  14
DOCKED: ENDBRANCH  12  13
DOCKED: ENDBRANCH   2  12
DOCKED: BRANCH   2  18
DOCKED: ATOM     18  C   UNL     1     -43.470 -18.664   6.973 -0.20 +0.00    +0.006 A  
DOCKED: ATOM     19  C   UNL     1     -44.790 -19.034   6.723 -0.23 +0.00    +0.001 A  
DOCKED: ATOM     20  C   UNL     1     -45.684 -18.104   6.190 -0.12 +0.00    +0.029 A  
DOCKED: ATOM     21  C   UNL     1     -45.257 -16.807   5.910 -0.11 +0.00    +0.140 A  
DOCKED: ATOM     22  C   UNL     1     -43.936 -16.438   6.162 -0.14 +0.00    +0.029 A  
DOCKED: ATOM     23  F   UNL     1     -46.117 -15.915   5.401 -0.02 -0.00    -0.204 F  
DOCKED: ATOM     24  C   UNL     1     -43.041 -17.367   6.694 -0.16 +0.00    +0.001 A  
DOCKED: ENDBRANCH   2  18
DOCKED: TORSDOF 5
DOCKED: TER
DOCKED: ENDMDL
________________________________________________________________________________


    FINAL DOCKED STATE:
    ________________________


Run:   422 / 512
Time taken for this run:   0.002s

DOCKED: MODEL        422
DOCKED: USER    Run = 422
DOCKED: USER
DOCKED: USER    Estimated Free Energy of Binding    =  -4.79 kcal/mol  [=(1)+(2)+(3)-(4)]
DOCKED: USER
DOCKED: USER    (1) Final Intermolecular Energy     =  -6.28 kcal/mol
DOCKED: USER        vdW + Hbond + desolv Energy     =  -6.28 kcal/mol
DOCKED: USER        Electrostatic Energy            =  +0.00 kcal/mol
DOCKED: USER        Moving Ligand-Fixed Receptor    =  -6.28 kcal/mol
DOCKED: USER        Moving Ligand-Moving Receptor   =  +0.00 kcal/mol
DOCKED: USER    (2) Final Total Internal Energy     =  -1.09 kcal/mol
DOCKED: USER    (3) Torsional Free Energy           =  +1.49 kcal/mol
DOCKED: USER    (4) Unbound System's Energy         =  -1.09 kcal/mol
DOCKED: USER
DOCKED: USER
DOCKED: REMARK  5 active torsions:
DOCKED: REMARK  status: ('A' for Active; 'I' for Inactive)
DOCKED: REMARK    1  A    between atoms: C_2  and  C_19 
DOCKED: REMARK    2  A    between atoms: C_2  and  C_11 
DOCKED: REMARK    3  A    between atoms: C_19  and  C_20 
DOCKED: REMARK    4  A    between atoms: C_20  and  C_21 
DOCKED: REMARK    5  A    between atoms: C_21  and  N_22 
DOCKED: USER                              x       y       z     vdW  Elec       q    Type
DOCKED: USER                           _______ _______ _______ _____ _____    ______ ____
DOCKED: ROOT
DOCKED: ATOM      1  O   UNL     1     -39.620 -15.583   1.048 -0.12 -0.00    -0.346 OA 
DOCKED: ATOM      2  C   UNL     1     -38.302 -15.607   0.412 -0.20 +0.00    +0.130 C  
DOCKED: ATOM      3  C   UNL     1     -38.537 -14.969  -0.926 -0.27 +0.00    +0.004 A  
DOCKED: ATOM      4  C   UNL     1     -39.848 -14.519  -1.005 -0.17 +0.00    +0.006 A  
DOCKED: ATOM      5  C   UNL     1     -40.556 -14.812   0.260 -0.01 +0.00    +0.169 C  
DOCKED: ATOM      6  C   UNL     1     -37.659 -14.791  -1.985 -0.23 -0.00    -0.001 A  
DOCKED: ATOM      7  C   UNL     1     -40.324 -13.883  -2.139 -0.33 +0.00    +0.008 A  
DOCKED: ATOM      8  C   UNL     1     -38.125 -14.156  -3.137 -0.27 +0.00    +0.010 A  
DOCKED: ATOM      9  C   UNL     1     -39.451 -13.704  -3.213 -0.28 +0.00    +0.068 A  
DOCKED: ATOM     10  N   UNL     1     -40.284 -12.524  -5.364 -2.52 -0.00    -0.191 NA 
DOCKED: ATOM     11  C   UNL     1     -39.911 -13.054  -4.400 -0.34 +0.00    +0.101 C  
DOCKED: ENDROOT
DOCKED: BRANCH   2  12
DOCKED: ATOM     12  C   UNL     1     -37.331 -14.819   1.283 -0.15 +0.00    +0.038 C  
DOCKED: BRANCH  12  13
DOCKED: ATOM     13  C   UNL     1     -35.880 -15.123   0.915 -0.12 +0.00    +0.038 C  
DOCKED: BRANCH  13  14
DOCKED: ATOM     14  C   UNL     1     -35.102 -15.637   2.125 -0.04 +0.00    +0.251 C  
DOCKED: BRANCH  14  15
DOCKED: ATOM     15  N   UNL     1     -35.724 -15.176   3.360 -0.06 +0.00    +0.141 N  
DOCKED: ATOM     16  C   UNL     1     -36.227 -16.308   4.140 -0.02 +0.00    +0.285 C  
DOCKED: ATOM     17  C   UNL     1     -34.774 -14.395   4.155 -0.05 +0.00    +0.285 C  
DOCKED: ENDBRANCH  14  15
DOCKED: ENDBRANCH  13  14
DOCKED: ENDBRANCH  12  13
DOCKED: ENDBRANCH   2  12
DOCKED: BRANCH   2  18
DOCKED: ATOM     18  C   UNL     1     -37.893 -17.039   0.310 -0.16 +0.00    +0.006 A  
DOCKED: ATOM     19  C   UNL     1     -37.977 -17.868   1.428 -0.14 +0.00    +0.001 A  
DOCKED: ATOM     20  C   UNL     1     -37.594 -19.207   1.331 -0.20 +0.00    +0.029 A  
DOCKED: ATOM     21  C   UNL     1     -37.130 -19.713   0.118 -0.17 +0.00    +0.140 A  
DOCKED: ATOM     22  C   UNL     1     -37.047 -18.883  -0.999 -0.16 +0.00    +0.029 A  
DOCKED: ATOM     23  F   UNL     1     -36.764 -20.999   0.025 -0.09 -0.00    -0.204 F  
DOCKED: ATOM     24  C   UNL     1     -37.429 -17.544  -0.904 -0.18 +0.00    +0.001 A  
DOCKED: ENDBRANCH   2  18
DOCKED: TORSDOF 5
DOCKED: TER
DOCKED: ENDMDL
________________________________________________________________________________


    FINAL DOCKED STATE:
    ________________________


Run:   423 / 512
Time taken for this run:   0.002s

DOCKED: MODEL        423
DOCKED: USER    Run = 423
DOCKED: USER
DOCKED: USER    Estimated Free Energy of Binding    =  -3.62 kcal/mol  [=(1)+(2)+(3)-(4)]
DOCKED: USER
DOCKED: USER    (1) Final Intermolecular Energy     =  -5.11 kcal/mol
DOCKED: USER        vdW + Hbond + desolv Energy     =  -5.11 kcal/mol
DOCKED: USER        Electrostatic Energy            =  +0.00 kcal/mol
DOCKED: USER        Moving Ligand-Fixed Receptor    =  -5.11 kcal/mol
DOCKED: USER        Moving Ligand-Moving Receptor   =  +0.00 kcal/mol
DOCKED: USER    (2) Final Total Internal Energy     =  -1.53 kcal/mol
DOCKED: USER    (3) Torsional Free Energy           =  +1.49 kcal/mol
DOCKED: USER    (4) Unbound System's Energy         =  -1.53 kcal/mol
DOCKED: USER
DOCKED: USER
DOCKED: REMARK  5 active torsions:
DOCKED: REMARK  status: ('A' for Active; 'I' for Inactive)
DOCKED: REMARK    1  A    between atoms: C_2  and  C_19 
DOCKED: REMARK    2  A    between atoms: C_2  and  C_11 
DOCKED: REMARK    3  A    between atoms: C_19  and  C_20 
DOCKED: REMARK    4  A    between atoms: C_20  and  C_21 
DOCKED: REMARK    5  A    between atoms: C_21  and  N_22 
DOCKED: USER                              x       y       z     vdW  Elec       q    Type
DOCKED: USER                           _______ _______ _______ _____ _____    ______ ____
DOCKED: ROOT
DOCKED: ATOM      1  O   UNL     1     -40.608 -20.164   8.050 -0.03 -0.00    -0.346 OA 
DOCKED: ATOM      2  C   UNL     1     -39.824 -21.279   8.582 -0.10 +0.00    +0.130 C  
DOCKED: ATOM      3  C   UNL     1     -40.402 -22.484   7.898 -0.21 +0.00    +0.004 A  
DOCKED: ATOM      4  C   UNL     1     -41.357 -22.083   6.974 -0.26 +0.00    +0.006 A  
DOCKED: ATOM      5  C   UNL     1     -41.466 -20.607   6.973 -0.19 +0.00    +0.169 C  
DOCKED: ATOM      6  C   UNL     1     -40.100 -23.827   8.071 -0.27 -0.00    -0.001 A  
DOCKED: ATOM      7  C   UNL     1     -42.041 -23.004   6.199 -0.33 +0.00    +0.008 A  
DOCKED: ATOM      8  C   UNL     1     -40.784 -24.768   7.300 -0.37 +0.00    +0.010 A  
DOCKED: ATOM      9  C   UNL     1     -41.749 -24.358   6.369 -0.32 +0.00    +0.068 A  
DOCKED: ATOM     10  N   UNL     1     -42.997 -26.131   4.950 -2.34 -0.00    -0.191 NA 
DOCKED: ATOM     11  C   UNL     1     -42.438 -25.336   5.587 -0.28 +0.00    +0.101 C  
DOCKED: ENDROOT
DOCKED: BRANCH   2  12
DOCKED: ATOM     12  C   UNL     1     -38.358 -21.047   8.237 -0.13 +0.00    +0.038 C  
DOCKED: BRANCH  12  13
DOCKED: ATOM     13  C   UNL     1     -38.153 -19.691   7.564 -0.10 +0.00    +0.038 C  
DOCKED: BRANCH  13  14
DOCKED: ATOM     14  C   UNL     1     -37.801 -18.616   8.590 -0.01 +0.00    +0.251 C  
DOCKED: BRANCH  14  15
DOCKED: ATOM     15  N   UNL     1     -38.766 -17.525   8.533 -0.01 +0.00    +0.141 N  
DOCKED: ATOM     16  C   UNL     1     -39.430 -17.491   7.229 -0.03 +0.00    +0.285 C  
DOCKED: ATOM     17  C   UNL     1     -39.756 -17.656   9.604 -0.00 +0.00    +0.285 C  
DOCKED: ENDBRANCH  14  15
DOCKED: ENDBRANCH  13  14
DOCKED: ENDBRANCH  12  13
DOCKED: ENDBRANCH   2  12
DOCKED: BRANCH   2  18
DOCKED: ATOM     18  C   UNL     1     -40.033 -21.294  10.060 -0.04 +0.00    +0.006 A  
DOCKED: ATOM     19  C   UNL     1     -41.296 -21.027  10.587 -0.02 +0.00    +0.001 A  
DOCKED: ATOM     20  C   UNL     1     -41.490 -21.040  11.969 -0.00 +0.00    +0.029 A  
DOCKED: ATOM     21  C   UNL     1     -40.422 -21.320  12.821 -0.00 +0.00    +0.140 A  
DOCKED: ATOM     22  C   UNL     1     -39.160 -21.587  12.292 -0.01 +0.00    +0.029 A  
DOCKED: ATOM     23  F   UNL     1     -40.609 -21.335  14.147 +0.00 -0.00    -0.204 F  
DOCKED: ATOM     24  C   UNL     1     -38.964 -21.573  10.910 -0.04 +0.00    +0.001 A  
DOCKED: ENDBRANCH   2  18
DOCKED: TORSDOF 5
DOCKED: TER
DOCKED: ENDMDL
________________________________________________________________________________


    FINAL DOCKED STATE:
    ________________________


Run:   424 / 512
Time taken for this run:   0.002s

DOCKED: MODEL        424
DOCKED: USER    Run = 424
DOCKED: USER
DOCKED: USER    Estimated Free Energy of Binding    =  -6.06 kcal/mol  [=(1)+(2)+(3)-(4)]
DOCKED: USER
DOCKED: USER    (1) Final Intermolecular Energy     =  -7.55 kcal/mol
DOCKED: USER        vdW + Hbond + desolv Energy     =  -7.55 kcal/mol
DOCKED: USER        Electrostatic Energy            =  +0.00 kcal/mol
DOCKED: USER        Moving Ligand-Fixed Receptor    =  -7.55 kcal/mol
DOCKED: USER        Moving Ligand-Moving Receptor   =  +0.00 kcal/mol
DOCKED: USER    (2) Final Total Internal Energy     =  -1.10 kcal/mol
DOCKED: USER    (3) Torsional Free Energy           =  +1.49 kcal/mol
DOCKED: USER    (4) Unbound System's Energy         =  -1.10 kcal/mol
DOCKED: USER
DOCKED: USER
DOCKED: REMARK  5 active torsions:
DOCKED: REMARK  status: ('A' for Active; 'I' for Inactive)
DOCKED: REMARK    1  A    between atoms: C_2  and  C_19 
DOCKED: REMARK    2  A    between atoms: C_2  and  C_11 
DOCKED: REMARK    3  A    between atoms: C_19  and  C_20 
DOCKED: REMARK    4  A    between atoms: C_20  and  C_21 
DOCKED: REMARK    5  A    between atoms: C_21  and  N_22 
DOCKED: USER                              x       y       z     vdW  Elec       q    Type
DOCKED: USER                           _______ _______ _______ _____ _____    ______ ____
DOCKED: ROOT
DOCKED: ATOM      1  O   UNL     1     -40.913 -21.870   7.886 -0.06 -0.00    -0.346 OA 
DOCKED: ATOM      2  C   UNL     1     -40.647 -23.309   7.868 -0.23 +0.00    +0.130 C  
DOCKED: ATOM      3  C   UNL     1     -41.195 -23.759   6.545 -0.34 +0.00    +0.004 A  
DOCKED: ATOM      4  C   UNL     1     -41.635 -22.659   5.823 -0.32 +0.00    +0.006 A  
DOCKED: ATOM      5  C   UNL     1     -41.401 -21.422   6.600 -0.23 +0.00    +0.169 C  
DOCKED: ATOM      6  C   UNL     1     -41.287 -25.039   6.018 -0.41 -0.00    -0.001 A  
DOCKED: ATOM      7  C   UNL     1     -42.183 -22.799   4.559 -0.00 +0.00    +0.008 A  
DOCKED: ATOM      8  C   UNL     1     -41.841 -25.197   4.746 -0.45 +0.00    +0.010 A  
DOCKED: ATOM      9  C   UNL     1     -42.286 -24.082   4.021 -0.39 +0.00    +0.068 A  
DOCKED: ATOM     10  N   UNL     1     -43.304 -24.410   1.661 -3.00 -0.00    -0.191 NA 
DOCKED: ATOM     11  C   UNL     1     -42.848 -24.263   2.719 -0.41 +0.00    +0.101 C  
DOCKED: ENDROOT
DOCKED: BRANCH   2  12
DOCKED: ATOM     12  C   UNL     1     -39.143 -23.523   7.991 -0.21 +0.00    +0.038 C  
DOCKED: BRANCH  12  13
DOCKED: ATOM     13  C   UNL     1     -38.409 -22.204   8.224 -0.15 +0.00    +0.038 C  
DOCKED: BRANCH  13  14
DOCKED: ATOM     14  C   UNL     1     -37.135 -22.420   9.038 -0.10 +0.00    +0.251 C  
DOCKED: BRANCH  14  15
DOCKED: ATOM     15  N   UNL     1     -36.739 -23.823   8.997 -0.11 +0.00    +0.141 N  
DOCKED: ATOM     16  C   UNL     1     -35.784 -24.057   7.912 -0.13 +0.00    +0.285 C  
DOCKED: ATOM     17  C   UNL     1     -36.163 -24.234  10.278 -0.03 +0.00    +0.285 C  
DOCKED: ENDBRANCH  14  15
DOCKED: ENDBRANCH  13  14
DOCKED: ENDBRANCH  12  13
DOCKED: ENDBRANCH   2  12
DOCKED: BRANCH   2  18
DOCKED: ATOM     18  C   UNL     1     -41.372 -23.901   9.030 -0.18 +0.00    +0.006 A  
DOCKED: ATOM     19  C   UNL     1     -42.757 -24.054   8.982 -0.16 +0.00    +0.001 A  
DOCKED: ATOM     20  C   UNL     1     -43.434 -24.607  10.070 -0.15 +0.00    +0.029 A  
DOCKED: ATOM     21  C   UNL     1     -42.725 -25.007  11.202 -0.11 +0.00    +0.140 A  
DOCKED: ATOM     22  C   UNL     1     -41.340 -24.853  11.249 -0.19 +0.00    +0.029 A  
DOCKED: ATOM     23  F   UNL     1     -43.375 -25.540  12.245 -0.03 -0.00    -0.204 F  
DOCKED: ATOM     24  C   UNL     1     -40.662 -24.299  10.162 -0.17 +0.00    +0.001 A  
DOCKED: ENDBRANCH   2  18
DOCKED: TORSDOF 5
DOCKED: TER
DOCKED: ENDMDL
________________________________________________________________________________


    FINAL DOCKED STATE:
    ________________________


Run:   425 / 512
Time taken for this run:   0.002s

DOCKED: MODEL        425
DOCKED: USER    Run = 425
DOCKED: USER
DOCKED: USER    Estimated Free Energy of Binding    =  -6.30 kcal/mol  [=(1)+(2)+(3)-(4)]
DOCKED: USER
DOCKED: USER    (1) Final Intermolecular Energy     =  -7.79 kcal/mol
DOCKED: USER        vdW + Hbond + desolv Energy     =  -7.79 kcal/mol
DOCKED: USER        Electrostatic Energy            =  +0.00 kcal/mol
DOCKED: USER        Moving Ligand-Fixed Receptor    =  -7.79 kcal/mol
DOCKED: USER        Moving Ligand-Moving Receptor   =  +0.00 kcal/mol
DOCKED: USER    (2) Final Total Internal Energy     =  -1.20 kcal/mol
DOCKED: USER    (3) Torsional Free Energy           =  +1.49 kcal/mol
DOCKED: USER    (4) Unbound System's Energy         =  -1.20 kcal/mol
DOCKED: USER
DOCKED: USER
DOCKED: REMARK  5 active torsions:
DOCKED: REMARK  status: ('A' for Active; 'I' for Inactive)
DOCKED: REMARK    1  A    between atoms: C_2  and  C_19 
DOCKED: REMARK    2  A    between atoms: C_2  and  C_11 
DOCKED: REMARK    3  A    between atoms: C_19  and  C_20 
DOCKED: REMARK    4  A    between atoms: C_20  and  C_21 
DOCKED: REMARK    5  A    between atoms: C_21  and  N_22 
DOCKED: USER                              x       y       z     vdW  Elec       q    Type
DOCKED: USER                           _______ _______ _______ _____ _____    ______ ____
DOCKED: ROOT
DOCKED: ATOM      1  O   UNL     1     -39.941 -25.309   7.752 -0.14 -0.00    -0.346 OA 
DOCKED: ATOM      2  C   UNL     1     -40.638 -24.022   7.775 -0.27 +0.00    +0.130 C  
DOCKED: ATOM      3  C   UNL     1     -41.331 -23.964   6.445 -0.35 +0.00    +0.004 A  
DOCKED: ATOM      4  C   UNL     1     -41.140 -25.159   5.766 -0.38 +0.00    +0.006 A  
DOCKED: ATOM      5  C   UNL     1     -40.329 -26.082   6.592 -0.26 +0.00    +0.169 C  
DOCKED: ATOM      6  C   UNL     1     -42.082 -22.940   5.886 -0.35 -0.00    -0.001 A  
DOCKED: ATOM      7  C   UNL     1     -41.684 -25.370   4.511 -0.29 +0.00    +0.008 A  
DOCKED: ATOM      8  C   UNL     1     -42.634 -23.136   4.618 -0.13 +0.00    +0.010 A  
DOCKED: ATOM      9  C   UNL     1     -42.436 -24.345   3.935 -0.44 +0.00    +0.068 A  
DOCKED: ATOM     10  N   UNL     1     -43.479 -24.677   1.586 -2.99 -0.00    -0.191 NA 
DOCKED: ATOM     11  C   UNL     1     -43.010 -24.528   2.640 -0.35 +0.00    +0.101 C  
DOCKED: ENDROOT
DOCKED: BRANCH   2  12
DOCKED: ATOM     12  C   UNL     1     -41.607 -24.020   8.951 -0.21 +0.00    +0.038 C  
DOCKED: BRANCH  12  13
DOCKED: ATOM     13  C   UNL     1     -42.736 -25.027   8.744 -0.27 +0.00    +0.038 C  
DOCKED: BRANCH  13  14
DOCKED: ATOM     14  C   UNL     1     -44.085 -24.323   8.616 -0.09 +0.00    +0.251 C  
DOCKED: BRANCH  14  15
DOCKED: ATOM     15  N   UNL     1     -44.957 -25.058   7.708 -0.15 +0.00    +0.141 N  
DOCKED: ATOM     16  C   UNL     1     -46.182 -25.474   8.393 -0.11 +0.00    +0.285 C  
DOCKED: ATOM     17  C   UNL     1     -45.283 -24.245   6.535 -0.11 +0.00    +0.285 C  
DOCKED: ENDBRANCH  14  15
DOCKED: ENDBRANCH  13  14
DOCKED: ENDBRANCH  12  13
DOCKED: ENDBRANCH   2  12
DOCKED: BRANCH   2  18
DOCKED: ATOM     18  C   UNL     1     -39.596 -22.965   7.934 -0.22 +0.00    +0.006 A  
DOCKED: ATOM     19  C   UNL     1     -38.390 -23.265   8.566 -0.15 +0.00    +0.001 A  
DOCKED: ATOM     20  C   UNL     1     -37.417 -22.275   8.714 -0.14 +0.00    +0.029 A  
DOCKED: ATOM     21  C   UNL     1     -37.651 -20.989   8.231 -0.09 +0.00    +0.140 A  
DOCKED: ATOM     22  C   UNL     1     -38.858 -20.690   7.598 -0.13 +0.00    +0.029 A  
DOCKED: ATOM     23  F   UNL     1     -36.717 -20.040   8.371 -0.01 -0.00    -0.204 F  
DOCKED: ATOM     24  C   UNL     1     -39.832 -21.679   7.450 -0.16 +0.00    +0.001 A  
DOCKED: ENDBRANCH   2  18
DOCKED: TORSDOF 5
DOCKED: TER
DOCKED: ENDMDL
________________________________________________________________________________


    FINAL DOCKED STATE:
    ________________________


Run:   426 / 512
Time taken for this run:   0.002s

DOCKED: MODEL        426
DOCKED: USER    Run = 426
DOCKED: USER
DOCKED: USER    Estimated Free Energy of Binding    =  -4.13 kcal/mol  [=(1)+(2)+(3)-(4)]
DOCKED: USER
DOCKED: USER    (1) Final Intermolecular Energy     =  -5.63 kcal/mol
DOCKED: USER        vdW + Hbond + desolv Energy     =  -5.63 kcal/mol
DOCKED: USER        Electrostatic Energy            =  +0.00 kcal/mol
DOCKED: USER        Moving Ligand-Fixed Receptor    =  -5.63 kcal/mol
DOCKED: USER        Moving Ligand-Moving Receptor   =  +0.00 kcal/mol
DOCKED: USER    (2) Final Total Internal Energy     =  -1.59 kcal/mol
DOCKED: USER    (3) Torsional Free Energy           =  +1.49 kcal/mol
DOCKED: USER    (4) Unbound System's Energy         =  -1.59 kcal/mol
DOCKED: USER
DOCKED: USER
DOCKED: REMARK  5 active torsions:
DOCKED: REMARK  status: ('A' for Active; 'I' for Inactive)
DOCKED: REMARK    1  A    between atoms: C_2  and  C_19 
DOCKED: REMARK    2  A    between atoms: C_2  and  C_11 
DOCKED: REMARK    3  A    between atoms: C_19  and  C_20 
DOCKED: REMARK    4  A    between atoms: C_20  and  C_21 
DOCKED: REMARK    5  A    between atoms: C_21  and  N_22 
DOCKED: USER                              x       y       z     vdW  Elec       q    Type
DOCKED: USER                           _______ _______ _______ _____ _____    ______ ____
DOCKED: ROOT
DOCKED: ATOM      1  O   UNL     1     -38.815 -16.125   0.821 -0.07 -0.00    -0.346 OA 
DOCKED: ATOM      2  C   UNL     1     -37.582 -15.459   0.397 -0.16 +0.00    +0.130 C  
DOCKED: ATOM      3  C   UNL     1     -37.974 -14.748  -0.866 -0.17 +0.00    +0.004 A  
DOCKED: ATOM      4  C   UNL     1     -39.335 -14.901  -1.085 -0.30 +0.00    +0.006 A  
DOCKED: ATOM      5  C   UNL     1     -39.933 -15.702   0.007 -0.15 +0.00    +0.169 C  
DOCKED: ATOM      6  C   UNL     1     -37.190 -14.013  -1.744 -0.18 -0.00    -0.001 A  
DOCKED: ATOM      7  C   UNL     1     -39.956 -14.334  -2.185 -0.26 +0.00    +0.008 A  
DOCKED: ATOM      8  C   UNL     1     -37.801 -13.439  -2.860 -0.27 +0.00    +0.010 A  
DOCKED: ATOM      9  C   UNL     1     -39.177 -13.598  -3.078 -0.34 +0.00    +0.068 A  
DOCKED: ATOM     10  N   UNL     1     -40.280 -12.514  -5.157 -2.48 -0.00    -0.191 NA 
DOCKED: ATOM     11  C   UNL     1     -39.785 -13.001  -4.225 -0.41 +0.00    +0.101 C  
DOCKED: ENDROOT
DOCKED: BRANCH   2  12
DOCKED: ATOM     12  C   UNL     1     -37.143 -14.507   1.503 -0.11 +0.00    +0.038 C  
DOCKED: BRANCH  12  13
DOCKED: ATOM     13  C   UNL     1     -37.948 -14.730   2.782 -0.17 +0.00    +0.038 C  
DOCKED: BRANCH  13  14
DOCKED: ATOM     14  C   UNL     1     -37.237 -15.711   3.714 -0.06 +0.00    +0.251 C  
DOCKED: BRANCH  14  15
DOCKED: ATOM     15  N   UNL     1     -37.236 -17.049   3.135 -0.04 +0.00    +0.141 N  
DOCKED: ATOM     16  C   UNL     1     -36.014 -17.768   3.501 -0.02 +0.00    +0.285 C  
DOCKED: ATOM     17  C   UNL     1     -38.415 -17.800   3.569 -0.06 +0.00    +0.285 C  
DOCKED: ENDBRANCH  14  15
DOCKED: ENDBRANCH  13  14
DOCKED: ENDBRANCH  12  13
DOCKED: ENDBRANCH   2  12
DOCKED: BRANCH   2  18
DOCKED: ATOM     18  C   UNL     1     -36.565 -16.527   0.171 -0.08 +0.00    +0.006 A  
DOCKED: ATOM     19  C   UNL     1     -36.968 -17.797  -0.239 -0.13 +0.00    +0.001 A  
DOCKED: ATOM     20  C   UNL     1     -36.015 -18.795  -0.450 -0.10 +0.00    +0.029 A  
DOCKED: ATOM     21  C   UNL     1     -34.663 -18.522  -0.250 -0.01 +0.00    +0.140 A  
DOCKED: ATOM     22  C   UNL     1     -34.261 -17.251   0.160 -0.01 +0.00    +0.029 A  
DOCKED: ATOM     23  F   UNL     1     -33.749 -19.479  -0.454 +0.00 -0.00    -0.204 F  
DOCKED: ATOM     24  C   UNL     1     -35.213 -16.252   0.371 -0.04 +0.00    +0.001 A  
DOCKED: ENDBRANCH   2  18
DOCKED: TORSDOF 5
DOCKED: TER
DOCKED: ENDMDL
________________________________________________________________________________


    FINAL DOCKED STATE:
    ________________________


Run:   427 / 512
Time taken for this run:   0.002s

DOCKED: MODEL        427
DOCKED: USER    Run = 427
DOCKED: USER
DOCKED: USER    Estimated Free Energy of Binding    =  -5.56 kcal/mol  [=(1)+(2)+(3)-(4)]
DOCKED: USER
DOCKED: USER    (1) Final Intermolecular Energy     =  -7.05 kcal/mol
DOCKED: USER        vdW + Hbond + desolv Energy     =  -7.05 kcal/mol
DOCKED: USER        Electrostatic Energy            =  +0.00 kcal/mol
DOCKED: USER        Moving Ligand-Fixed Receptor    =  -7.05 kcal/mol
DOCKED: USER        Moving Ligand-Moving Receptor   =  +0.00 kcal/mol
DOCKED: USER    (2) Final Total Internal Energy     =  -1.29 kcal/mol
DOCKED: USER    (3) Torsional Free Energy           =  +1.49 kcal/mol
DOCKED: USER    (4) Unbound System's Energy         =  -1.29 kcal/mol
DOCKED: USER
DOCKED: USER
DOCKED: REMARK  5 active torsions:
DOCKED: REMARK  status: ('A' for Active; 'I' for Inactive)
DOCKED: REMARK    1  A    between atoms: C_2  and  C_19 
DOCKED: REMARK    2  A    between atoms: C_2  and  C_11 
DOCKED: REMARK    3  A    between atoms: C_19  and  C_20 
DOCKED: REMARK    4  A    between atoms: C_20  and  C_21 
DOCKED: REMARK    5  A    between atoms: C_21  and  N_22 
DOCKED: USER                              x       y       z     vdW  Elec       q    Type
DOCKED: USER                           _______ _______ _______ _____ _____    ______ ____
DOCKED: ROOT
DOCKED: ATOM      1  O   UNL     1     -41.306 -23.196   7.951 -0.05 -0.00    -0.346 OA 
DOCKED: ATOM      2  C   UNL     1     -42.568 -23.934   8.003 -0.16 +0.00    +0.130 C  
DOCKED: ATOM      3  C   UNL     1     -42.939 -24.115   6.560 -0.28 +0.00    +0.004 A  
DOCKED: ATOM      4  C   UNL     1     -41.924 -23.622   5.752 -0.38 +0.00    +0.006 A  
DOCKED: ATOM      5  C   UNL     1     -40.822 -23.101   6.591 -0.22 +0.00    +0.169 C  
DOCKED: ATOM      6  C   UNL     1     -44.078 -24.681   6.006 -0.26 -0.00    -0.001 A  
DOCKED: ATOM      7  C   UNL     1     -42.014 -23.673   4.371 -0.23 +0.00    +0.008 A  
DOCKED: ATOM      8  C   UNL     1     -44.185 -24.735   4.615 -0.36 +0.00    +0.010 A  
DOCKED: ATOM      9  C   UNL     1     -43.158 -24.235   3.802 -0.39 +0.00    +0.068 A  
DOCKED: ATOM     10  N   UNL     1     -43.386 -24.357   1.224 -3.15 -0.00    -0.191 NA 
DOCKED: ATOM     11  C   UNL     1     -43.284 -24.301   2.380 -0.28 +0.00    +0.101 C  
DOCKED: ENDROOT
DOCKED: BRANCH   2  12
DOCKED: ATOM     12  C   UNL     1     -42.326 -25.255   8.724 -0.30 +0.00    +0.038 C  
DOCKED: BRANCH  12  13
DOCKED: ATOM     13  C   UNL     1     -41.046 -25.208   9.557 -0.23 +0.00    +0.038 C  
DOCKED: BRANCH  13  14
DOCKED: ATOM     14  C   UNL     1     -41.351 -25.392  11.042 -0.16 +0.00    +0.251 C  
DOCKED: BRANCH  14  15
DOCKED: ATOM     15  N   UNL     1     -40.825 -24.270  11.811 -0.09 +0.00    +0.141 N  
DOCKED: ATOM     16  C   UNL     1     -39.951 -24.745  12.885 -0.08 +0.00    +0.285 C  
DOCKED: ATOM     17  C   UNL     1     -40.101 -23.343  10.940 -0.06 +0.00    +0.285 C  
DOCKED: ENDBRANCH  14  15
DOCKED: ENDBRANCH  13  14
DOCKED: ENDBRANCH  12  13
DOCKED: ENDBRANCH   2  12
DOCKED: BRANCH   2  18
DOCKED: ATOM     18  C   UNL     1     -43.540 -23.083   8.751 -0.10 +0.00    +0.006 A  
DOCKED: ATOM     19  C   UNL     1     -44.847 -23.528   8.950 -0.11 +0.00    +0.001 A  
DOCKED: ATOM     20  C   UNL     1     -45.754 -22.732   9.649 -0.07 +0.00    +0.029 A  
DOCKED: ATOM     21  C   UNL     1     -45.355 -21.493  10.149 -0.01 +0.00    +0.140 A  
DOCKED: ATOM     22  C   UNL     1     -44.048 -21.049   9.950 -0.03 +0.00    +0.029 A  
DOCKED: ATOM     23  F   UNL     1     -46.226 -20.730  10.821 +0.01 -0.00    -0.204 F  
DOCKED: ATOM     24  C   UNL     1     -43.139 -21.845   9.250 -0.06 +0.00    +0.001 A  
DOCKED: ENDBRANCH   2  18
DOCKED: TORSDOF 5
DOCKED: TER
DOCKED: ENDMDL
________________________________________________________________________________


    FINAL DOCKED STATE:
    ________________________


Run:   428 / 512
Time taken for this run:   0.002s

DOCKED: MODEL        428
DOCKED: USER    Run = 428
DOCKED: USER
DOCKED: USER    Estimated Free Energy of Binding    =  -4.51 kcal/mol  [=(1)+(2)+(3)-(4)]
DOCKED: USER
DOCKED: USER    (1) Final Intermolecular Energy     =  -6.00 kcal/mol
DOCKED: USER        vdW + Hbond + desolv Energy     =  -6.00 kcal/mol
DOCKED: USER        Electrostatic Energy            =  +0.00 kcal/mol
DOCKED: USER        Moving Ligand-Fixed Receptor    =  -6.00 kcal/mol
DOCKED: USER        Moving Ligand-Moving Receptor   =  +0.00 kcal/mol
DOCKED: USER    (2) Final Total Internal Energy     =  -1.36 kcal/mol
DOCKED: USER    (3) Torsional Free Energy           =  +1.49 kcal/mol
DOCKED: USER    (4) Unbound System's Energy         =  -1.36 kcal/mol
DOCKED: USER
DOCKED: USER
DOCKED: REMARK  5 active torsions:
DOCKED: REMARK  status: ('A' for Active; 'I' for Inactive)
DOCKED: REMARK    1  A    between atoms: C_2  and  C_19 
DOCKED: REMARK    2  A    between atoms: C_2  and  C_11 
DOCKED: REMARK    3  A    between atoms: C_19  and  C_20 
DOCKED: REMARK    4  A    between atoms: C_20  and  C_21 
DOCKED: REMARK    5  A    between atoms: C_21  and  N_22 
DOCKED: USER                              x       y       z     vdW  Elec       q    Type
DOCKED: USER                           _______ _______ _______ _____ _____    ______ ____
DOCKED: ROOT
DOCKED: ATOM      1  O   UNL     1     -39.653 -15.747   1.620 -0.09 -0.00    -0.346 OA 
DOCKED: ATOM      2  C   UNL     1     -38.356 -15.726   0.941 -0.18 +0.00    +0.130 C  
DOCKED: ATOM      3  C   UNL     1     -38.663 -15.128  -0.402 -0.25 +0.00    +0.004 A  
DOCKED: ATOM      4  C   UNL     1     -39.994 -14.739  -0.446 -0.14 +0.00    +0.006 A  
DOCKED: ATOM      5  C   UNL     1     -40.648 -15.036   0.848 -0.23 +0.00    +0.169 C  
DOCKED: ATOM      6  C   UNL     1     -37.828 -14.933  -1.492 -0.24 -0.00    -0.001 A  
DOCKED: ATOM      7  C   UNL     1     -40.535 -14.149  -1.576 -0.10 +0.00    +0.008 A  
DOCKED: ATOM      8  C   UNL     1     -38.359 -14.344  -2.640 -0.28 +0.00    +0.010 A  
DOCKED: ATOM      9  C   UNL     1     -39.706 -13.953  -2.682 -0.27 +0.00    +0.068 A  
DOCKED: ATOM     10  N   UNL     1     -40.659 -12.858  -4.827 -2.44 -0.00    -0.191 NA 
DOCKED: ATOM     11  C   UNL     1     -40.232 -13.350  -3.865 -0.29 +0.00    +0.101 C  
DOCKED: ENDROOT
DOCKED: BRANCH   2  12
DOCKED: ATOM     12  C   UNL     1     -37.394 -14.877   1.763 -0.17 +0.00    +0.038 C  
DOCKED: BRANCH  12  13
DOCKED: ATOM     13  C   UNL     1     -37.891 -14.703   3.197 -0.16 +0.00    +0.038 C  
DOCKED: BRANCH  13  14
DOCKED: ATOM     14  C   UNL     1     -37.790 -16.012   3.977 -0.05 +0.00    +0.251 C  
DOCKED: BRANCH  14  15
DOCKED: ATOM     15  N   UNL     1     -36.394 -16.407   4.127 -0.02 +0.00    +0.141 N  
DOCKED: ATOM     16  C   UNL     1     -35.638 -15.369   4.829 -0.02 +0.00    +0.285 C  
DOCKED: ATOM     17  C   UNL     1     -36.292 -17.681   4.840 -0.02 +0.00    +0.285 C  
DOCKED: ENDBRANCH  14  15
DOCKED: ENDBRANCH  13  14
DOCKED: ENDBRANCH  12  13
DOCKED: ENDBRANCH   2  12
DOCKED: BRANCH   2  18
DOCKED: ATOM     18  C   UNL     1     -37.887 -17.140   0.854 -0.14 +0.00    +0.006 A  
DOCKED: ATOM     19  C   UNL     1     -36.576 -17.416   0.467 -0.07 +0.00    +0.001 A  
DOCKED: ATOM     20  C   UNL     1     -36.138 -18.739   0.385 -0.08 +0.00    +0.029 A  
DOCKED: ATOM     21  C   UNL     1     -37.011 -19.782   0.691 -0.17 +0.00    +0.140 A  
DOCKED: ATOM     22  C   UNL     1     -38.322 -19.505   1.079 -0.25 +0.00    +0.029 A  
DOCKED: ATOM     23  F   UNL     1     -36.590 -21.051   0.615 -0.09 -0.00    -0.204 F  
DOCKED: ATOM     24  C   UNL     1     -38.761 -18.183   1.160 -0.22 +0.00    +0.001 A  
DOCKED: ENDBRANCH   2  18
DOCKED: TORSDOF 5
DOCKED: TER
DOCKED: ENDMDL
________________________________________________________________________________


    FINAL DOCKED STATE:
    ________________________


Run:   429 / 512
Time taken for this run:   0.002s

DOCKED: MODEL        429
DOCKED: USER    Run = 429
DOCKED: USER
DOCKED: USER    Estimated Free Energy of Binding    =  -3.54 kcal/mol  [=(1)+(2)+(3)-(4)]
DOCKED: USER
DOCKED: USER    (1) Final Intermolecular Energy     =  -5.03 kcal/mol
DOCKED: USER        vdW + Hbond + desolv Energy     =  -5.03 kcal/mol
DOCKED: USER        Electrostatic Energy            =  +0.00 kcal/mol
DOCKED: USER        Moving Ligand-Fixed Receptor    =  -5.03 kcal/mol
DOCKED: USER        Moving Ligand-Moving Receptor   =  +0.00 kcal/mol
DOCKED: USER    (2) Final Total Internal Energy     =  -1.13 kcal/mol
DOCKED: USER    (3) Torsional Free Energy           =  +1.49 kcal/mol
DOCKED: USER    (4) Unbound System's Energy         =  -1.13 kcal/mol
DOCKED: USER
DOCKED: USER
DOCKED: REMARK  5 active torsions:
DOCKED: REMARK  status: ('A' for Active; 'I' for Inactive)
DOCKED: REMARK    1  A    between atoms: C_2  and  C_19 
DOCKED: REMARK    2  A    between atoms: C_2  and  C_11 
DOCKED: REMARK    3  A    between atoms: C_19  and  C_20 
DOCKED: REMARK    4  A    between atoms: C_20  and  C_21 
DOCKED: REMARK    5  A    between atoms: C_21  and  N_22 
DOCKED: USER                              x       y       z     vdW  Elec       q    Type
DOCKED: USER                           _______ _______ _______ _____ _____    ______ ____
DOCKED: ROOT
DOCKED: ATOM      1  O   UNL     1     -34.493 -11.107  -1.762 -0.02 -0.00    -0.346 OA 
DOCKED: ATOM      2  C   UNL     1     -34.341 -10.951  -3.209 -0.08 +0.00    +0.130 C  
DOCKED: ATOM      3  C   UNL     1     -35.667 -11.390  -3.760 -0.11 +0.00    +0.004 A  
DOCKED: ATOM      4  C   UNL     1     -36.537 -11.667  -2.715 -0.22 +0.00    +0.006 A  
DOCKED: ATOM      5  C   UNL     1     -35.862 -11.422  -1.421 -0.17 +0.00    +0.169 C  
DOCKED: ATOM      6  C   UNL     1     -36.074 -11.522  -5.079 -0.18 -0.00    -0.001 A  
DOCKED: ATOM      7  C   UNL     1     -37.835 -12.087  -2.951 -0.32 +0.00    +0.008 A  
DOCKED: ATOM      8  C   UNL     1     -37.378 -11.949  -5.333 -0.27 +0.00    +0.010 A  
DOCKED: ATOM      9  C   UNL     1     -38.254 -12.230  -4.274 -0.35 +0.00    +0.068 A  
DOCKED: ATOM     10  N   UNL     1     -40.670 -13.016  -4.781 -2.51 -0.00    -0.191 NA 
DOCKED: ATOM     11  C   UNL     1     -39.586 -12.664  -4.554 -0.42 +0.00    +0.101 C  
DOCKED: ENDROOT
DOCKED: BRANCH   2  12
DOCKED: ATOM     12  C   UNL     1     -34.029  -9.489  -3.507 -0.12 +0.00    +0.038 C  
DOCKED: BRANCH  12  13
DOCKED: ATOM     13  C   UNL     1     -33.294  -8.828  -2.342 -0.05 +0.00    +0.038 C  
DOCKED: BRANCH  13  14
DOCKED: ATOM     14  C   UNL     1     -34.057  -7.606  -1.833 -0.02 +0.00    +0.251 C  
DOCKED: BRANCH  14  15
DOCKED: ATOM     15  N   UNL     1     -34.188  -7.658  -0.382 -0.03 +0.00    +0.141 N  
DOCKED: ATOM     16  C   UNL     1     -34.763  -8.936   0.039 -0.08 +0.00    +0.285 C  
DOCKED: ATOM     17  C   UNL     1     -32.889  -7.449   0.260 -0.00 +0.00    +0.285 C  
DOCKED: ENDBRANCH  14  15
DOCKED: ENDBRANCH  13  14
DOCKED: ENDBRANCH  12  13
DOCKED: ENDBRANCH   2  12
DOCKED: BRANCH   2  18
DOCKED: ATOM     18  C   UNL     1     -33.215 -11.837  -3.628 -0.03 +0.00    +0.006 A  
DOCKED: ATOM     19  C   UNL     1     -33.176 -13.163  -3.199 -0.02 +0.00    +0.001 A  
DOCKED: ATOM     20  C   UNL     1     -32.123 -13.990  -3.592 -0.00 +0.00    +0.029 A  
DOCKED: ATOM     21  C   UNL     1     -31.112 -13.491  -4.412 +0.00 +0.00    +0.140 A  
DOCKED: ATOM     22  C   UNL     1     -31.152 -12.164  -4.840 -0.01 +0.00    +0.029 A  
DOCKED: ATOM     23  F   UNL     1     -30.102 -14.286  -4.789 +0.00 -0.00    -0.204 F  
DOCKED: ATOM     24  C   UNL     1     -32.205 -11.336  -4.448 -0.02 +0.00    +0.001 A  
DOCKED: ENDBRANCH   2  18
DOCKED: TORSDOF 5
DOCKED: TER
DOCKED: ENDMDL
________________________________________________________________________________


    FINAL DOCKED STATE:
    ________________________


Run:   430 / 512
Time taken for this run:   0.002s

DOCKED: MODEL        430
DOCKED: USER    Run = 430
DOCKED: USER
DOCKED: USER    Estimated Free Energy of Binding    =  -6.04 kcal/mol  [=(1)+(2)+(3)-(4)]
DOCKED: USER
DOCKED: USER    (1) Final Intermolecular Energy     =  -7.53 kcal/mol
DOCKED: USER        vdW + Hbond + desolv Energy     =  -7.53 kcal/mol
DOCKED: USER        Electrostatic Energy            =  +0.00 kcal/mol
DOCKED: USER        Moving Ligand-Fixed Receptor    =  -7.53 kcal/mol
DOCKED: USER        Moving Ligand-Moving Receptor   =  +0.00 kcal/mol
DOCKED: USER    (2) Final Total Internal Energy     =  -1.10 kcal/mol
DOCKED: USER    (3) Torsional Free Energy           =  +1.49 kcal/mol
DOCKED: USER    (4) Unbound System's Energy         =  -1.10 kcal/mol
DOCKED: USER
DOCKED: USER
DOCKED: REMARK  5 active torsions:
DOCKED: REMARK  status: ('A' for Active; 'I' for Inactive)
DOCKED: REMARK    1  A    between atoms: C_2  and  C_19 
DOCKED: REMARK    2  A    between atoms: C_2  and  C_11 
DOCKED: REMARK    3  A    between atoms: C_19  and  C_20 
DOCKED: REMARK    4  A    between atoms: C_20  and  C_21 
DOCKED: REMARK    5  A    between atoms: C_21  and  N_22 
DOCKED: USER                              x       y       z     vdW  Elec       q    Type
DOCKED: USER                           _______ _______ _______ _____ _____    ______ ____
DOCKED: ROOT
DOCKED: ATOM      1  O   UNL     1     -40.062 -25.439   7.577 -0.28 -0.00    -0.346 OA 
DOCKED: ATOM      2  C   UNL     1     -41.007 -24.337   7.763 -0.28 +0.00    +0.130 C  
DOCKED: ATOM      3  C   UNL     1     -41.697 -24.227   6.434 -0.37 +0.00    +0.004 A  
DOCKED: ATOM      4  C   UNL     1     -41.265 -25.247   5.598 -0.37 +0.00    +0.006 A  
DOCKED: ATOM      5  C   UNL     1     -40.284 -26.097   6.308 -0.25 +0.00    +0.169 C  
DOCKED: ATOM      6  C   UNL     1     -42.640 -23.305   6.004 -0.33 -0.00    -0.001 A  
DOCKED: ATOM      7  C   UNL     1     -41.754 -25.378   4.309 -0.33 +0.00    +0.008 A  
DOCKED: ATOM      8  C   UNL     1     -43.139 -23.421   4.705 -0.09 +0.00    +0.010 A  
DOCKED: ATOM      9  C   UNL     1     -42.699 -24.453   3.863 -0.45 +0.00    +0.068 A  
DOCKED: ATOM     10  N   UNL     1     -43.650 -24.643   1.460 -3.16 -0.00    -0.191 NA 
DOCKED: ATOM     11  C   UNL     1     -43.223 -24.557   2.538 -0.28 +0.00    +0.101 C  
DOCKED: ENDROOT
DOCKED: BRANCH   2  12
DOCKED: ATOM     12  C   UNL     1     -41.958 -24.702   8.897 -0.26 +0.00    +0.038 C  
DOCKED: BRANCH  12  13
DOCKED: ATOM     13  C   UNL     1     -43.005 -23.612   9.118 -0.13 +0.00    +0.038 C  
DOCKED: BRANCH  13  14
DOCKED: ATOM     14  C   UNL     1     -42.966 -23.097  10.556 -0.03 +0.00    +0.251 C  
DOCKED: BRANCH  14  15
DOCKED: ATOM     15  N   UNL     1     -43.824 -21.926  10.698 -0.01 +0.00    +0.141 N  
DOCKED: ATOM     16  C   UNL     1     -43.677 -21.338  12.030 +0.00 +0.00    +0.285 C  
DOCKED: ATOM     17  C   UNL     1     -43.515 -20.933   9.668 -0.01 +0.00    +0.285 C  
DOCKED: ENDBRANCH  14  15
DOCKED: ENDBRANCH  13  14
DOCKED: ENDBRANCH  12  13
DOCKED: ENDBRANCH   2  12
DOCKED: BRANCH   2  18
DOCKED: ATOM     18  C   UNL     1     -40.203 -23.126   8.103 -0.23 +0.00    +0.006 A  
DOCKED: ATOM     19  C   UNL     1     -40.171 -22.043   7.226 -0.20 +0.00    +0.001 A  
DOCKED: ATOM     20  C   UNL     1     -39.419 -20.912   7.544 -0.15 +0.00    +0.029 A  
DOCKED: ATOM     21  C   UNL     1     -38.701 -20.865   8.739 -0.07 +0.00    +0.140 A  
DOCKED: ATOM     22  C   UNL     1     -38.735 -21.949   9.616 -0.09 +0.00    +0.029 A  
DOCKED: ATOM     23  F   UNL     1     -37.981 -19.778   9.045 -0.00 -0.00    -0.204 F  
DOCKED: ATOM     24  C   UNL     1     -39.486 -23.081   9.298 -0.16 +0.00    +0.001 A  
DOCKED: ENDBRANCH   2  18
DOCKED: TORSDOF 5
DOCKED: TER
DOCKED: ENDMDL
________________________________________________________________________________


    FINAL DOCKED STATE:
    ________________________


Run:   431 / 512
Time taken for this run:   0.002s

DOCKED: MODEL        431
DOCKED: USER    Run = 431
DOCKED: USER
DOCKED: USER    Estimated Free Energy of Binding    =  -4.12 kcal/mol  [=(1)+(2)+(3)-(4)]
DOCKED: USER
DOCKED: USER    (1) Final Intermolecular Energy     =  -5.62 kcal/mol
DOCKED: USER        vdW + Hbond + desolv Energy     =  -5.62 kcal/mol
DOCKED: USER        Electrostatic Energy            =  +0.00 kcal/mol
DOCKED: USER        Moving Ligand-Fixed Receptor    =  -5.62 kcal/mol
DOCKED: USER        Moving Ligand-Moving Receptor   =  +0.00 kcal/mol
DOCKED: USER    (2) Final Total Internal Energy     =  -1.23 kcal/mol
DOCKED: USER    (3) Torsional Free Energy           =  +1.49 kcal/mol
DOCKED: USER    (4) Unbound System's Energy         =  -1.23 kcal/mol
DOCKED: USER
DOCKED: USER
DOCKED: REMARK  5 active torsions:
DOCKED: REMARK  status: ('A' for Active; 'I' for Inactive)
DOCKED: REMARK    1  A    between atoms: C_2  and  C_19 
DOCKED: REMARK    2  A    between atoms: C_2  and  C_11 
DOCKED: REMARK    3  A    between atoms: C_19  and  C_20 
DOCKED: REMARK    4  A    between atoms: C_20  and  C_21 
DOCKED: REMARK    5  A    between atoms: C_21  and  N_22 
DOCKED: USER                              x       y       z     vdW  Elec       q    Type
DOCKED: USER                           _______ _______ _______ _____ _____    ______ ____
DOCKED: ROOT
DOCKED: ATOM      1  O   UNL     1     -33.739 -23.501  -2.045 -0.02 -0.00    -0.346 OA 
DOCKED: ATOM      2  C   UNL     1     -33.827 -22.435  -1.047 -0.10 +0.00    +0.130 C  
DOCKED: ATOM      3  C   UNL     1     -34.277 -23.143   0.198 -0.13 +0.00    +0.004 A  
DOCKED: ATOM      4  C   UNL     1     -34.334 -24.510  -0.038 -0.16 +0.00    +0.006 A  
DOCKED: ATOM      5  C   UNL     1     -33.920 -24.798  -1.429 -0.05 +0.00    +0.169 C  
DOCKED: ATOM      6  C   UNL     1     -34.598 -22.622   1.442 -0.14 -0.00    -0.001 A  
DOCKED: ATOM      7  C   UNL     1     -34.717 -25.396   0.954 -0.27 +0.00    +0.008 A  
DOCKED: ATOM      8  C   UNL     1     -34.990 -23.502   2.452 -0.25 +0.00    +0.010 A  
DOCKED: ATOM      9  C   UNL     1     -35.049 -24.883   2.209 -0.30 +0.00    +0.068 A  
DOCKED: ATOM     10  N   UNL     1     -35.775 -26.490   4.106 -2.62 -0.00    -0.191 NA 
DOCKED: ATOM     11  C   UNL     1     -35.450 -25.769   3.255 -0.41 +0.00    +0.101 C  
DOCKED: ENDROOT
DOCKED: BRANCH   2  12
DOCKED: ATOM     12  C   UNL     1     -32.451 -21.796  -0.902 -0.02 +0.00    +0.038 C  
DOCKED: BRANCH  12  13
DOCKED: ATOM     13  C   UNL     1     -31.436 -22.437  -1.847 -0.01 +0.00    +0.038 C  
DOCKED: BRANCH  13  14
DOCKED: ATOM     14  C   UNL     1     -30.681 -21.375  -2.644 +0.00 +0.00    +0.251 C  
DOCKED: BRANCH  14  15
DOCKED: ATOM     15  N   UNL     1     -31.610 -20.587  -3.447 -0.00 +0.00    +0.141 N  
DOCKED: ATOM     16  C   UNL     1     -31.042 -19.273  -3.753 -0.00 +0.00    +0.285 C  
DOCKED: ATOM     17  C   UNL     1     -31.950 -21.294  -4.683 -0.00 +0.00    +0.285 C  
DOCKED: ENDBRANCH  14  15
DOCKED: ENDBRANCH  13  14
DOCKED: ENDBRANCH  12  13
DOCKED: ENDBRANCH   2  12
DOCKED: BRANCH   2  18
DOCKED: ATOM     18  C   UNL     1     -34.828 -21.449  -1.549 -0.11 +0.00    +0.006 A  
DOCKED: ATOM     19  C   UNL     1     -35.122 -21.386  -2.911 -0.16 +0.00    +0.001 A  
DOCKED: ATOM     20  C   UNL     1     -36.058 -20.463  -3.379 -0.23 +0.00    +0.029 A  
DOCKED: ATOM     21  C   UNL     1     -36.699 -19.606  -2.485 -0.17 +0.00    +0.140 A  
DOCKED: ATOM     22  C   UNL     1     -36.404 -19.669  -1.124 -0.19 +0.00    +0.029 A  
DOCKED: ATOM     23  F   UNL     1     -37.599 -18.721  -2.935 -0.12 -0.00    -0.204 F  
DOCKED: ATOM     24  C   UNL     1     -35.468 -20.592  -0.655 -0.15 +0.00    +0.001 A  
DOCKED: ENDBRANCH   2  18
DOCKED: TORSDOF 5
DOCKED: TER
DOCKED: ENDMDL
________________________________________________________________________________


    FINAL DOCKED STATE:
    ________________________


Run:   432 / 512
Time taken for this run:   0.002s

DOCKED: MODEL        432
DOCKED: USER    Run = 432
DOCKED: USER
DOCKED: USER    Estimated Free Energy of Binding    =  -5.05 kcal/mol  [=(1)+(2)+(3)-(4)]
DOCKED: USER
DOCKED: USER    (1) Final Intermolecular Energy     =  -6.54 kcal/mol
DOCKED: USER        vdW + Hbond + desolv Energy     =  -6.54 kcal/mol
DOCKED: USER        Electrostatic Energy            =  +0.00 kcal/mol
DOCKED: USER        Moving Ligand-Fixed Receptor    =  -6.54 kcal/mol
DOCKED: USER        Moving Ligand-Moving Receptor   =  +0.00 kcal/mol
DOCKED: USER    (2) Final Total Internal Energy     =  -1.14 kcal/mol
DOCKED: USER    (3) Torsional Free Energy           =  +1.49 kcal/mol
DOCKED: USER    (4) Unbound System's Energy         =  -1.14 kcal/mol
DOCKED: USER
DOCKED: USER
DOCKED: REMARK  5 active torsions:
DOCKED: REMARK  status: ('A' for Active; 'I' for Inactive)
DOCKED: REMARK    1  A    between atoms: C_2  and  C_19 
DOCKED: REMARK    2  A    between atoms: C_2  and  C_11 
DOCKED: REMARK    3  A    between atoms: C_19  and  C_20 
DOCKED: REMARK    4  A    between atoms: C_20  and  C_21 
DOCKED: REMARK    5  A    between atoms: C_21  and  N_22 
DOCKED: USER                              x       y       z     vdW  Elec       q    Type
DOCKED: USER                           _______ _______ _______ _____ _____    ______ ____
DOCKED: ROOT
DOCKED: ATOM      1  O   UNL     1     -41.678 -21.874   8.267 -0.02 -0.00    -0.346 OA 
DOCKED: ATOM      2  C   UNL     1     -40.890 -23.103   8.161 -0.19 +0.00    +0.130 C  
DOCKED: ATOM      3  C   UNL     1     -41.305 -23.683   6.840 -0.32 +0.00    +0.004 A  
DOCKED: ATOM      4  C   UNL     1     -42.169 -22.809   6.197 -0.32 +0.00    +0.006 A  
DOCKED: ATOM      5  C   UNL     1     -42.374 -21.601   7.028 -0.19 +0.00    +0.169 C  
DOCKED: ATOM      6  C   UNL     1     -40.938 -24.884   6.250 -0.40 -0.00    -0.001 A  
DOCKED: ATOM      7  C   UNL     1     -42.697 -23.103   4.951 -0.18 +0.00    +0.008 A  
DOCKED: ATOM      8  C   UNL     1     -41.465 -25.197   4.996 -0.31 +0.00    +0.010 A  
DOCKED: ATOM      9  C   UNL     1     -42.340 -24.311   4.350 -0.42 +0.00    +0.068 A  
DOCKED: ATOM     10  N   UNL     1     -43.297 -24.922   2.021 -2.35 -0.00    -0.191 NA 
DOCKED: ATOM     11  C   UNL     1     -42.868 -24.648   3.066 -0.50 +0.00    +0.101 C  
DOCKED: ENDROOT
DOCKED: BRANCH   2  12
DOCKED: ATOM     12  C   UNL     1     -39.412 -22.734   8.209 -0.22 +0.00    +0.038 C  
DOCKED: BRANCH  12  13
DOCKED: ATOM     13  C   UNL     1     -39.188 -21.427   8.968 -0.11 +0.00    +0.038 C  
DOCKED: BRANCH  13  14
DOCKED: ATOM     14  C   UNL     1     -37.706 -21.060   9.004 -0.06 +0.00    +0.251 C  
DOCKED: BRANCH  14  15
DOCKED: ATOM     15  N   UNL     1     -37.086 -21.571  10.222 -0.03 +0.00    +0.141 N  
DOCKED: ATOM     16  C   UNL     1     -38.096 -21.808  11.254 -0.02 +0.00    +0.285 C  
DOCKED: ATOM     17  C   UNL     1     -36.344 -22.802   9.945 -0.06 +0.00    +0.285 C  
DOCKED: ENDBRANCH  14  15
DOCKED: ENDBRANCH  13  14
DOCKED: ENDBRANCH  12  13
DOCKED: ENDBRANCH   2  12
DOCKED: BRANCH   2  18
DOCKED: ATOM     18  C   UNL     1     -41.268 -23.964   9.319 -0.18 +0.00    +0.006 A  
DOCKED: ATOM     19  C   UNL     1     -40.309 -24.314  10.269 -0.11 +0.00    +0.001 A  
DOCKED: ATOM     20  C   UNL     1     -40.664 -25.120  11.352 -0.22 +0.00    +0.029 A  
DOCKED: ATOM     21  C   UNL     1     -41.976 -25.574  11.483 -0.05 +0.00    +0.140 A  
DOCKED: ATOM     22  C   UNL     1     -42.934 -25.223  10.533 -0.05 +0.00    +0.029 A  
DOCKED: ATOM     23  F   UNL     1     -42.317 -26.346  12.523 -0.04 -0.00    -0.204 F  
DOCKED: ATOM     24  C   UNL     1     -42.580 -24.417   9.449 -0.18 +0.00    +0.001 A  
DOCKED: ENDBRANCH   2  18
DOCKED: TORSDOF 5
DOCKED: TER
DOCKED: ENDMDL
________________________________________________________________________________


    FINAL DOCKED STATE:
    ________________________


Run:   433 / 512
Time taken for this run:   0.002s

DOCKED: MODEL        433
DOCKED: USER    Run = 433
DOCKED: USER
DOCKED: USER    Estimated Free Energy of Binding    =  -3.74 kcal/mol  [=(1)+(2)+(3)-(4)]
DOCKED: USER
DOCKED: USER    (1) Final Intermolecular Energy     =  -5.23 kcal/mol
DOCKED: USER        vdW + Hbond + desolv Energy     =  -5.23 kcal/mol
DOCKED: USER        Electrostatic Energy            =  +0.00 kcal/mol
DOCKED: USER        Moving Ligand-Fixed Receptor    =  -5.23 kcal/mol
DOCKED: USER        Moving Ligand-Moving Receptor   =  +0.00 kcal/mol
DOCKED: USER    (2) Final Total Internal Energy     =  -1.27 kcal/mol
DOCKED: USER    (3) Torsional Free Energy           =  +1.49 kcal/mol
DOCKED: USER    (4) Unbound System's Energy         =  -1.27 kcal/mol
DOCKED: USER
DOCKED: USER
DOCKED: REMARK  5 active torsions:
DOCKED: REMARK  status: ('A' for Active; 'I' for Inactive)
DOCKED: REMARK    1  A    between atoms: C_2  and  C_19 
DOCKED: REMARK    2  A    between atoms: C_2  and  C_11 
DOCKED: REMARK    3  A    between atoms: C_19  and  C_20 
DOCKED: REMARK    4  A    between atoms: C_20  and  C_21 
DOCKED: REMARK    5  A    between atoms: C_21  and  N_22 
DOCKED: USER                              x       y       z     vdW  Elec       q    Type
DOCKED: USER                           _______ _______ _______ _____ _____    ______ ____
DOCKED: ROOT
DOCKED: ATOM      1  O   UNL     1     -34.084 -21.474  -0.531 +0.00 -0.00    -0.346 OA 
DOCKED: ATOM      2  C   UNL     1     -33.590 -22.752  -1.046 -0.09 +0.00    +0.130 C  
DOCKED: ATOM      3  C   UNL     1     -33.975 -23.741   0.016 -0.13 +0.00    +0.004 A  
DOCKED: ATOM      4  C   UNL     1     -34.720 -23.105   0.999 -0.16 +0.00    +0.006 A  
DOCKED: ATOM      5  C   UNL     1     -34.888 -21.675   0.655 -0.11 +0.00    +0.169 C  
DOCKED: ATOM      6  C   UNL     1     -33.697 -25.098   0.100 -0.15 -0.00    -0.001 A  
DOCKED: ATOM      7  C   UNL     1     -35.206 -23.796   2.095 -0.28 +0.00    +0.008 A  
DOCKED: ATOM      8  C   UNL     1     -34.177 -25.808   1.202 -0.25 +0.00    +0.010 A  
DOCKED: ATOM      9  C   UNL     1     -34.929 -25.160   2.194 -0.30 +0.00    +0.068 A  
DOCKED: ATOM     10  N   UNL     1     -35.809 -26.509   4.223 -2.66 -0.00    -0.191 NA 
DOCKED: ATOM     11  C   UNL     1     -35.414 -25.904   3.313 -0.41 +0.00    +0.101 C  
DOCKED: ENDROOT
DOCKED: BRANCH   2  12
DOCKED: ATOM     12  C   UNL     1     -34.265 -23.026  -2.385 -0.05 +0.00    +0.038 C  
DOCKED: BRANCH  12  13
DOCKED: ATOM     13  C   UNL     1     -34.354 -21.759  -3.233 -0.15 +0.00    +0.038 C  
DOCKED: BRANCH  13  14
DOCKED: ATOM     14  C   UNL     1     -35.778 -21.205  -3.245 -0.07 +0.00    +0.251 C  
DOCKED: BRANCH  14  15
DOCKED: ATOM     15  N   UNL     1     -35.760 -19.759  -3.057 -0.17 +0.00    +0.141 N  
DOCKED: ATOM     16  C   UNL     1     -36.502 -19.387  -1.851 -0.17 +0.00    +0.285 C  
DOCKED: ATOM     17  C   UNL     1     -34.384 -19.266  -2.979 -0.03 +0.00    +0.285 C  
DOCKED: ENDBRANCH  14  15
DOCKED: ENDBRANCH  13  14
DOCKED: ENDBRANCH  12  13
DOCKED: ENDBRANCH   2  12
DOCKED: BRANCH   2  18
DOCKED: ATOM     18  C   UNL     1     -32.113 -22.616  -1.206 -0.02 +0.00    +0.006 A  
DOCKED: ATOM     19  C   UNL     1     -31.292 -22.563  -0.081 -0.01 +0.00    +0.001 A  
DOCKED: ATOM     20  C   UNL     1     -29.910 -22.435  -0.232 -0.00 +0.00    +0.029 A  
DOCKED: ATOM     21  C   UNL     1     -29.352 -22.361  -1.507 +0.00 +0.00    +0.140 A  
DOCKED: ATOM     22  C   UNL     1     -30.174 -22.415  -2.633 -0.00 +0.00    +0.029 A  
DOCKED: ATOM     23  F   UNL     1     -28.026 -22.241  -1.652 +0.00 -0.00    -0.204 F  
DOCKED: ATOM     24  C   UNL     1     -31.556 -22.542  -2.483 -0.01 +0.00    +0.001 A  
DOCKED: ENDBRANCH   2  18
DOCKED: TORSDOF 5
DOCKED: TER
DOCKED: ENDMDL
________________________________________________________________________________


    FINAL DOCKED STATE:
    ________________________


Run:   434 / 512
Time taken for this run:   0.002s

DOCKED: MODEL        434
DOCKED: USER    Run = 434
DOCKED: USER
DOCKED: USER    Estimated Free Energy of Binding    =  -3.90 kcal/mol  [=(1)+(2)+(3)-(4)]
DOCKED: USER
DOCKED: USER    (1) Final Intermolecular Energy     =  -5.39 kcal/mol
DOCKED: USER        vdW + Hbond + desolv Energy     =  -5.39 kcal/mol
DOCKED: USER        Electrostatic Energy            =  +0.00 kcal/mol
DOCKED: USER        Moving Ligand-Fixed Receptor    =  -5.39 kcal/mol
DOCKED: USER        Moving Ligand-Moving Receptor   =  +0.00 kcal/mol
DOCKED: USER    (2) Final Total Internal Energy     =  -1.05 kcal/mol
DOCKED: USER    (3) Torsional Free Energy           =  +1.49 kcal/mol
DOCKED: USER    (4) Unbound System's Energy         =  -1.05 kcal/mol
DOCKED: USER
DOCKED: USER
DOCKED: REMARK  5 active torsions:
DOCKED: REMARK  status: ('A' for Active; 'I' for Inactive)
DOCKED: REMARK    1  A    between atoms: C_2  and  C_19 
DOCKED: REMARK    2  A    between atoms: C_2  and  C_11 
DOCKED: REMARK    3  A    between atoms: C_19  and  C_20 
DOCKED: REMARK    4  A    between atoms: C_20  and  C_21 
DOCKED: REMARK    5  A    between atoms: C_21  and  N_22 
DOCKED: USER                              x       y       z     vdW  Elec       q    Type
DOCKED: USER                           _______ _______ _______ _____ _____    ______ ____
DOCKED: ROOT
DOCKED: ATOM      1  O   UNL     1     -41.382 -20.894  10.027 -0.00 -0.00    -0.346 OA 
DOCKED: ATOM      2  C   UNL     1     -40.777 -20.546   8.740 -0.06 +0.00    +0.130 C  
DOCKED: ATOM      3  C   UNL     1     -41.206 -21.660   7.829 -0.16 +0.00    +0.004 A  
DOCKED: ATOM      4  C   UNL     1     -42.070 -22.510   8.505 -0.11 +0.00    +0.006 A  
DOCKED: ATOM      5  C   UNL     1     -42.281 -22.018   9.885 -0.03 +0.00    +0.169 C  
DOCKED: ATOM      6  C   UNL     1     -40.867 -21.896   6.505 -0.25 -0.00    -0.001 A  
DOCKED: ATOM      7  C   UNL     1     -42.619 -23.620   7.887 -0.17 +0.00    +0.008 A  
DOCKED: ATOM      8  C   UNL     1     -41.409 -23.014   5.869 -0.32 +0.00    +0.010 A  
DOCKED: ATOM      9  C   UNL     1     -42.281 -23.871   6.556 -0.26 +0.00    +0.068 A  
DOCKED: ATOM     10  N   UNL     1     -43.274 -25.935   5.344 -2.55 -0.00    -0.191 NA 
DOCKED: ATOM     11  C   UNL     1     -42.828 -25.010   5.888 -0.34 +0.00    +0.101 C  
DOCKED: ENDROOT
DOCKED: BRANCH   2  12
DOCKED: ATOM     12  C   UNL     1     -41.312 -19.186   8.307 -0.07 +0.00    +0.038 C  
DOCKED: BRANCH  12  13
DOCKED: ATOM     13  C   UNL     1     -42.497 -19.331   7.355 -0.18 +0.00    +0.038 C  
DOCKED: BRANCH  13  14
DOCKED: ATOM     14  C   UNL     1     -42.567 -18.155   6.382 -0.14 +0.00    +0.251 C  
DOCKED: BRANCH  14  15
DOCKED: ATOM     15  N   UNL     1     -43.956 -17.811   6.102 -0.19 +0.00    +0.141 N  
DOCKED: ATOM     16  C   UNL     1     -44.845 -18.913   6.471 -0.14 +0.00    +0.285 C  
DOCKED: ATOM     17  C   UNL     1     -44.338 -16.590   6.814 -0.07 +0.00    +0.285 C  
DOCKED: ENDBRANCH  14  15
DOCKED: ENDBRANCH  13  14
DOCKED: ENDBRANCH  12  13
DOCKED: ENDBRANCH   2  12
DOCKED: BRANCH   2  18
DOCKED: ATOM     18  C   UNL     1     -39.301 -20.503   8.951 -0.07 +0.00    +0.006 A  
DOCKED: ATOM     19  C   UNL     1     -38.602 -21.676   9.234 -0.10 +0.00    +0.001 A  
DOCKED: ATOM     20  C   UNL     1     -37.221 -21.634   9.430 -0.08 +0.00    +0.029 A  
DOCKED: ATOM     21  C   UNL     1     -36.541 -20.420   9.343 -0.03 +0.00    +0.140 A  
DOCKED: ATOM     22  C   UNL     1     -37.241 -19.247   9.059 -0.02 +0.00    +0.029 A  
DOCKED: ATOM     23  F   UNL     1     -35.216 -20.380   9.530 +0.00 -0.00    -0.204 F  
DOCKED: ATOM     24  C   UNL     1     -38.622 -19.288   8.863 -0.04 +0.00    +0.001 A  
DOCKED: ENDBRANCH   2  18
DOCKED: TORSDOF 5
DOCKED: TER
DOCKED: ENDMDL
________________________________________________________________________________


    FINAL DOCKED STATE:
    ________________________


Run:   435 / 512
Time taken for this run:   0.002s

DOCKED: MODEL        435
DOCKED: USER    Run = 435
DOCKED: USER
DOCKED: USER    Estimated Free Energy of Binding    =  -5.20 kcal/mol  [=(1)+(2)+(3)-(4)]
DOCKED: USER
DOCKED: USER    (1) Final Intermolecular Energy     =  -6.69 kcal/mol
DOCKED: USER        vdW + Hbond + desolv Energy     =  -6.69 kcal/mol
DOCKED: USER        Electrostatic Energy            =  +0.00 kcal/mol
DOCKED: USER        Moving Ligand-Fixed Receptor    =  -6.69 kcal/mol
DOCKED: USER        Moving Ligand-Moving Receptor   =  +0.00 kcal/mol
DOCKED: USER    (2) Final Total Internal Energy     =  -1.02 kcal/mol
DOCKED: USER    (3) Torsional Free Energy           =  +1.49 kcal/mol
DOCKED: USER    (4) Unbound System's Energy         =  -1.02 kcal/mol
DOCKED: USER
DOCKED: USER
DOCKED: REMARK  5 active torsions:
DOCKED: REMARK  status: ('A' for Active; 'I' for Inactive)
DOCKED: REMARK    1  A    between atoms: C_2  and  C_19 
DOCKED: REMARK    2  A    between atoms: C_2  and  C_11 
DOCKED: REMARK    3  A    between atoms: C_19  and  C_20 
DOCKED: REMARK    4  A    between atoms: C_20  and  C_21 
DOCKED: REMARK    5  A    between atoms: C_21  and  N_22 
DOCKED: USER                              x       y       z     vdW  Elec       q    Type
DOCKED: USER                           _______ _______ _______ _____ _____    ______ ____
DOCKED: ROOT
DOCKED: ATOM      1  O   UNL     1     -41.058 -21.617   8.133 -0.04 -0.00    -0.346 OA 
DOCKED: ATOM      2  C   UNL     1     -40.472 -22.957   8.068 -0.20 +0.00    +0.130 C  
DOCKED: ATOM      3  C   UNL     1     -41.007 -23.522   6.784 -0.32 +0.00    +0.004 A  
DOCKED: ATOM      4  C   UNL     1     -41.745 -22.553   6.119 -0.33 +0.00    +0.006 A  
DOCKED: ATOM      5  C   UNL     1     -41.738 -21.294   6.898 -0.21 +0.00    +0.169 C  
DOCKED: ATOM      6  C   UNL     1     -40.846 -24.789   6.243 -0.37 -0.00    -0.001 A  
DOCKED: ATOM      7  C   UNL     1     -42.346 -22.815   4.900 -0.11 +0.00    +0.008 A  
DOCKED: ATOM      8  C   UNL     1     -41.449 -25.071   5.017 -0.29 +0.00    +0.010 A  
DOCKED: ATOM      9  C   UNL     1     -42.195 -24.088   4.348 -0.39 +0.00    +0.068 A  
DOCKED: ATOM     10  N   UNL     1     -43.299 -24.642   2.071 -2.44 -0.00    -0.191 NA 
DOCKED: ATOM     11  C   UNL     1     -42.804 -24.394   3.093 -0.50 +0.00    +0.101 C  
DOCKED: ENDROOT
DOCKED: BRANCH   2  12
DOCKED: ATOM     12  C   UNL     1     -38.954 -22.820   8.068 -0.18 +0.00    +0.038 C  
DOCKED: BRANCH  12  13
DOCKED: ATOM     13  C   UNL     1     -38.491 -21.747   9.053 -0.13 +0.00    +0.038 C  
DOCKED: BRANCH  13  14
DOCKED: ATOM     14  C   UNL     1     -38.536 -20.360   8.415 -0.06 +0.00    +0.251 C  
DOCKED: BRANCH  14  15
DOCKED: ATOM     15  N   UNL     1     -38.132 -20.432   7.016 -0.09 +0.00    +0.141 N  
DOCKED: ATOM     16  C   UNL     1     -38.943 -19.529   6.197 -0.11 +0.00    +0.285 C  
DOCKED: ATOM     17  C   UNL     1     -36.712 -20.109   6.871 -0.07 +0.00    +0.285 C  
DOCKED: ENDBRANCH  14  15
DOCKED: ENDBRANCH  13  14
DOCKED: ENDBRANCH  12  13
DOCKED: ENDBRANCH   2  12
DOCKED: BRANCH   2  18
DOCKED: ATOM     18  C   UNL     1     -40.945 -23.699   9.273 -0.16 +0.00    +0.006 A  
DOCKED: ATOM     19  C   UNL     1     -40.404 -23.412  10.525 -0.12 +0.00    +0.001 A  
DOCKED: ATOM     20  C   UNL     1     -40.848 -24.107  11.651 -0.12 +0.00    +0.029 A  
DOCKED: ATOM     21  C   UNL     1     -41.831 -25.087  11.523 -0.14 +0.00    +0.140 A  
DOCKED: ATOM     22  C   UNL     1     -42.373 -25.373  10.270 -0.06 +0.00    +0.029 A  
DOCKED: ATOM     23  F   UNL     1     -42.258 -25.753  12.604 -0.04 -0.00    -0.204 F  
DOCKED: ATOM     24  C   UNL     1     -41.929 -24.679   9.143 -0.23 +0.00    +0.001 A  
DOCKED: ENDBRANCH   2  18
DOCKED: TORSDOF 5
DOCKED: TER
DOCKED: ENDMDL
________________________________________________________________________________


    FINAL DOCKED STATE:
    ________________________


Run:   436 / 512
Time taken for this run:   0.002s

DOCKED: MODEL        436
DOCKED: USER    Run = 436
DOCKED: USER
DOCKED: USER    Estimated Free Energy of Binding    =  -3.60 kcal/mol  [=(1)+(2)+(3)-(4)]
DOCKED: USER
DOCKED: USER    (1) Final Intermolecular Energy     =  -5.09 kcal/mol
DOCKED: USER        vdW + Hbond + desolv Energy     =  -5.09 kcal/mol
DOCKED: USER        Electrostatic Energy            =  +0.00 kcal/mol
DOCKED: USER        Moving Ligand-Fixed Receptor    =  -5.09 kcal/mol
DOCKED: USER        Moving Ligand-Moving Receptor   =  +0.00 kcal/mol
DOCKED: USER    (2) Final Total Internal Energy     =  -1.48 kcal/mol
DOCKED: USER    (3) Torsional Free Energy           =  +1.49 kcal/mol
DOCKED: USER    (4) Unbound System's Energy         =  -1.48 kcal/mol
DOCKED: USER
DOCKED: USER
DOCKED: REMARK  5 active torsions:
DOCKED: REMARK  status: ('A' for Active; 'I' for Inactive)
DOCKED: REMARK    1  A    between atoms: C_2  and  C_19 
DOCKED: REMARK    2  A    between atoms: C_2  and  C_11 
DOCKED: REMARK    3  A    between atoms: C_19  and  C_20 
DOCKED: REMARK    4  A    between atoms: C_20  and  C_21 
DOCKED: REMARK    5  A    between atoms: C_21  and  N_22 
DOCKED: USER                              x       y       z     vdW  Elec       q    Type
DOCKED: USER                           _______ _______ _______ _____ _____    ______ ____
DOCKED: ROOT
DOCKED: ATOM      1  O   UNL     1     -35.172 -11.407  -4.680 -0.22 -0.00    -0.346 OA 
DOCKED: ATOM      2  C   UNL     1     -35.315 -12.151  -3.427 -0.09 +0.00    +0.130 C  
DOCKED: ATOM      3  C   UNL     1     -36.760 -12.555  -3.412 -0.21 +0.00    +0.004 A  
DOCKED: ATOM      4  C   UNL     1     -37.365 -12.174  -4.601 -0.29 +0.00    +0.006 A  
DOCKED: ATOM      5  C   UNL     1     -36.374 -11.511  -5.479 -0.13 +0.00    +0.169 C  
DOCKED: ATOM      6  C   UNL     1     -37.480 -13.219  -2.429 -0.23 -0.00    -0.001 A  
DOCKED: ATOM      7  C   UNL     1     -38.702 -12.436  -4.846 -0.43 +0.00    +0.008 A  
DOCKED: ATOM      8  C   UNL     1     -38.831 -13.486  -2.659 -0.33 +0.00    +0.010 A  
DOCKED: ATOM      9  C   UNL     1     -39.438 -13.097  -3.862 -0.39 +0.00    +0.068 A  
DOCKED: ATOM     10  N   UNL     1     -41.946 -13.614  -4.260 -2.06 -0.00    -0.191 NA 
DOCKED: ATOM     11  C   UNL     1     -40.821 -13.382  -4.081 +0.05 +0.00    +0.101 C  
DOCKED: ENDROOT
DOCKED: BRANCH   2  12
DOCKED: ATOM     12  C   UNL     1     -34.365 -13.342  -3.463 -0.04 +0.00    +0.038 C  
DOCKED: BRANCH  12  13
DOCKED: ATOM     13  C   UNL     1     -32.930 -12.920  -3.155 -0.02 +0.00    +0.038 C  
DOCKED: BRANCH  13  14
DOCKED: ATOM     14  C   UNL     1     -32.146 -12.659  -4.440 +0.00 +0.00    +0.251 C  
DOCKED: BRANCH  14  15
DOCKED: ATOM     15  N   UNL     1     -32.308 -11.273  -4.860 -0.02 +0.00    +0.141 N  
DOCKED: ATOM     16  C   UNL     1     -31.114 -10.492  -4.532 +0.00 +0.00    +0.285 C  
DOCKED: ATOM     17  C   UNL     1     -32.584 -11.198  -6.296 -0.01 +0.00    +0.285 C  
DOCKED: ENDBRANCH  14  15
DOCKED: ENDBRANCH  13  14
DOCKED: ENDBRANCH  12  13
DOCKED: ENDBRANCH   2  12
DOCKED: BRANCH   2  18
DOCKED: ATOM     18  C   UNL     1     -34.961 -11.213  -2.321 -0.12 +0.00    +0.006 A  
DOCKED: ATOM     19  C   UNL     1     -35.036 -11.640  -0.996 -0.15 +0.00    +0.001 A  
DOCKED: ATOM     20  C   UNL     1     -34.706 -10.763   0.038 -0.10 +0.00    +0.029 A  
DOCKED: ATOM     21  C   UNL     1     -34.301  -9.461  -0.255 -0.08 +0.00    +0.140 A  
DOCKED: ATOM     22  C   UNL     1     -34.226  -9.035  -1.581 -0.07 +0.00    +0.029 A  
DOCKED: ATOM     23  F   UNL     1     -33.982  -8.620   0.737 -0.02 -0.00    -0.204 F  
DOCKED: ATOM     24  C   UNL     1     -34.557  -9.912  -2.616 -0.12 +0.00    +0.001 A  
DOCKED: ENDBRANCH   2  18
DOCKED: TORSDOF 5
DOCKED: TER
DOCKED: ENDMDL
________________________________________________________________________________


    FINAL DOCKED STATE:
    ________________________


Run:   437 / 512
Time taken for this run:   0.002s

DOCKED: MODEL        437
DOCKED: USER    Run = 437
DOCKED: USER
DOCKED: USER    Estimated Free Energy of Binding    =  -4.19 kcal/mol  [=(1)+(2)+(3)-(4)]
DOCKED: USER
DOCKED: USER    (1) Final Intermolecular Energy     =  -5.68 kcal/mol
DOCKED: USER        vdW + Hbond + desolv Energy     =  -5.68 kcal/mol
DOCKED: USER        Electrostatic Energy            =  +0.00 kcal/mol
DOCKED: USER        Moving Ligand-Fixed Receptor    =  -5.68 kcal/mol
DOCKED: USER        Moving Ligand-Moving Receptor   =  +0.00 kcal/mol
DOCKED: USER    (2) Final Total Internal Energy     =  -1.56 kcal/mol
DOCKED: USER    (3) Torsional Free Energy           =  +1.49 kcal/mol
DOCKED: USER    (4) Unbound System's Energy         =  -1.56 kcal/mol
DOCKED: USER
DOCKED: USER
DOCKED: REMARK  5 active torsions:
DOCKED: REMARK  status: ('A' for Active; 'I' for Inactive)
DOCKED: REMARK    1  A    between atoms: C_2  and  C_19 
DOCKED: REMARK    2  A    between atoms: C_2  and  C_11 
DOCKED: REMARK    3  A    between atoms: C_19  and  C_20 
DOCKED: REMARK    4  A    between atoms: C_20  and  C_21 
DOCKED: REMARK    5  A    between atoms: C_21  and  N_22 
DOCKED: USER                              x       y       z     vdW  Elec       q    Type
DOCKED: USER                           _______ _______ _______ _____ _____    ______ ____
DOCKED: ROOT
DOCKED: ATOM      1  O   UNL     1     -38.962 -21.019   8.087 -0.07 -0.00    -0.346 OA 
DOCKED: ATOM      2  C   UNL     1     -40.195 -20.356   7.661 -0.13 +0.00    +0.130 C  
DOCKED: ATOM      3  C   UNL     1     -41.022 -21.470   7.087 -0.23 +0.00    +0.004 A  
DOCKED: ATOM      4  C   UNL     1     -40.367 -22.679   7.267 -0.24 +0.00    +0.006 A  
DOCKED: ATOM      5  C   UNL     1     -39.086 -22.456   7.975 -0.13 +0.00    +0.169 C  
DOCKED: ATOM      6  C   UNL     1     -42.261 -21.417   6.464 -0.26 -0.00    -0.001 A  
DOCKED: ATOM      7  C   UNL     1     -40.921 -23.871   6.831 -0.33 +0.00    +0.008 A  
DOCKED: ATOM      8  C   UNL     1     -42.830 -22.610   6.014 -0.26 +0.00    +0.010 A  
DOCKED: ATOM      9  C   UNL     1     -42.163 -23.831   6.198 -0.30 +0.00    +0.068 A  
DOCKED: ATOM     10  N   UNL     1     -43.251 -26.027   5.356 -2.55 -0.00    -0.191 NA 
DOCKED: ATOM     11  C   UNL     1     -42.763 -25.042   5.733 -0.36 +0.00    +0.101 C  
DOCKED: ENDROOT
DOCKED: BRANCH   2  12
DOCKED: ATOM     12  C   UNL     1     -40.840 -19.707   8.881 -0.05 +0.00    +0.038 C  
DOCKED: BRANCH  12  13
DOCKED: ATOM     13  C   UNL     1     -39.823 -19.497  10.002 -0.02 +0.00    +0.038 C  
DOCKED: BRANCH  13  14
DOCKED: ATOM     14  C   UNL     1     -39.324 -18.053  10.026 -0.00 +0.00    +0.251 C  
DOCKED: BRANCH  14  15
DOCKED: ATOM     15  N   UNL     1     -38.302 -17.852   9.006 -0.01 +0.00    +0.141 N  
DOCKED: ATOM     16  C   UNL     1     -37.796 -16.479   9.046 -0.00 +0.00    +0.285 C  
DOCKED: ATOM     17  C   UNL     1     -37.204 -18.803   9.182 -0.01 +0.00    +0.285 C  
DOCKED: ENDBRANCH  14  15
DOCKED: ENDBRANCH  13  14
DOCKED: ENDBRANCH  12  13
DOCKED: ENDBRANCH   2  12
DOCKED: BRANCH   2  18
DOCKED: ATOM     18  C   UNL     1     -39.813 -19.332   6.646 -0.16 +0.00    +0.006 A  
DOCKED: ATOM     19  C   UNL     1     -40.482 -18.110   6.602 -0.12 +0.00    +0.001 A  
DOCKED: ATOM     20  C   UNL     1     -40.123 -17.153   5.652 -0.10 +0.00    +0.029 A  
DOCKED: ATOM     21  C   UNL     1     -39.096 -17.420   4.747 -0.07 +0.00    +0.140 A  
DOCKED: ATOM     22  C   UNL     1     -38.427 -18.642   4.792 -0.13 +0.00    +0.029 A  
DOCKED: ATOM     23  F   UNL     1     -38.751 -16.501   3.837 -0.01 -0.00    -0.204 F  
DOCKED: ATOM     24  C   UNL     1     -38.785 -19.600   5.742 -0.13 +0.00    +0.001 A  
DOCKED: ENDBRANCH   2  18
DOCKED: TORSDOF 5
DOCKED: TER
DOCKED: ENDMDL
________________________________________________________________________________


    FINAL DOCKED STATE:
    ________________________


Run:   438 / 512
Time taken for this run:   0.002s

DOCKED: MODEL        438
DOCKED: USER    Run = 438
DOCKED: USER
DOCKED: USER    Estimated Free Energy of Binding    =  -4.43 kcal/mol  [=(1)+(2)+(3)-(4)]
DOCKED: USER
DOCKED: USER    (1) Final Intermolecular Energy     =  -5.92 kcal/mol
DOCKED: USER        vdW + Hbond + desolv Energy     =  -5.92 kcal/mol
DOCKED: USER        Electrostatic Energy            =  +0.00 kcal/mol
DOCKED: USER        Moving Ligand-Fixed Receptor    =  -5.92 kcal/mol
DOCKED: USER        Moving Ligand-Moving Receptor   =  +0.00 kcal/mol
DOCKED: USER    (2) Final Total Internal Energy     =  -1.08 kcal/mol
DOCKED: USER    (3) Torsional Free Energy           =  +1.49 kcal/mol
DOCKED: USER    (4) Unbound System's Energy         =  -1.08 kcal/mol
DOCKED: USER
DOCKED: USER
DOCKED: REMARK  5 active torsions:
DOCKED: REMARK  status: ('A' for Active; 'I' for Inactive)
DOCKED: REMARK    1  A    between atoms: C_2  and  C_19 
DOCKED: REMARK    2  A    between atoms: C_2  and  C_11 
DOCKED: REMARK    3  A    between atoms: C_19  and  C_20 
DOCKED: REMARK    4  A    between atoms: C_20  and  C_21 
DOCKED: REMARK    5  A    between atoms: C_21  and  N_22 
DOCKED: USER                              x       y       z     vdW  Elec       q    Type
DOCKED: USER                           _______ _______ _______ _____ _____    ______ ____
DOCKED: ROOT
DOCKED: ATOM      1  O   UNL     1     -40.793 -19.308   6.734 -0.08 -0.00    -0.346 OA 
DOCKED: ATOM      2  C   UNL     1     -42.139 -19.393   7.301 -0.15 +0.00    +0.130 C  
DOCKED: ATOM      3  C   UNL     1     -42.590 -20.781   6.948 -0.22 +0.00    +0.004 A  
DOCKED: ATOM      4  C   UNL     1     -41.553 -21.467   6.332 -0.26 +0.00    +0.006 A  
DOCKED: ATOM      5  C   UNL     1     -40.358 -20.598   6.247 -0.13 +0.00    +0.169 C  
DOCKED: ATOM      6  C   UNL     1     -43.817 -21.392   7.166 -0.21 -0.00    -0.001 A  
DOCKED: ATOM      7  C   UNL     1     -41.706 -22.777   5.911 -0.34 +0.00    +0.008 A  
DOCKED: ATOM      8  C   UNL     1     -43.988 -22.711   6.743 -0.22 +0.00    +0.010 A  
DOCKED: ATOM      9  C   UNL     1     -42.937 -23.400   6.119 -0.26 +0.00    +0.068 A  
DOCKED: ATOM     10  N   UNL     1     -43.286 -25.849   5.350 -2.56 -0.00    -0.191 NA 
DOCKED: ATOM     11  C   UNL     1     -43.130 -24.750   5.694 -0.36 +0.00    +0.101 C  
DOCKED: ENDROOT
DOCKED: BRANCH   2  12
DOCKED: ATOM     12  C   UNL     1     -42.045 -19.164   8.805 -0.05 +0.00    +0.038 C  
DOCKED: BRANCH  12  13
DOCKED: ATOM     13  C   UNL     1     -43.299 -19.659   9.523 -0.04 +0.00    +0.038 C  
DOCKED: BRANCH  13  14
DOCKED: ATOM     14  C   UNL     1     -43.781 -18.640  10.554 -0.00 +0.00    +0.251 C  
DOCKED: BRANCH  14  15
DOCKED: ATOM     15  N   UNL     1     -44.766 -17.745   9.959 -0.01 +0.00    +0.141 N  
DOCKED: ATOM     16  C   UNL     1     -46.024 -17.793  10.707 +0.00 +0.00    +0.285 C  
DOCKED: ATOM     17  C   UNL     1     -44.256 -16.374   9.912 -0.00 +0.00    +0.285 C  
DOCKED: ENDBRANCH  14  15
DOCKED: ENDBRANCH  13  14
DOCKED: ENDBRANCH  12  13
DOCKED: ENDBRANCH   2  12
DOCKED: BRANCH   2  18
DOCKED: ATOM     18  C   UNL     1     -42.957 -18.332   6.644 -0.20 +0.00    +0.006 A  
DOCKED: ATOM     19  C   UNL     1     -44.349 -18.381   6.714 -0.22 +0.00    +0.001 A  
DOCKED: ATOM     20  C   UNL     1     -45.112 -17.388   6.099 -0.16 +0.00    +0.029 A  
DOCKED: ATOM     21  C   UNL     1     -44.484 -16.347   5.417 -0.11 +0.00    +0.140 A  
DOCKED: ATOM     22  C   UNL     1     -43.092 -16.298   5.348 -0.16 +0.00    +0.029 A  
DOCKED: ATOM     23  F   UNL     1     -45.217 -15.393   4.828 -0.02 -0.00    -0.204 F  
DOCKED: ATOM     24  C   UNL     1     -42.327 -17.292   5.962 -0.16 +0.00    +0.001 A  
DOCKED: ENDBRANCH   2  18
DOCKED: TORSDOF 5
DOCKED: TER
DOCKED: ENDMDL
________________________________________________________________________________


    FINAL DOCKED STATE:
    ________________________


Run:   439 / 512
Time taken for this run:   0.002s

DOCKED: MODEL        439
DOCKED: USER    Run = 439
DOCKED: USER
DOCKED: USER    Estimated Free Energy of Binding    =  -4.17 kcal/mol  [=(1)+(2)+(3)-(4)]
DOCKED: USER
DOCKED: USER    (1) Final Intermolecular Energy     =  -5.67 kcal/mol
DOCKED: USER        vdW + Hbond + desolv Energy     =  -5.67 kcal/mol
DOCKED: USER        Electrostatic Energy            =  +0.00 kcal/mol
DOCKED: USER        Moving Ligand-Fixed Receptor    =  -5.67 kcal/mol
DOCKED: USER        Moving Ligand-Moving Receptor   =  +0.00 kcal/mol
DOCKED: USER    (2) Final Total Internal Energy     =  -1.11 kcal/mol
DOCKED: USER    (3) Torsional Free Energy           =  +1.49 kcal/mol
DOCKED: USER    (4) Unbound System's Energy         =  -1.11 kcal/mol
DOCKED: USER
DOCKED: USER
DOCKED: REMARK  5 active torsions:
DOCKED: REMARK  status: ('A' for Active; 'I' for Inactive)
DOCKED: REMARK    1  A    between atoms: C_2  and  C_19 
DOCKED: REMARK    2  A    between atoms: C_2  and  C_11 
DOCKED: REMARK    3  A    between atoms: C_19  and  C_20 
DOCKED: REMARK    4  A    between atoms: C_20  and  C_21 
DOCKED: REMARK    5  A    between atoms: C_21  and  N_22 
DOCKED: USER                              x       y       z     vdW  Elec       q    Type
DOCKED: USER                           _______ _______ _______ _____ _____    ______ ____
DOCKED: ROOT
DOCKED: ATOM      1  O   UNL     1     -35.661 -15.558  -0.746 -0.01 -0.00    -0.346 OA 
DOCKED: ATOM      2  C   UNL     1     -37.006 -15.970  -0.342 -0.12 +0.00    +0.130 C  
DOCKED: ATOM      3  C   UNL     1     -37.907 -15.247  -1.300 -0.24 +0.00    +0.004 A  
DOCKED: ATOM      4  C   UNL     1     -37.143 -14.570  -2.240 -0.19 +0.00    +0.006 A  
DOCKED: ATOM      5  C   UNL     1     -35.705 -14.804  -1.980 -0.06 +0.00    +0.169 C  
DOCKED: ATOM      6  C   UNL     1     -39.293 -15.202  -1.345 -0.14 -0.00    -0.001 A  
DOCKED: ATOM      7  C   UNL     1     -37.732 -13.825  -3.247 -0.26 +0.00    +0.008 A  
DOCKED: ATOM      8  C   UNL     1     -39.903 -14.451  -2.352 -0.09 +0.00    +0.010 A  
DOCKED: ATOM      9  C   UNL     1     -39.126 -13.767  -3.298 -0.27 +0.00    +0.068 A  
DOCKED: ATOM     10  N   UNL     1     -40.289 -12.387  -5.157 -2.41 -0.00    -0.191 NA 
DOCKED: ATOM     11  C   UNL     1     -39.767 -13.005  -4.323 -0.41 +0.00    +0.101 C  
DOCKED: ENDROOT
DOCKED: BRANCH   2  12
DOCKED: ATOM     12  C   UNL     1     -37.104 -17.486  -0.464 -0.15 +0.00    +0.038 C  
DOCKED: BRANCH  12  13
DOCKED: ATOM     13  C   UNL     1     -36.300 -18.001  -1.656 -0.14 +0.00    +0.038 C  
DOCKED: BRANCH  13  14
DOCKED: ATOM     14  C   UNL     1     -37.212 -18.662  -2.689 -0.17 +0.00    +0.251 C  
DOCKED: BRANCH  14  15
DOCKED: ATOM     15  N   UNL     1     -36.737 -18.381  -4.038 -0.17 +0.00    +0.141 N  
DOCKED: ATOM     16  C   UNL     1     -35.529 -17.555  -3.999 -0.07 +0.00    +0.285 C  
DOCKED: ATOM     17  C   UNL     1     -36.478 -19.625  -4.764 -0.20 +0.00    +0.285 C  
DOCKED: ENDBRANCH  14  15
DOCKED: ENDBRANCH  13  14
DOCKED: ENDBRANCH  12  13
DOCKED: ENDBRANCH   2  12
DOCKED: BRANCH   2  18
DOCKED: ATOM     18  C   UNL     1     -37.190 -15.531   1.073 -0.14 +0.00    +0.006 A  
DOCKED: ATOM     19  C   UNL     1     -36.301 -15.962   2.057 -0.07 +0.00    +0.001 A  
DOCKED: ATOM     20  C   UNL     1     -36.475 -15.551   3.379 -0.07 +0.00    +0.029 A  
DOCKED: ATOM     21  C   UNL     1     -37.534 -14.710   3.715 -0.11 +0.00    +0.140 A  
DOCKED: ATOM     22  C   UNL     1     -38.423 -14.279   2.730 -0.15 +0.00    +0.029 A  
DOCKED: ATOM     23  F   UNL     1     -37.699 -14.314   4.984 -0.03 -0.00    -0.204 F  
DOCKED: ATOM     24  C   UNL     1     -38.251 -14.690   1.407 -0.02 +0.00    +0.001 A  
DOCKED: ENDBRANCH   2  18
DOCKED: TORSDOF 5
DOCKED: TER
DOCKED: ENDMDL
________________________________________________________________________________


    FINAL DOCKED STATE:
    ________________________


Run:   440 / 512
Time taken for this run:   0.002s

DOCKED: MODEL        440
DOCKED: USER    Run = 440
DOCKED: USER
DOCKED: USER    Estimated Free Energy of Binding    =  -5.31 kcal/mol  [=(1)+(2)+(3)-(4)]
DOCKED: USER
DOCKED: USER    (1) Final Intermolecular Energy     =  -6.80 kcal/mol
DOCKED: USER        vdW + Hbond + desolv Energy     =  -6.80 kcal/mol
DOCKED: USER        Electrostatic Energy            =  +0.00 kcal/mol
DOCKED: USER        Moving Ligand-Fixed Receptor    =  -6.80 kcal/mol
DOCKED: USER        Moving Ligand-Moving Receptor   =  +0.00 kcal/mol
DOCKED: USER    (2) Final Total Internal Energy     =  -1.04 kcal/mol
DOCKED: USER    (3) Torsional Free Energy           =  +1.49 kcal/mol
DOCKED: USER    (4) Unbound System's Energy         =  -1.04 kcal/mol
DOCKED: USER
DOCKED: USER
DOCKED: REMARK  5 active torsions:
DOCKED: REMARK  status: ('A' for Active; 'I' for Inactive)
DOCKED: REMARK    1  A    between atoms: C_2  and  C_19 
DOCKED: REMARK    2  A    between atoms: C_2  and  C_11 
DOCKED: REMARK    3  A    between atoms: C_19  and  C_20 
DOCKED: REMARK    4  A    between atoms: C_20  and  C_21 
DOCKED: REMARK    5  A    between atoms: C_21  and  N_22 
DOCKED: USER                              x       y       z     vdW  Elec       q    Type
DOCKED: USER                           _______ _______ _______ _____ _____    ______ ____
DOCKED: ROOT
DOCKED: ATOM      1  O   UNL     1     -44.334 -23.522   8.322 -0.01 -0.00    -0.346 OA 
DOCKED: ATOM      2  C   UNL     1     -43.199 -22.715   7.874 -0.12 +0.00    +0.130 C  
DOCKED: ATOM      3  C   UNL     1     -43.050 -23.077   6.424 -0.27 +0.00    +0.004 A  
DOCKED: ATOM      4  C   UNL     1     -44.078 -23.931   6.048 -0.29 +0.00    +0.006 A  
DOCKED: ATOM      5  C   UNL     1     -44.972 -24.179   7.201 -0.17 +0.00    +0.169 C  
DOCKED: ATOM      6  C   UNL     1     -42.089 -22.674   5.509 -0.32 -0.00    -0.001 A  
DOCKED: ATOM      7  C   UNL     1     -44.178 -24.412   4.754 -0.35 +0.00    +0.008 A  
DOCKED: ATOM      8  C   UNL     1     -42.174 -23.154   4.200 -0.22 +0.00    +0.010 A  
DOCKED: ATOM      9  C   UNL     1     -43.213 -24.018   3.825 -0.34 +0.00    +0.068 A  
DOCKED: ATOM     10  N   UNL     1     -43.344 -24.886   1.388 -2.80 -0.00    -0.191 NA 
DOCKED: ATOM     11  C   UNL     1     -43.285 -24.497   2.481 -0.28 +0.00    +0.101 C  
DOCKED: ENDROOT
DOCKED: BRANCH   2  12
DOCKED: ATOM     12  C   UNL     1     -43.538 -21.245   8.086 -0.14 +0.00    +0.038 C  
DOCKED: BRANCH  12  13
DOCKED: ATOM     13  C   UNL     1     -44.187 -20.637   6.844 -0.25 +0.00    +0.038 C  
DOCKED: BRANCH  13  14
DOCKED: ATOM     14  C   UNL     1     -45.326 -19.693   7.225 -0.15 +0.00    +0.251 C  
DOCKED: BRANCH  14  15
DOCKED: ATOM     15  N   UNL     1     -44.920 -18.306   7.033 -0.15 +0.00    +0.141 N  
DOCKED: ATOM     16  C   UNL     1     -45.041 -17.555   8.284 -0.02 +0.00    +0.285 C  
DOCKED: ATOM     17  C   UNL     1     -43.547 -18.235   6.530 -0.15 +0.00    +0.285 C  
DOCKED: ENDBRANCH  14  15
DOCKED: ENDBRANCH  13  14
DOCKED: ENDBRANCH  12  13
DOCKED: ENDBRANCH   2  12
DOCKED: BRANCH   2  18
DOCKED: ATOM     18  C   UNL     1     -42.023 -23.121   8.698 -0.12 +0.00    +0.006 A  
DOCKED: ATOM     19  C   UNL     1     -40.974 -22.226   8.903 -0.11 +0.00    +0.001 A  
DOCKED: ATOM     20  C   UNL     1     -39.875 -22.607   9.674 -0.10 +0.00    +0.029 A  
DOCKED: ATOM     21  C   UNL     1     -39.826 -23.881  10.238 -0.05 +0.00    +0.140 A  
DOCKED: ATOM     22  C   UNL     1     -40.876 -24.775  10.033 -0.16 +0.00    +0.029 A  
DOCKED: ATOM     23  F   UNL     1     -38.772 -24.245  10.979 -0.02 -0.00    -0.204 F  
DOCKED: ATOM     24  C   UNL     1     -41.976 -24.395   9.261 -0.20 +0.00    +0.001 A  
DOCKED: ENDBRANCH   2  18
DOCKED: TORSDOF 5
DOCKED: TER
DOCKED: ENDMDL
________________________________________________________________________________


    FINAL DOCKED STATE:
    ________________________


Run:   441 / 512
Time taken for this run:   0.002s

DOCKED: MODEL        441
DOCKED: USER    Run = 441
DOCKED: USER
DOCKED: USER    Estimated Free Energy of Binding    =  -6.02 kcal/mol  [=(1)+(2)+(3)-(4)]
DOCKED: USER
DOCKED: USER    (1) Final Intermolecular Energy     =  -7.51 kcal/mol
DOCKED: USER        vdW + Hbond + desolv Energy     =  -7.51 kcal/mol
DOCKED: USER        Electrostatic Energy            =  +0.00 kcal/mol
DOCKED: USER        Moving Ligand-Fixed Receptor    =  -7.51 kcal/mol
DOCKED: USER        Moving Ligand-Moving Receptor   =  +0.00 kcal/mol
DOCKED: USER    (2) Final Total Internal Energy     =  -1.20 kcal/mol
DOCKED: USER    (3) Torsional Free Energy           =  +1.49 kcal/mol
DOCKED: USER    (4) Unbound System's Energy         =  -1.20 kcal/mol
DOCKED: USER
DOCKED: USER
DOCKED: REMARK  5 active torsions:
DOCKED: REMARK  status: ('A' for Active; 'I' for Inactive)
DOCKED: REMARK    1  A    between atoms: C_2  and  C_19 
DOCKED: REMARK    2  A    between atoms: C_2  and  C_11 
DOCKED: REMARK    3  A    between atoms: C_19  and  C_20 
DOCKED: REMARK    4  A    between atoms: C_20  and  C_21 
DOCKED: REMARK    5  A    between atoms: C_21  and  N_22 
DOCKED: USER                              x       y       z     vdW  Elec       q    Type
DOCKED: USER                           _______ _______ _______ _____ _____    ______ ____
DOCKED: ROOT
DOCKED: ATOM      1  O   UNL     1     -41.236 -21.991   7.923 -0.04 -0.00    -0.346 OA 
DOCKED: ATOM      2  C   UNL     1     -40.812 -23.391   7.872 -0.23 +0.00    +0.130 C  
DOCKED: ATOM      3  C   UNL     1     -41.311 -23.870   6.540 -0.35 +0.00    +0.004 A  
DOCKED: ATOM      4  C   UNL     1     -41.873 -22.810   5.843 -0.35 +0.00    +0.006 A  
DOCKED: ATOM      5  C   UNL     1     -41.775 -21.572   6.648 -0.23 +0.00    +0.169 C  
DOCKED: ATOM      6  C   UNL     1     -41.261 -25.140   5.984 -0.39 -0.00    -0.001 A  
DOCKED: ATOM      7  C   UNL     1     -42.406 -22.981   4.577 -0.02 +0.00    +0.008 A  
DOCKED: ATOM      8  C   UNL     1     -41.798 -25.330   4.710 -0.44 +0.00    +0.010 A  
DOCKED: ATOM      9  C   UNL     1     -42.367 -24.256   4.010 -0.42 +0.00    +0.068 A  
DOCKED: ATOM     10  N   UNL     1     -43.351 -24.642   1.644 -2.92 -0.00    -0.191 NA 
DOCKED: ATOM     11  C   UNL     1     -42.910 -24.469   2.705 -0.43 +0.00    +0.101 C  
DOCKED: ENDROOT
DOCKED: BRANCH   2  12
DOCKED: ATOM     12  C   UNL     1     -39.293 -23.440   7.989 -0.24 +0.00    +0.038 C  
DOCKED: BRANCH  12  13
DOCKED: ATOM     13  C   UNL     1     -38.716 -22.068   8.333 -0.18 +0.00    +0.038 C  
DOCKED: BRANCH  13  14
DOCKED: ATOM     14  C   UNL     1     -37.933 -22.114   9.643 -0.07 +0.00    +0.251 C  
DOCKED: BRANCH  14  15
DOCKED: ATOM     15  N   UNL     1     -37.454 -23.467   9.901 -0.09 +0.00    +0.141 N  
DOCKED: ATOM     16  C   UNL     1     -36.111 -23.653   9.351 -0.09 +0.00    +0.285 C  
DOCKED: ATOM     17  C   UNL     1     -37.459 -23.751  11.337 -0.06 +0.00    +0.285 C  
DOCKED: ENDBRANCH  14  15
DOCKED: ENDBRANCH  13  14
DOCKED: ENDBRANCH  12  13
DOCKED: ENDBRANCH   2  12
DOCKED: BRANCH   2  18
DOCKED: ATOM     18  C   UNL     1     -41.462 -24.086   9.021 -0.19 +0.00    +0.006 A  
DOCKED: ATOM     19  C   UNL     1     -40.702 -24.468  10.126 -0.17 +0.00    +0.001 A  
DOCKED: ATOM     20  C   UNL     1     -41.312 -25.118  11.200 -0.21 +0.00    +0.029 A  
DOCKED: ATOM     21  C   UNL     1     -42.680 -25.385  11.168 -0.02 +0.00    +0.140 A  
DOCKED: ATOM     22  C   UNL     1     -43.440 -25.002  10.063 -0.16 +0.00    +0.029 A  
DOCKED: ATOM     23  F   UNL     1     -43.265 -26.007  12.199 -0.03 -0.00    -0.204 F  
DOCKED: ATOM     24  C   UNL     1     -42.831 -24.352   8.988 -0.18 +0.00    +0.001 A  
DOCKED: ENDBRANCH   2  18
DOCKED: TORSDOF 5
DOCKED: TER
DOCKED: ENDMDL
________________________________________________________________________________


    FINAL DOCKED STATE:
    ________________________


Run:   442 / 512
Time taken for this run:   0.002s

DOCKED: MODEL        442
DOCKED: USER    Run = 442
DOCKED: USER
DOCKED: USER    Estimated Free Energy of Binding    =  -4.36 kcal/mol  [=(1)+(2)+(3)-(4)]
DOCKED: USER
DOCKED: USER    (1) Final Intermolecular Energy     =  -5.85 kcal/mol
DOCKED: USER        vdW + Hbond + desolv Energy     =  -5.85 kcal/mol
DOCKED: USER        Electrostatic Energy            =  +0.00 kcal/mol
DOCKED: USER        Moving Ligand-Fixed Receptor    =  -5.85 kcal/mol
DOCKED: USER        Moving Ligand-Moving Receptor   =  +0.00 kcal/mol
DOCKED: USER    (2) Final Total Internal Energy     =  -1.52 kcal/mol
DOCKED: USER    (3) Torsional Free Energy           =  +1.49 kcal/mol
DOCKED: USER    (4) Unbound System's Energy         =  -1.52 kcal/mol
DOCKED: USER
DOCKED: USER
DOCKED: REMARK  5 active torsions:
DOCKED: REMARK  status: ('A' for Active; 'I' for Inactive)
DOCKED: REMARK    1  A    between atoms: C_2  and  C_19 
DOCKED: REMARK    2  A    between atoms: C_2  and  C_11 
DOCKED: REMARK    3  A    between atoms: C_19  and  C_20 
DOCKED: REMARK    4  A    between atoms: C_20  and  C_21 
DOCKED: REMARK    5  A    between atoms: C_21  and  N_22 
DOCKED: USER                              x       y       z     vdW  Elec       q    Type
DOCKED: USER                           _______ _______ _______ _____ _____    ______ ____
DOCKED: ROOT
DOCKED: ATOM      1  O   UNL     1     -40.776 -19.343   7.164 -0.05 -0.00    -0.346 OA 
DOCKED: ATOM      2  C   UNL     1     -42.213 -19.349   7.440 -0.14 +0.00    +0.130 C  
DOCKED: ATOM      3  C   UNL     1     -42.656 -20.718   7.013 -0.22 +0.00    +0.004 A  
DOCKED: ATOM      4  C   UNL     1     -41.553 -21.468   6.630 -0.27 +0.00    +0.006 A  
DOCKED: ATOM      5  C   UNL     1     -40.320 -20.663   6.787 -0.19 +0.00    +0.169 C  
DOCKED: ATOM      6  C   UNL     1     -43.932 -21.261   6.977 -0.22 -0.00    -0.001 A  
DOCKED: ATOM      7  C   UNL     1     -41.685 -22.776   6.196 -0.33 +0.00    +0.008 A  
DOCKED: ATOM      8  C   UNL     1     -44.083 -22.578   6.538 -0.23 +0.00    +0.010 A  
DOCKED: ATOM      9  C   UNL     1     -42.965 -23.331   6.150 -0.25 +0.00    +0.068 A  
DOCKED: ATOM     10  N   UNL     1     -43.279 -25.773   5.344 -2.56 -0.00    -0.191 NA 
DOCKED: ATOM     11  C   UNL     1     -43.138 -24.678   5.705 -0.36 +0.00    +0.101 C  
DOCKED: ENDROOT
DOCKED: BRANCH   2  12
DOCKED: ATOM     12  C   UNL     1     -42.419 -19.096   8.929 -0.05 +0.00    +0.038 C  
DOCKED: BRANCH  12  13
DOCKED: ATOM     13  C   UNL     1     -41.996 -17.681   9.318 -0.02 +0.00    +0.038 C  
DOCKED: BRANCH  13  14
DOCKED: ATOM     14  C   UNL     1     -40.490 -17.606   9.563 -0.00 +0.00    +0.251 C  
DOCKED: BRANCH  14  15
DOCKED: ATOM     15  N   UNL     1     -39.920 -16.453   8.875 -0.00 +0.00    +0.141 N  
DOCKED: ATOM     16  C   UNL     1     -39.050 -16.884   7.780 -0.01 +0.00    +0.285 C  
DOCKED: ATOM     17  C   UNL     1     -40.980 -15.581   8.368 -0.00 +0.00    +0.285 C  
DOCKED: ENDBRANCH  14  15
DOCKED: ENDBRANCH  13  14
DOCKED: ENDBRANCH  12  13
DOCKED: ENDBRANCH   2  12
DOCKED: BRANCH   2  18
DOCKED: ATOM     18  C   UNL     1     -42.819 -18.259   6.620 -0.19 +0.00    +0.006 A  
DOCKED: ATOM     19  C   UNL     1     -44.184 -17.991   6.718 -0.20 +0.00    +0.001 A  
DOCKED: ATOM     20  C   UNL     1     -44.750 -16.973   5.950 -0.15 +0.00    +0.029 A  
DOCKED: ATOM     21  C   UNL     1     -43.951 -16.223   5.088 -0.09 +0.00    +0.140 A  
DOCKED: ATOM     22  C   UNL     1     -42.586 -16.492   4.991 -0.15 +0.00    +0.029 A  
DOCKED: ATOM     23  F   UNL     1     -44.494 -15.244   4.353 -0.03 -0.00    -0.204 F  
DOCKED: ATOM     24  C   UNL     1     -42.019 -17.511   5.758 -0.14 +0.00    +0.001 A  
DOCKED: ENDBRANCH   2  18
DOCKED: TORSDOF 5
DOCKED: TER
DOCKED: ENDMDL
________________________________________________________________________________


    FINAL DOCKED STATE:
    ________________________


Run:   443 / 512
Time taken for this run:   0.002s

DOCKED: MODEL        443
DOCKED: USER    Run = 443
DOCKED: USER
DOCKED: USER    Estimated Free Energy of Binding    =  -4.03 kcal/mol  [=(1)+(2)+(3)-(4)]
DOCKED: USER
DOCKED: USER    (1) Final Intermolecular Energy     =  -5.52 kcal/mol
DOCKED: USER        vdW + Hbond + desolv Energy     =  -5.52 kcal/mol
DOCKED: USER        Electrostatic Energy            =  +0.00 kcal/mol
DOCKED: USER        Moving Ligand-Fixed Receptor    =  -5.52 kcal/mol
DOCKED: USER        Moving Ligand-Moving Receptor   =  +0.00 kcal/mol
DOCKED: USER    (2) Final Total Internal Energy     =  -0.95 kcal/mol
DOCKED: USER    (3) Torsional Free Energy           =  +1.49 kcal/mol
DOCKED: USER    (4) Unbound System's Energy         =  -0.95 kcal/mol
DOCKED: USER
DOCKED: USER
DOCKED: REMARK  5 active torsions:
DOCKED: REMARK  status: ('A' for Active; 'I' for Inactive)
DOCKED: REMARK    1  A    between atoms: C_2  and  C_19 
DOCKED: REMARK    2  A    between atoms: C_2  and  C_11 
DOCKED: REMARK    3  A    between atoms: C_19  and  C_20 
DOCKED: REMARK    4  A    between atoms: C_20  and  C_21 
DOCKED: REMARK    5  A    between atoms: C_21  and  N_22 
DOCKED: USER                              x       y       z     vdW  Elec       q    Type
DOCKED: USER                           _______ _______ _______ _____ _____    ______ ____
DOCKED: ROOT
DOCKED: ATOM      1  O   UNL     1     -38.414 -16.580   0.783 -0.05 -0.00    -0.346 OA 
DOCKED: ATOM      2  C   UNL     1     -37.234 -16.364  -0.056 -0.12 +0.00    +0.130 C  
DOCKED: ATOM      3  C   UNL     1     -37.755 -15.551  -1.206 -0.22 +0.00    +0.004 A  
DOCKED: ATOM      4  C   UNL     1     -39.089 -15.236  -0.988 -0.28 +0.00    +0.006 A  
DOCKED: ATOM      5  C   UNL     1     -39.534 -15.799   0.307 -0.25 +0.00    +0.169 C  
DOCKED: ATOM      6  C   UNL     1     -37.098 -15.116  -2.347 -0.18 -0.00    -0.001 A  
DOCKED: ATOM      7  C   UNL     1     -39.810 -14.484  -1.900 -0.28 +0.00    +0.008 A  
DOCKED: ATOM      8  C   UNL     1     -37.812 -14.360  -3.278 -0.24 +0.00    +0.010 A  
DOCKED: ATOM      9  C   UNL     1     -39.161 -14.045  -3.055 -0.14 +0.00    +0.068 A  
DOCKED: ATOM     10  N   UNL     1     -40.456 -12.636  -4.802 -2.25 -0.00    -0.191 NA 
DOCKED: ATOM     11  C   UNL     1     -39.876 -13.268  -4.019 -0.33 +0.00    +0.101 C  
DOCKED: ENDROOT
DOCKED: BRANCH   2  12
DOCKED: ATOM     12  C   UNL     1     -36.186 -15.624   0.767 -0.10 +0.00    +0.038 C  
DOCKED: BRANCH  12  13
DOCKED: ATOM     13  C   UNL     1     -36.574 -15.567   2.243 -0.11 +0.00    +0.038 C  
DOCKED: BRANCH  13  14
DOCKED: ATOM     14  C   UNL     1     -35.381 -15.171   3.110 -0.06 +0.00    +0.251 C  
DOCKED: BRANCH  14  15
DOCKED: ATOM     15  N   UNL     1     -35.836 -14.696   4.412 -0.06 +0.00    +0.141 N  
DOCKED: ATOM     16  C   UNL     1     -35.483 -15.652   5.462 -0.01 +0.00    +0.285 C  
DOCKED: ATOM     17  C   UNL     1     -35.265 -13.381   4.709 -0.04 +0.00    +0.285 C  
DOCKED: ENDBRANCH  14  15
DOCKED: ENDBRANCH  13  14
DOCKED: ENDBRANCH  12  13
DOCKED: ENDBRANCH   2  12
DOCKED: BRANCH   2  18
DOCKED: ATOM     18  C   UNL     1     -36.741 -17.710  -0.471 -0.11 +0.00    +0.006 A  
DOCKED: ATOM     19  C   UNL     1     -35.751 -18.349   0.273 -0.06 +0.00    +0.001 A  
DOCKED: ATOM     20  C   UNL     1     -35.291 -19.608  -0.116 -0.08 +0.00    +0.029 A  
DOCKED: ATOM     21  C   UNL     1     -35.821 -20.225  -1.248 -0.15 +0.00    +0.140 A  
DOCKED: ATOM     22  C   UNL     1     -36.812 -19.584  -1.992 -0.16 +0.00    +0.029 A  
DOCKED: ATOM     23  F   UNL     1     -35.381 -21.433  -1.621 -0.05 -0.00    -0.204 F  
DOCKED: ATOM     24  C   UNL     1     -37.273 -18.325  -1.604 -0.19 +0.00    +0.001 A  
DOCKED: ENDBRANCH   2  18
DOCKED: TORSDOF 5
DOCKED: TER
DOCKED: ENDMDL
________________________________________________________________________________


    FINAL DOCKED STATE:
    ________________________


Run:   444 / 512
Time taken for this run:   0.002s

DOCKED: MODEL        444
DOCKED: USER    Run = 444
DOCKED: USER
DOCKED: USER    Estimated Free Energy of Binding    =  -4.45 kcal/mol  [=(1)+(2)+(3)-(4)]
DOCKED: USER
DOCKED: USER    (1) Final Intermolecular Energy     =  -5.94 kcal/mol
DOCKED: USER        vdW + Hbond + desolv Energy     =  -5.94 kcal/mol
DOCKED: USER        Electrostatic Energy            =  +0.00 kcal/mol
DOCKED: USER        Moving Ligand-Fixed Receptor    =  -5.94 kcal/mol
DOCKED: USER        Moving Ligand-Moving Receptor   =  +0.00 kcal/mol
DOCKED: USER    (2) Final Total Internal Energy     =  -1.42 kcal/mol
DOCKED: USER    (3) Torsional Free Energy           =  +1.49 kcal/mol
DOCKED: USER    (4) Unbound System's Energy         =  -1.42 kcal/mol
DOCKED: USER
DOCKED: USER
DOCKED: REMARK  5 active torsions:
DOCKED: REMARK  status: ('A' for Active; 'I' for Inactive)
DOCKED: REMARK    1  A    between atoms: C_2  and  C_19 
DOCKED: REMARK    2  A    between atoms: C_2  and  C_11 
DOCKED: REMARK    3  A    between atoms: C_19  and  C_20 
DOCKED: REMARK    4  A    between atoms: C_20  and  C_21 
DOCKED: REMARK    5  A    between atoms: C_21  and  N_22 
DOCKED: USER                              x       y       z     vdW  Elec       q    Type
DOCKED: USER                           _______ _______ _______ _____ _____    ______ ____
DOCKED: ROOT
DOCKED: ATOM      1  O   UNL     1     -38.333 -16.265   0.259 -0.06 -0.00    -0.346 OA 
DOCKED: ATOM      2  C   UNL     1     -37.113 -15.895  -0.460 -0.13 +0.00    +0.130 C  
DOCKED: ATOM      3  C   UNL     1     -37.611 -15.080  -1.618 -0.22 +0.00    +0.004 A  
DOCKED: ATOM      4  C   UNL     1     -38.984 -14.905  -1.510 -0.30 +0.00    +0.006 A  
DOCKED: ATOM      5  C   UNL     1     -39.480 -15.572  -0.285 -0.23 +0.00    +0.169 C  
DOCKED: ATOM      6  C   UNL     1     -36.905 -14.527  -2.676 -0.17 -0.00    -0.001 A  
DOCKED: ATOM      7  C   UNL     1     -39.695 -14.181  -2.451 -0.31 +0.00    +0.008 A  
DOCKED: ATOM      8  C   UNL     1     -37.608 -13.797  -3.636 -0.25 +0.00    +0.010 A  
DOCKED: ATOM      9  C   UNL     1     -38.996 -13.625  -3.524 -0.28 +0.00    +0.068 A  
DOCKED: ATOM     10  N   UNL     1     -40.269 -12.260  -5.321 -2.42 -0.00    -0.191 NA 
DOCKED: ATOM     11  C   UNL     1     -39.698 -12.873  -4.515 -0.37 +0.00    +0.101 C  
DOCKED: ENDROOT
DOCKED: BRANCH   2  12
DOCKED: ATOM     12  C   UNL     1     -36.218 -15.101   0.484 -0.13 +0.00    +0.038 C  
DOCKED: BRANCH  12  13
DOCKED: ATOM     13  C   UNL     1     -36.721 -15.178   1.924 -0.14 +0.00    +0.038 C  
DOCKED: BRANCH  13  14
DOCKED: ATOM     14  C   UNL     1     -36.479 -16.564   2.517 -0.03 +0.00    +0.251 C  
DOCKED: BRANCH  14  15
DOCKED: ATOM     15  N   UNL     1     -37.676 -17.039   3.202 -0.06 +0.00    +0.141 N  
DOCKED: ATOM     16  C   UNL     1     -38.558 -15.919   3.535 -0.07 +0.00    +0.285 C  
DOCKED: ATOM     17  C   UNL     1     -38.387 -18.018   2.379 -0.08 +0.00    +0.285 C  
DOCKED: ENDBRANCH  14  15
DOCKED: ENDBRANCH  13  14
DOCKED: ENDBRANCH  12  13
DOCKED: ENDBRANCH   2  12
DOCKED: BRANCH   2  18
DOCKED: ATOM     18  C   UNL     1     -36.454 -17.165  -0.884 -0.09 +0.00    +0.006 A  
DOCKED: ATOM     19  C   UNL     1     -37.096 -18.016  -1.784 -0.21 +0.00    +0.001 A  
DOCKED: ATOM     20  C   UNL     1     -36.479 -19.204  -2.179 -0.21 +0.00    +0.029 A  
DOCKED: ATOM     21  C   UNL     1     -35.223 -19.538  -1.676 -0.09 +0.00    +0.140 A  
DOCKED: ATOM     22  C   UNL     1     -34.582 -18.687  -0.776 -0.03 +0.00    +0.029 A  
DOCKED: ATOM     23  F   UNL     1     -34.630 -20.677  -2.057 -0.04 -0.00    -0.204 F  
DOCKED: ATOM     24  C   UNL     1     -35.198 -17.499  -0.380 -0.03 +0.00    +0.001 A  
DOCKED: ENDBRANCH   2  18
DOCKED: TORSDOF 5
DOCKED: TER
DOCKED: ENDMDL
________________________________________________________________________________


    FINAL DOCKED STATE:
    ________________________


Run:   445 / 512
Time taken for this run:   0.002s

DOCKED: MODEL        445
DOCKED: USER    Run = 445
DOCKED: USER
DOCKED: USER    Estimated Free Energy of Binding    =  -3.40 kcal/mol  [=(1)+(2)+(3)-(4)]
DOCKED: USER
DOCKED: USER    (1) Final Intermolecular Energy     =  -4.89 kcal/mol
DOCKED: USER        vdW + Hbond + desolv Energy     =  -4.89 kcal/mol
DOCKED: USER        Electrostatic Energy            =  +0.00 kcal/mol
DOCKED: USER        Moving Ligand-Fixed Receptor    =  -4.89 kcal/mol
DOCKED: USER        Moving Ligand-Moving Receptor   =  +0.00 kcal/mol
DOCKED: USER    (2) Final Total Internal Energy     =  -1.24 kcal/mol
DOCKED: USER    (3) Torsional Free Energy           =  +1.49 kcal/mol
DOCKED: USER    (4) Unbound System's Energy         =  -1.24 kcal/mol
DOCKED: USER
DOCKED: USER
DOCKED: REMARK  5 active torsions:
DOCKED: REMARK  status: ('A' for Active; 'I' for Inactive)
DOCKED: REMARK    1  A    between atoms: C_2  and  C_19 
DOCKED: REMARK    2  A    between atoms: C_2  and  C_11 
DOCKED: REMARK    3  A    between atoms: C_19  and  C_20 
DOCKED: REMARK    4  A    between atoms: C_20  and  C_21 
DOCKED: REMARK    5  A    between atoms: C_21  and  N_22 
DOCKED: USER                              x       y       z     vdW  Elec       q    Type
DOCKED: USER                           _______ _______ _______ _____ _____    ______ ____
DOCKED: ROOT
DOCKED: ATOM      1  O   UNL     1     -45.601 -22.091   6.863 -0.09 -0.00    -0.346 OA 
DOCKED: ATOM      2  C   UNL     1     -44.187 -22.400   7.079 -0.18 +0.00    +0.130 C  
DOCKED: ATOM      3  C   UNL     1     -43.509 -21.063   6.992 -0.22 +0.00    +0.004 A  
DOCKED: ATOM      4  C   UNL     1     -44.462 -20.064   6.849 -0.24 +0.00    +0.006 A  
DOCKED: ATOM      5  C   UNL     1     -45.817 -20.660   6.845 -0.20 +0.00    +0.169 C  
DOCKED: ATOM      6  C   UNL     1     -42.158 -20.754   7.046 -0.21 -0.00    -0.001 A  
DOCKED: ATOM      7  C   UNL     1     -44.101 -18.732   6.751 -0.22 +0.00    +0.008 A  
DOCKED: ATOM      8  C   UNL     1     -41.777 -19.415   6.944 -0.18 +0.00    +0.010 A  
DOCKED: ATOM      9  C   UNL     1     -42.744 -18.409   6.798 -0.17 +0.00    +0.068 A  
DOCKED: ATOM     10  N   UNL     1     -42.003 -15.933   6.618 -0.03 -0.00    -0.191 NA 
DOCKED: ATOM     11  C   UNL     1     -42.335 -17.043   6.698 -0.12 +0.00    +0.101 C  
DOCKED: ENDROOT
DOCKED: BRANCH   2  12
DOCKED: ATOM     12  C   UNL     1     -44.039 -23.051   8.449 -0.13 +0.00    +0.038 C  
DOCKED: BRANCH  12  13
DOCKED: ATOM     13  C   UNL     1     -42.968 -24.140   8.436 -0.20 +0.00    +0.038 C  
DOCKED: BRANCH  13  14
DOCKED: ATOM     14  C   UNL     1     -41.601 -23.571   8.813 -0.09 +0.00    +0.251 C  
DOCKED: BRANCH  14  15
DOCKED: ATOM     15  N   UNL     1     -40.658 -23.747   7.714 -0.22 +0.00    +0.141 N  
DOCKED: ATOM     16  C   UNL     1     -39.319 -23.306   8.108 -0.12 +0.00    +0.285 C  
DOCKED: ATOM     17  C   UNL     1     -40.626 -25.145   7.282 -0.22 +0.00    +0.285 C  
DOCKED: ENDBRANCH  14  15
DOCKED: ENDBRANCH  13  14
DOCKED: ENDBRANCH  12  13
DOCKED: ENDBRANCH   2  12
DOCKED: BRANCH   2  18
DOCKED: ATOM     18  C   UNL     1     -43.773 -23.334   5.992 -0.27 +0.00    +0.006 A  
DOCKED: ATOM     19  C   UNL     1     -42.546 -23.159   5.352 -0.35 +0.00    +0.001 A  
DOCKED: ATOM     20  C   UNL     1     -42.161 -24.033   4.335 -0.41 +0.00    +0.029 A  
DOCKED: ATOM     21  C   UNL     1     -43.001 -25.080   3.960 -0.37 +0.00    +0.140 A  
DOCKED: ATOM     22  C   UNL     1     -44.228 -25.254   4.600 -0.32 +0.00    +0.029 A  
DOCKED: ATOM     23  F   UNL     1     -42.630 -25.920   2.984 +0.00 -0.00    -0.204 F  
DOCKED: ATOM     24  C   UNL     1     -44.614 -24.380   5.617 -0.33 +0.00    +0.001 A  
DOCKED: ENDBRANCH   2  18
DOCKED: TORSDOF 5
DOCKED: TER
DOCKED: ENDMDL
________________________________________________________________________________


    FINAL DOCKED STATE:
    ________________________


Run:   446 / 512
Time taken for this run:   0.002s

DOCKED: MODEL        446
DOCKED: USER    Run = 446
DOCKED: USER
DOCKED: USER    Estimated Free Energy of Binding    =  -4.14 kcal/mol  [=(1)+(2)+(3)-(4)]
DOCKED: USER
DOCKED: USER    (1) Final Intermolecular Energy     =  -5.63 kcal/mol
DOCKED: USER        vdW + Hbond + desolv Energy     =  -5.63 kcal/mol
DOCKED: USER        Electrostatic Energy            =  +0.00 kcal/mol
DOCKED: USER        Moving Ligand-Fixed Receptor    =  -5.63 kcal/mol
DOCKED: USER        Moving Ligand-Moving Receptor   =  +0.00 kcal/mol
DOCKED: USER    (2) Final Total Internal Energy     =  -1.46 kcal/mol
DOCKED: USER    (3) Torsional Free Energy           =  +1.49 kcal/mol
DOCKED: USER    (4) Unbound System's Energy         =  -1.46 kcal/mol
DOCKED: USER
DOCKED: USER
DOCKED: REMARK  5 active torsions:
DOCKED: REMARK  status: ('A' for Active; 'I' for Inactive)
DOCKED: REMARK    1  A    between atoms: C_2  and  C_19 
DOCKED: REMARK    2  A    between atoms: C_2  and  C_11 
DOCKED: REMARK    3  A    between atoms: C_19  and  C_20 
DOCKED: REMARK    4  A    between atoms: C_20  and  C_21 
DOCKED: REMARK    5  A    between atoms: C_21  and  N_22 
DOCKED: USER                              x       y       z     vdW  Elec       q    Type
DOCKED: USER                           _______ _______ _______ _____ _____    ______ ____
DOCKED: ROOT
DOCKED: ATOM      1  O   UNL     1     -38.787 -22.085   8.807 -0.07 -0.00    -0.346 OA 
DOCKED: ATOM      2  C   UNL     1     -39.898 -21.233   8.381 -0.11 +0.00    +0.130 C  
DOCKED: ATOM      3  C   UNL     1     -40.768 -22.152   7.573 -0.21 +0.00    +0.004 A  
DOCKED: ATOM      4  C   UNL     1     -40.258 -23.441   7.624 -0.28 +0.00    +0.006 A  
DOCKED: ATOM      5  C   UNL     1     -39.042 -23.468   8.467 -0.14 +0.00    +0.169 C  
DOCKED: ATOM      6  C   UNL     1     -41.924 -21.871   6.860 -0.26 -0.00    -0.001 A  
DOCKED: ATOM      7  C   UNL     1     -40.879 -24.488   6.964 -0.37 +0.00    +0.008 A  
DOCKED: ATOM      8  C   UNL     1     -42.560 -22.915   6.185 -0.31 +0.00    +0.010 A  
DOCKED: ATOM      9  C   UNL     1     -42.040 -24.217   6.238 -0.31 +0.00    +0.068 A  
DOCKED: ATOM     10  N   UNL     1     -43.247 -26.132   4.979 -2.37 -0.00    -0.191 NA 
DOCKED: ATOM     11  C   UNL     1     -42.705 -25.273   5.543 -0.33 +0.00    +0.101 C  
DOCKED: ENDROOT
DOCKED: BRANCH   2  12
DOCKED: ATOM     12  C   UNL     1     -40.597 -20.695   9.625 -0.04 +0.00    +0.038 C  
DOCKED: BRANCH  12  13
DOCKED: ATOM     13  C   UNL     1     -41.030 -21.827  10.554 -0.04 +0.00    +0.038 C  
DOCKED: BRANCH  13  14
DOCKED: ATOM     14  C   UNL     1     -42.487 -22.213  10.309 -0.02 +0.00    +0.251 C  
DOCKED: BRANCH  14  15
DOCKED: ATOM     15  N   UNL     1     -42.705 -23.614  10.650 -0.06 +0.00    +0.141 N  
DOCKED: ATOM     16  C   UNL     1     -43.342 -24.322   9.538 -0.07 +0.00    +0.285 C  
DOCKED: ATOM     17  C   UNL     1     -41.442 -24.260  11.006 -0.09 +0.00    +0.285 C  
DOCKED: ENDBRANCH  14  15
DOCKED: ENDBRANCH  13  14
DOCKED: ENDBRANCH  12  13
DOCKED: ENDBRANCH   2  12
DOCKED: BRANCH   2  18
DOCKED: ATOM     18  C   UNL     1     -39.313 -20.124   7.572 -0.13 +0.00    +0.006 A  
DOCKED: ATOM     19  C   UNL     1     -40.005 -18.922   7.431 -0.10 +0.00    +0.001 A  
DOCKED: ATOM     20  C   UNL     1     -39.456 -17.887   6.673 -0.08 +0.00    +0.029 A  
DOCKED: ATOM     21  C   UNL     1     -38.217 -18.055   6.058 -0.06 +0.00    +0.140 A  
DOCKED: ATOM     22  C   UNL     1     -37.525 -19.258   6.199 -0.11 +0.00    +0.029 A  
DOCKED: ATOM     23  F   UNL     1     -37.690 -17.061   5.332 -0.00 -0.00    -0.204 F  
DOCKED: ATOM     24  C   UNL     1     -38.073 -20.294   6.956 -0.06 +0.00    +0.001 A  
DOCKED: ENDBRANCH   2  18
DOCKED: TORSDOF 5
DOCKED: TER
DOCKED: ENDMDL
________________________________________________________________________________


    FINAL DOCKED STATE:
    ________________________


Run:   447 / 512
Time taken for this run:   0.002s

DOCKED: MODEL        447
DOCKED: USER    Run = 447
DOCKED: USER
DOCKED: USER    Estimated Free Energy of Binding    =  -4.31 kcal/mol  [=(1)+(2)+(3)-(4)]
DOCKED: USER
DOCKED: USER    (1) Final Intermolecular Energy     =  -5.80 kcal/mol
DOCKED: USER        vdW + Hbond + desolv Energy     =  -5.80 kcal/mol
DOCKED: USER        Electrostatic Energy            =  +0.00 kcal/mol
DOCKED: USER        Moving Ligand-Fixed Receptor    =  -5.80 kcal/mol
DOCKED: USER        Moving Ligand-Moving Receptor   =  +0.00 kcal/mol
DOCKED: USER    (2) Final Total Internal Energy     =  -1.51 kcal/mol
DOCKED: USER    (3) Torsional Free Energy           =  +1.49 kcal/mol
DOCKED: USER    (4) Unbound System's Energy         =  -1.51 kcal/mol
DOCKED: USER
DOCKED: USER
DOCKED: REMARK  5 active torsions:
DOCKED: REMARK  status: ('A' for Active; 'I' for Inactive)
DOCKED: REMARK    1  A    between atoms: C_2  and  C_19 
DOCKED: REMARK    2  A    between atoms: C_2  and  C_11 
DOCKED: REMARK    3  A    between atoms: C_19  and  C_20 
DOCKED: REMARK    4  A    between atoms: C_20  and  C_21 
DOCKED: REMARK    5  A    between atoms: C_21  and  N_22 
DOCKED: USER                              x       y       z     vdW  Elec       q    Type
DOCKED: USER                           _______ _______ _______ _____ _____    ______ ____
DOCKED: ROOT
DOCKED: ATOM      1  O   UNL     1     -38.361 -21.750   8.435 -0.08 -0.00    -0.346 OA 
DOCKED: ATOM      2  C   UNL     1     -39.373 -20.868   7.852 -0.13 +0.00    +0.130 C  
DOCKED: ATOM      3  C   UNL     1     -40.348 -21.812   7.212 -0.22 +0.00    +0.004 A  
DOCKED: ATOM      4  C   UNL     1     -39.987 -23.121   7.498 -0.22 +0.00    +0.006 A  
DOCKED: ATOM      5  C   UNL     1     -38.773 -23.134   8.345 -0.18 +0.00    +0.169 C  
DOCKED: ATOM      6  C   UNL     1     -41.471 -21.535   6.447 -0.28 -0.00    -0.001 A  
DOCKED: ATOM      7  C   UNL     1     -40.728 -24.192   7.028 -0.35 +0.00    +0.008 A  
DOCKED: ATOM      8  C   UNL     1     -42.227 -22.604   5.962 -0.32 +0.00    +0.010 A  
DOCKED: ATOM      9  C   UNL     1     -41.857 -23.926   6.253 -0.31 +0.00    +0.068 A  
DOCKED: ATOM     10  N   UNL     1     -43.285 -25.887   5.343 -2.56 -0.00    -0.191 NA 
DOCKED: ATOM     11  C   UNL     1     -42.644 -25.008   5.750 -0.37 +0.00    +0.101 C  
DOCKED: ENDROOT
DOCKED: BRANCH   2  12
DOCKED: ATOM     12  C   UNL     1     -39.995 -20.041   8.971 -0.06 +0.00    +0.038 C  
DOCKED: BRANCH  12  13
DOCKED: ATOM     13  C   UNL     1     -39.223 -20.204  10.279 -0.02 +0.00    +0.038 C  
DOCKED: BRANCH  13  14
DOCKED: ATOM     14  C   UNL     1     -38.117 -19.158  10.399 -0.00 +0.00    +0.251 C  
DOCKED: BRANCH  14  15
DOCKED: ATOM     15  N   UNL     1     -36.902 -19.628   9.743 -0.01 +0.00    +0.141 N  
DOCKED: ATOM     16  C   UNL     1     -35.934 -18.538   9.609 -0.00 +0.00    +0.285 C  
DOCKED: ATOM     17  C   UNL     1     -36.312 -20.742  10.488 -0.01 +0.00    +0.285 C  
DOCKED: ENDBRANCH  14  15
DOCKED: ENDBRANCH  13  14
DOCKED: ENDBRANCH  12  13
DOCKED: ENDBRANCH   2  12
DOCKED: BRANCH   2  18
DOCKED: ATOM     18  C   UNL     1     -38.673 -19.996   6.864 -0.14 +0.00    +0.006 A  
DOCKED: ATOM     19  C   UNL     1     -39.399 -19.071   6.114 -0.16 +0.00    +0.001 A  
DOCKED: ATOM     20  C   UNL     1     -38.743 -18.256   5.190 -0.12 +0.00    +0.029 A  
DOCKED: ATOM     21  C   UNL     1     -37.364 -18.367   5.018 -0.08 +0.00    +0.140 A  
DOCKED: ATOM     22  C   UNL     1     -36.639 -19.292   5.768 -0.10 +0.00    +0.029 A  
DOCKED: ATOM     23  F   UNL     1     -36.735 -17.584   4.132 -0.00 -0.00    -0.204 F  
DOCKED: ATOM     24  C   UNL     1     -37.294 -20.108   6.692 -0.09 +0.00    +0.001 A  
DOCKED: ENDBRANCH   2  18
DOCKED: TORSDOF 5
DOCKED: TER
DOCKED: ENDMDL
________________________________________________________________________________


    FINAL DOCKED STATE:
    ________________________


Run:   448 / 512
Time taken for this run:   0.002s

DOCKED: MODEL        448
DOCKED: USER    Run = 448
DOCKED: USER
DOCKED: USER    Estimated Free Energy of Binding    =  -3.88 kcal/mol  [=(1)+(2)+(3)-(4)]
DOCKED: USER
DOCKED: USER    (1) Final Intermolecular Energy     =  -5.37 kcal/mol
DOCKED: USER        vdW + Hbond + desolv Energy     =  -5.37 kcal/mol
DOCKED: USER        Electrostatic Energy            =  +0.00 kcal/mol
DOCKED: USER        Moving Ligand-Fixed Receptor    =  -5.37 kcal/mol
DOCKED: USER        Moving Ligand-Moving Receptor   =  +0.00 kcal/mol
DOCKED: USER    (2) Final Total Internal Energy     =  -1.20 kcal/mol
DOCKED: USER    (3) Torsional Free Energy           =  +1.49 kcal/mol
DOCKED: USER    (4) Unbound System's Energy         =  -1.20 kcal/mol
DOCKED: USER
DOCKED: USER
DOCKED: REMARK  5 active torsions:
DOCKED: REMARK  status: ('A' for Active; 'I' for Inactive)
DOCKED: REMARK    1  A    between atoms: C_2  and  C_19 
DOCKED: REMARK    2  A    between atoms: C_2  and  C_11 
DOCKED: REMARK    3  A    between atoms: C_19  and  C_20 
DOCKED: REMARK    4  A    between atoms: C_20  and  C_21 
DOCKED: REMARK    5  A    between atoms: C_21  and  N_22 
DOCKED: USER                              x       y       z     vdW  Elec       q    Type
DOCKED: USER                           _______ _______ _______ _____ _____    ______ ____
DOCKED: ROOT
DOCKED: ATOM      1  O   UNL     1     -45.629 -19.908   7.554 -0.06 -0.00    -0.346 OA 
DOCKED: ATOM      2  C   UNL     1     -44.197 -19.891   7.853 -0.13 +0.00    +0.130 C  
DOCKED: ATOM      3  C   UNL     1     -43.715 -21.232   7.378 -0.19 +0.00    +0.004 A  
DOCKED: ATOM      4  C   UNL     1     -44.756 -21.911   6.762 -0.21 +0.00    +0.006 A  
DOCKED: ATOM      5  C   UNL     1     -45.978 -21.075   6.774 -0.18 +0.00    +0.169 C  
DOCKED: ATOM      6  C   UNL     1     -42.453 -21.800   7.474 -0.18 -0.00    -0.001 A  
DOCKED: ATOM      7  C   UNL     1     -44.576 -23.175   6.227 -0.26 +0.00    +0.008 A  
DOCKED: ATOM      8  C   UNL     1     -42.256 -23.076   6.944 -0.25 +0.00    +0.010 A  
DOCKED: ATOM      9  C   UNL     1     -43.312 -23.760   6.323 -0.23 +0.00    +0.068 A  
DOCKED: ATOM     10  N   UNL     1     -42.911 -26.125   5.344 -2.61 -0.00    -0.191 NA 
DOCKED: ATOM     11  C   UNL     1     -43.091 -25.064   5.784 -0.33 +0.00    +0.101 C  
DOCKED: ENDROOT
DOCKED: BRANCH   2  12
DOCKED: ATOM     12  C   UNL     1     -43.559 -18.730   7.098 -0.21 +0.00    +0.038 C  
DOCKED: BRANCH  12  13
DOCKED: ATOM     13  C   UNL     1     -42.448 -18.077   7.917 -0.08 +0.00    +0.038 C  
DOCKED: BRANCH  13  14
DOCKED: ATOM     14  C   UNL     1     -41.128 -18.075   7.148 -0.08 +0.00    +0.251 C  
DOCKED: BRANCH  14  15
DOCKED: ATOM     15  N   UNL     1     -40.511 -19.395   7.196 -0.11 +0.00    +0.141 N  
DOCKED: ATOM     16  C   UNL     1     -39.567 -19.564   6.089 -0.12 +0.00    +0.285 C  
DOCKED: ATOM     17  C   UNL     1     -39.833 -19.602   8.477 -0.04 +0.00    +0.285 C  
DOCKED: ENDBRANCH  14  15
DOCKED: ENDBRANCH  13  14
DOCKED: ENDBRANCH  12  13
DOCKED: ENDBRANCH   2  12
DOCKED: BRANCH   2  18
DOCKED: ATOM     18  C   UNL     1     -44.061 -19.713   9.328 -0.04 +0.00    +0.006 A  
DOCKED: ATOM     19  C   UNL     1     -43.043 -20.370  10.018 -0.02 +0.00    +0.001 A  
DOCKED: ATOM     20  C   UNL     1     -42.917 -20.203  11.398 -0.00 +0.00    +0.029 A  
DOCKED: ATOM     21  C   UNL     1     -43.809 -19.380  12.085 -0.00 +0.00    +0.140 A  
DOCKED: ATOM     22  C   UNL     1     -44.827 -18.724  11.394 -0.00 +0.00    +0.029 A  
DOCKED: ATOM     23  F   UNL     1     -43.687 -19.219  13.409 -0.00 -0.00    -0.204 F  
DOCKED: ATOM     24  C   UNL     1     -44.954 -18.890  10.014 -0.02 +0.00    +0.001 A  
DOCKED: ENDBRANCH   2  18
DOCKED: TORSDOF 5
DOCKED: TER
DOCKED: ENDMDL
________________________________________________________________________________


    FINAL DOCKED STATE:
    ________________________


Run:   449 / 512
Time taken for this run:   0.002s

DOCKED: MODEL        449
DOCKED: USER    Run = 449
DOCKED: USER
DOCKED: USER    Estimated Free Energy of Binding    =  -4.13 kcal/mol  [=(1)+(2)+(3)-(4)]
DOCKED: USER
DOCKED: USER    (1) Final Intermolecular Energy     =  -5.63 kcal/mol
DOCKED: USER        vdW + Hbond + desolv Energy     =  -5.63 kcal/mol
DOCKED: USER        Electrostatic Energy            =  +0.00 kcal/mol
DOCKED: USER        Moving Ligand-Fixed Receptor    =  -5.63 kcal/mol
DOCKED: USER        Moving Ligand-Moving Receptor   =  +0.00 kcal/mol
DOCKED: USER    (2) Final Total Internal Energy     =  -1.50 kcal/mol
DOCKED: USER    (3) Torsional Free Energy           =  +1.49 kcal/mol
DOCKED: USER    (4) Unbound System's Energy         =  -1.50 kcal/mol
DOCKED: USER
DOCKED: USER
DOCKED: REMARK  5 active torsions:
DOCKED: REMARK  status: ('A' for Active; 'I' for Inactive)
DOCKED: REMARK    1  A    between atoms: C_2  and  C_19 
DOCKED: REMARK    2  A    between atoms: C_2  and  C_11 
DOCKED: REMARK    3  A    between atoms: C_19  and  C_20 
DOCKED: REMARK    4  A    between atoms: C_20  and  C_21 
DOCKED: REMARK    5  A    between atoms: C_21  and  N_22 
DOCKED: USER                              x       y       z     vdW  Elec       q    Type
DOCKED: USER                           _______ _______ _______ _____ _____    ______ ____
DOCKED: ROOT
DOCKED: ATOM      1  O   UNL     1     -41.324 -19.515   8.025 -0.02 -0.00    -0.346 OA 
DOCKED: ATOM      2  C   UNL     1     -42.777 -19.556   7.857 -0.12 +0.00    +0.130 C  
DOCKED: ATOM      3  C   UNL     1     -43.033 -20.916   7.276 -0.20 +0.00    +0.004 A  
DOCKED: ATOM      4  C   UNL     1     -41.846 -21.631   7.220 -0.22 +0.00    +0.006 A  
DOCKED: ATOM      5  C   UNL     1     -40.739 -20.812   7.764 -0.13 +0.00    +0.169 C  
DOCKED: ATOM      6  C   UNL     1     -44.224 -21.479   6.842 -0.22 -0.00    -0.001 A  
DOCKED: ATOM      7  C   UNL     1     -41.806 -22.925   6.727 -0.29 +0.00    +0.008 A  
DOCKED: ATOM      8  C   UNL     1     -44.200 -22.781   6.339 -0.22 +0.00    +0.010 A  
DOCKED: ATOM      9  C   UNL     1     -42.997 -23.500   6.282 -0.24 +0.00    +0.068 A  
DOCKED: ATOM     10  N   UNL     1     -42.988 -25.916   5.347 -2.51 -0.00    -0.191 NA 
DOCKED: ATOM     11  C   UNL     1     -42.992 -24.832   5.766 -0.36 +0.00    +0.101 C  
DOCKED: ENDROOT
DOCKED: BRANCH   2  12
DOCKED: ATOM     12  C   UNL     1     -43.426 -19.362   9.223 -0.04 +0.00    +0.038 C  
DOCKED: BRANCH  12  13
DOCKED: ATOM     13  C   UNL     1     -42.544 -19.910  10.342 -0.02 +0.00    +0.038 C  
DOCKED: BRANCH  13  14
DOCKED: ATOM     14  C   UNL     1     -43.208 -21.101  11.032 -0.00 +0.00    +0.251 C  
DOCKED: BRANCH  14  15
DOCKED: ATOM     15  N   UNL     1     -43.235 -22.253  10.139 -0.02 +0.00    +0.141 N  
DOCKED: ATOM     16  C   UNL     1     -42.163 -23.192  10.475 -0.03 +0.00    +0.285 C  
DOCKED: ATOM     17  C   UNL     1     -44.535 -22.924  10.203 -0.01 +0.00    +0.285 C  
DOCKED: ENDBRANCH  14  15
DOCKED: ENDBRANCH  13  14
DOCKED: ENDBRANCH  12  13
DOCKED: ENDBRANCH   2  12
DOCKED: BRANCH   2  18
DOCKED: ATOM     18  C   UNL     1     -43.140 -18.447   6.926 -0.19 +0.00    +0.006 A  
DOCKED: ATOM     19  C   UNL     1     -44.454 -17.985   6.873 -0.19 +0.00    +0.001 A  
DOCKED: ATOM     20  C   UNL     1     -44.792 -16.949   6.001 -0.15 +0.00    +0.029 A  
DOCKED: ATOM     21  C   UNL     1     -43.817 -16.377   5.186 -0.10 +0.00    +0.140 A  
DOCKED: ATOM     22  C   UNL     1     -42.502 -16.840   5.240 -0.13 +0.00    +0.029 A  
DOCKED: ATOM     23  F   UNL     1     -44.141 -15.381   4.351 -0.03 -0.00    -0.204 F  
DOCKED: ATOM     24  C   UNL     1     -42.163 -17.877   6.111 -0.17 +0.00    +0.001 A  
DOCKED: ENDBRANCH   2  18
DOCKED: TORSDOF 5
DOCKED: TER
DOCKED: ENDMDL
________________________________________________________________________________


    FINAL DOCKED STATE:
    ________________________


Run:   450 / 512
Time taken for this run:   0.002s

DOCKED: MODEL        450
DOCKED: USER    Run = 450
DOCKED: USER
DOCKED: USER    Estimated Free Energy of Binding    =  -3.86 kcal/mol  [=(1)+(2)+(3)-(4)]
DOCKED: USER
DOCKED: USER    (1) Final Intermolecular Energy     =  -5.35 kcal/mol
DOCKED: USER        vdW + Hbond + desolv Energy     =  -5.35 kcal/mol
DOCKED: USER        Electrostatic Energy            =  +0.00 kcal/mol
DOCKED: USER        Moving Ligand-Fixed Receptor    =  -5.35 kcal/mol
DOCKED: USER        Moving Ligand-Moving Receptor   =  +0.00 kcal/mol
DOCKED: USER    (2) Final Total Internal Energy     =  -1.45 kcal/mol
DOCKED: USER    (3) Torsional Free Energy           =  +1.49 kcal/mol
DOCKED: USER    (4) Unbound System's Energy         =  -1.45 kcal/mol
DOCKED: USER
DOCKED: USER
DOCKED: REMARK  5 active torsions:
DOCKED: REMARK  status: ('A' for Active; 'I' for Inactive)
DOCKED: REMARK    1  A    between atoms: C_2  and  C_19 
DOCKED: REMARK    2  A    between atoms: C_2  and  C_11 
DOCKED: REMARK    3  A    between atoms: C_19  and  C_20 
DOCKED: REMARK    4  A    between atoms: C_20  and  C_21 
DOCKED: REMARK    5  A    between atoms: C_21  and  N_22 
DOCKED: USER                              x       y       z     vdW  Elec       q    Type
DOCKED: USER                           _______ _______ _______ _____ _____    ______ ____
DOCKED: ROOT
DOCKED: ATOM      1  O   UNL     1     -32.202 -22.601  -0.547 +0.01 -0.00    -0.346 OA 
DOCKED: ATOM      2  C   UNL     1     -33.343 -21.803  -0.096 -0.05 +0.00    +0.130 C  
DOCKED: ATOM      3  C   UNL     1     -34.047 -22.701   0.880 -0.10 +0.00    +0.004 A  
DOCKED: ATOM      4  C   UNL     1     -33.313 -23.866   1.055 -0.09 +0.00    +0.006 A  
DOCKED: ATOM      5  C   UNL     1     -32.085 -23.816   0.230 -0.02 +0.00    +0.169 C  
DOCKED: ATOM      6  C   UNL     1     -35.235 -22.498   1.566 -0.21 -0.00    -0.001 A  
DOCKED: ATOM      7  C   UNL     1     -33.741 -24.865   1.913 -0.18 +0.00    +0.008 A  
DOCKED: ATOM      8  C   UNL     1     -35.682 -23.498   2.432 -0.30 +0.00    +0.010 A  
DOCKED: ATOM      9  C   UNL     1     -34.939 -24.675   2.604 -0.28 +0.00    +0.068 A  
DOCKED: ATOM     10  N   UNL     1     -35.795 -26.508   4.223 -2.68 -0.00    -0.191 NA 
DOCKED: ATOM     11  C   UNL     1     -35.411 -25.686   3.496 -0.40 +0.00    +0.101 C  
DOCKED: ENDROOT
DOCKED: BRANCH   2  12
DOCKED: ATOM     12  C   UNL     1     -32.814 -20.526   0.548 -0.02 +0.00    +0.038 C  
DOCKED: BRANCH  12  13
DOCKED: ATOM     13  C   UNL     1     -32.300 -19.544  -0.503 -0.00 +0.00    +0.038 C  
DOCKED: BRANCH  13  14
DOCKED: ATOM     14  C   UNL     1     -30.788 -19.670  -0.679 -0.00 +0.00    +0.251 C  
DOCKED: BRANCH  14  15
DOCKED: ATOM     15  N   UNL     1     -30.470 -20.792  -1.553 -0.00 +0.00    +0.141 N  
DOCKED: ATOM     16  C   UNL     1     -30.687 -20.432  -2.955 +0.00 +0.00    +0.285 C  
DOCKED: ATOM     17  C   UNL     1     -29.088 -21.230  -1.349 +0.00 +0.00    +0.285 C  
DOCKED: ENDBRANCH  14  15
DOCKED: ENDBRANCH  13  14
DOCKED: ENDBRANCH  12  13
DOCKED: ENDBRANCH   2  12
DOCKED: BRANCH   2  18
DOCKED: ATOM     18  C   UNL     1     -34.165 -21.496  -1.302 -0.11 +0.00    +0.006 A  
DOCKED: ATOM     19  C   UNL     1     -35.184 -20.548  -1.228 -0.14 +0.00    +0.001 A  
DOCKED: ATOM     20  C   UNL     1     -35.953 -20.262  -2.358 -0.19 +0.00    +0.029 A  
DOCKED: ATOM     21  C   UNL     1     -35.702 -20.925  -3.558 -0.19 +0.00    +0.140 A  
DOCKED: ATOM     22  C   UNL     1     -34.682 -21.874  -3.631 -0.16 +0.00    +0.029 A  
DOCKED: ATOM     23  F   UNL     1     -36.438 -20.650  -4.642 -0.12 -0.00    -0.204 F  
DOCKED: ATOM     24  C   UNL     1     -33.913 -22.160  -2.502 -0.12 +0.00    +0.001 A  
DOCKED: ENDBRANCH   2  18
DOCKED: TORSDOF 5
DOCKED: TER
DOCKED: ENDMDL
________________________________________________________________________________


    FINAL DOCKED STATE:
    ________________________


Run:   451 / 512
Time taken for this run:   0.002s

DOCKED: MODEL        451
DOCKED: USER    Run = 451
DOCKED: USER
DOCKED: USER    Estimated Free Energy of Binding    =  -3.37 kcal/mol  [=(1)+(2)+(3)-(4)]
DOCKED: USER
DOCKED: USER    (1) Final Intermolecular Energy     =  -4.86 kcal/mol
DOCKED: USER        vdW + Hbond + desolv Energy     =  -4.86 kcal/mol
DOCKED: USER        Electrostatic Energy            =  +0.00 kcal/mol
DOCKED: USER        Moving Ligand-Fixed Receptor    =  -4.86 kcal/mol
DOCKED: USER        Moving Ligand-Moving Receptor   =  +0.00 kcal/mol
DOCKED: USER    (2) Final Total Internal Energy     =  -1.41 kcal/mol
DOCKED: USER    (3) Torsional Free Energy           =  +1.49 kcal/mol
DOCKED: USER    (4) Unbound System's Energy         =  -1.41 kcal/mol
DOCKED: USER
DOCKED: USER
DOCKED: REMARK  5 active torsions:
DOCKED: REMARK  status: ('A' for Active; 'I' for Inactive)
DOCKED: REMARK    1  A    between atoms: C_2  and  C_19 
DOCKED: REMARK    2  A    between atoms: C_2  and  C_11 
DOCKED: REMARK    3  A    between atoms: C_19  and  C_20 
DOCKED: REMARK    4  A    between atoms: C_20  and  C_21 
DOCKED: REMARK    5  A    between atoms: C_21  and  N_22 
DOCKED: USER                              x       y       z     vdW  Elec       q    Type
DOCKED: USER                           _______ _______ _______ _____ _____    ______ ____
DOCKED: ROOT
DOCKED: ATOM      1  O   UNL     1     -33.758 -12.977  -2.670 +0.00 -0.00    -0.346 OA 
DOCKED: ATOM      2  C   UNL     1     -34.578 -12.139  -1.795 -0.08 +0.00    +0.130 C  
DOCKED: ATOM      3  C   UNL     1     -35.914 -12.105  -2.478 -0.17 +0.00    +0.004 A  
DOCKED: ATOM      4  C   UNL     1     -35.894 -12.939  -3.587 -0.11 +0.00    +0.006 A  
DOCKED: ATOM      5  C   UNL     1     -34.567 -13.583  -3.706 -0.02 +0.00    +0.169 C  
DOCKED: ATOM      6  C   UNL     1     -37.060 -11.400  -2.139 -0.23 -0.00    -0.001 A  
DOCKED: ATOM      7  C   UNL     1     -37.008 -13.094  -4.393 -0.22 +0.00    +0.008 A  
DOCKED: ATOM      8  C   UNL     1     -38.192 -11.543  -2.944 -0.02 +0.00    +0.010 A  
DOCKED: ATOM      9  C   UNL     1     -38.166 -12.386  -4.065 -0.34 +0.00    +0.068 A  
DOCKED: ATOM     10  N   UNL     1     -40.284 -12.631  -5.536 -2.53 -0.00    -0.191 NA 
DOCKED: ATOM     11  C   UNL     1     -39.334 -12.521  -4.877 -0.40 +0.00    +0.101 C  
DOCKED: ENDROOT
DOCKED: BRANCH   2  12
DOCKED: ATOM     12  C   UNL     1     -34.633 -12.789  -0.417 -0.13 +0.00    +0.038 C  
DOCKED: BRANCH  12  13
DOCKED: ATOM     13  C   UNL     1     -35.857 -13.691  -0.275 -0.14 +0.00    +0.038 C  
DOCKED: BRANCH  13  14
DOCKED: ATOM     14  C   UNL     1     -35.456 -15.165  -0.271 -0.05 +0.00    +0.251 C  
DOCKED: BRANCH  14  15
DOCKED: ATOM     15  N   UNL     1     -35.643 -15.745  -1.595 -0.04 +0.00    +0.141 N  
DOCKED: ATOM     16  C   UNL     1     -34.860 -16.974  -1.735 -0.01 +0.00    +0.285 C  
DOCKED: ATOM     17  C   UNL     1     -37.060 -16.015  -1.845 -0.11 +0.00    +0.285 C  
DOCKED: ENDBRANCH  14  15
DOCKED: ENDBRANCH  13  14
DOCKED: ENDBRANCH  12  13
DOCKED: ENDBRANCH   2  12
DOCKED: BRANCH   2  18
DOCKED: ATOM     18  C   UNL     1     -33.922 -10.800  -1.733 -0.06 +0.00    +0.006 A  
DOCKED: ATOM     19  C   UNL     1     -33.757 -10.161  -0.504 -0.08 +0.00    +0.001 A  
DOCKED: ATOM     20  C   UNL     1     -33.144  -8.909  -0.448 -0.03 +0.00    +0.029 A  
DOCKED: ATOM     21  C   UNL     1     -32.696  -8.299  -1.618 -0.01 +0.00    +0.140 A  
DOCKED: ATOM     22  C   UNL     1     -32.860  -8.939  -2.846 -0.03 +0.00    +0.029 A  
DOCKED: ATOM     23  F   UNL     1     -32.105  -7.098  -1.564 +0.00 -0.00    -0.204 F  
DOCKED: ATOM     24  C   UNL     1     -33.474 -10.191  -2.904 -0.06 +0.00    +0.001 A  
DOCKED: ENDBRANCH   2  18
DOCKED: TORSDOF 5
DOCKED: TER
DOCKED: ENDMDL
________________________________________________________________________________


    FINAL DOCKED STATE:
    ________________________


Run:   452 / 512
Time taken for this run:   0.002s

DOCKED: MODEL        452
DOCKED: USER    Run = 452
DOCKED: USER
DOCKED: USER    Estimated Free Energy of Binding    =  -5.47 kcal/mol  [=(1)+(2)+(3)-(4)]
DOCKED: USER
DOCKED: USER    (1) Final Intermolecular Energy     =  -6.96 kcal/mol
DOCKED: USER        vdW + Hbond + desolv Energy     =  -6.96 kcal/mol
DOCKED: USER        Electrostatic Energy            =  +0.00 kcal/mol
DOCKED: USER        Moving Ligand-Fixed Receptor    =  -6.96 kcal/mol
DOCKED: USER        Moving Ligand-Moving Receptor   =  +0.00 kcal/mol
DOCKED: USER    (2) Final Total Internal Energy     =  -1.22 kcal/mol
DOCKED: USER    (3) Torsional Free Energy           =  +1.49 kcal/mol
DOCKED: USER    (4) Unbound System's Energy         =  -1.22 kcal/mol
DOCKED: USER
DOCKED: USER
DOCKED: REMARK  5 active torsions:
DOCKED: REMARK  status: ('A' for Active; 'I' for Inactive)
DOCKED: REMARK    1  A    between atoms: C_2  and  C_19 
DOCKED: REMARK    2  A    between atoms: C_2  and  C_11 
DOCKED: REMARK    3  A    between atoms: C_19  and  C_20 
DOCKED: REMARK    4  A    between atoms: C_20  and  C_21 
DOCKED: REMARK    5  A    between atoms: C_21  and  N_22 
DOCKED: USER                              x       y       z     vdW  Elec       q    Type
DOCKED: USER                           _______ _______ _______ _____ _____    ______ ____
DOCKED: ROOT
DOCKED: ATOM      1  O   UNL     1     -45.211 -23.570   8.173 -0.01 -0.00    -0.346 OA 
DOCKED: ATOM      2  C   UNL     1     -43.844 -23.067   8.037 -0.11 +0.00    +0.130 C  
DOCKED: ATOM      3  C   UNL     1     -43.502 -23.340   6.601 -0.24 +0.00    +0.004 A  
DOCKED: ATOM      4  C   UNL     1     -44.612 -23.852   5.945 -0.29 +0.00    +0.006 A  
DOCKED: ATOM      5  C   UNL     1     -45.753 -23.940   6.884 -0.14 +0.00    +0.169 C  
DOCKED: ATOM      6  C   UNL     1     -42.306 -23.140   5.926 -0.35 -0.00    -0.001 A  
DOCKED: ATOM      7  C   UNL     1     -44.567 -24.184   4.602 -0.21 +0.00    +0.008 A  
DOCKED: ATOM      8  C   UNL     1     -42.243 -23.474   4.572 -0.37 +0.00    +0.010 A  
DOCKED: ATOM      9  C   UNL     1     -43.368 -23.993   3.914 -0.28 +0.00    +0.068 A  
DOCKED: ATOM     10  N   UNL     1     -43.218 -24.599   1.399 -2.90 -0.00    -0.191 NA 
DOCKED: ATOM     11  C   UNL     1     -43.285 -24.328   2.527 -0.27 +0.00    +0.101 C  
DOCKED: ENDROOT
DOCKED: BRANCH   2  12
DOCKED: ATOM     12  C   UNL     1     -43.841 -21.581   8.376 -0.11 +0.00    +0.038 C  
DOCKED: BRANCH  12  13
DOCKED: ATOM     13  C   UNL     1     -42.650 -20.867   7.739 -0.17 +0.00    +0.038 C  
DOCKED: BRANCH  13  14
DOCKED: ATOM     14  C   UNL     1     -41.486 -20.757   8.722 -0.04 +0.00    +0.251 C  
DOCKED: BRANCH  14  15
DOCKED: ATOM     15  N   UNL     1     -40.214 -20.856   8.016 -0.10 +0.00    +0.141 N  
DOCKED: ATOM     16  C   UNL     1     -39.656 -22.203   8.145 -0.12 +0.00    +0.285 C  
DOCKED: ATOM     17  C   UNL     1     -40.381 -20.509   6.603 -0.15 +0.00    +0.285 C  
DOCKED: ENDBRANCH  14  15
DOCKED: ENDBRANCH  13  14
DOCKED: ENDBRANCH  12  13
DOCKED: ENDBRANCH   2  12
DOCKED: BRANCH   2  18
DOCKED: ATOM     18  C   UNL     1     -42.997 -23.839   8.993 -0.14 +0.00    +0.006 A  
DOCKED: ATOM     19  C   UNL     1     -42.119 -24.812   8.518 -0.26 +0.00    +0.001 A  
DOCKED: ATOM     20  C   UNL     1     -41.328 -25.533   9.413 -0.22 +0.00    +0.029 A  
DOCKED: ATOM     21  C   UNL     1     -41.417 -25.281  10.781 -0.17 +0.00    +0.140 A  
DOCKED: ATOM     22  C   UNL     1     -42.295 -24.308  11.256 -0.12 +0.00    +0.029 A  
DOCKED: ATOM     23  F   UNL     1     -40.656 -25.972  11.640 -0.10 -0.00    -0.204 F  
DOCKED: ATOM     24  C   UNL     1     -43.087 -23.586  10.362 -0.09 +0.00    +0.001 A  
DOCKED: ENDBRANCH   2  18
DOCKED: TORSDOF 5
DOCKED: TER
DOCKED: ENDMDL
________________________________________________________________________________


    FINAL DOCKED STATE:
    ________________________


Run:   453 / 512
Time taken for this run:   0.002s

DOCKED: MODEL        453
DOCKED: USER    Run = 453
DOCKED: USER
DOCKED: USER    Estimated Free Energy of Binding    =  -4.95 kcal/mol  [=(1)+(2)+(3)-(4)]
DOCKED: USER
DOCKED: USER    (1) Final Intermolecular Energy     =  -6.45 kcal/mol
DOCKED: USER        vdW + Hbond + desolv Energy     =  -6.45 kcal/mol
DOCKED: USER        Electrostatic Energy            =  +0.00 kcal/mol
DOCKED: USER        Moving Ligand-Fixed Receptor    =  -6.45 kcal/mol
DOCKED: USER        Moving Ligand-Moving Receptor   =  +0.00 kcal/mol
DOCKED: USER    (2) Final Total Internal Energy     =  -1.08 kcal/mol
DOCKED: USER    (3) Torsional Free Energy           =  +1.49 kcal/mol
DOCKED: USER    (4) Unbound System's Energy         =  -1.08 kcal/mol
DOCKED: USER
DOCKED: USER
DOCKED: REMARK  5 active torsions:
DOCKED: REMARK  status: ('A' for Active; 'I' for Inactive)
DOCKED: REMARK    1  A    between atoms: C_2  and  C_19 
DOCKED: REMARK    2  A    between atoms: C_2  and  C_11 
DOCKED: REMARK    3  A    between atoms: C_19  and  C_20 
DOCKED: REMARK    4  A    between atoms: C_20  and  C_21 
DOCKED: REMARK    5  A    between atoms: C_21  and  N_22 
DOCKED: USER                              x       y       z     vdW  Elec       q    Type
DOCKED: USER                           _______ _______ _______ _____ _____    ______ ____
DOCKED: ROOT
DOCKED: ATOM      1  O   UNL     1     -40.430 -24.877   8.703 -0.08 -0.00    -0.346 OA 
DOCKED: ATOM      2  C   UNL     1     -40.722 -23.474   8.405 -0.19 +0.00    +0.130 C  
DOCKED: ATOM      3  C   UNL     1     -41.283 -23.511   7.013 -0.30 +0.00    +0.004 A  
DOCKED: ATOM      4  C   UNL     1     -41.406 -24.828   6.594 -0.38 +0.00    +0.006 A  
DOCKED: ATOM      5  C   UNL     1     -40.953 -25.741   7.668 -0.04 +0.00    +0.169 C  
DOCKED: ATOM      6  C   UNL     1     -41.666 -22.463   6.189 -0.32 -0.00    -0.001 A  
DOCKED: ATOM      7  C   UNL     1     -41.908 -25.142   5.343 -0.46 +0.00    +0.008 A  
DOCKED: ATOM      8  C   UNL     1     -42.169 -22.763   4.922 -0.20 +0.00    +0.010 A  
DOCKED: ATOM      9  C   UNL     1     -42.290 -24.096   4.502 -0.40 +0.00    +0.068 A  
DOCKED: ATOM     10  N   UNL     1     -43.234 -24.619   2.146 -2.30 -0.00    -0.191 NA 
DOCKED: ATOM     11  C   UNL     1     -42.810 -24.385   3.202 -0.51 +0.00    +0.101 C  
DOCKED: ENDROOT
DOCKED: BRANCH   2  12
DOCKED: ATOM     12  C   UNL     1     -41.721 -22.959   9.435 -0.11 +0.00    +0.038 C  
DOCKED: BRANCH  12  13
DOCKED: ATOM     13  C   UNL     1     -41.413 -23.502  10.829 -0.11 +0.00    +0.038 C  
DOCKED: BRANCH  13  14
DOCKED: ATOM     14  C   UNL     1     -42.183 -24.794  11.097 -0.11 +0.00    +0.251 C  
DOCKED: BRANCH  14  15
DOCKED: ATOM     15  N   UNL     1     -43.003 -24.656  12.296 -0.08 +0.00    +0.141 N  
DOCKED: ATOM     16  C   UNL     1     -43.622 -25.935  12.648 -0.10 +0.00    +0.285 C  
DOCKED: ATOM     17  C   UNL     1     -42.202 -24.155  13.413 -0.02 +0.00    +0.285 C  
DOCKED: ENDBRANCH  14  15
DOCKED: ENDBRANCH  13  14
DOCKED: ENDBRANCH  12  13
DOCKED: ENDBRANCH   2  12
DOCKED: BRANCH   2  18
DOCKED: ATOM     18  C   UNL     1     -39.429 -22.732   8.491 -0.20 +0.00    +0.006 A  
DOCKED: ATOM     19  C   UNL     1     -39.428 -21.363   8.754 -0.11 +0.00    +0.001 A  
DOCKED: ATOM     20  C   UNL     1     -38.219 -20.671   8.834 -0.08 +0.00    +0.029 A  
DOCKED: ATOM     21  C   UNL     1     -37.014 -21.348   8.652 -0.08 +0.00    +0.140 A  
DOCKED: ATOM     22  C   UNL     1     -37.017 -22.718   8.389 -0.16 +0.00    +0.029 A  
DOCKED: ATOM     23  F   UNL     1     -35.854 -20.684   8.731 -0.01 -0.00    -0.204 F  
DOCKED: ATOM     24  C   UNL     1     -38.225 -23.411   8.309 -0.11 +0.00    +0.001 A  
DOCKED: ENDBRANCH   2  18
DOCKED: TORSDOF 5
DOCKED: TER
DOCKED: ENDMDL
________________________________________________________________________________


    FINAL DOCKED STATE:
    ________________________


Run:   454 / 512
Time taken for this run:   0.002s

DOCKED: MODEL        454
DOCKED: USER    Run = 454
DOCKED: USER
DOCKED: USER    Estimated Free Energy of Binding    =  -5.16 kcal/mol  [=(1)+(2)+(3)-(4)]
DOCKED: USER
DOCKED: USER    (1) Final Intermolecular Energy     =  -6.65 kcal/mol
DOCKED: USER        vdW + Hbond + desolv Energy     =  -6.65 kcal/mol
DOCKED: USER        Electrostatic Energy            =  +0.00 kcal/mol
DOCKED: USER        Moving Ligand-Fixed Receptor    =  -6.65 kcal/mol
DOCKED: USER        Moving Ligand-Moving Receptor   =  +0.00 kcal/mol
DOCKED: USER    (2) Final Total Internal Energy     =  -1.17 kcal/mol
DOCKED: USER    (3) Torsional Free Energy           =  +1.49 kcal/mol
DOCKED: USER    (4) Unbound System's Energy         =  -1.17 kcal/mol
DOCKED: USER
DOCKED: USER
DOCKED: REMARK  5 active torsions:
DOCKED: REMARK  status: ('A' for Active; 'I' for Inactive)
DOCKED: REMARK    1  A    between atoms: C_2  and  C_19 
DOCKED: REMARK    2  A    between atoms: C_2  and  C_11 
DOCKED: REMARK    3  A    between atoms: C_19  and  C_20 
DOCKED: REMARK    4  A    between atoms: C_20  and  C_21 
DOCKED: REMARK    5  A    between atoms: C_21  and  N_22 
DOCKED: USER                              x       y       z     vdW  Elec       q    Type
DOCKED: USER                           _______ _______ _______ _____ _____    ______ ____
DOCKED: ROOT
DOCKED: ATOM      1  O   UNL     1     -43.193 -23.909   8.558 -0.02 -0.00    -0.346 OA 
DOCKED: ATOM      2  C   UNL     1     -42.423 -22.859   7.889 -0.13 +0.00    +0.130 C  
DOCKED: ATOM      3  C   UNL     1     -42.519 -23.214   6.434 -0.29 +0.00    +0.004 A  
DOCKED: ATOM      4  C   UNL     1     -43.361 -24.306   6.274 -0.30 +0.00    +0.006 A  
DOCKED: ATOM      5  C   UNL     1     -43.883 -24.735   7.591 -0.17 +0.00    +0.169 C  
DOCKED: ATOM      6  C   UNL     1     -41.919 -22.612   5.338 -0.29 -0.00    -0.001 A  
DOCKED: ATOM      7  C   UNL     1     -43.627 -24.833   5.022 -0.40 +0.00    +0.008 A  
DOCKED: ATOM      8  C   UNL     1     -42.174 -23.135   4.069 -0.18 +0.00    +0.010 A  
DOCKED: ATOM      9  C   UNL     1     -43.024 -24.239   3.912 -0.42 +0.00    +0.068 A  
DOCKED: ATOM     10  N   UNL     1     -43.480 -25.182   1.542 -2.52 -0.00    -0.191 NA 
DOCKED: ATOM     11  C   UNL     1     -43.275 -24.759   2.605 -0.31 +0.00    +0.101 C  
DOCKED: ENDROOT
DOCKED: BRANCH   2  12
DOCKED: ATOM     12  C   UNL     1     -43.059 -21.513   8.215 -0.12 +0.00    +0.038 C  
DOCKED: BRANCH  12  13
DOCKED: ATOM     13  C   UNL     1     -44.124 -21.137   7.188 -0.23 +0.00    +0.038 C  
DOCKED: BRANCH  13  14
DOCKED: ATOM     14  C   UNL     1     -43.862 -19.749   6.607 -0.14 +0.00    +0.251 C  
DOCKED: BRANCH  14  15
DOCKED: ATOM     15  N   UNL     1     -42.822 -19.068   7.369 -0.13 +0.00    +0.141 N  
DOCKED: ATOM     16  C   UNL     1     -41.636 -18.846   6.539 -0.11 +0.00    +0.285 C  
DOCKED: ATOM     17  C   UNL     1     -43.318 -17.796   7.897 -0.05 +0.00    +0.285 C  
DOCKED: ENDBRANCH  14  15
DOCKED: ENDBRANCH  13  14
DOCKED: ENDBRANCH  12  13
DOCKED: ENDBRANCH   2  12
DOCKED: BRANCH   2  18
DOCKED: ATOM     18  C   UNL     1     -41.029 -22.938   8.416 -0.17 +0.00    +0.006 A  
DOCKED: ATOM     19  C   UNL     1     -40.765 -23.651   9.585 -0.15 +0.00    +0.001 A  
DOCKED: ATOM     20  C   UNL     1     -39.462 -23.724  10.077 -0.03 +0.00    +0.029 A  
DOCKED: ATOM     21  C   UNL     1     -38.424 -23.085   9.400 -0.11 +0.00    +0.140 A  
DOCKED: ATOM     22  C   UNL     1     -38.689 -22.372   8.231 -0.14 +0.00    +0.029 A  
DOCKED: ATOM     23  F   UNL     1     -37.173 -23.156   9.871 -0.03 -0.00    -0.204 F  
DOCKED: ATOM     24  C   UNL     1     -39.993 -22.298   7.738 -0.21 +0.00    +0.001 A  
DOCKED: ENDBRANCH   2  18
DOCKED: TORSDOF 5
DOCKED: TER
DOCKED: ENDMDL
________________________________________________________________________________


    FINAL DOCKED STATE:
    ________________________


Run:   455 / 512
Time taken for this run:   0.002s

DOCKED: MODEL        455
DOCKED: USER    Run = 455
DOCKED: USER
DOCKED: USER    Estimated Free Energy of Binding    =  -4.36 kcal/mol  [=(1)+(2)+(3)-(4)]
DOCKED: USER
DOCKED: USER    (1) Final Intermolecular Energy     =  -5.85 kcal/mol
DOCKED: USER        vdW + Hbond + desolv Energy     =  -5.85 kcal/mol
DOCKED: USER        Electrostatic Energy            =  +0.00 kcal/mol
DOCKED: USER        Moving Ligand-Fixed Receptor    =  -5.85 kcal/mol
DOCKED: USER        Moving Ligand-Moving Receptor   =  +0.00 kcal/mol
DOCKED: USER    (2) Final Total Internal Energy     =  -1.28 kcal/mol
DOCKED: USER    (3) Torsional Free Energy           =  +1.49 kcal/mol
DOCKED: USER    (4) Unbound System's Energy         =  -1.28 kcal/mol
DOCKED: USER
DOCKED: USER
DOCKED: REMARK  5 active torsions:
DOCKED: REMARK  status: ('A' for Active; 'I' for Inactive)
DOCKED: REMARK    1  A    between atoms: C_2  and  C_19 
DOCKED: REMARK    2  A    between atoms: C_2  and  C_11 
DOCKED: REMARK    3  A    between atoms: C_19  and  C_20 
DOCKED: REMARK    4  A    between atoms: C_20  and  C_21 
DOCKED: REMARK    5  A    between atoms: C_21  and  N_22 
DOCKED: USER                              x       y       z     vdW  Elec       q    Type
DOCKED: USER                           _______ _______ _______ _____ _____    ______ ____
DOCKED: ROOT
DOCKED: ATOM      1  O   UNL     1     -39.004 -21.427   8.787 -0.05 -0.00    -0.346 OA 
DOCKED: ATOM      2  C   UNL     1     -40.076 -20.681   8.126 -0.11 +0.00    +0.130 C  
DOCKED: ATOM      3  C   UNL     1     -40.829 -21.734   7.364 -0.22 +0.00    +0.004 A  
DOCKED: ATOM      4  C   UNL     1     -40.302 -22.985   7.652 -0.25 +0.00    +0.006 A  
DOCKED: ATOM      5  C   UNL     1     -39.190 -22.851   8.619 -0.17 +0.00    +0.169 C  
DOCKED: ATOM      6  C   UNL     1     -41.901 -21.596   6.495 -0.28 -0.00    -0.001 A  
DOCKED: ATOM      7  C   UNL     1     -40.822 -24.134   7.081 -0.34 +0.00    +0.008 A  
DOCKED: ATOM      8  C   UNL     1     -42.434 -22.745   5.908 -0.32 +0.00    +0.010 A  
DOCKED: ATOM      9  C   UNL     1     -41.897 -24.008   6.200 -0.32 +0.00    +0.068 A  
DOCKED: ATOM     10  N   UNL     1     -42.913 -26.121   5.098 -2.45 -0.00    -0.191 NA 
DOCKED: ATOM     11  C   UNL     1     -42.456 -25.173   5.592 -0.34 +0.00    +0.101 C  
DOCKED: ENDROOT
DOCKED: BRANCH   2  12
DOCKED: ATOM     12  C   UNL     1     -40.924 -20.004   9.196 -0.05 +0.00    +0.038 C  
DOCKED: BRANCH  12  13
DOCKED: ATOM     13  C   UNL     1     -42.234 -19.474   8.616 -0.07 +0.00    +0.038 C  
DOCKED: BRANCH  13  14
DOCKED: ATOM     14  C   UNL     1     -42.053 -18.070   8.042 -0.04 +0.00    +0.251 C  
DOCKED: BRANCH  14  15
DOCKED: ATOM     15  N   UNL     1     -42.353 -18.063   6.615 -0.15 +0.00    +0.141 N  
DOCKED: ATOM     16  C   UNL     1     -43.797 -18.152   6.391 -0.14 +0.00    +0.285 C  
DOCKED: ATOM     17  C   UNL     1     -41.814 -16.860   5.981 -0.10 +0.00    +0.285 C  
DOCKED: ENDBRANCH  14  15
DOCKED: ENDBRANCH  13  14
DOCKED: ENDBRANCH  12  13
DOCKED: ENDBRANCH   2  12
DOCKED: BRANCH   2  18
DOCKED: ATOM     18  C   UNL     1     -39.424 -19.675   7.238 -0.14 +0.00    +0.006 A  
DOCKED: ATOM     19  C   UNL     1     -38.850 -18.529   7.787 -0.05 +0.00    +0.001 A  
DOCKED: ATOM     20  C   UNL     1     -38.241 -17.589   6.956 -0.04 +0.00    +0.029 A  
DOCKED: ATOM     21  C   UNL     1     -38.207 -17.795   5.577 -0.06 +0.00    +0.140 A  
DOCKED: ATOM     22  C   UNL     1     -38.782 -18.941   5.029 -0.12 +0.00    +0.029 A  
DOCKED: ATOM     23  F   UNL     1     -37.621 -16.893   4.780 -0.00 -0.00    -0.204 F  
DOCKED: ATOM     24  C   UNL     1     -39.391 -19.882   5.859 -0.07 +0.00    +0.001 A  
DOCKED: ENDBRANCH   2  18
DOCKED: TORSDOF 5
DOCKED: TER
DOCKED: ENDMDL
________________________________________________________________________________


    FINAL DOCKED STATE:
    ________________________


Run:   456 / 512
Time taken for this run:   0.002s

DOCKED: MODEL        456
DOCKED: USER    Run = 456
DOCKED: USER
DOCKED: USER    Estimated Free Energy of Binding    =  -5.21 kcal/mol  [=(1)+(2)+(3)-(4)]
DOCKED: USER
DOCKED: USER    (1) Final Intermolecular Energy     =  -6.71 kcal/mol
DOCKED: USER        vdW + Hbond + desolv Energy     =  -6.71 kcal/mol
DOCKED: USER        Electrostatic Energy            =  +0.00 kcal/mol
DOCKED: USER        Moving Ligand-Fixed Receptor    =  -6.71 kcal/mol
DOCKED: USER        Moving Ligand-Moving Receptor   =  +0.00 kcal/mol
DOCKED: USER    (2) Final Total Internal Energy     =  -1.20 kcal/mol
DOCKED: USER    (3) Torsional Free Energy           =  +1.49 kcal/mol
DOCKED: USER    (4) Unbound System's Energy         =  -1.20 kcal/mol
DOCKED: USER
DOCKED: USER
DOCKED: REMARK  5 active torsions:
DOCKED: REMARK  status: ('A' for Active; 'I' for Inactive)
DOCKED: REMARK    1  A    between atoms: C_2  and  C_19 
DOCKED: REMARK    2  A    between atoms: C_2  and  C_11 
DOCKED: REMARK    3  A    between atoms: C_19  and  C_20 
DOCKED: REMARK    4  A    between atoms: C_20  and  C_21 
DOCKED: REMARK    5  A    between atoms: C_21  and  N_22 
DOCKED: USER                              x       y       z     vdW  Elec       q    Type
DOCKED: USER                           _______ _______ _______ _____ _____    ______ ____
DOCKED: ROOT
DOCKED: ATOM      1  O   UNL     1     -40.430 -24.765   7.896 -0.18 -0.00    -0.346 OA 
DOCKED: ATOM      2  C   UNL     1     -41.474 -23.741   7.848 -0.21 +0.00    +0.130 C  
DOCKED: ATOM      3  C   UNL     1     -42.074 -23.903   6.482 -0.33 +0.00    +0.004 A  
DOCKED: ATOM      4  C   UNL     1     -41.500 -24.994   5.846 -0.43 +0.00    +0.006 A  
DOCKED: ATOM      5  C   UNL     1     -40.504 -25.629   6.738 -0.29 +0.00    +0.169 C  
DOCKED: ATOM      6  C   UNL     1     -43.058 -23.151   5.856 -0.30 -0.00    -0.001 A  
DOCKED: ATOM      7  C   UNL     1     -41.882 -25.367   4.568 -0.44 +0.00    +0.008 A  
DOCKED: ATOM      8  C   UNL     1     -43.452 -23.512   4.566 -0.07 +0.00    +0.010 A  
DOCKED: ATOM      9  C   UNL     1     -42.867 -24.615   3.926 -0.45 +0.00    +0.068 A  
DOCKED: ATOM     10  N   UNL     1     -43.624 -25.262   1.534 -2.55 -0.00    -0.191 NA 
DOCKED: ATOM     11  C   UNL     1     -43.284 -24.971   2.607 -0.34 +0.00    +0.101 C  
DOCKED: ENDROOT
DOCKED: BRANCH   2  12
DOCKED: ATOM     12  C   UNL     1     -42.470 -24.015   8.970 -0.18 +0.00    +0.038 C  
DOCKED: BRANCH  12  13
DOCKED: ATOM     13  C   UNL     1     -43.209 -22.743   9.381 -0.08 +0.00    +0.038 C  
DOCKED: BRANCH  13  14
DOCKED: ATOM     14  C   UNL     1     -42.963 -22.417  10.853 -0.01 +0.00    +0.251 C  
DOCKED: BRANCH  14  15
DOCKED: ATOM     15  N   UNL     1     -43.340 -21.037  11.136 -0.01 +0.00    +0.141 N  
DOCKED: ATOM     16  C   UNL     1     -42.155 -20.226  11.420 -0.00 +0.00    +0.285 C  
DOCKED: ATOM     17  C   UNL     1     -44.089 -20.466  10.015 -0.00 +0.00    +0.285 C  
DOCKED: ENDBRANCH  14  15
DOCKED: ENDBRANCH  13  14
DOCKED: ENDBRANCH  12  13
DOCKED: ENDBRANCH   2  12
DOCKED: BRANCH   2  18
DOCKED: ATOM     18  C   UNL     1     -40.801 -22.423   8.036 -0.18 +0.00    +0.006 A  
DOCKED: ATOM     19  C   UNL     1     -40.958 -21.419   7.081 -0.23 +0.00    +0.001 A  
DOCKED: ATOM     20  C   UNL     1     -40.328 -20.186   7.258 -0.16 +0.00    +0.029 A  
DOCKED: ATOM     21  C   UNL     1     -39.544 -19.959   8.388 -0.06 +0.00    +0.140 A  
DOCKED: ATOM     22  C   UNL     1     -39.388 -20.964   9.342 -0.06 +0.00    +0.029 A  
DOCKED: ATOM     23  F   UNL     1     -38.940 -18.775   8.557 -0.00 -0.00    -0.204 F  
DOCKED: ATOM     24  C   UNL     1     -40.017 -22.197   9.167 -0.12 +0.00    +0.001 A  
DOCKED: ENDBRANCH   2  18
DOCKED: TORSDOF 5
DOCKED: TER
DOCKED: ENDMDL
________________________________________________________________________________


    FINAL DOCKED STATE:
    ________________________


Run:   457 / 512
Time taken for this run:   0.002s

DOCKED: MODEL        457
DOCKED: USER    Run = 457
DOCKED: USER
DOCKED: USER    Estimated Free Energy of Binding    =  -6.13 kcal/mol  [=(1)+(2)+(3)-(4)]
DOCKED: USER
DOCKED: USER    (1) Final Intermolecular Energy     =  -7.62 kcal/mol
DOCKED: USER        vdW + Hbond + desolv Energy     =  -7.62 kcal/mol
DOCKED: USER        Electrostatic Energy            =  +0.00 kcal/mol
DOCKED: USER        Moving Ligand-Fixed Receptor    =  -7.62 kcal/mol
DOCKED: USER        Moving Ligand-Moving Receptor   =  +0.00 kcal/mol
DOCKED: USER    (2) Final Total Internal Energy     =  -1.14 kcal/mol
DOCKED: USER    (3) Torsional Free Energy           =  +1.49 kcal/mol
DOCKED: USER    (4) Unbound System's Energy         =  -1.14 kcal/mol
DOCKED: USER
DOCKED: USER
DOCKED: REMARK  5 active torsions:
DOCKED: REMARK  status: ('A' for Active; 'I' for Inactive)
DOCKED: REMARK    1  A    between atoms: C_2  and  C_19 
DOCKED: REMARK    2  A    between atoms: C_2  and  C_11 
DOCKED: REMARK    3  A    between atoms: C_19  and  C_20 
DOCKED: REMARK    4  A    between atoms: C_20  and  C_21 
DOCKED: REMARK    5  A    between atoms: C_21  and  N_22 
DOCKED: USER                              x       y       z     vdW  Elec       q    Type
DOCKED: USER                           _______ _______ _______ _____ _____    ______ ____
DOCKED: ROOT
DOCKED: ATOM      1  O   UNL     1     -39.945 -25.370   7.645 -0.19 -0.00    -0.346 OA 
DOCKED: ATOM      2  C   UNL     1     -40.731 -24.139   7.742 -0.28 +0.00    +0.130 C  
DOCKED: ATOM      3  C   UNL     1     -41.457 -24.071   6.430 -0.36 +0.00    +0.004 A  
DOCKED: ATOM      4  C   UNL     1     -41.197 -25.217   5.692 -0.38 +0.00    +0.006 A  
DOCKED: ATOM      5  C   UNL     1     -40.304 -26.116   6.458 -0.29 +0.00    +0.169 C  
DOCKED: ATOM      6  C   UNL     1     -42.290 -23.079   5.933 -0.34 -0.00    -0.001 A  
DOCKED: ATOM      7  C   UNL     1     -41.753 -25.410   4.439 -0.33 +0.00    +0.008 A  
DOCKED: ATOM      8  C   UNL     1     -42.856 -23.257   4.669 -0.09 +0.00    +0.010 A  
DOCKED: ATOM      9  C   UNL     1     -42.589 -24.417   3.927 -0.45 +0.00    +0.068 A  
DOCKED: ATOM     10  N   UNL     1     -43.658 -24.716   1.586 -3.03 -0.00    -0.191 NA 
DOCKED: ATOM     11  C   UNL     1     -43.178 -24.582   2.635 -0.31 +0.00    +0.101 C  
DOCKED: ENDROOT
DOCKED: BRANCH   2  12
DOCKED: ATOM     12  C   UNL     1     -41.671 -24.259   8.935 -0.23 +0.00    +0.038 C  
DOCKED: BRANCH  12  13
DOCKED: ATOM     13  C   UNL     1     -41.096 -23.566  10.169 -0.14 +0.00    +0.038 C  
DOCKED: BRANCH  13  14
DOCKED: ATOM     14  C   UNL     1     -40.243 -24.529  10.992 -0.10 +0.00    +0.251 C  
DOCKED: BRANCH  14  15
DOCKED: ATOM     15  N   UNL     1     -39.276 -23.790  11.796 -0.08 +0.00    +0.141 N  
DOCKED: ATOM     16  C   UNL     1     -39.586 -23.915  13.221 -0.04 +0.00    +0.285 C  
DOCKED: ATOM     17  C   UNL     1     -37.916 -24.262  11.529 -0.02 +0.00    +0.285 C  
DOCKED: ENDBRANCH  14  15
DOCKED: ENDBRANCH  13  14
DOCKED: ENDBRANCH  12  13
DOCKED: ENDBRANCH   2  12
DOCKED: BRANCH   2  18
DOCKED: ATOM     18  C   UNL     1     -39.763 -23.018   7.930 -0.23 +0.00    +0.006 A  
DOCKED: ATOM     19  C   UNL     1     -38.468 -23.283   8.371 -0.17 +0.00    +0.001 A  
DOCKED: ATOM     20  C   UNL     1     -37.564 -22.234   8.547 -0.14 +0.00    +0.029 A  
DOCKED: ATOM     21  C   UNL     1     -37.957 -20.923   8.280 -0.09 +0.00    +0.140 A  
DOCKED: ATOM     22  C   UNL     1     -39.253 -20.659   7.838 -0.13 +0.00    +0.029 A  
DOCKED: ATOM     23  F   UNL     1     -37.089 -19.917   8.447 -0.01 -0.00    -0.204 F  
DOCKED: ATOM     24  C   UNL     1     -40.158 -21.708   7.663 -0.19 +0.00    +0.001 A  
DOCKED: ENDBRANCH   2  18
DOCKED: TORSDOF 5
DOCKED: TER
DOCKED: ENDMDL
________________________________________________________________________________


    FINAL DOCKED STATE:
    ________________________


Run:   458 / 512
Time taken for this run:   0.002s

DOCKED: MODEL        458
DOCKED: USER    Run = 458
DOCKED: USER
DOCKED: USER    Estimated Free Energy of Binding    =  -3.48 kcal/mol  [=(1)+(2)+(3)-(4)]
DOCKED: USER
DOCKED: USER    (1) Final Intermolecular Energy     =  -4.97 kcal/mol
DOCKED: USER        vdW + Hbond + desolv Energy     =  -4.97 kcal/mol
DOCKED: USER        Electrostatic Energy            =  +0.00 kcal/mol
DOCKED: USER        Moving Ligand-Fixed Receptor    =  -4.97 kcal/mol
DOCKED: USER        Moving Ligand-Moving Receptor   =  +0.00 kcal/mol
DOCKED: USER    (2) Final Total Internal Energy     =  -1.36 kcal/mol
DOCKED: USER    (3) Torsional Free Energy           =  +1.49 kcal/mol
DOCKED: USER    (4) Unbound System's Energy         =  -1.36 kcal/mol
DOCKED: USER
DOCKED: USER
DOCKED: REMARK  5 active torsions:
DOCKED: REMARK  status: ('A' for Active; 'I' for Inactive)
DOCKED: REMARK    1  A    between atoms: C_2  and  C_19 
DOCKED: REMARK    2  A    between atoms: C_2  and  C_11 
DOCKED: REMARK    3  A    between atoms: C_19  and  C_20 
DOCKED: REMARK    4  A    between atoms: C_20  and  C_21 
DOCKED: REMARK    5  A    between atoms: C_21  and  N_22 
DOCKED: USER                              x       y       z     vdW  Elec       q    Type
DOCKED: USER                           _______ _______ _______ _____ _____    ______ ____
DOCKED: ROOT
DOCKED: ATOM      1  O   UNL     1     -39.836 -20.062   7.810 -0.04 -0.00    -0.346 OA 
DOCKED: ATOM      2  C   UNL     1     -40.128 -20.924   8.956 -0.07 +0.00    +0.130 C  
DOCKED: ATOM      3  C   UNL     1     -40.864 -22.085   8.354 -0.14 +0.00    +0.004 A  
DOCKED: ATOM      4  C   UNL     1     -40.894 -21.954   6.973 -0.25 +0.00    +0.006 A  
DOCKED: ATOM      5  C   UNL     1     -40.179 -20.723   6.570 -0.16 +0.00    +0.169 C  
DOCKED: ATOM      6  C   UNL     1     -41.451 -23.177   8.978 -0.13 -0.00    -0.001 A  
DOCKED: ATOM      7  C   UNL     1     -41.510 -22.901   6.172 -0.33 +0.00    +0.008 A  
DOCKED: ATOM      8  C   UNL     1     -42.080 -24.138   8.184 -0.21 +0.00    +0.010 A  
DOCKED: ATOM      9  C   UNL     1     -42.109 -24.000   6.788 -0.26 +0.00    +0.068 A  
DOCKED: ATOM     10  N   UNL     1     -43.281 -25.804   5.345 -2.56 -0.00    -0.191 NA 
DOCKED: ATOM     11  C   UNL     1     -42.756 -24.995   5.992 -0.32 +0.00    +0.101 C  
DOCKED: ENDROOT
DOCKED: BRANCH   2  12
DOCKED: ATOM     12  C   UNL     1     -38.809 -21.329   9.604 -0.07 +0.00    +0.038 C  
DOCKED: BRANCH  12  13
DOCKED: ATOM     13  C   UNL     1     -38.045 -22.326   8.736 -0.17 +0.00    +0.038 C  
DOCKED: BRANCH  13  14
DOCKED: ATOM     14  C   UNL     1     -36.979 -21.621   7.899 -0.05 +0.00    +0.251 C  
DOCKED: BRANCH  14  15
DOCKED: ATOM     15  N   UNL     1     -37.028 -20.181   8.122 -0.06 +0.00    +0.141 N  
DOCKED: ATOM     16  C   UNL     1     -35.919 -19.753   8.977 -0.01 +0.00    +0.285 C  
DOCKED: ATOM     17  C   UNL     1     -36.996 -19.460   6.849 -0.06 +0.00    +0.285 C  
DOCKED: ENDBRANCH  14  15
DOCKED: ENDBRANCH  13  14
DOCKED: ENDBRANCH  12  13
DOCKED: ENDBRANCH   2  12
DOCKED: BRANCH   2  18
DOCKED: ATOM     18  C   UNL     1     -40.969 -20.128   9.898 -0.02 +0.00    +0.006 A  
DOCKED: ATOM     19  C   UNL     1     -41.370 -18.838   9.553 -0.02 +0.00    +0.001 A  
DOCKED: ATOM     20  C   UNL     1     -42.155 -18.094  10.435 -0.01 +0.00    +0.029 A  
DOCKED: ATOM     21  C   UNL     1     -42.539 -18.642  11.658 -0.00 +0.00    +0.140 A  
DOCKED: ATOM     22  C   UNL     1     -42.138 -19.932  12.002 -0.00 +0.00    +0.029 A  
DOCKED: ATOM     23  F   UNL     1     -43.295 -17.929  12.503 +0.00 -0.00    -0.204 F  
DOCKED: ATOM     24  C   UNL     1     -41.352 -20.677  11.121 -0.01 +0.00    +0.001 A  
DOCKED: ENDBRANCH   2  18
DOCKED: TORSDOF 5
DOCKED: TER
DOCKED: ENDMDL
________________________________________________________________________________


    FINAL DOCKED STATE:
    ________________________


Run:   459 / 512
Time taken for this run:   0.002s

DOCKED: MODEL        459
DOCKED: USER    Run = 459
DOCKED: USER
DOCKED: USER    Estimated Free Energy of Binding    =  -3.70 kcal/mol  [=(1)+(2)+(3)-(4)]
DOCKED: USER
DOCKED: USER    (1) Final Intermolecular Energy     =  -5.19 kcal/mol
DOCKED: USER        vdW + Hbond + desolv Energy     =  -5.19 kcal/mol
DOCKED: USER        Electrostatic Energy            =  +0.00 kcal/mol
DOCKED: USER        Moving Ligand-Fixed Receptor    =  -5.19 kcal/mol
DOCKED: USER        Moving Ligand-Moving Receptor   =  +0.00 kcal/mol
DOCKED: USER    (2) Final Total Internal Energy     =  -1.51 kcal/mol
DOCKED: USER    (3) Torsional Free Energy           =  +1.49 kcal/mol
DOCKED: USER    (4) Unbound System's Energy         =  -1.51 kcal/mol
DOCKED: USER
DOCKED: USER
DOCKED: REMARK  5 active torsions:
DOCKED: REMARK  status: ('A' for Active; 'I' for Inactive)
DOCKED: REMARK    1  A    between atoms: C_2  and  C_19 
DOCKED: REMARK    2  A    between atoms: C_2  and  C_11 
DOCKED: REMARK    3  A    between atoms: C_19  and  C_20 
DOCKED: REMARK    4  A    between atoms: C_20  and  C_21 
DOCKED: REMARK    5  A    between atoms: C_21  and  N_22 
DOCKED: USER                              x       y       z     vdW  Elec       q    Type
DOCKED: USER                           _______ _______ _______ _____ _____    ______ ____
DOCKED: ROOT
DOCKED: ATOM      1  O   UNL     1     -40.736 -23.684   7.326 -0.14 -0.00    -0.346 OA 
DOCKED: ATOM      2  C   UNL     1     -41.913 -22.896   7.695 -0.17 +0.00    +0.130 C  
DOCKED: ATOM      3  C   UNL     1     -43.007 -23.459   6.835 -0.24 +0.00    +0.004 A  
DOCKED: ATOM      4  C   UNL     1     -42.525 -24.546   6.119 -0.36 +0.00    +0.006 A  
DOCKED: ATOM      5  C   UNL     1     -41.104 -24.782   6.459 -0.34 +0.00    +0.169 C  
DOCKED: ATOM      6  C   UNL     1     -44.326 -23.050   6.706 -0.23 -0.00    -0.001 A  
DOCKED: ATOM      7  C   UNL     1     -43.338 -25.254   5.250 -0.38 +0.00    +0.008 A  
DOCKED: ATOM      8  C   UNL     1     -45.158 -23.751   5.831 -0.29 +0.00    +0.010 A  
DOCKED: ATOM      9  C   UNL     1     -44.666 -24.848   5.107 -0.27 +0.00    +0.068 A  
DOCKED: ATOM     10  N   UNL     1     -46.237 -26.131   3.495 -1.34 -0.00    -0.191 NA 
DOCKED: ATOM     11  C   UNL     1     -45.532 -25.555   4.217 +0.03 +0.00    +0.101 C  
DOCKED: ENDROOT
DOCKED: BRANCH   2  12
DOCKED: ATOM     12  C   UNL     1     -42.172 -23.086   9.185 -0.12 +0.00    +0.038 C  
DOCKED: BRANCH  12  13
DOCKED: ATOM     13  C   UNL     1     -41.028 -22.523  10.026 -0.08 +0.00    +0.038 C  
DOCKED: BRANCH  13  14
DOCKED: ATOM     14  C   UNL     1     -39.807 -23.440   9.976 -0.08 +0.00    +0.251 C  
DOCKED: BRANCH  14  15
DOCKED: ATOM     15  N   UNL     1     -38.601 -22.665   9.710 -0.09 +0.00    +0.141 N  
DOCKED: ATOM     16  C   UNL     1     -38.000 -23.066   8.438 -0.10 +0.00    +0.285 C  
DOCKED: ATOM     17  C   UNL     1     -38.901 -21.232   9.701 -0.03 +0.00    +0.285 C  
DOCKED: ENDBRANCH  14  15
DOCKED: ENDBRANCH  13  14
DOCKED: ENDBRANCH  12  13
DOCKED: ENDBRANCH   2  12
DOCKED: BRANCH   2  18
DOCKED: ATOM     18  C   UNL     1     -41.601 -21.471   7.381 -0.20 +0.00    +0.006 A  
DOCKED: ATOM     19  C   UNL     1     -40.539 -21.162   6.531 -0.21 +0.00    +0.001 A  
DOCKED: ATOM     20  C   UNL     1     -40.248 -19.829   6.238 -0.15 +0.00    +0.029 A  
DOCKED: ATOM     21  C   UNL     1     -41.019 -18.809   6.793 -0.12 +0.00    +0.140 A  
DOCKED: ATOM     22  C   UNL     1     -42.081 -19.119   7.642 -0.12 +0.00    +0.029 A  
DOCKED: ATOM     23  F   UNL     1     -40.740 -17.530   6.510 -0.03 -0.00    -0.204 F  
DOCKED: ATOM     24  C   UNL     1     -42.372 -20.452   7.937 -0.13 +0.00    +0.001 A  
DOCKED: ENDBRANCH   2  18
DOCKED: TORSDOF 5
DOCKED: TER
DOCKED: ENDMDL
________________________________________________________________________________


    FINAL DOCKED STATE:
    ________________________


Run:   460 / 512
Time taken for this run:   0.002s

DOCKED: MODEL        460
DOCKED: USER    Run = 460
DOCKED: USER
DOCKED: USER    Estimated Free Energy of Binding    =  -3.51 kcal/mol  [=(1)+(2)+(3)-(4)]
DOCKED: USER
DOCKED: USER    (1) Final Intermolecular Energy     =  -5.00 kcal/mol
DOCKED: USER        vdW + Hbond + desolv Energy     =  -5.00 kcal/mol
DOCKED: USER        Electrostatic Energy            =  +0.00 kcal/mol
DOCKED: USER        Moving Ligand-Fixed Receptor    =  -5.00 kcal/mol
DOCKED: USER        Moving Ligand-Moving Receptor   =  +0.00 kcal/mol
DOCKED: USER    (2) Final Total Internal Energy     =  -1.49 kcal/mol
DOCKED: USER    (3) Torsional Free Energy           =  +1.49 kcal/mol
DOCKED: USER    (4) Unbound System's Energy         =  -1.49 kcal/mol
DOCKED: USER
DOCKED: USER
DOCKED: REMARK  5 active torsions:
DOCKED: REMARK  status: ('A' for Active; 'I' for Inactive)
DOCKED: REMARK    1  A    between atoms: C_2  and  C_19 
DOCKED: REMARK    2  A    between atoms: C_2  and  C_11 
DOCKED: REMARK    3  A    between atoms: C_19  and  C_20 
DOCKED: REMARK    4  A    between atoms: C_20  and  C_21 
DOCKED: REMARK    5  A    between atoms: C_21  and  N_22 
DOCKED: USER                              x       y       z     vdW  Elec       q    Type
DOCKED: USER                           _______ _______ _______ _____ _____    ______ ____
DOCKED: ROOT
DOCKED: ATOM      1  O   UNL     1     -33.756 -11.316  -3.154 -0.00 -0.00    -0.346 OA 
DOCKED: ATOM      2  C   UNL     1     -34.705 -11.137  -2.054 -0.10 +0.00    +0.130 C  
DOCKED: ATOM      3  C   UNL     1     -36.040 -11.410  -2.684 -0.19 +0.00    +0.004 A  
DOCKED: ATOM      4  C   UNL     1     -35.862 -11.819  -3.998 -0.16 +0.00    +0.006 A  
DOCKED: ATOM      5  C   UNL     1     -34.418 -11.856  -4.321 -0.06 +0.00    +0.169 C  
DOCKED: ATOM      6  C   UNL     1     -37.310 -11.317  -2.133 -0.19 -0.00    -0.001 A  
DOCKED: ATOM      7  C   UNL     1     -36.940 -12.142  -4.804 -0.25 +0.00    +0.008 A  
DOCKED: ATOM      8  C   UNL     1     -38.408 -11.634  -2.935 +0.09 +0.00    +0.010 A  
DOCKED: ATOM      9  C   UNL     1     -38.223 -12.045  -4.264 -0.33 +0.00    +0.068 A  
DOCKED: ATOM     10  N   UNL     1     -40.282 -12.633  -5.724 -2.42 -0.00    -0.191 NA 
DOCKED: ATOM     11  C   UNL     1     -39.359 -12.369  -5.069 -0.31 +0.00    +0.101 C  
DOCKED: ENDROOT
DOCKED: BRANCH   2  12
DOCKED: ATOM     12  C   UNL     1     -34.356 -12.126  -0.949 -0.11 +0.00    +0.038 C  
DOCKED: BRANCH  12  13
DOCKED: ATOM     13  C   UNL     1     -34.522 -13.569  -1.420 -0.07 +0.00    +0.038 C  
DOCKED: BRANCH  13  14
DOCKED: ATOM     14  C   UNL     1     -35.767 -14.208  -0.808 -0.09 +0.00    +0.251 C  
DOCKED: BRANCH  14  15
DOCKED: ATOM     15  N   UNL     1     -36.748 -14.503  -1.845 -0.12 +0.00    +0.141 N  
DOCKED: ATOM     16  C   UNL     1     -36.275 -15.586  -2.709 -0.07 +0.00    +0.285 C  
DOCKED: ATOM     17  C   UNL     1     -38.038 -14.856  -1.250 -0.16 +0.00    +0.285 C  
DOCKED: ENDBRANCH  14  15
DOCKED: ENDBRANCH  13  14
DOCKED: ENDBRANCH  12  13
DOCKED: ENDBRANCH   2  12
DOCKED: BRANCH   2  18
DOCKED: ATOM     18  C   UNL     1     -34.563  -9.728  -1.581 -0.11 +0.00    +0.006 A  
DOCKED: ATOM     19  C   UNL     1     -35.058  -9.360  -0.331 -0.15 +0.00    +0.001 A  
DOCKED: ATOM     20  C   UNL     1     -34.925  -8.043   0.110 -0.09 +0.00    +0.029 A  
DOCKED: ATOM     21  C   UNL     1     -34.297  -7.097  -0.699 -0.02 +0.00    +0.140 A  
DOCKED: ATOM     22  C   UNL     1     -33.802  -7.466  -1.949 -0.04 +0.00    +0.029 A  
DOCKED: ATOM     23  F   UNL     1     -34.168  -5.833  -0.274 +0.01 -0.00    -0.204 F  
DOCKED: ATOM     24  C   UNL     1     -33.935  -8.783  -2.392 -0.08 +0.00    +0.001 A  
DOCKED: ENDBRANCH   2  18
DOCKED: TORSDOF 5
DOCKED: TER
DOCKED: ENDMDL
________________________________________________________________________________


    FINAL DOCKED STATE:
    ________________________


Run:   461 / 512
Time taken for this run:   0.002s

DOCKED: MODEL        461
DOCKED: USER    Run = 461
DOCKED: USER
DOCKED: USER    Estimated Free Energy of Binding    =  -6.27 kcal/mol  [=(1)+(2)+(3)-(4)]
DOCKED: USER
DOCKED: USER    (1) Final Intermolecular Energy     =  -7.76 kcal/mol
DOCKED: USER        vdW + Hbond + desolv Energy     =  -7.76 kcal/mol
DOCKED: USER        Electrostatic Energy            =  +0.00 kcal/mol
DOCKED: USER        Moving Ligand-Fixed Receptor    =  -7.76 kcal/mol
DOCKED: USER        Moving Ligand-Moving Receptor   =  +0.00 kcal/mol
DOCKED: USER    (2) Final Total Internal Energy     =  -1.13 kcal/mol
DOCKED: USER    (3) Torsional Free Energy           =  +1.49 kcal/mol
DOCKED: USER    (4) Unbound System's Energy         =  -1.13 kcal/mol
DOCKED: USER
DOCKED: USER
DOCKED: REMARK  5 active torsions:
DOCKED: REMARK  status: ('A' for Active; 'I' for Inactive)
DOCKED: REMARK    1  A    between atoms: C_2  and  C_19 
DOCKED: REMARK    2  A    between atoms: C_2  and  C_11 
DOCKED: REMARK    3  A    between atoms: C_19  and  C_20 
DOCKED: REMARK    4  A    between atoms: C_20  and  C_21 
DOCKED: REMARK    5  A    between atoms: C_21  and  N_22 
DOCKED: USER                              x       y       z     vdW  Elec       q    Type
DOCKED: USER                           _______ _______ _______ _____ _____    ______ ____
DOCKED: ROOT
DOCKED: ATOM      1  O   UNL     1     -40.981 -25.320   7.858 -0.56 -0.00    -0.346 OA 
DOCKED: ATOM      2  C   UNL     1     -42.329 -24.760   7.963 -0.23 +0.00    +0.130 C  
DOCKED: ATOM      3  C   UNL     1     -42.747 -24.557   6.535 -0.31 +0.00    +0.004 A  
DOCKED: ATOM      4  C   UNL     1     -41.770 -25.060   5.687 -0.42 +0.00    +0.006 A  
DOCKED: ATOM      5  C   UNL     1     -40.661 -25.633   6.482 -0.29 +0.00    +0.169 C  
DOCKED: ATOM      6  C   UNL     1     -43.904 -23.985   6.028 -0.30 -0.00    -0.001 A  
DOCKED: ATOM      7  C   UNL     1     -41.912 -25.003   4.311 -0.42 +0.00    +0.008 A  
DOCKED: ATOM      8  C   UNL     1     -44.060 -23.917   4.642 -0.29 +0.00    +0.010 A  
DOCKED: ATOM      9  C   UNL     1     -43.069 -24.424   3.789 -0.42 +0.00    +0.068 A  
DOCKED: ATOM     10  N   UNL     1     -43.393 -24.286   1.222 -3.16 -0.00    -0.191 NA 
DOCKED: ATOM     11  C   UNL     1     -43.247 -24.347   2.373 -0.27 +0.00    +0.101 C  
DOCKED: ENDROOT
DOCKED: BRANCH   2  12
DOCKED: ATOM     12  C   UNL     1     -43.211 -25.760   8.703 -0.17 +0.00    +0.038 C  
DOCKED: BRANCH  12  13
DOCKED: ATOM     13  C   UNL     1     -44.476 -25.095   9.241 -0.21 +0.00    +0.038 C  
DOCKED: BRANCH  13  14
DOCKED: ATOM     14  C   UNL     1     -44.833 -25.632  10.625 -0.06 +0.00    +0.251 C  
DOCKED: BRANCH  14  15
DOCKED: ATOM     15  N   UNL     1     -44.403 -24.697  11.658 -0.08 +0.00    +0.141 N  
DOCKED: ATOM     16  C   UNL     1     -45.523 -23.867  12.103 -0.01 +0.00    +0.285 C  
DOCKED: ATOM     17  C   UNL     1     -43.821 -25.415  12.794 -0.09 +0.00    +0.285 C  
DOCKED: ENDBRANCH  14  15
DOCKED: ENDBRANCH  13  14
DOCKED: ENDBRANCH  12  13
DOCKED: ENDBRANCH   2  12
DOCKED: BRANCH   2  18
DOCKED: ATOM     18  C   UNL     1     -42.212 -23.481   8.722 -0.14 +0.00    +0.006 A  
DOCKED: ATOM     19  C   UNL     1     -41.486 -23.441   9.912 -0.11 +0.00    +0.001 A  
DOCKED: ATOM     20  C   UNL     1     -41.377 -22.244  10.621 -0.04 +0.00    +0.029 A  
DOCKED: ATOM     21  C   UNL     1     -41.994 -21.090  10.140 -0.01 +0.00    +0.140 A  
DOCKED: ATOM     22  C   UNL     1     -42.720 -21.131   8.950 -0.06 +0.00    +0.029 A  
DOCKED: ATOM     23  F   UNL     1     -41.888 -19.941  10.819 +0.00 -0.00    -0.204 F  
DOCKED: ATOM     24  C   UNL     1     -42.830 -22.328   8.240 -0.11 +0.00    +0.001 A  
DOCKED: ENDBRANCH   2  18
DOCKED: TORSDOF 5
DOCKED: TER
DOCKED: ENDMDL
________________________________________________________________________________


    FINAL DOCKED STATE:
    ________________________


Run:   462 / 512
Time taken for this run:   0.002s

DOCKED: MODEL        462
DOCKED: USER    Run = 462
DOCKED: USER
DOCKED: USER    Estimated Free Energy of Binding    =  -3.27 kcal/mol  [=(1)+(2)+(3)-(4)]
DOCKED: USER
DOCKED: USER    (1) Final Intermolecular Energy     =  -4.76 kcal/mol
DOCKED: USER        vdW + Hbond + desolv Energy     =  -4.76 kcal/mol
DOCKED: USER        Electrostatic Energy            =  +0.00 kcal/mol
DOCKED: USER        Moving Ligand-Fixed Receptor    =  -4.76 kcal/mol
DOCKED: USER        Moving Ligand-Moving Receptor   =  +0.00 kcal/mol
DOCKED: USER    (2) Final Total Internal Energy     =  -1.44 kcal/mol
DOCKED: USER    (3) Torsional Free Energy           =  +1.49 kcal/mol
DOCKED: USER    (4) Unbound System's Energy         =  -1.44 kcal/mol
DOCKED: USER
DOCKED: USER
DOCKED: REMARK  5 active torsions:
DOCKED: REMARK  status: ('A' for Active; 'I' for Inactive)
DOCKED: REMARK    1  A    between atoms: C_2  and  C_19 
DOCKED: REMARK    2  A    between atoms: C_2  and  C_11 
DOCKED: REMARK    3  A    between atoms: C_19  and  C_20 
DOCKED: REMARK    4  A    between atoms: C_20  and  C_21 
DOCKED: REMARK    5  A    between atoms: C_21  and  N_22 
DOCKED: USER                              x       y       z     vdW  Elec       q    Type
DOCKED: USER                           _______ _______ _______ _____ _____    ______ ____
DOCKED: ROOT
DOCKED: ATOM      1  O   UNL     1     -31.394 -24.385  -0.835 +0.00 -0.00    -0.346 OA 
DOCKED: ATOM      2  C   UNL     1     -32.460 -23.385  -0.762 -0.04 +0.00    +0.130 C  
DOCKED: ATOM      3  C   UNL     1     -33.378 -23.916   0.302 -0.09 +0.00    +0.004 A  
DOCKED: ATOM      4  C   UNL     1     -32.829 -25.059   0.864 -0.11 +0.00    +0.006 A  
DOCKED: ATOM      5  C   UNL     1     -31.524 -25.354   0.231 -0.04 +0.00    +0.169 C  
DOCKED: ATOM      6  C   UNL     1     -34.596 -23.419   0.743 -0.16 -0.00    -0.001 A  
DOCKED: ATOM      7  C   UNL     1     -33.476 -25.745   1.878 -0.21 +0.00    +0.008 A  
DOCKED: ATOM      8  C   UNL     1     -35.262 -24.102   1.762 -0.29 +0.00    +0.010 A  
DOCKED: ATOM      9  C   UNL     1     -34.704 -25.259   2.327 -0.29 +0.00    +0.068 A  
DOCKED: ATOM     10  N   UNL     1     -35.965 -26.500   4.220 -2.49 -0.00    -0.191 NA 
DOCKED: ATOM     11  C   UNL     1     -35.400 -25.944   3.370 -0.40 +0.00    +0.101 C  
DOCKED: ENDROOT
DOCKED: BRANCH   2  12
DOCKED: ATOM     12  C   UNL     1     -31.839 -22.043  -0.393 -0.01 +0.00    +0.038 C  
DOCKED: BRANCH  12  13
DOCKED: ATOM     13  C   UNL     1     -30.315 -22.093  -0.478 -0.00 +0.00    +0.038 C  
DOCKED: BRANCH  13  14
DOCKED: ATOM     14  C   UNL     1     -29.826 -21.662  -1.859 -0.00 +0.00    +0.251 C  
DOCKED: BRANCH  14  15
DOCKED: ATOM     15  N   UNL     1     -29.210 -22.787  -2.553 +0.00 +0.00    +0.141 N  
DOCKED: ATOM     16  C   UNL     1     -29.926 -23.080  -3.796 -0.00 +0.00    +0.285 C  
DOCKED: ATOM     17  C   UNL     1     -27.800 -22.510  -2.833 +0.00 +0.00    +0.285 C  
DOCKED: ENDBRANCH  14  15
DOCKED: ENDBRANCH  13  14
DOCKED: ENDBRANCH  12  13
DOCKED: ENDBRANCH   2  12
DOCKED: BRANCH   2  18
DOCKED: ATOM     18  C   UNL     1     -33.101 -23.330  -2.108 -0.09 +0.00    +0.006 A  
DOCKED: ATOM     19  C   UNL     1     -33.864 -22.221  -2.472 -0.12 +0.00    +0.001 A  
DOCKED: ATOM     20  C   UNL     1     -34.462 -22.172  -3.732 -0.15 +0.00    +0.029 A  
DOCKED: ATOM     21  C   UNL     1     -34.296 -23.229  -4.625 -0.06 +0.00    +0.140 A  
DOCKED: ATOM     22  C   UNL     1     -33.533 -24.338  -4.260 -0.07 +0.00    +0.029 A  
DOCKED: ATOM     23  F   UNL     1     -34.870 -23.180  -5.835 -0.05 -0.00    -0.204 F  
DOCKED: ATOM     24  C   UNL     1     -32.934 -24.389  -3.000 -0.08 +0.00    +0.001 A  
DOCKED: ENDBRANCH   2  18
DOCKED: TORSDOF 5
DOCKED: TER
DOCKED: ENDMDL
________________________________________________________________________________


    FINAL DOCKED STATE:
    ________________________


Run:   463 / 512
Time taken for this run:   0.002s

DOCKED: MODEL        463
DOCKED: USER    Run = 463
DOCKED: USER
DOCKED: USER    Estimated Free Energy of Binding    =  -4.03 kcal/mol  [=(1)+(2)+(3)-(4)]
DOCKED: USER
DOCKED: USER    (1) Final Intermolecular Energy     =  -5.52 kcal/mol
DOCKED: USER        vdW + Hbond + desolv Energy     =  -5.52 kcal/mol
DOCKED: USER        Electrostatic Energy            =  +0.00 kcal/mol
DOCKED: USER        Moving Ligand-Fixed Receptor    =  -5.52 kcal/mol
DOCKED: USER        Moving Ligand-Moving Receptor   =  +0.00 kcal/mol
DOCKED: USER    (2) Final Total Internal Energy     =  -1.37 kcal/mol
DOCKED: USER    (3) Torsional Free Energy           =  +1.49 kcal/mol
DOCKED: USER    (4) Unbound System's Energy         =  -1.37 kcal/mol
DOCKED: USER
DOCKED: USER
DOCKED: REMARK  5 active torsions:
DOCKED: REMARK  status: ('A' for Active; 'I' for Inactive)
DOCKED: REMARK    1  A    between atoms: C_2  and  C_19 
DOCKED: REMARK    2  A    between atoms: C_2  and  C_11 
DOCKED: REMARK    3  A    between atoms: C_19  and  C_20 
DOCKED: REMARK    4  A    between atoms: C_20  and  C_21 
DOCKED: REMARK    5  A    between atoms: C_21  and  N_22 
DOCKED: USER                              x       y       z     vdW  Elec       q    Type
DOCKED: USER                           _______ _______ _______ _____ _____    ______ ____
DOCKED: ROOT
DOCKED: ATOM      1  O   UNL     1     -39.311 -21.168   8.925 -0.03 -0.00    -0.346 OA 
DOCKED: ATOM      2  C   UNL     1     -40.277 -20.470   8.076 -0.10 +0.00    +0.130 C  
DOCKED: ATOM      3  C   UNL     1     -40.968 -21.576   7.333 -0.21 +0.00    +0.004 A  
DOCKED: ATOM      4  C   UNL     1     -40.515 -22.803   7.796 -0.23 +0.00    +0.006 A  
DOCKED: ATOM      5  C   UNL     1     -39.518 -22.598   8.870 -0.14 +0.00    +0.169 C  
DOCKED: ATOM      6  C   UNL     1     -41.929 -21.502   6.335 -0.26 -0.00    -0.001 A  
DOCKED: ATOM      7  C   UNL     1     -41.000 -23.992   7.278 -0.32 +0.00    +0.008 A  
DOCKED: ATOM      8  C   UNL     1     -42.424 -22.693   5.799 -0.31 +0.00    +0.010 A  
DOCKED: ATOM      9  C   UNL     1     -41.962 -23.931   6.269 -0.31 +0.00    +0.068 A  
DOCKED: ATOM     10  N   UNL     1     -42.907 -26.121   5.257 -2.55 -0.00    -0.191 NA 
DOCKED: ATOM     11  C   UNL     1     -42.483 -25.139   5.711 -0.31 +0.00    +0.101 C  
DOCKED: ENDROOT
DOCKED: BRANCH   2  12
DOCKED: ATOM     12  C   UNL     1     -41.222 -19.676   8.972 -0.05 +0.00    +0.038 C  
DOCKED: BRANCH  12  13
DOCKED: ATOM     13  C   UNL     1     -42.117 -20.601   9.795 -0.04 +0.00    +0.038 C  
DOCKED: BRANCH  13  14
DOCKED: ATOM     14  C   UNL     1     -43.576 -20.486   9.357 -0.02 +0.00    +0.251 C  
DOCKED: BRANCH  14  15
DOCKED: ATOM     15  N   UNL     1     -43.975 -21.672   8.608 -0.05 +0.00    +0.141 N  
DOCKED: ATOM     16  C   UNL     1     -44.070 -22.834   9.493 -0.01 +0.00    +0.285 C  
DOCKED: ATOM     17  C   UNL     1     -45.251 -21.446   7.928 -0.07 +0.00    +0.285 C  
DOCKED: ENDBRANCH  14  15
DOCKED: ENDBRANCH  13  14
DOCKED: ENDBRANCH  12  13
DOCKED: ENDBRANCH   2  12
DOCKED: BRANCH   2  18
DOCKED: ATOM     18  C   UNL     1     -39.498 -19.565   7.181 -0.14 +0.00    +0.006 A  
DOCKED: ATOM     19  C   UNL     1     -39.385 -19.859   5.823 -0.07 +0.00    +0.001 A  
DOCKED: ATOM     20  C   UNL     1     -38.655 -19.012   4.986 -0.13 +0.00    +0.029 A  
DOCKED: ATOM     21  C   UNL     1     -38.041 -17.875   5.509 -0.06 +0.00    +0.140 A  
DOCKED: ATOM     22  C   UNL     1     -38.155 -17.582   6.868 -0.04 +0.00    +0.029 A  
DOCKED: ATOM     23  F   UNL     1     -37.343 -17.062   4.706 -0.00 -0.00    -0.204 F  
DOCKED: ATOM     24  C   UNL     1     -38.884 -18.428   7.705 -0.05 +0.00    +0.001 A  
DOCKED: ENDBRANCH   2  18
DOCKED: TORSDOF 5
DOCKED: TER
DOCKED: ENDMDL
________________________________________________________________________________


    FINAL DOCKED STATE:
    ________________________


Run:   464 / 512
Time taken for this run:   0.002s

DOCKED: MODEL        464
DOCKED: USER    Run = 464
DOCKED: USER
DOCKED: USER    Estimated Free Energy of Binding    =  -4.41 kcal/mol  [=(1)+(2)+(3)-(4)]
DOCKED: USER
DOCKED: USER    (1) Final Intermolecular Energy     =  -5.90 kcal/mol
DOCKED: USER        vdW + Hbond + desolv Energy     =  -5.90 kcal/mol
DOCKED: USER        Electrostatic Energy            =  +0.00 kcal/mol
DOCKED: USER        Moving Ligand-Fixed Receptor    =  -5.90 kcal/mol
DOCKED: USER        Moving Ligand-Moving Receptor   =  +0.00 kcal/mol
DOCKED: USER    (2) Final Total Internal Energy     =  -1.36 kcal/mol
DOCKED: USER    (3) Torsional Free Energy           =  +1.49 kcal/mol
DOCKED: USER    (4) Unbound System's Energy         =  -1.36 kcal/mol
DOCKED: USER
DOCKED: USER
DOCKED: REMARK  5 active torsions:
DOCKED: REMARK  status: ('A' for Active; 'I' for Inactive)
DOCKED: REMARK    1  A    between atoms: C_2  and  C_19 
DOCKED: REMARK    2  A    between atoms: C_2  and  C_11 
DOCKED: REMARK    3  A    between atoms: C_19  and  C_20 
DOCKED: REMARK    4  A    between atoms: C_20  and  C_21 
DOCKED: REMARK    5  A    between atoms: C_21  and  N_22 
DOCKED: USER                              x       y       z     vdW  Elec       q    Type
DOCKED: USER                           _______ _______ _______ _____ _____    ______ ____
DOCKED: ROOT
DOCKED: ATOM      1  O   UNL     1     -41.084 -19.570   7.308 -0.05 -0.00    -0.346 OA 
DOCKED: ATOM      2  C   UNL     1     -42.480 -19.766   7.699 -0.13 +0.00    +0.130 C  
DOCKED: ATOM      3  C   UNL     1     -42.799 -21.150   7.214 -0.21 +0.00    +0.004 A  
DOCKED: ATOM      4  C   UNL     1     -41.655 -21.736   6.690 -0.27 +0.00    +0.006 A  
DOCKED: ATOM      5  C   UNL     1     -40.514 -20.800   6.803 -0.19 +0.00    +0.169 C  
DOCKED: ATOM      6  C   UNL     1     -44.002 -21.840   7.243 -0.20 -0.00    -0.001 A  
DOCKED: ATOM      7  C   UNL     1     -41.674 -23.022   6.177 -0.34 +0.00    +0.008 A  
DOCKED: ATOM      8  C   UNL     1     -44.039 -23.136   6.726 -0.23 +0.00    +0.010 A  
DOCKED: ATOM      9  C   UNL     1     -42.880 -23.724   6.196 -0.26 +0.00    +0.068 A  
DOCKED: ATOM     10  N   UNL     1     -42.982 -26.133   5.248 -2.55 -0.00    -0.191 NA 
DOCKED: ATOM     11  C   UNL     1     -42.937 -25.052   5.673 -0.36 +0.00    +0.101 C  
DOCKED: ENDROOT
DOCKED: BRANCH   2  12
DOCKED: ATOM     12  C   UNL     1     -42.581 -19.631   9.214 -0.04 +0.00    +0.038 C  
DOCKED: BRANCH  12  13
DOCKED: ATOM     13  C   UNL     1     -41.360 -18.916   9.791 -0.02 +0.00    +0.038 C  
DOCKED: BRANCH  13  14
DOCKED: ATOM     14  C   UNL     1     -41.566 -17.403   9.809 -0.00 +0.00    +0.251 C  
DOCKED: BRANCH  14  15
DOCKED: ATOM     15  N   UNL     1     -40.480 -16.735   9.101 -0.01 +0.00    +0.141 N  
DOCKED: ATOM     16  C   UNL     1     -40.497 -15.296   9.370 +0.00 +0.00    +0.285 C  
DOCKED: ATOM     17  C   UNL     1     -39.188 -17.307   9.483 -0.00 +0.00    +0.285 C  
DOCKED: ENDBRANCH  14  15
DOCKED: ENDBRANCH  13  14
DOCKED: ENDBRANCH  12  13
DOCKED: ENDBRANCH   2  12
DOCKED: BRANCH   2  18
DOCKED: ATOM     18  C   UNL     1     -43.278 -18.710   7.010 -0.20 +0.00    +0.006 A  
DOCKED: ATOM     19  C   UNL     1     -42.639 -17.763   6.212 -0.18 +0.00    +0.001 A  
DOCKED: ATOM     20  C   UNL     1     -43.386 -16.775   5.569 -0.15 +0.00    +0.029 A  
DOCKED: ATOM     21  C   UNL     1     -44.771 -16.737   5.724 -0.11 +0.00    +0.140 A  
DOCKED: ATOM     22  C   UNL     1     -45.410 -17.685   6.523 -0.19 +0.00    +0.029 A  
DOCKED: ATOM     23  F   UNL     1     -45.489 -15.791   5.105 -0.03 -0.00    -0.204 F  
DOCKED: ATOM     24  C   UNL     1     -44.663 -18.673   7.167 -0.20 +0.00    +0.001 A  
DOCKED: ENDBRANCH   2  18
DOCKED: TORSDOF 5
DOCKED: TER
DOCKED: ENDMDL
________________________________________________________________________________


    FINAL DOCKED STATE:
    ________________________


Run:   465 / 512
Time taken for this run:   0.002s

DOCKED: MODEL        465
DOCKED: USER    Run = 465
DOCKED: USER
DOCKED: USER    Estimated Free Energy of Binding    =  -5.76 kcal/mol  [=(1)+(2)+(3)-(4)]
DOCKED: USER
DOCKED: USER    (1) Final Intermolecular Energy     =  -7.25 kcal/mol
DOCKED: USER        vdW + Hbond + desolv Energy     =  -7.25 kcal/mol
DOCKED: USER        Electrostatic Energy            =  +0.00 kcal/mol
DOCKED: USER        Moving Ligand-Fixed Receptor    =  -7.25 kcal/mol
DOCKED: USER        Moving Ligand-Moving Receptor   =  +0.00 kcal/mol
DOCKED: USER    (2) Final Total Internal Energy     =  -1.47 kcal/mol
DOCKED: USER    (3) Torsional Free Energy           =  +1.49 kcal/mol
DOCKED: USER    (4) Unbound System's Energy         =  -1.47 kcal/mol
DOCKED: USER
DOCKED: USER
DOCKED: REMARK  5 active torsions:
DOCKED: REMARK  status: ('A' for Active; 'I' for Inactive)
DOCKED: REMARK    1  A    between atoms: C_2  and  C_19 
DOCKED: REMARK    2  A    between atoms: C_2  and  C_11 
DOCKED: REMARK    3  A    between atoms: C_19  and  C_20 
DOCKED: REMARK    4  A    between atoms: C_20  and  C_21 
DOCKED: REMARK    5  A    between atoms: C_21  and  N_22 
DOCKED: USER                              x       y       z     vdW  Elec       q    Type
DOCKED: USER                           _______ _______ _______ _____ _____    ______ ____
DOCKED: ROOT
DOCKED: ATOM      1  O   UNL     1     -41.090 -22.305   7.456 -0.08 -0.00    -0.346 OA 
DOCKED: ATOM      2  C   UNL     1     -41.407 -23.725   7.609 -0.24 +0.00    +0.130 C  
DOCKED: ATOM      3  C   UNL     1     -41.954 -24.118   6.267 -0.36 +0.00    +0.004 A  
DOCKED: ATOM      4  C   UNL     1     -41.855 -23.047   5.390 -0.35 +0.00    +0.006 A  
DOCKED: ATOM      5  C   UNL     1     -41.234 -21.892   6.077 -0.21 +0.00    +0.169 C  
DOCKED: ATOM      6  C   UNL     1     -42.485 -25.331   5.852 -0.04 -0.00    -0.001 A  
DOCKED: ATOM      7  C   UNL     1     -42.284 -23.148   4.078 -0.15 +0.00    +0.008 A  
DOCKED: ATOM      8  C   UNL     1     -42.927 -25.447   4.533 -0.47 +0.00    +0.010 A  
DOCKED: ATOM      9  C   UNL     1     -42.826 -24.361   3.651 -0.45 +0.00    +0.068 A  
DOCKED: ATOM     10  N   UNL     1     -43.651 -24.611   1.207 -3.30 -0.00    -0.191 NA 
DOCKED: ATOM     11  C   UNL     1     -43.282 -24.498   2.303 -0.28 +0.00    +0.101 C  
DOCKED: ENDROOT
DOCKED: BRANCH   2  12
DOCKED: ATOM     12  C   UNL     1     -40.127 -24.469   7.970 -0.18 +0.00    +0.038 C  
DOCKED: BRANCH  12  13
DOCKED: ATOM     13  C   UNL     1     -38.965 -23.503   8.193 -0.18 +0.00    +0.038 C  
DOCKED: BRANCH  13  14
DOCKED: ATOM     14  C   UNL     1     -39.064 -22.831   9.560 -0.09 +0.00    +0.251 C  
DOCKED: BRANCH  14  15
DOCKED: ATOM     15  N   UNL     1     -38.664 -21.432   9.468 -0.05 +0.00    +0.141 N  
DOCKED: ATOM     16  C   UNL     1     -38.208 -21.114   8.114 -0.08 +0.00    +0.285 C  
DOCKED: ATOM     17  C   UNL     1     -39.770 -20.552   9.851 -0.01 +0.00    +0.285 C  
DOCKED: ENDBRANCH  14  15
DOCKED: ENDBRANCH  13  14
DOCKED: ENDBRANCH  12  13
DOCKED: ENDBRANCH   2  12
DOCKED: BRANCH   2  18
DOCKED: ATOM     18  C   UNL     1     -42.418 -23.831   8.702 -0.15 +0.00    +0.006 A  
DOCKED: ATOM     19  C   UNL     1     -43.712 -23.353   8.503 -0.12 +0.00    +0.001 A  
DOCKED: ATOM     20  C   UNL     1     -44.656 -23.452   9.526 -0.08 +0.00    +0.029 A  
DOCKED: ATOM     21  C   UNL     1     -44.305 -24.030  10.745 -0.05 +0.00    +0.140 A  
DOCKED: ATOM     22  C   UNL     1     -43.011 -24.509  10.943 -0.13 +0.00    +0.029 A  
DOCKED: ATOM     23  F   UNL     1     -45.212 -24.127  11.726 +0.01 -0.00    -0.204 F  
DOCKED: ATOM     24  C   UNL     1     -42.065 -24.409   9.921 -0.18 +0.00    +0.001 A  
DOCKED: ENDBRANCH   2  18
DOCKED: TORSDOF 5
DOCKED: TER
DOCKED: ENDMDL
________________________________________________________________________________


    FINAL DOCKED STATE:
    ________________________


Run:   466 / 512
Time taken for this run:   0.002s

DOCKED: MODEL        466
DOCKED: USER    Run = 466
DOCKED: USER
DOCKED: USER    Estimated Free Energy of Binding    =  -4.65 kcal/mol  [=(1)+(2)+(3)-(4)]
DOCKED: USER
DOCKED: USER    (1) Final Intermolecular Energy     =  -6.14 kcal/mol
DOCKED: USER        vdW + Hbond + desolv Energy     =  -6.14 kcal/mol
DOCKED: USER        Electrostatic Energy            =  +0.00 kcal/mol
DOCKED: USER        Moving Ligand-Fixed Receptor    =  -6.14 kcal/mol
DOCKED: USER        Moving Ligand-Moving Receptor   =  +0.00 kcal/mol
DOCKED: USER    (2) Final Total Internal Energy     =  -1.28 kcal/mol
DOCKED: USER    (3) Torsional Free Energy           =  +1.49 kcal/mol
DOCKED: USER    (4) Unbound System's Energy         =  -1.28 kcal/mol
DOCKED: USER
DOCKED: USER
DOCKED: REMARK  5 active torsions:
DOCKED: REMARK  status: ('A' for Active; 'I' for Inactive)
DOCKED: REMARK    1  A    between atoms: C_2  and  C_19 
DOCKED: REMARK    2  A    between atoms: C_2  and  C_11 
DOCKED: REMARK    3  A    between atoms: C_19  and  C_20 
DOCKED: REMARK    4  A    between atoms: C_20  and  C_21 
DOCKED: REMARK    5  A    between atoms: C_21  and  N_22 
DOCKED: USER                              x       y       z     vdW  Elec       q    Type
DOCKED: USER                           _______ _______ _______ _____ _____    ______ ____
DOCKED: ROOT
DOCKED: ATOM      1  O   UNL     1     -41.000 -19.450   6.924 -0.07 -0.00    -0.346 OA 
DOCKED: ATOM      2  C   UNL     1     -42.326 -19.669   7.502 -0.15 +0.00    +0.130 C  
DOCKED: ATOM      3  C   UNL     1     -42.662 -21.078   7.108 -0.21 +0.00    +0.004 A  
DOCKED: ATOM      4  C   UNL     1     -41.579 -21.652   6.458 -0.28 +0.00    +0.006 A  
DOCKED: ATOM      5  C   UNL     1     -40.463 -20.683   6.389 -0.17 +0.00    +0.169 C  
DOCKED: ATOM      6  C   UNL     1     -43.829 -21.798   7.318 -0.19 -0.00    -0.001 A  
DOCKED: ATOM      7  C   UNL     1     -41.625 -22.956   5.993 -0.34 +0.00    +0.008 A  
DOCKED: ATOM      8  C   UNL     1     -43.893 -23.113   6.852 -0.22 +0.00    +0.010 A  
DOCKED: ATOM      9  C   UNL     1     -42.796 -23.688   6.193 -0.26 +0.00    +0.068 A  
DOCKED: ATOM     10  N   UNL     1     -42.946 -26.132   5.345 -2.61 -0.00    -0.191 NA 
DOCKED: ATOM     11  C   UNL     1     -42.879 -25.036   5.725 -0.36 +0.00    +0.101 C  
DOCKED: ENDROOT
DOCKED: BRANCH   2  12
DOCKED: ATOM     12  C   UNL     1     -42.232 -19.482   9.012 -0.05 +0.00    +0.038 C  
DOCKED: BRANCH  12  13
DOCKED: ATOM     13  C   UNL     1     -40.822 -19.076   9.436 -0.03 +0.00    +0.038 C  
DOCKED: BRANCH  13  14
DOCKED: ATOM     14  C   UNL     1     -39.980 -20.300   9.792 -0.01 +0.00    +0.251 C  
DOCKED: BRANCH  14  15
DOCKED: ATOM     15  N   UNL     1     -38.587 -20.084   9.419 -0.02 +0.00    +0.141 N  
DOCKED: ATOM     16  C   UNL     1     -38.061 -21.244   8.697 -0.07 +0.00    +0.285 C  
DOCKED: ATOM     17  C   UNL     1     -38.453 -18.875   8.604 -0.02 +0.00    +0.285 C  
DOCKED: ENDBRANCH  14  15
DOCKED: ENDBRANCH  13  14
DOCKED: ENDBRANCH  12  13
DOCKED: ENDBRANCH   2  12
DOCKED: BRANCH   2  18
DOCKED: ATOM     18  C   UNL     1     -43.240 -18.660   6.891 -0.20 +0.00    +0.006 A  
DOCKED: ATOM     19  C   UNL     1     -42.713 -17.584   6.178 -0.18 +0.00    +0.001 A  
DOCKED: ATOM     20  C   UNL     1     -43.569 -16.642   5.607 -0.15 +0.00    +0.029 A  
DOCKED: ATOM     21  C   UNL     1     -44.949 -16.776   5.750 -0.10 +0.00    +0.140 A  
DOCKED: ATOM     22  C   UNL     1     -45.476 -17.853   6.463 -0.19 +0.00    +0.029 A  
DOCKED: ATOM     23  F   UNL     1     -45.770 -15.872   5.200 -0.03 -0.00    -0.204 F  
DOCKED: ATOM     24  C   UNL     1     -44.620 -18.796   7.035 -0.21 +0.00    +0.001 A  
DOCKED: ENDBRANCH   2  18
DOCKED: TORSDOF 5
DOCKED: TER
DOCKED: ENDMDL
________________________________________________________________________________


    FINAL DOCKED STATE:
    ________________________


Run:   467 / 512
Time taken for this run:   0.002s

DOCKED: MODEL        467
DOCKED: USER    Run = 467
DOCKED: USER
DOCKED: USER    Estimated Free Energy of Binding    =  -3.53 kcal/mol  [=(1)+(2)+(3)-(4)]
DOCKED: USER
DOCKED: USER    (1) Final Intermolecular Energy     =  -5.02 kcal/mol
DOCKED: USER        vdW + Hbond + desolv Energy     =  -5.02 kcal/mol
DOCKED: USER        Electrostatic Energy            =  +0.00 kcal/mol
DOCKED: USER        Moving Ligand-Fixed Receptor    =  -5.02 kcal/mol
DOCKED: USER        Moving Ligand-Moving Receptor   =  +0.00 kcal/mol
DOCKED: USER    (2) Final Total Internal Energy     =  -1.44 kcal/mol
DOCKED: USER    (3) Torsional Free Energy           =  +1.49 kcal/mol
DOCKED: USER    (4) Unbound System's Energy         =  -1.44 kcal/mol
DOCKED: USER
DOCKED: USER
DOCKED: REMARK  5 active torsions:
DOCKED: REMARK  status: ('A' for Active; 'I' for Inactive)
DOCKED: REMARK    1  A    between atoms: C_2  and  C_19 
DOCKED: REMARK    2  A    between atoms: C_2  and  C_11 
DOCKED: REMARK    3  A    between atoms: C_19  and  C_20 
DOCKED: REMARK    4  A    between atoms: C_20  and  C_21 
DOCKED: REMARK    5  A    between atoms: C_21  and  N_22 
DOCKED: USER                              x       y       z     vdW  Elec       q    Type
DOCKED: USER                           _______ _______ _______ _____ _____    ______ ____
DOCKED: ROOT
DOCKED: ATOM      1  O   UNL     1     -37.563 -16.087   1.163 -0.04 -0.00    -0.346 OA 
DOCKED: ATOM      2  C   UNL     1     -38.747 -16.143   0.306 -0.22 +0.00    +0.130 C  
DOCKED: ATOM      3  C   UNL     1     -38.456 -15.144  -0.776 -0.26 +0.00    +0.004 A  
DOCKED: ATOM      4  C   UNL     1     -37.173 -14.642  -0.614 -0.15 +0.00    +0.006 A  
DOCKED: ATOM      5  C   UNL     1     -36.530 -15.273   0.560 -0.11 +0.00    +0.169 C  
DOCKED: ATOM      6  C   UNL     1     -39.259 -14.722  -1.825 -0.28 -0.00    -0.001 A  
DOCKED: ATOM      7  C   UNL     1     -36.651 -13.703  -1.488 -0.14 +0.00    +0.008 A  
DOCKED: ATOM      8  C   UNL     1     -38.749 -13.772  -2.712 -0.35 +0.00    +0.010 A  
DOCKED: ATOM      9  C   UNL     1     -37.451 -13.266  -2.544 -0.21 +0.00    +0.068 A  
DOCKED: ATOM     10  N   UNL     1     -36.534 -11.507  -4.211 -0.74 -0.00    -0.191 NA 
DOCKED: ATOM     11  C   UNL     1     -36.946 -12.295  -3.463 -0.24 +0.00    +0.101 C  
DOCKED: ENDROOT
DOCKED: BRANCH   2  12
DOCKED: ATOM     12  C   UNL     1     -38.893 -17.565  -0.223 -0.15 +0.00    +0.038 C  
DOCKED: BRANCH  12  13
DOCKED: ATOM     13  C   UNL     1     -37.614 -18.372  -0.011 -0.19 +0.00    +0.038 C  
DOCKED: BRANCH  13  14
DOCKED: ATOM     14  C   UNL     1     -37.724 -19.261   1.227 -0.17 +0.00    +0.251 C  
DOCKED: BRANCH  14  15
DOCKED: ATOM     15  N   UNL     1     -37.345 -18.516   2.422 -0.09 +0.00    +0.141 N  
DOCKED: ATOM     16  C   UNL     1     -38.018 -19.058   3.603 -0.10 +0.00    +0.285 C  
DOCKED: ATOM     17  C   UNL     1     -35.893 -18.543   2.607 -0.03 +0.00    +0.285 C  
DOCKED: ENDBRANCH  14  15
DOCKED: ENDBRANCH  13  14
DOCKED: ENDBRANCH  12  13
DOCKED: ENDBRANCH   2  12
DOCKED: BRANCH   2  18
DOCKED: ATOM     18  C   UNL     1     -39.916 -15.761   1.152 -0.29 +0.00    +0.006 A  
DOCKED: ATOM     19  C   UNL     1     -39.968 -14.498   1.739 -0.27 +0.00    +0.001 A  
DOCKED: ATOM     20  C   UNL     1     -41.061 -14.142   2.530 -0.28 +0.00    +0.029 A  
DOCKED: ATOM     21  C   UNL     1     -42.101 -15.049   2.731 -0.19 +0.00    +0.140 A  
DOCKED: ATOM     22  C   UNL     1     -42.049 -16.312   2.143 -0.25 +0.00    +0.029 A  
DOCKED: ATOM     23  F   UNL     1     -43.151 -14.706   3.488 -0.02 -0.00    -0.204 F  
DOCKED: ATOM     24  C   UNL     1     -40.955 -16.670   1.352 -0.26 +0.00    +0.001 A  
DOCKED: ENDBRANCH   2  18
DOCKED: TORSDOF 5
DOCKED: TER
DOCKED: ENDMDL
________________________________________________________________________________


    FINAL DOCKED STATE:
    ________________________


Run:   468 / 512
Time taken for this run:   0.002s

DOCKED: MODEL        468
DOCKED: USER    Run = 468
DOCKED: USER
DOCKED: USER    Estimated Free Energy of Binding    =  -4.29 kcal/mol  [=(1)+(2)+(3)-(4)]
DOCKED: USER
DOCKED: USER    (1) Final Intermolecular Energy     =  -5.78 kcal/mol
DOCKED: USER        vdW + Hbond + desolv Energy     =  -5.78 kcal/mol
DOCKED: USER        Electrostatic Energy            =  +0.00 kcal/mol
DOCKED: USER        Moving Ligand-Fixed Receptor    =  -5.78 kcal/mol
DOCKED: USER        Moving Ligand-Moving Receptor   =  +0.00 kcal/mol
DOCKED: USER    (2) Final Total Internal Energy     =  -1.20 kcal/mol
DOCKED: USER    (3) Torsional Free Energy           =  +1.49 kcal/mol
DOCKED: USER    (4) Unbound System's Energy         =  -1.20 kcal/mol
DOCKED: USER
DOCKED: USER
DOCKED: REMARK  5 active torsions:
DOCKED: REMARK  status: ('A' for Active; 'I' for Inactive)
DOCKED: REMARK    1  A    between atoms: C_2  and  C_19 
DOCKED: REMARK    2  A    between atoms: C_2  and  C_11 
DOCKED: REMARK    3  A    between atoms: C_19  and  C_20 
DOCKED: REMARK    4  A    between atoms: C_20  and  C_21 
DOCKED: REMARK    5  A    between atoms: C_21  and  N_22 
DOCKED: USER                              x       y       z     vdW  Elec       q    Type
DOCKED: USER                           _______ _______ _______ _____ _____    ______ ____
DOCKED: ROOT
DOCKED: ATOM      1  O   UNL     1     -40.186 -20.016   7.838 -0.04 -0.00    -0.346 OA 
DOCKED: ATOM      2  C   UNL     1     -41.640 -19.856   7.791 -0.11 +0.00    +0.130 C  
DOCKED: ATOM      3  C   UNL     1     -42.128 -21.164   7.240 -0.21 +0.00    +0.004 A  
DOCKED: ATOM      4  C   UNL     1     -41.058 -22.036   7.090 -0.25 +0.00    +0.006 A  
DOCKED: ATOM      5  C   UNL     1     -39.809 -21.379   7.536 -0.15 +0.00    +0.169 C  
DOCKED: ATOM      6  C   UNL     1     -43.417 -21.556   6.909 -0.23 -0.00    -0.001 A  
DOCKED: ATOM      7  C   UNL     1     -41.237 -23.319   6.603 -0.32 +0.00    +0.008 A  
DOCKED: ATOM      8  C   UNL     1     -43.613 -22.846   6.413 -0.24 +0.00    +0.010 A  
DOCKED: ATOM      9  C   UNL     1     -42.529 -23.723   6.261 -0.27 +0.00    +0.068 A  
DOCKED: ATOM     10  N   UNL     1     -42.929 -26.111   5.341 -2.60 -0.00    -0.191 NA 
DOCKED: ATOM     11  C   UNL     1     -42.750 -25.040   5.753 -0.35 +0.00    +0.101 C  
DOCKED: ENDROOT
DOCKED: BRANCH   2  12
DOCKED: ATOM     12  C   UNL     1     -42.141 -19.583   9.204 -0.04 +0.00    +0.038 C  
DOCKED: BRANCH  12  13
DOCKED: ATOM     13  C   UNL     1     -41.235 -20.227  10.251 -0.02 +0.00    +0.038 C  
DOCKED: BRANCH  13  14
DOCKED: ATOM     14  C   UNL     1     -42.051 -20.796  11.410 -0.00 +0.00    +0.251 C  
DOCKED: BRANCH  14  15
DOCKED: ATOM     15  N   UNL     1     -41.716 -22.198  11.628 -0.01 +0.00    +0.141 N  
DOCKED: ATOM     16  C   UNL     1     -42.730 -22.848  12.458 -0.00 +0.00    +0.285 C  
DOCKED: ATOM     17  C   UNL     1     -41.580 -22.900  10.350 -0.03 +0.00    +0.285 C  
DOCKED: ENDBRANCH  14  15
DOCKED: ENDBRANCH  13  14
DOCKED: ENDBRANCH  12  13
DOCKED: ENDBRANCH   2  12
DOCKED: BRANCH   2  18
DOCKED: ATOM     18  C   UNL     1     -41.922 -18.702   6.887 -0.16 +0.00    +0.006 A  
DOCKED: ATOM     19  C   UNL     1     -40.879 -18.083   6.201 -0.12 +0.00    +0.001 A  
DOCKED: ATOM     20  C   UNL     1     -41.145 -17.005   5.356 -0.11 +0.00    +0.029 A  
DOCKED: ATOM     21  C   UNL     1     -42.453 -16.548   5.199 -0.12 +0.00    +0.140 A  
DOCKED: ATOM     22  C   UNL     1     -43.496 -17.168   5.886 -0.16 +0.00    +0.029 A  
DOCKED: ATOM     23  F   UNL     1     -42.708 -15.514   4.387 -0.03 -0.00    -0.204 F  
DOCKED: ATOM     24  C   UNL     1     -43.231 -18.246   6.732 -0.20 +0.00    +0.001 A  
DOCKED: ENDBRANCH   2  18
DOCKED: TORSDOF 5
DOCKED: TER
DOCKED: ENDMDL
________________________________________________________________________________


    FINAL DOCKED STATE:
    ________________________


Run:   469 / 512
Time taken for this run:   0.002s

DOCKED: MODEL        469
DOCKED: USER    Run = 469
DOCKED: USER
DOCKED: USER    Estimated Free Energy of Binding    =  -5.07 kcal/mol  [=(1)+(2)+(3)-(4)]
DOCKED: USER
DOCKED: USER    (1) Final Intermolecular Energy     =  -6.57 kcal/mol
DOCKED: USER        vdW + Hbond + desolv Energy     =  -6.57 kcal/mol
DOCKED: USER        Electrostatic Energy            =  +0.00 kcal/mol
DOCKED: USER        Moving Ligand-Fixed Receptor    =  -6.57 kcal/mol
DOCKED: USER        Moving Ligand-Moving Receptor   =  +0.00 kcal/mol
DOCKED: USER    (2) Final Total Internal Energy     =  -1.28 kcal/mol
DOCKED: USER    (3) Torsional Free Energy           =  +1.49 kcal/mol
DOCKED: USER    (4) Unbound System's Energy         =  -1.28 kcal/mol
DOCKED: USER
DOCKED: USER
DOCKED: REMARK  5 active torsions:
DOCKED: REMARK  status: ('A' for Active; 'I' for Inactive)
DOCKED: REMARK    1  A    between atoms: C_2  and  C_19 
DOCKED: REMARK    2  A    between atoms: C_2  and  C_11 
DOCKED: REMARK    3  A    between atoms: C_19  and  C_20 
DOCKED: REMARK    4  A    between atoms: C_20  and  C_21 
DOCKED: REMARK    5  A    between atoms: C_21  and  N_22 
DOCKED: USER                              x       y       z     vdW  Elec       q    Type
DOCKED: USER                           _______ _______ _______ _____ _____    ______ ____
DOCKED: ROOT
DOCKED: ATOM      1  O   UNL     1     -42.724 -24.638   8.832 -0.09 -0.00    -0.346 OA 
DOCKED: ATOM      2  C   UNL     1     -42.200 -23.356   8.359 -0.13 +0.00    +0.130 C  
DOCKED: ATOM      3  C   UNL     1     -42.335 -23.442   6.866 -0.26 +0.00    +0.004 A  
DOCKED: ATOM      4  C   UNL     1     -42.980 -24.621   6.523 -0.30 +0.00    +0.006 A  
DOCKED: ATOM      5  C   UNL     1     -43.324 -25.381   7.746 -0.12 +0.00    +0.169 C  
DOCKED: ATOM      6  C   UNL     1     -41.929 -22.542   5.891 -0.33 -0.00    -0.001 A  
DOCKED: ATOM      7  C   UNL     1     -43.237 -24.943   5.201 -0.42 +0.00    +0.008 A  
DOCKED: ATOM      8  C   UNL     1     -42.177 -22.855   4.553 -0.05 +0.00    +0.010 A  
DOCKED: ATOM      9  C   UNL     1     -42.828 -24.049   4.210 -0.40 +0.00    +0.068 A  
DOCKED: ATOM     10  N   UNL     1     -43.278 -24.596   1.718 -2.83 -0.00    -0.191 NA 
DOCKED: ATOM     11  C   UNL     1     -43.076 -24.351   2.836 -0.38 +0.00    +0.101 C  
DOCKED: ENDROOT
DOCKED: BRANCH   2  12
DOCKED: ATOM     12  C   UNL     1     -43.038 -22.238   8.968 -0.09 +0.00    +0.038 C  
DOCKED: BRANCH  12  13
DOCKED: ATOM     13  C   UNL     1     -42.197 -20.991   9.230 -0.06 +0.00    +0.038 C  
DOCKED: BRANCH  13  14
DOCKED: ATOM     14  C   UNL     1     -42.209 -20.056   8.023 -0.08 +0.00    +0.251 C  
DOCKED: BRANCH  14  15
DOCKED: ATOM     15  N   UNL     1     -40.900 -20.040   7.380 -0.12 +0.00    +0.141 N  
DOCKED: ATOM     16  C   UNL     1     -40.925 -19.204   6.179 +0.04 +0.00    +0.285 C  
DOCKED: ATOM     17  C   UNL     1     -39.874 -19.564   8.309 -0.04 +0.00    +0.285 C  
DOCKED: ENDBRANCH  14  15
DOCKED: ENDBRANCH  13  14
DOCKED: ENDBRANCH  12  13
DOCKED: ENDBRANCH   2  12
DOCKED: BRANCH   2  18
DOCKED: ATOM     18  C   UNL     1     -40.780 -23.271   8.811 -0.17 +0.00    +0.006 A  
DOCKED: ATOM     19  C   UNL     1     -40.467 -23.439  10.159 -0.13 +0.00    +0.001 A  
DOCKED: ATOM     20  C   UNL     1     -39.139 -23.360  10.580 -0.10 +0.00    +0.029 A  
DOCKED: ATOM     21  C   UNL     1     -38.127 -23.113   9.653 -0.09 +0.00    +0.140 A  
DOCKED: ATOM     22  C   UNL     1     -38.441 -22.945   8.305 -0.16 +0.00    +0.029 A  
DOCKED: ATOM     23  F   UNL     1     -36.852 -23.038  10.058 -0.02 -0.00    -0.204 F  
DOCKED: ATOM     24  C   UNL     1     -39.770 -23.024   7.883 -0.23 +0.00    +0.001 A  
DOCKED: ENDBRANCH   2  18
DOCKED: TORSDOF 5
DOCKED: TER
DOCKED: ENDMDL
________________________________________________________________________________


    FINAL DOCKED STATE:
    ________________________


Run:   470 / 512
Time taken for this run:   0.002s

DOCKED: MODEL        470
DOCKED: USER    Run = 470
DOCKED: USER
DOCKED: USER    Estimated Free Energy of Binding    =  -3.51 kcal/mol  [=(1)+(2)+(3)-(4)]
DOCKED: USER
DOCKED: USER    (1) Final Intermolecular Energy     =  -5.00 kcal/mol
DOCKED: USER        vdW + Hbond + desolv Energy     =  -5.00 kcal/mol
DOCKED: USER        Electrostatic Energy            =  +0.00 kcal/mol
DOCKED: USER        Moving Ligand-Fixed Receptor    =  -5.00 kcal/mol
DOCKED: USER        Moving Ligand-Moving Receptor   =  +0.00 kcal/mol
DOCKED: USER    (2) Final Total Internal Energy     =  -1.25 kcal/mol
DOCKED: USER    (3) Torsional Free Energy           =  +1.49 kcal/mol
DOCKED: USER    (4) Unbound System's Energy         =  -1.25 kcal/mol
DOCKED: USER
DOCKED: USER
DOCKED: REMARK  5 active torsions:
DOCKED: REMARK  status: ('A' for Active; 'I' for Inactive)
DOCKED: REMARK    1  A    between atoms: C_2  and  C_19 
DOCKED: REMARK    2  A    between atoms: C_2  and  C_11 
DOCKED: REMARK    3  A    between atoms: C_19  and  C_20 
DOCKED: REMARK    4  A    between atoms: C_20  and  C_21 
DOCKED: REMARK    5  A    between atoms: C_21  and  N_22 
DOCKED: USER                              x       y       z     vdW  Elec       q    Type
DOCKED: USER                           _______ _______ _______ _____ _____    ______ ____
DOCKED: ROOT
DOCKED: ATOM      1  O   UNL     1     -38.031 -11.648  -3.876 -0.73 -0.00    -0.346 OA 
DOCKED: ATOM      2  C   UNL     1     -36.812 -12.005  -3.149 -0.21 +0.00    +0.130 C  
DOCKED: ATOM      3  C   UNL     1     -37.236 -13.147  -2.273 -0.21 +0.00    +0.004 A  
DOCKED: ATOM      4  C   UNL     1     -38.552 -13.487  -2.553 -0.31 +0.00    +0.006 A  
DOCKED: ATOM      5  C   UNL     1     -39.078 -12.615  -3.627 -0.38 +0.00    +0.169 C  
DOCKED: ATOM      6  C   UNL     1     -36.512 -13.838  -1.312 -0.15 -0.00    -0.001 A  
DOCKED: ATOM      7  C   UNL     1     -39.188 -14.519  -1.885 -0.33 +0.00    +0.008 A  
DOCKED: ATOM      8  C   UNL     1     -37.141 -14.879  -0.627 -0.17 +0.00    +0.010 A  
DOCKED: ATOM      9  C   UNL     1     -38.472 -15.218  -0.912 -0.24 +0.00    +0.068 A  
DOCKED: ATOM     10  N   UNL     1     -39.607 -17.159   0.375 -0.11 -0.00    -0.191 NA 
DOCKED: ATOM     11  C   UNL     1     -39.098 -16.288  -0.202 -0.22 +0.00    +0.101 C  
DOCKED: ENDROOT
DOCKED: BRANCH   2  12
DOCKED: ATOM     12  C   UNL     1     -35.744 -12.399  -4.163 -0.15 +0.00    +0.038 C  
DOCKED: BRANCH  12  13
DOCKED: ATOM     13  C   UNL     1     -36.225 -12.173  -5.595 -0.22 +0.00    +0.038 C  
DOCKED: BRANCH  13  14
DOCKED: ATOM     14  C   UNL     1     -37.093 -13.335  -6.072 -0.17 +0.00    +0.251 C  
DOCKED: BRANCH  14  15
DOCKED: ATOM     15  N   UNL     1     -36.278 -14.526  -6.279 -0.14 +0.00    +0.141 N  
DOCKED: ATOM     16  C   UNL     1     -36.542 -15.519  -5.237 -0.12 +0.00    +0.285 C  
DOCKED: ATOM     17  C   UNL     1     -36.530 -15.100  -7.602 -0.10 +0.00    +0.285 C  
DOCKED: ENDBRANCH  14  15
DOCKED: ENDBRANCH  13  14
DOCKED: ENDBRANCH  12  13
DOCKED: ENDBRANCH   2  12
DOCKED: BRANCH   2  18
DOCKED: ATOM     18  C   UNL     1     -36.398 -10.799  -2.373 -0.11 +0.00    +0.006 A  
DOCKED: ATOM     19  C   UNL     1     -37.327 -10.129  -1.578 -0.24 +0.00    +0.001 A  
DOCKED: ATOM     20  C   UNL     1     -36.939  -9.002  -0.853 -0.30 +0.00    +0.029 A  
DOCKED: ATOM     21  C   UNL     1     -35.624  -8.547  -0.923 -0.13 +0.00    +0.140 A  
DOCKED: ATOM     22  C   UNL     1     -34.694  -9.217  -1.718 -0.10 +0.00    +0.029 A  
DOCKED: ATOM     23  F   UNL     1     -35.251  -7.465  -0.226 -0.00 -0.00    -0.204 F  
DOCKED: ATOM     24  C   UNL     1     -35.082 -10.345  -2.444 -0.15 +0.00    +0.001 A  
DOCKED: ENDBRANCH   2  18
DOCKED: TORSDOF 5
DOCKED: TER
DOCKED: ENDMDL
________________________________________________________________________________


    FINAL DOCKED STATE:
    ________________________


Run:   471 / 512
Time taken for this run:   0.002s

DOCKED: MODEL        471
DOCKED: USER    Run = 471
DOCKED: USER
DOCKED: USER    Estimated Free Energy of Binding    =  -3.58 kcal/mol  [=(1)+(2)+(3)-(4)]
DOCKED: USER
DOCKED: USER    (1) Final Intermolecular Energy     =  -5.07 kcal/mol
DOCKED: USER        vdW + Hbond + desolv Energy     =  -5.07 kcal/mol
DOCKED: USER        Electrostatic Energy            =  +0.00 kcal/mol
DOCKED: USER        Moving Ligand-Fixed Receptor    =  -5.07 kcal/mol
DOCKED: USER        Moving Ligand-Moving Receptor   =  +0.00 kcal/mol
DOCKED: USER    (2) Final Total Internal Energy     =  -1.36 kcal/mol
DOCKED: USER    (3) Torsional Free Energy           =  +1.49 kcal/mol
DOCKED: USER    (4) Unbound System's Energy         =  -1.36 kcal/mol
DOCKED: USER
DOCKED: USER
DOCKED: REMARK  5 active torsions:
DOCKED: REMARK  status: ('A' for Active; 'I' for Inactive)
DOCKED: REMARK    1  A    between atoms: C_2  and  C_19 
DOCKED: REMARK    2  A    between atoms: C_2  and  C_11 
DOCKED: REMARK    3  A    between atoms: C_19  and  C_20 
DOCKED: REMARK    4  A    between atoms: C_20  and  C_21 
DOCKED: REMARK    5  A    between atoms: C_21  and  N_22 
DOCKED: USER                              x       y       z     vdW  Elec       q    Type
DOCKED: USER                           _______ _______ _______ _____ _____    ______ ____
DOCKED: ROOT
DOCKED: ATOM      1  O   UNL     1     -32.493 -21.569   0.770 +0.01 -0.00    -0.346 OA 
DOCKED: ATOM      2  C   UNL     1     -33.850 -21.721   0.244 -0.07 +0.00    +0.130 C  
DOCKED: ATOM      3  C   UNL     1     -34.457 -22.783   1.115 -0.13 +0.00    +0.004 A  
DOCKED: ATOM      4  C   UNL     1     -33.565 -23.128   2.120 -0.09 +0.00    +0.006 A  
DOCKED: ATOM      5  C   UNL     1     -32.330 -22.322   1.994 -0.02 +0.00    +0.169 C  
DOCKED: ATOM      6  C   UNL     1     -35.703 -23.387   1.031 -0.16 -0.00    -0.001 A  
DOCKED: ATOM      7  C   UNL     1     -33.883 -24.086   3.068 -0.17 +0.00    +0.008 A  
DOCKED: ATOM      8  C   UNL     1     -36.037 -24.358   1.977 -0.28 +0.00    +0.010 A  
DOCKED: ATOM      9  C   UNL     1     -35.131 -24.705   2.991 -0.31 +0.00    +0.068 A  
DOCKED: ATOM     10  N   UNL     1     -35.784 -26.507   4.734 -2.64 -0.00    -0.191 NA 
DOCKED: ATOM     11  C   UNL     1     -35.491 -25.699   3.952 -0.21 +0.00    +0.101 C  
DOCKED: ENDROOT
DOCKED: BRANCH   2  12
DOCKED: ATOM     12  C   UNL     1     -34.566 -20.380   0.357 -0.07 +0.00    +0.038 C  
DOCKED: BRANCH  12  13
DOCKED: ATOM     13  C   UNL     1     -34.548 -19.860   1.793 -0.05 +0.00    +0.038 C  
DOCKED: BRANCH  13  14
DOCKED: ATOM     14  C   UNL     1     -35.842 -20.218   2.523 -0.09 +0.00    +0.251 C  
DOCKED: BRANCH  14  15
DOCKED: ATOM     15  N   UNL     1     -35.699 -19.980   3.955 -0.09 +0.00    +0.141 N  
DOCKED: ATOM     16  C   UNL     1     -35.301 -21.209   4.645 -0.05 +0.00    +0.285 C  
DOCKED: ATOM     17  C   UNL     1     -34.723 -18.918   4.206 -0.02 +0.00    +0.285 C  
DOCKED: ENDBRANCH  14  15
DOCKED: ENDBRANCH  13  14
DOCKED: ENDBRANCH  12  13
DOCKED: ENDBRANCH   2  12
DOCKED: BRANCH   2  18
DOCKED: ATOM     18  C   UNL     1     -33.720 -22.143  -1.182 -0.10 +0.00    +0.006 A  
DOCKED: ATOM     19  C   UNL     1     -32.876 -23.200  -1.522 -0.07 +0.00    +0.001 A  
DOCKED: ATOM     20  C   UNL     1     -32.756 -23.593  -2.855 -0.07 +0.00    +0.029 A  
DOCKED: ATOM     21  C   UNL     1     -33.478 -22.930  -3.846 -0.09 +0.00    +0.140 A  
DOCKED: ATOM     22  C   UNL     1     -34.322 -21.873  -3.505 -0.14 +0.00    +0.029 A  
DOCKED: ATOM     23  F   UNL     1     -33.363 -23.308  -5.125 -0.03 -0.00    -0.204 F  
DOCKED: ATOM     24  C   UNL     1     -34.444 -21.479  -2.172 -0.13 +0.00    +0.001 A  
DOCKED: ENDBRANCH   2  18
DOCKED: TORSDOF 5
DOCKED: TER
DOCKED: ENDMDL
________________________________________________________________________________


    FINAL DOCKED STATE:
    ________________________


Run:   472 / 512
Time taken for this run:   0.002s

DOCKED: MODEL        472
DOCKED: USER    Run = 472
DOCKED: USER
DOCKED: USER    Estimated Free Energy of Binding    =  -4.40 kcal/mol  [=(1)+(2)+(3)-(4)]
DOCKED: USER
DOCKED: USER    (1) Final Intermolecular Energy     =  -5.89 kcal/mol
DOCKED: USER        vdW + Hbond + desolv Energy     =  -5.89 kcal/mol
DOCKED: USER        Electrostatic Energy            =  +0.00 kcal/mol
DOCKED: USER        Moving Ligand-Fixed Receptor    =  -5.89 kcal/mol
DOCKED: USER        Moving Ligand-Moving Receptor   =  +0.00 kcal/mol
DOCKED: USER    (2) Final Total Internal Energy     =  -1.33 kcal/mol
DOCKED: USER    (3) Torsional Free Energy           =  +1.49 kcal/mol
DOCKED: USER    (4) Unbound System's Energy         =  -1.33 kcal/mol
DOCKED: USER
DOCKED: USER
DOCKED: REMARK  5 active torsions:
DOCKED: REMARK  status: ('A' for Active; 'I' for Inactive)
DOCKED: REMARK    1  A    between atoms: C_2  and  C_19 
DOCKED: REMARK    2  A    between atoms: C_2  and  C_11 
DOCKED: REMARK    3  A    between atoms: C_19  and  C_20 
DOCKED: REMARK    4  A    between atoms: C_20  and  C_21 
DOCKED: REMARK    5  A    between atoms: C_21  and  N_22 
DOCKED: USER                              x       y       z     vdW  Elec       q    Type
DOCKED: USER                           _______ _______ _______ _____ _____    ______ ____
DOCKED: ROOT
DOCKED: ATOM      1  O   UNL     1     -40.079 -15.771   1.709 -0.10 -0.00    -0.346 OA 
DOCKED: ATOM      2  C   UNL     1     -38.713 -15.682   1.193 -0.20 +0.00    +0.130 C  
DOCKED: ATOM      3  C   UNL     1     -38.881 -15.069  -0.167 -0.24 +0.00    +0.004 A  
DOCKED: ATOM      4  C   UNL     1     -40.213 -14.735  -0.367 -0.09 +0.00    +0.006 A  
DOCKED: ATOM      5  C   UNL     1     -41.005 -15.086   0.834 +0.06 +0.00    +0.169 C  
DOCKED: ATOM      6  C   UNL     1     -37.930 -14.818  -1.145 -0.23 -0.00    -0.001 A  
DOCKED: ATOM      7  C   UNL     1     -40.639 -14.146  -1.545 -0.07 +0.00    +0.008 A  
DOCKED: ATOM      8  C   UNL     1     -38.345 -14.228  -2.340 -0.29 +0.00    +0.010 A  
DOCKED: ATOM      9  C   UNL     1     -39.693 -13.893  -2.539 -0.33 +0.00    +0.068 A  
DOCKED: ATOM     10  N   UNL     1     -40.428 -12.795  -4.767 -2.22 -0.00    -0.191 NA 
DOCKED: ATOM     11  C   UNL     1     -40.098 -13.288  -3.768 -0.34 +0.00    +0.101 C  
DOCKED: ENDROOT
DOCKED: BRANCH   2  12
DOCKED: ATOM     12  C   UNL     1     -37.895 -14.810   2.139 -0.18 +0.00    +0.038 C  
DOCKED: BRANCH  12  13
DOCKED: ATOM     13  C   UNL     1     -38.529 -14.748   3.527 -0.17 +0.00    +0.038 C  
DOCKED: BRANCH  13  14
DOCKED: ATOM     14  C   UNL     1     -39.211 -13.402   3.761 -0.14 +0.00    +0.251 C  
DOCKED: BRANCH  14  15
DOCKED: ATOM     15  N   UNL     1     -40.573 -13.599   4.241 -0.12 +0.00    +0.141 N  
DOCKED: ATOM     16  C   UNL     1     -41.540 -13.041   3.295 -0.16 +0.00    +0.285 C  
DOCKED: ATOM     17  C   UNL     1     -40.841 -15.022   4.460 -0.06 +0.00    +0.285 C  
DOCKED: ENDBRANCH  14  15
DOCKED: ENDBRANCH  13  14
DOCKED: ENDBRANCH  12  13
DOCKED: ENDBRANCH   2  12
DOCKED: BRANCH   2  18
DOCKED: ATOM     18  C   UNL     1     -38.174 -17.073   1.142 -0.15 +0.00    +0.006 A  
DOCKED: ATOM     19  C   UNL     1     -39.002 -18.152   1.451 -0.18 +0.00    +0.001 A  
DOCKED: ATOM     20  C   UNL     1     -38.497 -19.452   1.404 -0.25 +0.00    +0.029 A  
DOCKED: ATOM     21  C   UNL     1     -37.167 -19.671   1.047 -0.17 +0.00    +0.140 A  
DOCKED: ATOM     22  C   UNL     1     -36.340 -18.591   0.737 -0.08 +0.00    +0.029 A  
DOCKED: ATOM     23  F   UNL     1     -36.683 -20.919   0.999 -0.08 -0.00    -0.204 F  
DOCKED: ATOM     24  C   UNL     1     -36.844 -17.290   0.785 -0.08 +0.00    +0.001 A  
DOCKED: ENDBRANCH   2  18
DOCKED: TORSDOF 5
DOCKED: TER
DOCKED: ENDMDL
________________________________________________________________________________


    FINAL DOCKED STATE:
    ________________________


Run:   473 / 512
Time taken for this run:   0.002s

DOCKED: MODEL        473
DOCKED: USER    Run = 473
DOCKED: USER
DOCKED: USER    Estimated Free Energy of Binding    =  -3.90 kcal/mol  [=(1)+(2)+(3)-(4)]
DOCKED: USER
DOCKED: USER    (1) Final Intermolecular Energy     =  -5.39 kcal/mol
DOCKED: USER        vdW + Hbond + desolv Energy     =  -5.39 kcal/mol
DOCKED: USER        Electrostatic Energy            =  +0.00 kcal/mol
DOCKED: USER        Moving Ligand-Fixed Receptor    =  -5.39 kcal/mol
DOCKED: USER        Moving Ligand-Moving Receptor   =  +0.00 kcal/mol
DOCKED: USER    (2) Final Total Internal Energy     =  -1.18 kcal/mol
DOCKED: USER    (3) Torsional Free Energy           =  +1.49 kcal/mol
DOCKED: USER    (4) Unbound System's Energy         =  -1.18 kcal/mol
DOCKED: USER
DOCKED: USER
DOCKED: REMARK  5 active torsions:
DOCKED: REMARK  status: ('A' for Active; 'I' for Inactive)
DOCKED: REMARK    1  A    between atoms: C_2  and  C_19 
DOCKED: REMARK    2  A    between atoms: C_2  and  C_11 
DOCKED: REMARK    3  A    between atoms: C_19  and  C_20 
DOCKED: REMARK    4  A    between atoms: C_20  and  C_21 
DOCKED: REMARK    5  A    between atoms: C_21  and  N_22 
DOCKED: USER                              x       y       z     vdW  Elec       q    Type
DOCKED: USER                           _______ _______ _______ _____ _____    ______ ____
DOCKED: ROOT
DOCKED: ATOM      1  O   UNL     1     -43.177 -19.608   8.334 -0.02 -0.00    -0.346 OA 
DOCKED: ATOM      2  C   UNL     1     -42.194 -19.623   7.250 -0.16 +0.00    +0.130 C  
DOCKED: ATOM      3  C   UNL     1     -42.269 -21.024   6.717 -0.24 +0.00    +0.004 A  
DOCKED: ATOM      4  C   UNL     1     -43.282 -21.717   7.365 -0.19 +0.00    +0.006 A  
DOCKED: ATOM      5  C   UNL     1     -43.947 -20.832   8.347 -0.08 +0.00    +0.169 C  
DOCKED: ATOM      6  C   UNL     1     -41.509 -21.634   5.730 -0.09 -0.00    -0.001 A  
DOCKED: ATOM      7  C   UNL     1     -43.566 -23.036   7.054 -0.20 +0.00    +0.008 A  
DOCKED: ATOM      8  C   UNL     1     -41.780 -22.965   5.408 -0.34 +0.00    +0.010 A  
DOCKED: ATOM      9  C   UNL     1     -42.804 -23.662   6.067 -0.27 +0.00    +0.068 A  
DOCKED: ATOM     10  N   UNL     1     -43.285 -26.130   5.442 -2.54 -0.00    -0.191 NA 
DOCKED: ATOM     11  C   UNL     1     -43.069 -25.023   5.722 -0.36 +0.00    +0.101 C  
DOCKED: ENDROOT
DOCKED: BRANCH   2  12
DOCKED: ATOM     12  C   UNL     1     -42.596 -18.574   6.220 -0.17 +0.00    +0.038 C  
DOCKED: BRANCH  12  13
DOCKED: ATOM     13  C   UNL     1     -42.334 -17.160   6.734 -0.13 +0.00    +0.038 C  
DOCKED: BRANCH  13  14
DOCKED: ATOM     14  C   UNL     1     -42.545 -16.126   5.629 -0.10 +0.00    +0.251 C  
DOCKED: BRANCH  14  15
DOCKED: ATOM     15  N   UNL     1     -41.277 -15.500   5.272 -0.07 +0.00    +0.141 N  
DOCKED: ATOM     16  C   UNL     1     -40.512 -15.163   6.473 -0.01 +0.00    +0.285 C  
DOCKED: ATOM     17  C   UNL     1     -40.495 -16.379   4.402 -0.08 +0.00    +0.285 C  
DOCKED: ENDBRANCH  14  15
DOCKED: ENDBRANCH  13  14
DOCKED: ENDBRANCH  12  13
DOCKED: ENDBRANCH   2  12
DOCKED: BRANCH   2  18
DOCKED: ATOM     18  C   UNL     1     -40.870 -19.301   7.857 -0.09 +0.00    +0.006 A  
DOCKED: ATOM     19  C   UNL     1     -39.730 -19.251   7.056 -0.13 +0.00    +0.001 A  
DOCKED: ATOM     20  C   UNL     1     -38.492 -18.951   7.625 -0.07 +0.00    +0.029 A  
DOCKED: ATOM     21  C   UNL     1     -38.395 -18.700   8.993 -0.01 +0.00    +0.140 A  
DOCKED: ATOM     22  C   UNL     1     -39.536 -18.750   9.794 -0.01 +0.00    +0.029 A  
DOCKED: ATOM     23  F   UNL     1     -37.207 -18.410   9.539 +0.00 -0.00    -0.204 F  
DOCKED: ATOM     24  C   UNL     1     -40.775 -19.051   9.226 -0.03 +0.00    +0.001 A  
DOCKED: ENDBRANCH   2  18
DOCKED: TORSDOF 5
DOCKED: TER
DOCKED: ENDMDL
________________________________________________________________________________


    FINAL DOCKED STATE:
    ________________________


Run:   474 / 512
Time taken for this run:   0.002s

DOCKED: MODEL        474
DOCKED: USER    Run = 474
DOCKED: USER
DOCKED: USER    Estimated Free Energy of Binding    =  -5.45 kcal/mol  [=(1)+(2)+(3)-(4)]
DOCKED: USER
DOCKED: USER    (1) Final Intermolecular Energy     =  -6.94 kcal/mol
DOCKED: USER        vdW + Hbond + desolv Energy     =  -6.94 kcal/mol
DOCKED: USER        Electrostatic Energy            =  +0.00 kcal/mol
DOCKED: USER        Moving Ligand-Fixed Receptor    =  -6.94 kcal/mol
DOCKED: USER        Moving Ligand-Moving Receptor   =  +0.00 kcal/mol
DOCKED: USER    (2) Final Total Internal Energy     =  -0.90 kcal/mol
DOCKED: USER    (3) Torsional Free Energy           =  +1.49 kcal/mol
DOCKED: USER    (4) Unbound System's Energy         =  -0.90 kcal/mol
DOCKED: USER
DOCKED: USER
DOCKED: REMARK  5 active torsions:
DOCKED: REMARK  status: ('A' for Active; 'I' for Inactive)
DOCKED: REMARK    1  A    between atoms: C_2  and  C_19 
DOCKED: REMARK    2  A    between atoms: C_2  and  C_11 
DOCKED: REMARK    3  A    between atoms: C_19  and  C_20 
DOCKED: REMARK    4  A    between atoms: C_20  and  C_21 
DOCKED: REMARK    5  A    between atoms: C_21  and  N_22 
DOCKED: USER                              x       y       z     vdW  Elec       q    Type
DOCKED: USER                           _______ _______ _______ _____ _____    ______ ____
DOCKED: ROOT
DOCKED: ATOM      1  O   UNL     1     -45.283 -23.656   8.181 -0.02 -0.00    -0.346 OA 
DOCKED: ATOM      2  C   UNL     1     -43.923 -23.127   8.074 -0.11 +0.00    +0.130 C  
DOCKED: ATOM      3  C   UNL     1     -43.561 -23.353   6.635 -0.24 +0.00    +0.004 A  
DOCKED: ATOM      4  C   UNL     1     -44.656 -23.863   5.952 -0.29 +0.00    +0.006 A  
DOCKED: ATOM      5  C   UNL     1     -45.805 -23.997   6.875 -0.13 +0.00    +0.169 C  
DOCKED: ATOM      6  C   UNL     1     -42.362 -23.115   5.979 -0.34 -0.00    -0.001 A  
DOCKED: ATOM      7  C   UNL     1     -44.591 -24.156   4.601 -0.20 +0.00    +0.008 A  
DOCKED: ATOM      8  C   UNL     1     -42.279 -23.409   4.617 -0.36 +0.00    +0.010 A  
DOCKED: ATOM      9  C   UNL     1     -43.388 -23.927   3.932 -0.26 +0.00    +0.068 A  
DOCKED: ATOM     10  N   UNL     1     -43.201 -24.457   1.403 -2.94 -0.00    -0.191 NA 
DOCKED: ATOM     11  C   UNL     1     -43.284 -24.220   2.537 -0.27 +0.00    +0.101 C  
DOCKED: ENDROOT
DOCKED: BRANCH   2  12
DOCKED: ATOM     12  C   UNL     1     -43.948 -21.651   8.455 -0.11 +0.00    +0.038 C  
DOCKED: BRANCH  12  13
DOCKED: ATOM     13  C   UNL     1     -43.093 -20.816   7.504 -0.20 +0.00    +0.038 C  
DOCKED: BRANCH  13  14
DOCKED: ATOM     14  C   UNL     1     -41.821 -20.327   8.195 -0.06 +0.00    +0.251 C  
DOCKED: BRANCH  14  15
DOCKED: ATOM     15  N   UNL     1     -40.755 -20.135   7.218 -0.14 +0.00    +0.141 N  
DOCKED: ATOM     16  C   UNL     1     -40.169 -18.800   7.349 -0.07 +0.00    +0.285 C  
DOCKED: ATOM     17  C   UNL     1     -39.722 -21.160   7.375 -0.11 +0.00    +0.285 C  
DOCKED: ENDBRANCH  14  15
DOCKED: ENDBRANCH  13  14
DOCKED: ENDBRANCH  12  13
DOCKED: ENDBRANCH   2  12
DOCKED: BRANCH   2  18
DOCKED: ATOM     18  C   UNL     1     -43.074 -23.912   9.018 -0.14 +0.00    +0.006 A  
DOCKED: ATOM     19  C   UNL     1     -42.128 -24.809   8.522 -0.25 +0.00    +0.001 A  
DOCKED: ATOM     20  C   UNL     1     -41.336 -25.543   9.405 -0.22 +0.00    +0.029 A  
DOCKED: ATOM     21  C   UNL     1     -41.490 -25.380  10.781 -0.17 +0.00    +0.140 A  
DOCKED: ATOM     22  C   UNL     1     -42.436 -24.483  11.276 -0.13 +0.00    +0.029 A  
DOCKED: ATOM     23  F   UNL     1     -40.728 -26.083  11.628 -0.10 -0.00    -0.204 F  
DOCKED: ATOM     24  C   UNL     1     -43.230 -23.748  10.393 -0.10 +0.00    +0.001 A  
DOCKED: ENDBRANCH   2  18
DOCKED: TORSDOF 5
DOCKED: TER
DOCKED: ENDMDL
________________________________________________________________________________


    FINAL DOCKED STATE:
    ________________________


Run:   475 / 512
Time taken for this run:   0.002s

DOCKED: MODEL        475
DOCKED: USER    Run = 475
DOCKED: USER
DOCKED: USER    Estimated Free Energy of Binding    =  -4.08 kcal/mol  [=(1)+(2)+(3)-(4)]
DOCKED: USER
DOCKED: USER    (1) Final Intermolecular Energy     =  -5.58 kcal/mol
DOCKED: USER        vdW + Hbond + desolv Energy     =  -5.58 kcal/mol
DOCKED: USER        Electrostatic Energy            =  +0.00 kcal/mol
DOCKED: USER        Moving Ligand-Fixed Receptor    =  -5.58 kcal/mol
DOCKED: USER        Moving Ligand-Moving Receptor   =  +0.00 kcal/mol
DOCKED: USER    (2) Final Total Internal Energy     =  -1.44 kcal/mol
DOCKED: USER    (3) Torsional Free Energy           =  +1.49 kcal/mol
DOCKED: USER    (4) Unbound System's Energy         =  -1.44 kcal/mol
DOCKED: USER
DOCKED: USER
DOCKED: REMARK  5 active torsions:
DOCKED: REMARK  status: ('A' for Active; 'I' for Inactive)
DOCKED: REMARK    1  A    between atoms: C_2  and  C_19 
DOCKED: REMARK    2  A    between atoms: C_2  and  C_11 
DOCKED: REMARK    3  A    between atoms: C_19  and  C_20 
DOCKED: REMARK    4  A    between atoms: C_20  and  C_21 
DOCKED: REMARK    5  A    between atoms: C_21  and  N_22 
DOCKED: USER                              x       y       z     vdW  Elec       q    Type
DOCKED: USER                           _______ _______ _______ _____ _____    ______ ____
DOCKED: ROOT
DOCKED: ATOM      1  O   UNL     1     -33.364 -20.703   0.653 +0.01 -0.00    -0.346 OA 
DOCKED: ATOM      2  C   UNL     1     -34.810 -20.793   0.447 -0.09 +0.00    +0.130 C  
DOCKED: ATOM      3  C   UNL     1     -35.201 -22.043   1.182 -0.17 +0.00    +0.004 A  
DOCKED: ATOM      4  C   UNL     1     -34.096 -22.561   1.842 -0.10 +0.00    +0.006 A  
DOCKED: ATOM      5  C   UNL     1     -32.918 -21.697   1.604 -0.02 +0.00    +0.169 C  
DOCKED: ATOM      6  C   UNL     1     -36.438 -22.664   1.268 -0.26 -0.00    -0.001 A  
DOCKED: ATOM      7  C   UNL     1     -34.186 -23.714   2.603 -0.17 +0.00    +0.008 A  
DOCKED: ATOM      8  C   UNL     1     -36.544 -23.830   2.028 -0.21 +0.00    +0.010 A  
DOCKED: ATOM      9  C   UNL     1     -35.424 -24.352   2.693 -0.30 +0.00    +0.068 A  
DOCKED: ATOM     10  N   UNL     1     -35.658 -26.515   4.099 -2.50 -0.00    -0.191 NA 
DOCKED: ATOM     11  C   UNL     1     -35.553 -25.545   3.468 -0.33 +0.00    +0.101 C  
DOCKED: ENDROOT
DOCKED: BRANCH   2  12
DOCKED: ATOM     12  C   UNL     1     -35.458 -19.539   1.022 -0.08 +0.00    +0.038 C  
DOCKED: BRANCH  12  13
DOCKED: ATOM     13  C   UNL     1     -34.465 -18.731   1.855 -0.02 +0.00    +0.038 C  
DOCKED: BRANCH  13  14
DOCKED: ATOM     14  C   UNL     1     -34.394 -19.256   3.287 -0.02 +0.00    +0.251 C  
DOCKED: BRANCH  14  15
DOCKED: ATOM     15  N   UNL     1     -35.637 -19.929   3.644 -0.08 +0.00    +0.141 N  
DOCKED: ATOM     16  C   UNL     1     -35.400 -20.937   4.678 -0.07 +0.00    +0.285 C  
DOCKED: ATOM     17  C   UNL     1     -36.636 -18.960   4.098 -0.07 +0.00    +0.285 C  
DOCKED: ENDBRANCH  14  15
DOCKED: ENDBRANCH  13  14
DOCKED: ENDBRANCH  12  13
DOCKED: ENDBRANCH   2  12
DOCKED: BRANCH   2  18
DOCKED: ATOM     18  C   UNL     1     -35.036 -20.889  -1.025 -0.14 +0.00    +0.006 A  
DOCKED: ATOM     19  C   UNL     1     -34.296 -21.793  -1.786 -0.13 +0.00    +0.001 A  
DOCKED: ATOM     20  C   UNL     1     -34.508 -21.882  -3.162 -0.15 +0.00    +0.029 A  
DOCKED: ATOM     21  C   UNL     1     -35.459 -21.067  -3.775 -0.18 +0.00    +0.140 A  
DOCKED: ATOM     22  C   UNL     1     -36.199 -20.163  -3.013 -0.23 +0.00    +0.029 A  
DOCKED: ATOM     23  F   UNL     1     -35.664 -21.154  -5.096 -0.07 -0.00    -0.204 F  
DOCKED: ATOM     24  C   UNL     1     -35.987 -20.073  -1.637 -0.19 +0.00    +0.001 A  
DOCKED: ENDBRANCH   2  18
DOCKED: TORSDOF 5
DOCKED: TER
DOCKED: ENDMDL
________________________________________________________________________________


    FINAL DOCKED STATE:
    ________________________


Run:   476 / 512
Time taken for this run:   0.002s

DOCKED: MODEL        476
DOCKED: USER    Run = 476
DOCKED: USER
DOCKED: USER    Estimated Free Energy of Binding    =  -3.88 kcal/mol  [=(1)+(2)+(3)-(4)]
DOCKED: USER
DOCKED: USER    (1) Final Intermolecular Energy     =  -5.37 kcal/mol
DOCKED: USER        vdW + Hbond + desolv Energy     =  -5.37 kcal/mol
DOCKED: USER        Electrostatic Energy            =  +0.00 kcal/mol
DOCKED: USER        Moving Ligand-Fixed Receptor    =  -5.37 kcal/mol
DOCKED: USER        Moving Ligand-Moving Receptor   =  +0.00 kcal/mol
DOCKED: USER    (2) Final Total Internal Energy     =  -1.13 kcal/mol
DOCKED: USER    (3) Torsional Free Energy           =  +1.49 kcal/mol
DOCKED: USER    (4) Unbound System's Energy         =  -1.13 kcal/mol
DOCKED: USER
DOCKED: USER
DOCKED: REMARK  5 active torsions:
DOCKED: REMARK  status: ('A' for Active; 'I' for Inactive)
DOCKED: REMARK    1  A    between atoms: C_2  and  C_19 
DOCKED: REMARK    2  A    between atoms: C_2  and  C_11 
DOCKED: REMARK    3  A    between atoms: C_19  and  C_20 
DOCKED: REMARK    4  A    between atoms: C_20  and  C_21 
DOCKED: REMARK    5  A    between atoms: C_21  and  N_22 
DOCKED: USER                              x       y       z     vdW  Elec       q    Type
DOCKED: USER                           _______ _______ _______ _____ _____    ______ ____
DOCKED: ROOT
DOCKED: ATOM      1  O   UNL     1     -42.716 -19.991   9.057 -0.00 -0.00    -0.346 OA 
DOCKED: ATOM      2  C   UNL     1     -41.591 -20.046   8.122 -0.09 +0.00    +0.130 C  
DOCKED: ATOM      3  C   UNL     1     -41.783 -21.350   7.404 -0.20 +0.00    +0.004 A  
DOCKED: ATOM      4  C   UNL     1     -42.972 -21.937   7.812 -0.14 +0.00    +0.006 A  
DOCKED: ATOM      5  C   UNL     1     -43.646 -21.070   8.804 -0.05 +0.00    +0.169 C  
DOCKED: ATOM      6  C   UNL     1     -40.976 -21.962   6.456 -0.27 -0.00    -0.001 A  
DOCKED: ATOM      7  C   UNL     1     -43.391 -23.151   7.295 -0.19 +0.00    +0.008 A  
DOCKED: ATOM      8  C   UNL     1     -41.383 -23.189   5.928 -0.32 +0.00    +0.010 A  
DOCKED: ATOM      9  C   UNL     1     -42.585 -23.780   6.345 -0.26 +0.00    +0.068 A  
DOCKED: ATOM     10  N   UNL     1     -43.313 -26.054   5.341 -2.53 -0.00    -0.191 NA 
DOCKED: ATOM     11  C   UNL     1     -42.986 -25.034   5.792 -0.34 +0.00    +0.101 C  
DOCKED: ENDROOT
DOCKED: BRANCH   2  12
DOCKED: ATOM     12  C   UNL     1     -41.676 -18.839   7.194 -0.15 +0.00    +0.038 C  
DOCKED: BRANCH  12  13
DOCKED: ATOM     13  C   UNL     1     -42.965 -18.052   7.421 -0.13 +0.00    +0.038 C  
DOCKED: BRANCH  13  14
DOCKED: ATOM     14  C   UNL     1     -43.657 -17.738   6.096 -0.13 +0.00    +0.251 C  
DOCKED: BRANCH  14  15
DOCKED: ATOM     15  N   UNL     1     -45.101 -17.900   6.228 -0.18 +0.00    +0.141 N  
DOCKED: ATOM     16  C   UNL     1     -45.441 -18.444   7.543 -0.09 +0.00    +0.285 C  
DOCKED: ATOM     17  C   UNL     1     -45.784 -16.624   6.014 -0.09 +0.00    +0.285 C  
DOCKED: ENDBRANCH  14  15
DOCKED: ENDBRANCH  13  14
DOCKED: ENDBRANCH  12  13
DOCKED: ENDBRANCH   2  12
DOCKED: BRANCH   2  18
DOCKED: ATOM     18  C   UNL     1     -40.343 -20.010   8.939 -0.05 +0.00    +0.006 A  
DOCKED: ATOM     19  C   UNL     1     -40.420 -19.876  10.324 -0.01 +0.00    +0.001 A  
DOCKED: ATOM     20  C   UNL     1     -39.252 -19.843  11.087 -0.01 +0.00    +0.029 A  
DOCKED: ATOM     21  C   UNL     1     -38.009 -19.943  10.463 -0.01 +0.00    +0.140 A  
DOCKED: ATOM     22  C   UNL     1     -37.933 -20.077   9.077 -0.04 +0.00    +0.029 A  
DOCKED: ATOM     23  F   UNL     1     -36.888 -19.913  11.196 +0.00 -0.00    -0.204 F  
DOCKED: ATOM     24  C   UNL     1     -39.100 -20.110   8.314 -0.09 +0.00    +0.001 A  
DOCKED: ENDBRANCH   2  18
DOCKED: TORSDOF 5
DOCKED: TER
DOCKED: ENDMDL
________________________________________________________________________________


    FINAL DOCKED STATE:
    ________________________


Run:   477 / 512
Time taken for this run:   0.002s

DOCKED: MODEL        477
DOCKED: USER    Run = 477
DOCKED: USER
DOCKED: USER    Estimated Free Energy of Binding    =  -5.51 kcal/mol  [=(1)+(2)+(3)-(4)]
DOCKED: USER
DOCKED: USER    (1) Final Intermolecular Energy     =  -7.01 kcal/mol
DOCKED: USER        vdW + Hbond + desolv Energy     =  -7.01 kcal/mol
DOCKED: USER        Electrostatic Energy            =  +0.00 kcal/mol
DOCKED: USER        Moving Ligand-Fixed Receptor    =  -7.01 kcal/mol
DOCKED: USER        Moving Ligand-Moving Receptor   =  +0.00 kcal/mol
DOCKED: USER    (2) Final Total Internal Energy     =  -1.45 kcal/mol
DOCKED: USER    (3) Torsional Free Energy           =  +1.49 kcal/mol
DOCKED: USER    (4) Unbound System's Energy         =  -1.45 kcal/mol
DOCKED: USER
DOCKED: USER
DOCKED: REMARK  5 active torsions:
DOCKED: REMARK  status: ('A' for Active; 'I' for Inactive)
DOCKED: REMARK    1  A    between atoms: C_2  and  C_19 
DOCKED: REMARK    2  A    between atoms: C_2  and  C_11 
DOCKED: REMARK    3  A    between atoms: C_19  and  C_20 
DOCKED: REMARK    4  A    between atoms: C_20  and  C_21 
DOCKED: REMARK    5  A    between atoms: C_21  and  N_22 
DOCKED: USER                              x       y       z     vdW  Elec       q    Type
DOCKED: USER                           _______ _______ _______ _____ _____    ______ ____
DOCKED: ROOT
DOCKED: ATOM      1  O   UNL     1     -40.928 -21.792   7.686 -0.07 -0.00    -0.346 OA 
DOCKED: ATOM      2  C   UNL     1     -40.997 -23.244   7.851 -0.21 +0.00    +0.130 C  
DOCKED: ATOM      3  C   UNL     1     -41.546 -23.729   6.541 -0.34 +0.00    +0.004 A  
DOCKED: ATOM      4  C   UNL     1     -41.676 -22.661   5.665 -0.32 +0.00    +0.006 A  
DOCKED: ATOM      5  C   UNL     1     -41.216 -21.416   6.319 -0.22 +0.00    +0.169 C  
DOCKED: ATOM      6  C   UNL     1     -41.893 -25.015   6.152 -0.33 -0.00    -0.001 A  
DOCKED: ATOM      7  C   UNL     1     -42.158 -22.838   4.379 +0.08 +0.00    +0.008 A  
DOCKED: ATOM      8  C   UNL     1     -42.385 -25.209   4.860 -0.50 +0.00    +0.010 A  
DOCKED: ATOM      9  C   UNL     1     -42.516 -24.126   3.978 -0.43 +0.00    +0.068 A  
DOCKED: ATOM     10  N   UNL     1     -43.427 -24.522   1.585 -3.05 -0.00    -0.191 NA 
DOCKED: ATOM     11  C   UNL     1     -43.019 -24.344   2.659 -0.37 +0.00    +0.101 C  
DOCKED: ENDROOT
DOCKED: BRANCH   2  12
DOCKED: ATOM     12  C   UNL     1     -39.593 -23.765   8.135 -0.23 +0.00    +0.038 C  
DOCKED: BRANCH  12  13
DOCKED: ATOM     13  C   UNL     1     -38.679 -22.653   8.648 -0.20 +0.00    +0.038 C  
DOCKED: BRANCH  13  14
DOCKED: ATOM     14  C   UNL     1     -38.506 -22.740  10.163 -0.07 +0.00    +0.251 C  
DOCKED: BRANCH  14  15
DOCKED: ATOM     15  N   UNL     1     -39.757 -22.410  10.836 -0.04 +0.00    +0.141 N  
DOCKED: ATOM     16  C   UNL     1     -39.795 -23.002  12.174 -0.03 +0.00    +0.285 C  
DOCKED: ATOM     17  C   UNL     1     -39.931 -20.959  10.919 -0.01 +0.00    +0.285 C  
DOCKED: ENDBRANCH  14  15
DOCKED: ENDBRANCH  13  14
DOCKED: ENDBRANCH  12  13
DOCKED: ENDBRANCH   2  12
DOCKED: BRANCH   2  18
DOCKED: ATOM     18  C   UNL     1     -41.912 -23.510   9.000 -0.14 +0.00    +0.006 A  
DOCKED: ATOM     19  C   UNL     1     -41.618 -24.531   9.902 -0.20 +0.00    +0.001 A  
DOCKED: ATOM     20  C   UNL     1     -42.475 -24.779  10.976 -0.15 +0.00    +0.029 A  
DOCKED: ATOM     21  C   UNL     1     -43.622 -24.005  11.145 -0.06 +0.00    +0.140 A  
DOCKED: ATOM     22  C   UNL     1     -43.914 -22.983  10.243 -0.05 +0.00    +0.029 A  
DOCKED: ATOM     23  F   UNL     1     -44.443 -24.242  12.177 +0.01 -0.00    -0.204 F  
DOCKED: ATOM     24  C   UNL     1     -43.058 -22.735   9.168 -0.08 +0.00    +0.001 A  
DOCKED: ENDBRANCH   2  18
DOCKED: TORSDOF 5
DOCKED: TER
DOCKED: ENDMDL
________________________________________________________________________________


    FINAL DOCKED STATE:
    ________________________


Run:   478 / 512
Time taken for this run:   0.002s

DOCKED: MODEL        478
DOCKED: USER    Run = 478
DOCKED: USER
DOCKED: USER    Estimated Free Energy of Binding    =  -4.17 kcal/mol  [=(1)+(2)+(3)-(4)]
DOCKED: USER
DOCKED: USER    (1) Final Intermolecular Energy     =  -5.66 kcal/mol
DOCKED: USER        vdW + Hbond + desolv Energy     =  -5.66 kcal/mol
DOCKED: USER        Electrostatic Energy            =  +0.00 kcal/mol
DOCKED: USER        Moving Ligand-Fixed Receptor    =  -5.66 kcal/mol
DOCKED: USER        Moving Ligand-Moving Receptor   =  +0.00 kcal/mol
DOCKED: USER    (2) Final Total Internal Energy     =  -1.51 kcal/mol
DOCKED: USER    (3) Torsional Free Energy           =  +1.49 kcal/mol
DOCKED: USER    (4) Unbound System's Energy         =  -1.51 kcal/mol
DOCKED: USER
DOCKED: USER
DOCKED: REMARK  5 active torsions:
DOCKED: REMARK  status: ('A' for Active; 'I' for Inactive)
DOCKED: REMARK    1  A    between atoms: C_2  and  C_19 
DOCKED: REMARK    2  A    between atoms: C_2  and  C_11 
DOCKED: REMARK    3  A    between atoms: C_19  and  C_20 
DOCKED: REMARK    4  A    between atoms: C_20  and  C_21 
DOCKED: REMARK    5  A    between atoms: C_21  and  N_22 
DOCKED: USER                              x       y       z     vdW  Elec       q    Type
DOCKED: USER                           _______ _______ _______ _____ _____    ______ ____
DOCKED: ROOT
DOCKED: ATOM      1  O   UNL     1     -32.909 -21.283  -0.053 +0.01 -0.00    -0.346 OA 
DOCKED: ATOM      2  C   UNL     1     -34.293 -20.906   0.236 -0.07 +0.00    +0.130 C  
DOCKED: ATOM      3  C   UNL     1     -34.822 -22.063   1.033 -0.14 +0.00    +0.004 A  
DOCKED: ATOM      4  C   UNL     1     -33.799 -22.970   1.275 -0.09 +0.00    +0.006 A  
DOCKED: ATOM      5  C   UNL     1     -32.539 -22.478   0.674 -0.02 +0.00    +0.169 C  
DOCKED: ATOM      6  C   UNL     1     -36.102 -22.290   1.516 -0.29 -0.00    -0.001 A  
DOCKED: ATOM      7  C   UNL     1     -34.020 -24.129   1.999 -0.16 +0.00    +0.008 A  
DOCKED: ATOM      8  C   UNL     1     -36.342 -23.457   2.245 -0.29 +0.00    +0.010 A  
DOCKED: ATOM      9  C   UNL     1     -35.305 -24.371   2.485 -0.30 +0.00    +0.068 A  
DOCKED: ATOM     10  N   UNL     1     -35.783 -26.524   3.845 -2.55 -0.00    -0.191 NA 
DOCKED: ATOM     11  C   UNL     1     -35.569 -25.559   3.234 -0.37 +0.00    +0.101 C  
DOCKED: ENDROOT
DOCKED: BRANCH   2  12
DOCKED: ATOM     12  C   UNL     1     -34.285 -19.600   1.020 -0.03 +0.00    +0.038 C  
DOCKED: BRANCH  12  13
DOCKED: ATOM     13  C   UNL     1     -33.479 -19.730   2.310 -0.02 +0.00    +0.038 C  
DOCKED: BRANCH  13  14
DOCKED: ATOM     14  C   UNL     1     -34.400 -19.859   3.523 -0.03 +0.00    +0.251 C  
DOCKED: BRANCH  14  15
DOCKED: ATOM     15  N   UNL     1     -34.264 -21.180   4.124 -0.07 +0.00    +0.141 N  
DOCKED: ATOM     16  C   UNL     1     -32.854 -21.506   4.341 -0.01 +0.00    +0.285 C  
DOCKED: ATOM     17  C   UNL     1     -35.001 -21.250   5.387 -0.07 +0.00    +0.285 C  
DOCKED: ENDBRANCH  14  15
DOCKED: ENDBRANCH  13  14
DOCKED: ENDBRANCH  12  13
DOCKED: ENDBRANCH   2  12
DOCKED: BRANCH   2  18
DOCKED: ATOM     18  C   UNL     1     -34.983 -20.742  -1.078 -0.13 +0.00    +0.006 A  
DOCKED: ATOM     19  C   UNL     1     -34.636 -21.558  -2.154 -0.14 +0.00    +0.001 A  
DOCKED: ATOM     20  C   UNL     1     -35.282 -21.403  -3.381 -0.17 +0.00    +0.029 A  
DOCKED: ATOM     21  C   UNL     1     -36.273 -20.434  -3.530 -0.20 +0.00    +0.140 A  
DOCKED: ATOM     22  C   UNL     1     -36.619 -19.619  -2.453 -0.21 +0.00    +0.029 A  
DOCKED: ATOM     23  F   UNL     1     -36.893 -20.287  -4.708 -0.13 -0.00    -0.204 F  
DOCKED: ATOM     24  C   UNL     1     -35.974 -19.772  -1.225 -0.18 +0.00    +0.001 A  
DOCKED: ENDBRANCH   2  18
DOCKED: TORSDOF 5
DOCKED: TER
DOCKED: ENDMDL
________________________________________________________________________________


    FINAL DOCKED STATE:
    ________________________


Run:   479 / 512
Time taken for this run:   0.002s

DOCKED: MODEL        479
DOCKED: USER    Run = 479
DOCKED: USER
DOCKED: USER    Estimated Free Energy of Binding    =  -4.23 kcal/mol  [=(1)+(2)+(3)-(4)]
DOCKED: USER
DOCKED: USER    (1) Final Intermolecular Energy     =  -5.72 kcal/mol
DOCKED: USER        vdW + Hbond + desolv Energy     =  -5.72 kcal/mol
DOCKED: USER        Electrostatic Energy            =  +0.00 kcal/mol
DOCKED: USER        Moving Ligand-Fixed Receptor    =  -5.72 kcal/mol
DOCKED: USER        Moving Ligand-Moving Receptor   =  +0.00 kcal/mol
DOCKED: USER    (2) Final Total Internal Energy     =  -1.53 kcal/mol
DOCKED: USER    (3) Torsional Free Energy           =  +1.49 kcal/mol
DOCKED: USER    (4) Unbound System's Energy         =  -1.53 kcal/mol
DOCKED: USER
DOCKED: USER
DOCKED: REMARK  5 active torsions:
DOCKED: REMARK  status: ('A' for Active; 'I' for Inactive)
DOCKED: REMARK    1  A    between atoms: C_2  and  C_19 
DOCKED: REMARK    2  A    between atoms: C_2  and  C_11 
DOCKED: REMARK    3  A    between atoms: C_19  and  C_20 
DOCKED: REMARK    4  A    between atoms: C_20  and  C_21 
DOCKED: REMARK    5  A    between atoms: C_21  and  N_22 
DOCKED: USER                              x       y       z     vdW  Elec       q    Type
DOCKED: USER                           _______ _______ _______ _____ _____    ______ ____
DOCKED: ROOT
DOCKED: ATOM      1  O   UNL     1     -38.328 -21.835   8.519 -0.08 -0.00    -0.346 OA 
DOCKED: ATOM      2  C   UNL     1     -39.378 -20.938   8.033 -0.12 +0.00    +0.130 C  
DOCKED: ATOM      3  C   UNL     1     -40.359 -21.860   7.368 -0.21 +0.00    +0.004 A  
DOCKED: ATOM      4  C   UNL     1     -39.963 -23.176   7.554 -0.23 +0.00    +0.006 A  
DOCKED: ATOM      5  C   UNL     1     -38.718 -23.218   8.353 -0.16 +0.00    +0.169 C  
DOCKED: ATOM      6  C   UNL     1     -41.516 -21.557   6.665 -0.27 -0.00    -0.001 A  
DOCKED: ATOM      7  C   UNL     1     -40.701 -24.230   7.043 -0.35 +0.00    +0.008 A  
DOCKED: ATOM      8  C   UNL     1     -42.269 -22.608   6.140 -0.31 +0.00    +0.010 A  
DOCKED: ATOM      9  C   UNL     1     -41.864 -23.938   6.329 -0.31 +0.00    +0.068 A  
DOCKED: ATOM     10  N   UNL     1     -43.288 -25.866   5.345 -2.56 -0.00    -0.191 NA 
DOCKED: ATOM     11  C   UNL     1     -42.649 -25.001   5.786 -0.36 +0.00    +0.101 C  
DOCKED: ENDROOT
DOCKED: BRANCH   2  12
DOCKED: ATOM     12  C   UNL     1     -39.972 -20.199   9.226 -0.05 +0.00    +0.038 C  
DOCKED: BRANCH  12  13
DOCKED: ATOM     13  C   UNL     1     -38.972 -19.213   9.825 -0.02 +0.00    +0.038 C  
DOCKED: BRANCH  13  14
DOCKED: ATOM     14  C   UNL     1     -38.010 -19.917  10.780 -0.01 +0.00    +0.251 C  
DOCKED: BRANCH  14  15
DOCKED: ATOM     15  N   UNL     1     -36.637 -19.508  10.511 -0.01 +0.00    +0.141 N  
DOCKED: ATOM     16  C   UNL     1     -35.872 -20.615   9.935 -0.01 +0.00    +0.285 C  
DOCKED: ATOM     17  C   UNL     1     -36.610 -18.351   9.613 -0.00 +0.00    +0.285 C  
DOCKED: ENDBRANCH  14  15
DOCKED: ENDBRANCH  13  14
DOCKED: ENDBRANCH  12  13
DOCKED: ENDBRANCH   2  12
DOCKED: BRANCH   2  18
DOCKED: ATOM     18  C   UNL     1     -38.733 -19.989   7.079 -0.14 +0.00    +0.006 A  
DOCKED: ATOM     19  C   UNL     1     -39.487 -18.977   6.485 -0.15 +0.00    +0.001 A  
DOCKED: ATOM     20  C   UNL     1     -38.883 -18.091   5.593 -0.11 +0.00    +0.029 A  
DOCKED: ATOM     21  C   UNL     1     -37.527 -18.216   5.296 -0.07 +0.00    +0.140 A  
DOCKED: ATOM     22  C   UNL     1     -36.773 -19.228   5.890 -0.10 +0.00    +0.029 A  
DOCKED: ATOM     23  F   UNL     1     -36.947 -17.364   4.441 -0.00 -0.00    -0.204 F  
DOCKED: ATOM     24  C   UNL     1     -37.376 -20.116   6.783 -0.10 +0.00    +0.001 A  
DOCKED: ENDBRANCH   2  18
DOCKED: TORSDOF 5
DOCKED: TER
DOCKED: ENDMDL
________________________________________________________________________________


    FINAL DOCKED STATE:
    ________________________


Run:   480 / 512
Time taken for this run:   0.002s

DOCKED: MODEL        480
DOCKED: USER    Run = 480
DOCKED: USER
DOCKED: USER    Estimated Free Energy of Binding    =  -4.73 kcal/mol  [=(1)+(2)+(3)-(4)]
DOCKED: USER
DOCKED: USER    (1) Final Intermolecular Energy     =  -6.22 kcal/mol
DOCKED: USER        vdW + Hbond + desolv Energy     =  -6.22 kcal/mol
DOCKED: USER        Electrostatic Energy            =  +0.00 kcal/mol
DOCKED: USER        Moving Ligand-Fixed Receptor    =  -6.22 kcal/mol
DOCKED: USER        Moving Ligand-Moving Receptor   =  +0.00 kcal/mol
DOCKED: USER    (2) Final Total Internal Energy     =  -0.93 kcal/mol
DOCKED: USER    (3) Torsional Free Energy           =  +1.49 kcal/mol
DOCKED: USER    (4) Unbound System's Energy         =  -0.93 kcal/mol
DOCKED: USER
DOCKED: USER
DOCKED: REMARK  5 active torsions:
DOCKED: REMARK  status: ('A' for Active; 'I' for Inactive)
DOCKED: REMARK    1  A    between atoms: C_2  and  C_19 
DOCKED: REMARK    2  A    between atoms: C_2  and  C_11 
DOCKED: REMARK    3  A    between atoms: C_19  and  C_20 
DOCKED: REMARK    4  A    between atoms: C_20  and  C_21 
DOCKED: REMARK    5  A    between atoms: C_21  and  N_22 
DOCKED: USER                              x       y       z     vdW  Elec       q    Type
DOCKED: USER                           _______ _______ _______ _____ _____    ______ ____
DOCKED: ROOT
DOCKED: ATOM      1  O   UNL     1     -35.739 -14.956  -0.221 -0.03 -0.00    -0.346 OA 
DOCKED: ATOM      2  C   UNL     1     -37.043 -15.508   0.151 -0.13 +0.00    +0.130 C  
DOCKED: ATOM      3  C   UNL     1     -37.976 -14.957  -0.888 -0.22 +0.00    +0.004 A  
DOCKED: ATOM      4  C   UNL     1     -37.253 -14.244  -1.834 -0.20 +0.00    +0.006 A  
DOCKED: ATOM      5  C   UNL     1     -35.812 -14.284  -1.500 -0.09 +0.00    +0.169 C  
DOCKED: ATOM      6  C   UNL     1     -39.353 -15.085  -0.993 -0.26 -0.00    -0.001 A  
DOCKED: ATOM      7  C   UNL     1     -37.878 -13.635  -2.909 -0.27 +0.00    +0.008 A  
DOCKED: ATOM      8  C   UNL     1     -39.998 -14.474  -2.070 -0.21 +0.00    +0.010 A  
DOCKED: ATOM      9  C   UNL     1     -39.264 -13.753  -3.023 -0.32 +0.00    +0.068 A  
DOCKED: ATOM     10  N   UNL     1     -40.491 -12.634  -5.012 -2.44 -0.00    -0.191 NA 
DOCKED: ATOM     11  C   UNL     1     -39.941 -13.135  -4.119 -0.34 +0.00    +0.101 C  
DOCKED: ENDROOT
DOCKED: BRANCH   2  12
DOCKED: ATOM     12  C   UNL     1     -36.950 -17.029   0.119 -0.11 +0.00    +0.038 C  
DOCKED: BRANCH  12  13
DOCKED: ATOM     13  C   UNL     1     -36.697 -17.541  -1.297 -0.15 +0.00    +0.038 C  
DOCKED: BRANCH  13  14
DOCKED: ATOM     14  C   UNL     1     -36.943 -19.046  -1.389 -0.14 +0.00    +0.251 C  
DOCKED: BRANCH  14  15
DOCKED: ATOM     15  N   UNL     1     -36.131 -19.629  -2.451 -0.20 +0.00    +0.141 N  
DOCKED: ATOM     16  C   UNL     1     -36.475 -19.039  -3.746 -0.19 +0.00    +0.285 C  
DOCKED: ATOM     17  C   UNL     1     -34.706 -19.444  -2.171 -0.05 +0.00    +0.285 C  
DOCKED: ENDBRANCH  14  15
DOCKED: ENDBRANCH  13  14
DOCKED: ENDBRANCH  12  13
DOCKED: ENDBRANCH   2  12
DOCKED: BRANCH   2  18
DOCKED: ATOM     18  C   UNL     1     -37.348 -15.016   1.527 -0.16 +0.00    +0.006 A  
DOCKED: ATOM     19  C   UNL     1     -36.309 -14.664   2.387 -0.11 +0.00    +0.001 A  
DOCKED: ATOM     20  C   UNL     1     -36.596 -14.205   3.674 -0.07 +0.00    +0.029 A  
DOCKED: ATOM     21  C   UNL     1     -37.920 -14.097   4.096 -0.11 +0.00    +0.140 A  
DOCKED: ATOM     22  C   UNL     1     -38.959 -14.448   3.235 -0.19 +0.00    +0.029 A  
DOCKED: ATOM     23  F   UNL     1     -38.195 -13.654   5.330 -0.03 -0.00    -0.204 F  
DOCKED: ATOM     24  C   UNL     1     -38.673 -14.909   1.948 -0.21 +0.00    +0.001 A  
DOCKED: ENDBRANCH   2  18
DOCKED: TORSDOF 5
DOCKED: TER
DOCKED: ENDMDL
________________________________________________________________________________


    FINAL DOCKED STATE:
    ________________________


Run:   481 / 512
Time taken for this run:   0.002s

DOCKED: MODEL        481
DOCKED: USER    Run = 481
DOCKED: USER
DOCKED: USER    Estimated Free Energy of Binding    =  -4.25 kcal/mol  [=(1)+(2)+(3)-(4)]
DOCKED: USER
DOCKED: USER    (1) Final Intermolecular Energy     =  -5.74 kcal/mol
DOCKED: USER        vdW + Hbond + desolv Energy     =  -5.74 kcal/mol
DOCKED: USER        Electrostatic Energy            =  +0.00 kcal/mol
DOCKED: USER        Moving Ligand-Fixed Receptor    =  -5.74 kcal/mol
DOCKED: USER        Moving Ligand-Moving Receptor   =  +0.00 kcal/mol
DOCKED: USER    (2) Final Total Internal Energy     =  -1.31 kcal/mol
DOCKED: USER    (3) Torsional Free Energy           =  +1.49 kcal/mol
DOCKED: USER    (4) Unbound System's Energy         =  -1.31 kcal/mol
DOCKED: USER
DOCKED: USER
DOCKED: REMARK  5 active torsions:
DOCKED: REMARK  status: ('A' for Active; 'I' for Inactive)
DOCKED: REMARK    1  A    between atoms: C_2  and  C_19 
DOCKED: REMARK    2  A    between atoms: C_2  and  C_11 
DOCKED: REMARK    3  A    between atoms: C_19  and  C_20 
DOCKED: REMARK    4  A    between atoms: C_20  and  C_21 
DOCKED: REMARK    5  A    between atoms: C_21  and  N_22 
DOCKED: USER                              x       y       z     vdW  Elec       q    Type
DOCKED: USER                           _______ _______ _______ _____ _____    ______ ____
DOCKED: ROOT
DOCKED: ATOM      1  O   UNL     1     -38.934 -20.898   8.094 -0.06 -0.00    -0.346 OA 
DOCKED: ATOM      2  C   UNL     1     -40.127 -20.280   7.513 -0.14 +0.00    +0.130 C  
DOCKED: ATOM      3  C   UNL     1     -40.891 -21.440   6.943 -0.24 +0.00    +0.004 A  
DOCKED: ATOM      4  C   UNL     1     -40.248 -22.627   7.266 -0.22 +0.00    +0.006 A  
DOCKED: ATOM      5  C   UNL     1     -39.039 -22.340   8.070 -0.13 +0.00    +0.169 C  
DOCKED: ATOM      6  C   UNL     1     -42.067 -21.446   6.208 -0.23 -0.00    -0.001 A  
DOCKED: ATOM      7  C   UNL     1     -40.751 -23.852   6.864 -0.33 +0.00    +0.008 A  
DOCKED: ATOM      8  C   UNL     1     -42.586 -22.673   5.791 -0.29 +0.00    +0.010 A  
DOCKED: ATOM      9  C   UNL     1     -41.931 -23.870   6.118 -0.32 +0.00    +0.068 A  
DOCKED: ATOM     10  N   UNL     1     -42.923 -26.131   5.334 -2.61 -0.00    -0.191 NA 
DOCKED: ATOM     11  C   UNL     1     -42.478 -25.117   5.685 -0.33 +0.00    +0.101 C  
DOCKED: ENDROOT
DOCKED: BRANCH   2  12
DOCKED: ATOM     12  C   UNL     1     -40.884 -19.558   8.621 -0.06 +0.00    +0.038 C  
DOCKED: BRANCH  12  13
DOCKED: ATOM     13  C   UNL     1     -40.744 -20.285   9.957 -0.03 +0.00    +0.038 C  
DOCKED: BRANCH  13  14
DOCKED: ATOM     14  C   UNL     1     -42.092 -20.396  10.666 -0.00 +0.00    +0.251 C  
DOCKED: BRANCH  14  15
DOCKED: ATOM     15  N   UNL     1     -42.377 -21.787  11.000 -0.01 +0.00    +0.141 N  
DOCKED: ATOM     16  C   UNL     1     -42.508 -22.593   9.785 -0.02 +0.00    +0.285 C  
DOCKED: ATOM     17  C   UNL     1     -41.328 -22.336  11.861 -0.01 +0.00    +0.285 C  
DOCKED: ENDBRANCH  14  15
DOCKED: ENDBRANCH  13  14
DOCKED: ENDBRANCH  12  13
DOCKED: ENDBRANCH   2  12
DOCKED: BRANCH   2  18
DOCKED: ATOM     18  C   UNL     1     -39.659 -19.323   6.469 -0.16 +0.00    +0.006 A  
DOCKED: ATOM     19  C   UNL     1     -38.527 -19.619   5.709 -0.11 +0.00    +0.001 A  
DOCKED: ATOM     20  C   UNL     1     -38.090 -18.722   4.733 -0.13 +0.00    +0.029 A  
DOCKED: ATOM     21  C   UNL     1     -38.785 -17.533   4.518 -0.08 +0.00    +0.140 A  
DOCKED: ATOM     22  C   UNL     1     -39.916 -17.238   5.277 -0.09 +0.00    +0.029 A  
DOCKED: ATOM     23  F   UNL     1     -38.366 -16.674   3.579 -0.01 -0.00    -0.204 F  
DOCKED: ATOM     24  C   UNL     1     -40.354 -18.134   6.254 -0.12 +0.00    +0.001 A  
DOCKED: ENDBRANCH   2  18
DOCKED: TORSDOF 5
DOCKED: TER
DOCKED: ENDMDL
________________________________________________________________________________


    FINAL DOCKED STATE:
    ________________________


Run:   482 / 512
Time taken for this run:   0.002s

DOCKED: MODEL        482
DOCKED: USER    Run = 482
DOCKED: USER
DOCKED: USER    Estimated Free Energy of Binding    =  -4.05 kcal/mol  [=(1)+(2)+(3)-(4)]
DOCKED: USER
DOCKED: USER    (1) Final Intermolecular Energy     =  -5.54 kcal/mol
DOCKED: USER        vdW + Hbond + desolv Energy     =  -5.54 kcal/mol
DOCKED: USER        Electrostatic Energy            =  +0.00 kcal/mol
DOCKED: USER        Moving Ligand-Fixed Receptor    =  -5.54 kcal/mol
DOCKED: USER        Moving Ligand-Moving Receptor   =  +0.00 kcal/mol
DOCKED: USER    (2) Final Total Internal Energy     =  -1.34 kcal/mol
DOCKED: USER    (3) Torsional Free Energy           =  +1.49 kcal/mol
DOCKED: USER    (4) Unbound System's Energy         =  -1.34 kcal/mol
DOCKED: USER
DOCKED: USER
DOCKED: REMARK  5 active torsions:
DOCKED: REMARK  status: ('A' for Active; 'I' for Inactive)
DOCKED: REMARK    1  A    between atoms: C_2  and  C_19 
DOCKED: REMARK    2  A    between atoms: C_2  and  C_11 
DOCKED: REMARK    3  A    between atoms: C_19  and  C_20 
DOCKED: REMARK    4  A    between atoms: C_20  and  C_21 
DOCKED: REMARK    5  A    between atoms: C_21  and  N_22 
DOCKED: USER                              x       y       z     vdW  Elec       q    Type
DOCKED: USER                           _______ _______ _______ _____ _____    ______ ____
DOCKED: ROOT
DOCKED: ATOM      1  O   UNL     1     -40.204 -21.441   9.539 -0.01 -0.00    -0.346 OA 
DOCKED: ATOM      2  C   UNL     1     -40.279 -20.818   8.216 -0.11 +0.00    +0.130 C  
DOCKED: ATOM      3  C   UNL     1     -40.915 -21.872   7.358 -0.22 +0.00    +0.004 A  
DOCKED: ATOM      4  C   UNL     1     -41.274 -22.959   8.142 -0.18 +0.00    +0.006 A  
DOCKED: ATOM      5  C   UNL     1     -40.918 -22.699   9.555 -0.08 +0.00    +0.169 C  
DOCKED: ATOM      6  C   UNL     1     -41.167 -21.865   5.993 -0.20 -0.00    -0.001 A  
DOCKED: ATOM      7  C   UNL     1     -41.889 -24.072   7.593 -0.25 +0.00    +0.008 A  
DOCKED: ATOM      8  C   UNL     1     -41.782 -22.981   5.425 -0.34 +0.00    +0.010 A  
DOCKED: ATOM      9  C   UNL     1     -42.142 -24.079   6.221 -0.31 +0.00    +0.068 A  
DOCKED: ATOM     10  N   UNL     1     -43.288 -26.133   5.134 -2.44 -0.00    -0.191 NA 
DOCKED: ATOM     11  C   UNL     1     -42.773 -25.212   5.621 -0.32 +0.00    +0.101 C  
DOCKED: ENDROOT
DOCKED: BRANCH   2  12
DOCKED: ATOM     12  C   UNL     1     -41.122 -19.553   8.325 -0.08 +0.00    +0.038 C  
DOCKED: BRANCH  12  13
DOCKED: ATOM     13  C   UNL     1     -42.515 -19.759   7.734 -0.15 +0.00    +0.038 C  
DOCKED: BRANCH  13  14
DOCKED: ATOM     14  C   UNL     1     -43.581 -19.767   8.828 -0.03 +0.00    +0.251 C  
DOCKED: BRANCH  14  15
DOCKED: ATOM     15  N   UNL     1     -44.697 -20.623   8.443 -0.06 +0.00    +0.141 N  
DOCKED: ATOM     16  C   UNL     1     -44.395 -21.337   7.202 -0.12 +0.00    +0.285 C  
DOCKED: ATOM     17  C   UNL     1     -45.011 -21.572   9.512 -0.00 +0.00    +0.285 C  
DOCKED: ENDBRANCH  14  15
DOCKED: ENDBRANCH  13  14
DOCKED: ENDBRANCH  12  13
DOCKED: ENDBRANCH   2  12
DOCKED: BRANCH   2  18
DOCKED: ATOM     18  C   UNL     1     -38.880 -20.499   7.805 -0.12 +0.00    +0.006 A  
DOCKED: ATOM     19  C   UNL     1     -37.807 -20.992   8.546 -0.10 +0.00    +0.001 A  
DOCKED: ATOM     20  C   UNL     1     -36.499 -20.693   8.160 -0.08 +0.00    +0.029 A  
DOCKED: ATOM     21  C   UNL     1     -36.268 -19.902   7.035 -0.07 +0.00    +0.140 A  
DOCKED: ATOM     22  C   UNL     1     -37.342 -19.410   6.295 -0.11 +0.00    +0.029 A  
DOCKED: ATOM     23  F   UNL     1     -35.013 -19.617   6.664 -0.01 -0.00    -0.204 F  
DOCKED: ATOM     24  C   UNL     1     -38.650 -19.708   6.680 -0.14 +0.00    +0.001 A  
DOCKED: ENDBRANCH   2  18
DOCKED: TORSDOF 5
DOCKED: TER
DOCKED: ENDMDL
________________________________________________________________________________


    FINAL DOCKED STATE:
    ________________________


Run:   483 / 512
Time taken for this run:   0.002s

DOCKED: MODEL        483
DOCKED: USER    Run = 483
DOCKED: USER
DOCKED: USER    Estimated Free Energy of Binding    =  -4.42 kcal/mol  [=(1)+(2)+(3)-(4)]
DOCKED: USER
DOCKED: USER    (1) Final Intermolecular Energy     =  -5.92 kcal/mol
DOCKED: USER        vdW + Hbond + desolv Energy     =  -5.92 kcal/mol
DOCKED: USER        Electrostatic Energy            =  +0.00 kcal/mol
DOCKED: USER        Moving Ligand-Fixed Receptor    =  -5.92 kcal/mol
DOCKED: USER        Moving Ligand-Moving Receptor   =  +0.00 kcal/mol
DOCKED: USER    (2) Final Total Internal Energy     =  -1.38 kcal/mol
DOCKED: USER    (3) Torsional Free Energy           =  +1.49 kcal/mol
DOCKED: USER    (4) Unbound System's Energy         =  -1.38 kcal/mol
DOCKED: USER
DOCKED: USER
DOCKED: REMARK  5 active torsions:
DOCKED: REMARK  status: ('A' for Active; 'I' for Inactive)
DOCKED: REMARK    1  A    between atoms: C_2  and  C_19 
DOCKED: REMARK    2  A    between atoms: C_2  and  C_11 
DOCKED: REMARK    3  A    between atoms: C_19  and  C_20 
DOCKED: REMARK    4  A    between atoms: C_20  and  C_21 
DOCKED: REMARK    5  A    between atoms: C_21  and  N_22 
DOCKED: USER                              x       y       z     vdW  Elec       q    Type
DOCKED: USER                           _______ _______ _______ _____ _____    ______ ____
DOCKED: ROOT
DOCKED: ATOM      1  O   UNL     1     -40.981 -19.204   6.669 -0.08 -0.00    -0.346 OA 
DOCKED: ATOM      2  C   UNL     1     -42.318 -19.330   7.251 -0.16 +0.00    +0.130 C  
DOCKED: ATOM      3  C   UNL     1     -42.728 -20.734   6.910 -0.23 +0.00    +0.004 A  
DOCKED: ATOM      4  C   UNL     1     -41.675 -21.389   6.286 -0.25 +0.00    +0.006 A  
DOCKED: ATOM      5  C   UNL     1     -40.510 -20.483   6.184 -0.13 +0.00    +0.169 C  
DOCKED: ATOM      6  C   UNL     1     -43.931 -21.383   7.143 -0.21 -0.00    -0.001 A  
DOCKED: ATOM      7  C   UNL     1     -41.789 -22.705   5.873 -0.34 +0.00    +0.008 A  
DOCKED: ATOM      8  C   UNL     1     -44.064 -22.709   6.728 -0.22 +0.00    +0.010 A  
DOCKED: ATOM      9  C   UNL     1     -42.998 -23.367   6.097 -0.26 +0.00    +0.068 A  
DOCKED: ATOM     10  N   UNL     1     -43.275 -25.830   5.343 -2.56 -0.00    -0.191 NA 
DOCKED: ATOM     11  C   UNL     1     -43.151 -24.725   5.681 -0.36 +0.00    +0.101 C  
DOCKED: ENDROOT
DOCKED: BRANCH   2  12
DOCKED: ATOM     12  C   UNL     1     -42.216 -19.090   8.752 -0.05 +0.00    +0.038 C  
DOCKED: BRANCH  12  13
DOCKED: ATOM     13  C   UNL     1     -42.184 -17.598   9.076 -0.03 +0.00    +0.038 C  
DOCKED: BRANCH  13  14
DOCKED: ATOM     14  C   UNL     1     -40.791 -17.163   9.526 -0.00 +0.00    +0.251 C  
DOCKED: BRANCH  14  15
DOCKED: ATOM     15  N   UNL     1     -39.768 -17.882   8.775 -0.01 +0.00    +0.141 N  
DOCKED: ATOM     16  C   UNL     1     -38.969 -16.954   7.972 -0.01 +0.00    +0.285 C  
DOCKED: ATOM     17  C   UNL     1     -38.905 -18.644   9.678 -0.00 +0.00    +0.285 C  
DOCKED: ENDBRANCH  14  15
DOCKED: ENDBRANCH  13  14
DOCKED: ENDBRANCH  12  13
DOCKED: ENDBRANCH   2  12
DOCKED: BRANCH   2  18
DOCKED: ATOM     18  C   UNL     1     -43.177 -18.299   6.597 -0.20 +0.00    +0.006 A  
DOCKED: ATOM     19  C   UNL     1     -42.598 -17.319   5.793 -0.16 +0.00    +0.001 A  
DOCKED: ATOM     20  C   UNL     1     -43.402 -16.355   5.183 -0.15 +0.00    +0.029 A  
DOCKED: ATOM     21  C   UNL     1     -44.782 -16.373   5.378 -0.10 +0.00    +0.140 A  
DOCKED: ATOM     22  C   UNL     1     -45.361 -17.354   6.183 -0.17 +0.00    +0.029 A  
DOCKED: ATOM     23  F   UNL     1     -45.554 -15.449   4.791 -0.03 -0.00    -0.204 F  
DOCKED: ATOM     24  C   UNL     1     -44.557 -18.319   6.794 -0.21 +0.00    +0.001 A  
DOCKED: ENDBRANCH   2  18
DOCKED: TORSDOF 5
DOCKED: TER
DOCKED: ENDMDL
________________________________________________________________________________


    FINAL DOCKED STATE:
    ________________________


Run:   484 / 512
Time taken for this run:   0.002s

DOCKED: MODEL        484
DOCKED: USER    Run = 484
DOCKED: USER
DOCKED: USER    Estimated Free Energy of Binding    =  -4.20 kcal/mol  [=(1)+(2)+(3)-(4)]
DOCKED: USER
DOCKED: USER    (1) Final Intermolecular Energy     =  -5.69 kcal/mol
DOCKED: USER        vdW + Hbond + desolv Energy     =  -5.69 kcal/mol
DOCKED: USER        Electrostatic Energy            =  +0.00 kcal/mol
DOCKED: USER        Moving Ligand-Fixed Receptor    =  -5.69 kcal/mol
DOCKED: USER        Moving Ligand-Moving Receptor   =  +0.00 kcal/mol
DOCKED: USER    (2) Final Total Internal Energy     =  -0.93 kcal/mol
DOCKED: USER    (3) Torsional Free Energy           =  +1.49 kcal/mol
DOCKED: USER    (4) Unbound System's Energy         =  -0.93 kcal/mol
DOCKED: USER
DOCKED: USER
DOCKED: REMARK  5 active torsions:
DOCKED: REMARK  status: ('A' for Active; 'I' for Inactive)
DOCKED: REMARK    1  A    between atoms: C_2  and  C_19 
DOCKED: REMARK    2  A    between atoms: C_2  and  C_11 
DOCKED: REMARK    3  A    between atoms: C_19  and  C_20 
DOCKED: REMARK    4  A    between atoms: C_20  and  C_21 
DOCKED: REMARK    5  A    between atoms: C_21  and  N_22 
DOCKED: USER                              x       y       z     vdW  Elec       q    Type
DOCKED: USER                           _______ _______ _______ _____ _____    ______ ____
DOCKED: ROOT
DOCKED: ATOM      1  O   UNL     1     -40.092 -19.824   7.636 -0.04 -0.00    -0.346 OA 
DOCKED: ATOM      2  C   UNL     1     -39.319 -20.957   8.147 -0.12 +0.00    +0.130 C  
DOCKED: ATOM      3  C   UNL     1     -40.063 -22.158   7.639 -0.20 +0.00    +0.004 A  
DOCKED: ATOM      4  C   UNL     1     -41.104 -21.750   6.818 -0.27 +0.00    +0.006 A  
DOCKED: ATOM      5  C   UNL     1     -41.115 -20.273   6.716 -0.18 +0.00    +0.169 C  
DOCKED: ATOM      6  C   UNL     1     -39.829 -23.505   7.875 -0.26 -0.00    -0.001 A  
DOCKED: ATOM      7  C   UNL     1     -41.946 -22.667   6.212 -0.32 +0.00    +0.008 A  
DOCKED: ATOM      8  C   UNL     1     -40.672 -24.442   7.275 -0.36 +0.00    +0.010 A  
DOCKED: ATOM      9  C   UNL     1     -41.725 -24.025   6.447 -0.31 +0.00    +0.068 A  
DOCKED: ATOM     10  N   UNL     1     -43.268 -25.790   5.344 -2.56 -0.00    -0.191 NA 
DOCKED: ATOM     11  C   UNL     1     -42.576 -24.998   5.839 -0.35 +0.00    +0.101 C  
DOCKED: ENDROOT
DOCKED: BRANCH   2  12
DOCKED: ATOM     12  C   UNL     1     -37.901 -20.861   7.597 -0.11 +0.00    +0.038 C  
DOCKED: BRANCH  12  13
DOCKED: ATOM     13  C   UNL     1     -36.886 -21.470   8.563 -0.12 +0.00    +0.038 C  
DOCKED: BRANCH  13  14
DOCKED: ATOM     14  C   UNL     1     -36.262 -22.736   7.978 -0.10 +0.00    +0.251 C  
DOCKED: BRANCH  14  15
DOCKED: ATOM     15  N   UNL     1     -35.328 -22.394   6.911 -0.11 +0.00    +0.141 N  
DOCKED: ATOM     16  C   UNL     1     -34.409 -21.342   7.348 -0.04 +0.00    +0.285 C  
DOCKED: ATOM     17  C   UNL     1     -34.579 -23.577   6.484 -0.09 +0.00    +0.285 C  
DOCKED: ENDBRANCH  14  15
DOCKED: ENDBRANCH  13  14
DOCKED: ENDBRANCH  12  13
DOCKED: ENDBRANCH   2  12
DOCKED: BRANCH   2  18
DOCKED: ATOM     18  C   UNL     1     -39.327 -20.855   9.635 -0.05 +0.00    +0.006 A  
DOCKED: ATOM     19  C   UNL     1     -39.762 -21.932  10.405 -0.06 +0.00    +0.001 A  
DOCKED: ATOM     20  C   UNL     1     -39.770 -21.835  11.797 -0.02 +0.00    +0.029 A  
DOCKED: ATOM     21  C   UNL     1     -39.342 -20.662  12.417 -0.00 +0.00    +0.140 A  
DOCKED: ATOM     22  C   UNL     1     -38.906 -19.584  11.646 -0.00 +0.00    +0.029 A  
DOCKED: ATOM     23  F   UNL     1     -39.347 -20.569  13.753 -0.00 -0.00    -0.204 F  
DOCKED: ATOM     24  C   UNL     1     -38.899 -19.680  10.253 -0.01 +0.00    +0.001 A  
DOCKED: ENDBRANCH   2  18
DOCKED: TORSDOF 5
DOCKED: TER
DOCKED: ENDMDL
________________________________________________________________________________


    FINAL DOCKED STATE:
    ________________________


Run:   485 / 512
Time taken for this run:   0.002s

DOCKED: MODEL        485
DOCKED: USER    Run = 485
DOCKED: USER
DOCKED: USER    Estimated Free Energy of Binding    =  -3.71 kcal/mol  [=(1)+(2)+(3)-(4)]
DOCKED: USER
DOCKED: USER    (1) Final Intermolecular Energy     =  -5.20 kcal/mol
DOCKED: USER        vdW + Hbond + desolv Energy     =  -5.20 kcal/mol
DOCKED: USER        Electrostatic Energy            =  +0.00 kcal/mol
DOCKED: USER        Moving Ligand-Fixed Receptor    =  -5.20 kcal/mol
DOCKED: USER        Moving Ligand-Moving Receptor   =  +0.00 kcal/mol
DOCKED: USER    (2) Final Total Internal Energy     =  -1.32 kcal/mol
DOCKED: USER    (3) Torsional Free Energy           =  +1.49 kcal/mol
DOCKED: USER    (4) Unbound System's Energy         =  -1.32 kcal/mol
DOCKED: USER
DOCKED: USER
DOCKED: REMARK  5 active torsions:
DOCKED: REMARK  status: ('A' for Active; 'I' for Inactive)
DOCKED: REMARK    1  A    between atoms: C_2  and  C_19 
DOCKED: REMARK    2  A    between atoms: C_2  and  C_11 
DOCKED: REMARK    3  A    between atoms: C_19  and  C_20 
DOCKED: REMARK    4  A    between atoms: C_20  and  C_21 
DOCKED: REMARK    5  A    between atoms: C_21  and  N_22 
DOCKED: USER                              x       y       z     vdW  Elec       q    Type
DOCKED: USER                           _______ _______ _______ _____ _____    ______ ____
DOCKED: ROOT
DOCKED: ATOM      1  O   UNL     1     -36.931 -15.554   0.625 -0.04 -0.00    -0.346 OA 
DOCKED: ATOM      2  C   UNL     1     -38.271 -15.812   0.096 -0.20 +0.00    +0.130 C  
DOCKED: ATOM      3  C   UNL     1     -38.406 -14.834  -1.035 -0.25 +0.00    +0.004 A  
DOCKED: ATOM      4  C   UNL     1     -37.209 -14.154  -1.209 -0.12 +0.00    +0.006 A  
DOCKED: ATOM      5  C   UNL     1     -36.210 -14.635  -0.229 -0.12 +0.00    +0.169 C  
DOCKED: ATOM      6  C   UNL     1     -39.497 -14.576  -1.852 -0.29 -0.00    -0.001 A  
DOCKED: ATOM      7  C   UNL     1     -37.063 -13.195  -2.197 -0.19 +0.00    +0.008 A  
DOCKED: ATOM      8  C   UNL     1     -39.366 -13.608  -2.850 -0.40 +0.00    +0.010 A  
DOCKED: ATOM      9  C   UNL     1     -38.155 -12.921  -3.021 -0.29 +0.00    +0.068 A  
DOCKED: ATOM     10  N   UNL     1     -37.945 -11.135  -4.886 -0.85 -0.00    -0.191 NA 
DOCKED: ATOM     11  C   UNL     1     -38.039 -11.936  -4.049 -0.33 +0.00    +0.101 C  
DOCKED: ENDROOT
DOCKED: BRANCH   2  12
DOCKED: ATOM     12  C   UNL     1     -38.337 -17.264  -0.363 -0.23 +0.00    +0.038 C  
DOCKED: BRANCH  12  13
DOCKED: ATOM     13  C   UNL     1     -38.029 -17.391  -1.854 -0.18 +0.00    +0.038 C  
DOCKED: BRANCH  13  14
DOCKED: ATOM     14  C   UNL     1     -36.550 -17.698  -2.085 -0.13 +0.00    +0.251 C  
DOCKED: BRANCH  14  15
DOCKED: ATOM     15  N   UNL     1     -36.122 -17.184  -3.380 -0.11 +0.00    +0.141 N  
DOCKED: ATOM     16  C   UNL     1     -35.053 -16.197  -3.217 -0.02 +0.00    +0.285 C  
DOCKED: ATOM     17  C   UNL     1     -35.675 -18.277  -4.246 -0.09 +0.00    +0.285 C  
DOCKED: ENDBRANCH  14  15
DOCKED: ENDBRANCH  13  14
DOCKED: ENDBRANCH  12  13
DOCKED: ENDBRANCH   2  12
DOCKED: BRANCH   2  18
DOCKED: ATOM     18  C   UNL     1     -39.236 -15.554   1.205 -0.25 +0.00    +0.006 A  
DOCKED: ATOM     19  C   UNL     1     -40.473 -16.197   1.217 -0.29 +0.00    +0.001 A  
DOCKED: ATOM     20  C   UNL     1     -41.374 -15.954   2.255 -0.26 +0.00    +0.029 A  
DOCKED: ATOM     21  C   UNL     1     -41.036 -15.071   3.279 -0.14 +0.00    +0.140 A  
DOCKED: ATOM     22  C   UNL     1     -39.798 -14.428   3.267 -0.20 +0.00    +0.029 A  
DOCKED: ATOM     23  F   UNL     1     -41.900 -14.840   4.276 -0.01 -0.00    -0.204 F  
DOCKED: ATOM     24  C   UNL     1     -38.897 -14.670   2.229 -0.21 +0.00    +0.001 A  
DOCKED: ENDBRANCH   2  18
DOCKED: TORSDOF 5
DOCKED: TER
DOCKED: ENDMDL
________________________________________________________________________________


    FINAL DOCKED STATE:
    ________________________


Run:   486 / 512
Time taken for this run:   0.002s

DOCKED: MODEL        486
DOCKED: USER    Run = 486
DOCKED: USER
DOCKED: USER    Estimated Free Energy of Binding    =  -3.36 kcal/mol  [=(1)+(2)+(3)-(4)]
DOCKED: USER
DOCKED: USER    (1) Final Intermolecular Energy     =  -4.85 kcal/mol
DOCKED: USER        vdW + Hbond + desolv Energy     =  -4.85 kcal/mol
DOCKED: USER        Electrostatic Energy            =  +0.00 kcal/mol
DOCKED: USER        Moving Ligand-Fixed Receptor    =  -4.85 kcal/mol
DOCKED: USER        Moving Ligand-Moving Receptor   =  +0.00 kcal/mol
DOCKED: USER    (2) Final Total Internal Energy     =  -1.59 kcal/mol
DOCKED: USER    (3) Torsional Free Energy           =  +1.49 kcal/mol
DOCKED: USER    (4) Unbound System's Energy         =  -1.59 kcal/mol
DOCKED: USER
DOCKED: USER
DOCKED: REMARK  5 active torsions:
DOCKED: REMARK  status: ('A' for Active; 'I' for Inactive)
DOCKED: REMARK    1  A    between atoms: C_2  and  C_19 
DOCKED: REMARK    2  A    between atoms: C_2  and  C_11 
DOCKED: REMARK    3  A    between atoms: C_19  and  C_20 
DOCKED: REMARK    4  A    between atoms: C_20  and  C_21 
DOCKED: REMARK    5  A    between atoms: C_21  and  N_22 
DOCKED: USER                              x       y       z     vdW  Elec       q    Type
DOCKED: USER                           _______ _______ _______ _____ _____    ______ ____
DOCKED: ROOT
DOCKED: ATOM      1  O   UNL     1     -34.522 -10.842  -2.101 -0.02 -0.00    -0.346 OA 
DOCKED: ATOM      2  C   UNL     1     -34.344 -11.027  -3.542 -0.08 +0.00    +0.130 C  
DOCKED: ATOM      3  C   UNL     1     -35.690 -11.497  -4.013 -0.14 +0.00    +0.004 A  
DOCKED: ATOM      4  C   UNL     1     -36.588 -11.476  -2.955 -0.10 +0.00    +0.006 A  
DOCKED: ATOM      5  C   UNL     1     -35.913 -10.987  -1.732 -0.19 +0.00    +0.169 C  
DOCKED: ATOM      6  C   UNL     1     -36.090 -11.899  -5.279 -0.20 -0.00    -0.001 A  
DOCKED: ATOM      7  C   UNL     1     -37.908 -11.859  -3.123 -0.31 +0.00    +0.008 A  
DOCKED: ATOM      8  C   UNL     1     -37.417 -12.292  -5.463 -0.30 +0.00    +0.010 A  
DOCKED: ATOM      9  C   UNL     1     -38.321 -12.272  -4.391 -0.36 +0.00    +0.068 A  
DOCKED: ATOM     10  N   UNL     1     -40.778 -13.003  -4.769 -2.48 -0.00    -0.191 NA 
DOCKED: ATOM     11  C   UNL     1     -39.676 -12.675  -4.600 -0.37 +0.00    +0.101 C  
DOCKED: ENDROOT
DOCKED: BRANCH   2  12
DOCKED: ATOM     12  C   UNL     1     -33.934  -9.692  -4.152 -0.11 +0.00    +0.038 C  
DOCKED: BRANCH  12  13
DOCKED: ATOM     13  C   UNL     1     -33.600  -8.665  -3.073 -0.09 +0.00    +0.038 C  
DOCKED: BRANCH  13  14
DOCKED: ATOM     14  C   UNL     1     -32.128  -8.747  -2.673 -0.00 +0.00    +0.251 C  
DOCKED: BRANCH  14  15
DOCKED: ATOM     15  N   UNL     1     -31.878  -9.962  -1.906 -0.01 +0.00    +0.141 N  
DOCKED: ATOM     16  C   UNL     1     -30.471 -10.355  -2.005 +0.00 +0.00    +0.285 C  
DOCKED: ATOM     17  C   UNL     1     -32.255  -9.774  -0.504 -0.00 +0.00    +0.285 C  
DOCKED: ENDBRANCH  14  15
DOCKED: ENDBRANCH  13  14
DOCKED: ENDBRANCH  12  13
DOCKED: ENDBRANCH   2  12
DOCKED: BRANCH   2  18
DOCKED: ATOM     18  C   UNL     1     -33.275 -12.052  -3.721 -0.03 +0.00    +0.006 A  
DOCKED: ATOM     19  C   UNL     1     -33.223 -13.160  -2.877 -0.02 +0.00    +0.001 A  
DOCKED: ATOM     20  C   UNL     1     -32.222 -14.118  -3.045 -0.00 +0.00    +0.029 A  
DOCKED: ATOM     21  C   UNL     1     -31.276 -13.966  -4.058 -0.00 +0.00    +0.140 A  
DOCKED: ATOM     22  C   UNL     1     -31.328 -12.857  -4.902 -0.00 +0.00    +0.029 A  
DOCKED: ATOM     23  F   UNL     1     -30.316 -14.886  -4.220 +0.00 -0.00    -0.204 F  
DOCKED: ATOM     24  C   UNL     1     -32.328 -11.899  -4.734 -0.02 +0.00    +0.001 A  
DOCKED: ENDBRANCH   2  18
DOCKED: TORSDOF 5
DOCKED: TER
DOCKED: ENDMDL
________________________________________________________________________________


    FINAL DOCKED STATE:
    ________________________


Run:   487 / 512
Time taken for this run:   0.002s

DOCKED: MODEL        487
DOCKED: USER    Run = 487
DOCKED: USER
DOCKED: USER    Estimated Free Energy of Binding    =  -5.13 kcal/mol  [=(1)+(2)+(3)-(4)]
DOCKED: USER
DOCKED: USER    (1) Final Intermolecular Energy     =  -6.62 kcal/mol
DOCKED: USER        vdW + Hbond + desolv Energy     =  -6.62 kcal/mol
DOCKED: USER        Electrostatic Energy            =  +0.00 kcal/mol
DOCKED: USER        Moving Ligand-Fixed Receptor    =  -6.62 kcal/mol
DOCKED: USER        Moving Ligand-Moving Receptor   =  +0.00 kcal/mol
DOCKED: USER    (2) Final Total Internal Energy     =  -1.48 kcal/mol
DOCKED: USER    (3) Torsional Free Energy           =  +1.49 kcal/mol
DOCKED: USER    (4) Unbound System's Energy         =  -1.48 kcal/mol
DOCKED: USER
DOCKED: USER
DOCKED: REMARK  5 active torsions:
DOCKED: REMARK  status: ('A' for Active; 'I' for Inactive)
DOCKED: REMARK    1  A    between atoms: C_2  and  C_19 
DOCKED: REMARK    2  A    between atoms: C_2  and  C_11 
DOCKED: REMARK    3  A    between atoms: C_19  and  C_20 
DOCKED: REMARK    4  A    between atoms: C_20  and  C_21 
DOCKED: REMARK    5  A    between atoms: C_21  and  N_22 
DOCKED: USER                              x       y       z     vdW  Elec       q    Type
DOCKED: USER                           _______ _______ _______ _____ _____    ______ ____
DOCKED: ROOT
DOCKED: ATOM      1  O   UNL     1     -41.148 -22.715   8.225 -0.04 -0.00    -0.346 OA 
DOCKED: ATOM      2  C   UNL     1     -42.284 -23.632   8.331 -0.14 +0.00    +0.130 C  
DOCKED: ATOM      3  C   UNL     1     -42.678 -23.884   6.904 -0.25 +0.00    +0.004 A  
DOCKED: ATOM      4  C   UNL     1     -41.779 -23.255   6.054 -0.35 +0.00    +0.006 A  
DOCKED: ATOM      5  C   UNL     1     -40.736 -22.565   6.846 -0.22 +0.00    +0.169 C  
DOCKED: ATOM      6  C   UNL     1     -43.740 -24.619   6.399 -0.28 -0.00    -0.001 A  
DOCKED: ATOM      7  C   UNL     1     -41.912 -23.335   4.678 -0.21 +0.00    +0.008 A  
DOCKED: ATOM      8  C   UNL     1     -43.889 -24.706   5.014 -0.39 +0.00    +0.010 A  
DOCKED: ATOM      9  C   UNL     1     -42.980 -24.068   4.158 -0.39 +0.00    +0.068 A  
DOCKED: ATOM     10  N   UNL     1     -43.284 -24.253   1.591 -3.17 -0.00    -0.191 NA 
DOCKED: ATOM     11  C   UNL     1     -43.148 -24.169   2.743 -0.33 +0.00    +0.101 C  
DOCKED: ENDROOT
DOCKED: BRANCH   2  12
DOCKED: ATOM     12  C   UNL     1     -41.820 -24.894   9.049 -0.28 +0.00    +0.038 C  
DOCKED: BRANCH  12  13
DOCKED: ATOM     13  C   UNL     1     -40.556 -24.636   9.867 -0.08 +0.00    +0.038 C  
DOCKED: BRANCH  13  14
DOCKED: ATOM     14  C   UNL     1     -40.856 -23.757  11.080 -0.07 +0.00    +0.251 C  
DOCKED: BRANCH  14  15
DOCKED: ATOM     15  N   UNL     1     -40.348 -22.407  10.867 -0.04 +0.00    +0.141 N  
DOCKED: ATOM     16  C   UNL     1     -41.016 -21.457  11.758 -0.00 +0.00    +0.285 C  
DOCKED: ATOM     17  C   UNL     1     -38.899 -22.363  11.074 -0.03 +0.00    +0.285 C  
DOCKED: ENDBRANCH  14  15
DOCKED: ENDBRANCH  13  14
DOCKED: ENDBRANCH  12  13
DOCKED: ENDBRANCH   2  12
DOCKED: BRANCH   2  18
DOCKED: ATOM     18  C   UNL     1     -43.343 -22.927   9.111 -0.08 +0.00    +0.006 A  
DOCKED: ATOM     19  C   UNL     1     -43.785 -21.669   8.705 -0.08 +0.00    +0.001 A  
DOCKED: ATOM     20  C   UNL     1     -44.775 -21.010   9.436 -0.04 +0.00    +0.029 A  
DOCKED: ATOM     21  C   UNL     1     -45.322 -21.611  10.569 -0.01 +0.00    +0.140 A  
DOCKED: ATOM     22  C   UNL     1     -44.879 -22.870  10.974 -0.03 +0.00    +0.029 A  
DOCKED: ATOM     23  F   UNL     1     -46.273 -20.980  11.269 +0.01 -0.00    -0.204 F  
DOCKED: ATOM     24  C   UNL     1     -43.888 -23.529  10.244 -0.08 +0.00    +0.001 A  
DOCKED: ENDBRANCH   2  18
DOCKED: TORSDOF 5
DOCKED: TER
DOCKED: ENDMDL
________________________________________________________________________________


    FINAL DOCKED STATE:
    ________________________


Run:   488 / 512
Time taken for this run:   0.002s

DOCKED: MODEL        488
DOCKED: USER    Run = 488
DOCKED: USER
DOCKED: USER    Estimated Free Energy of Binding    =  -4.00 kcal/mol  [=(1)+(2)+(3)-(4)]
DOCKED: USER
DOCKED: USER    (1) Final Intermolecular Energy     =  -5.49 kcal/mol
DOCKED: USER        vdW + Hbond + desolv Energy     =  -5.49 kcal/mol
DOCKED: USER        Electrostatic Energy            =  +0.00 kcal/mol
DOCKED: USER        Moving Ligand-Fixed Receptor    =  -5.49 kcal/mol
DOCKED: USER        Moving Ligand-Moving Receptor   =  +0.00 kcal/mol
DOCKED: USER    (2) Final Total Internal Energy     =  -1.25 kcal/mol
DOCKED: USER    (3) Torsional Free Energy           =  +1.49 kcal/mol
DOCKED: USER    (4) Unbound System's Energy         =  -1.25 kcal/mol
DOCKED: USER
DOCKED: USER
DOCKED: REMARK  5 active torsions:
DOCKED: REMARK  status: ('A' for Active; 'I' for Inactive)
DOCKED: REMARK    1  A    between atoms: C_2  and  C_19 
DOCKED: REMARK    2  A    between atoms: C_2  and  C_11 
DOCKED: REMARK    3  A    between atoms: C_19  and  C_20 
DOCKED: REMARK    4  A    between atoms: C_20  and  C_21 
DOCKED: REMARK    5  A    between atoms: C_21  and  N_22 
DOCKED: USER                              x       y       z     vdW  Elec       q    Type
DOCKED: USER                           _______ _______ _______ _____ _____    ______ ____
DOCKED: ROOT
DOCKED: ATOM      1  O   UNL     1     -45.916 -20.467   8.145 -0.02 -0.00    -0.346 OA 
DOCKED: ATOM      2  C   UNL     1     -44.584 -20.064   7.691 -0.16 +0.00    +0.130 C  
DOCKED: ATOM      3  C   UNL     1     -44.024 -21.310   7.068 -0.21 +0.00    +0.004 A  
DOCKED: ATOM      4  C   UNL     1     -44.991 -22.306   7.066 -0.22 +0.00    +0.006 A  
DOCKED: ATOM      5  C   UNL     1     -46.242 -21.792   7.666 -0.17 +0.00    +0.169 C  
DOCKED: ATOM      6  C   UNL     1     -42.764 -21.540   6.535 -0.24 -0.00    -0.001 A  
DOCKED: ATOM      7  C   UNL     1     -44.733 -23.560   6.539 -0.25 +0.00    +0.008 A  
DOCKED: ATOM      8  C   UNL     1     -42.487 -22.801   6.004 -0.32 +0.00    +0.010 A  
DOCKED: ATOM      9  C   UNL     1     -43.466 -23.805   6.005 -0.25 +0.00    +0.068 A  
DOCKED: ATOM     10  N   UNL     1     -42.920 -26.133   5.007 -2.40 -0.00    -0.191 NA 
DOCKED: ATOM     11  C   UNL     1     -43.165 -25.089   5.455 -0.37 +0.00    +0.101 C  
DOCKED: ENDROOT
DOCKED: BRANCH   2  12
DOCKED: ATOM     12  C   UNL     1     -44.739 -18.921   6.695 -0.24 +0.00    +0.038 C  
DOCKED: BRANCH  12  13
DOCKED: ATOM     13  C   UNL     1     -43.675 -17.846   6.911 -0.19 +0.00    +0.038 C  
DOCKED: BRANCH  13  14
DOCKED: ATOM     14  C   UNL     1     -42.437 -18.120   6.059 -0.10 +0.00    +0.251 C  
DOCKED: BRANCH  14  15
DOCKED: ATOM     15  N   UNL     1     -41.238 -17.646   6.740 -0.09 +0.00    +0.141 N  
DOCKED: ATOM     16  C   UNL     1     -41.587 -16.983   7.997 -0.02 +0.00    +0.285 C  
DOCKED: ATOM     17  C   UNL     1     -40.315 -18.755   6.990 -0.09 +0.00    +0.285 C  
DOCKED: ENDBRANCH  14  15
DOCKED: ENDBRANCH  13  14
DOCKED: ENDBRANCH  12  13
DOCKED: ENDBRANCH   2  12
DOCKED: BRANCH   2  18
DOCKED: ATOM     18  C   UNL     1     -43.825 -19.627   8.899 -0.06 +0.00    +0.006 A  
DOCKED: ATOM     19  C   UNL     1     -42.554 -20.143   9.148 -0.04 +0.00    +0.001 A  
DOCKED: ATOM     20  C   UNL     1     -41.846 -19.733  10.279 -0.01 +0.00    +0.029 A  
DOCKED: ATOM     21  C   UNL     1     -42.408 -18.808  11.157 -0.00 +0.00    +0.140 A  
DOCKED: ATOM     22  C   UNL     1     -43.679 -18.292  10.907 -0.01 +0.00    +0.029 A  
DOCKED: ATOM     23  F   UNL     1     -41.727 -18.414  12.241 +0.00 -0.00    -0.204 F  
DOCKED: ATOM     24  C   UNL     1     -44.389 -18.701   9.777 -0.02 +0.00    +0.001 A  
DOCKED: ENDBRANCH   2  18
DOCKED: TORSDOF 5
DOCKED: TER
DOCKED: ENDMDL
________________________________________________________________________________


    FINAL DOCKED STATE:
    ________________________


Run:   489 / 512
Time taken for this run:   0.002s

DOCKED: MODEL        489
DOCKED: USER    Run = 489
DOCKED: USER
DOCKED: USER    Estimated Free Energy of Binding    =  -3.81 kcal/mol  [=(1)+(2)+(3)-(4)]
DOCKED: USER
DOCKED: USER    (1) Final Intermolecular Energy     =  -5.30 kcal/mol
DOCKED: USER        vdW + Hbond + desolv Energy     =  -5.30 kcal/mol
DOCKED: USER        Electrostatic Energy            =  +0.00 kcal/mol
DOCKED: USER        Moving Ligand-Fixed Receptor    =  -5.30 kcal/mol
DOCKED: USER        Moving Ligand-Moving Receptor   =  +0.00 kcal/mol
DOCKED: USER    (2) Final Total Internal Energy     =  -1.07 kcal/mol
DOCKED: USER    (3) Torsional Free Energy           =  +1.49 kcal/mol
DOCKED: USER    (4) Unbound System's Energy         =  -1.07 kcal/mol
DOCKED: USER
DOCKED: USER
DOCKED: REMARK  5 active torsions:
DOCKED: REMARK  status: ('A' for Active; 'I' for Inactive)
DOCKED: REMARK    1  A    between atoms: C_2  and  C_19 
DOCKED: REMARK    2  A    between atoms: C_2  and  C_11 
DOCKED: REMARK    3  A    between atoms: C_19  and  C_20 
DOCKED: REMARK    4  A    between atoms: C_20  and  C_21 
DOCKED: REMARK    5  A    between atoms: C_21  and  N_22 
DOCKED: USER                              x       y       z     vdW  Elec       q    Type
DOCKED: USER                           _______ _______ _______ _____ _____    ______ ____
DOCKED: ROOT
DOCKED: ATOM      1  O   UNL     1     -35.856 -19.456   3.025 -0.03 -0.00    -0.346 OA 
DOCKED: ATOM      2  C   UNL     1     -36.533 -20.053   1.873 -0.16 +0.00    +0.130 C  
DOCKED: ATOM      3  C   UNL     1     -36.338 -21.529   2.067 -0.25 +0.00    +0.004 A  
DOCKED: ATOM      4  C   UNL     1     -35.703 -21.761   3.279 -0.15 +0.00    +0.006 A  
DOCKED: ATOM      5  C   UNL     1     -35.449 -20.475   3.967 -0.10 +0.00    +0.169 C  
DOCKED: ATOM      6  C   UNL     1     -36.705 -22.583   1.243 -0.26 -0.00    -0.001 A  
DOCKED: ATOM      7  C   UNL     1     -35.409 -23.045   3.704 -0.11 +0.00    +0.008 A  
DOCKED: ATOM      8  C   UNL     1     -36.411 -23.883   1.655 -0.20 +0.00    +0.010 A  
DOCKED: ATOM      9  C   UNL     1     -35.767 -24.113   2.880 -0.24 +0.00    +0.068 A  
DOCKED: ATOM     10  N   UNL     1     -35.242 -26.540   3.619 -1.91 -0.00    -0.191 NA 
DOCKED: ATOM     11  C   UNL     1     -35.477 -25.452   3.288 -0.38 +0.00    +0.101 C  
DOCKED: ENDROOT
DOCKED: BRANCH   2  12
DOCKED: ATOM     12  C   UNL     1     -38.000 -19.638   1.907 -0.27 +0.00    +0.038 C  
DOCKED: BRANCH  12  13
DOCKED: ATOM     13  C   UNL     1     -38.156 -18.179   2.332 -0.15 +0.00    +0.038 C  
DOCKED: BRANCH  13  14
DOCKED: ATOM     14  C   UNL     1     -38.457 -17.287   1.129 -0.12 +0.00    +0.251 C  
DOCKED: BRANCH  14  15
DOCKED: ATOM     15  N   UNL     1     -39.605 -16.432   1.408 -0.18 +0.00    +0.141 N  
DOCKED: ATOM     16  C   UNL     1     -39.364 -15.615   2.598 -0.12 +0.00    +0.285 C  
DOCKED: ATOM     17  C   UNL     1     -39.903 -15.577   0.257 -0.19 +0.00    +0.285 C  
DOCKED: ENDBRANCH  14  15
DOCKED: ENDBRANCH  13  14
DOCKED: ENDBRANCH  12  13
DOCKED: ENDBRANCH   2  12
DOCKED: BRANCH   2  18
DOCKED: ATOM     18  C   UNL     1     -35.855 -19.532   0.650 -0.10 +0.00    +0.006 A  
DOCKED: ATOM     19  C   UNL     1     -36.565 -19.414  -0.544 -0.19 +0.00    +0.001 A  
DOCKED: ATOM     20  C   UNL     1     -35.929 -18.928  -1.687 -0.14 +0.00    +0.029 A  
DOCKED: ATOM     21  C   UNL     1     -34.586 -18.560  -1.634 -0.02 +0.00    +0.140 A  
DOCKED: ATOM     22  C   UNL     1     -33.876 -18.678  -0.439 -0.01 +0.00    +0.029 A  
DOCKED: ATOM     23  F   UNL     1     -33.976 -18.092  -2.731 +0.00 -0.00    -0.204 F  
DOCKED: ATOM     24  C   UNL     1     -34.511 -19.165   0.704 -0.03 +0.00    +0.001 A  
DOCKED: ENDBRANCH   2  18
DOCKED: TORSDOF 5
DOCKED: TER
DOCKED: ENDMDL
________________________________________________________________________________


    FINAL DOCKED STATE:
    ________________________


Run:   490 / 512
Time taken for this run:   0.002s

DOCKED: MODEL        490
DOCKED: USER    Run = 490
DOCKED: USER
DOCKED: USER    Estimated Free Energy of Binding    =  -4.35 kcal/mol  [=(1)+(2)+(3)-(4)]
DOCKED: USER
DOCKED: USER    (1) Final Intermolecular Energy     =  -5.84 kcal/mol
DOCKED: USER        vdW + Hbond + desolv Energy     =  -5.84 kcal/mol
DOCKED: USER        Electrostatic Energy            =  +0.00 kcal/mol
DOCKED: USER        Moving Ligand-Fixed Receptor    =  -5.84 kcal/mol
DOCKED: USER        Moving Ligand-Moving Receptor   =  +0.00 kcal/mol
DOCKED: USER    (2) Final Total Internal Energy     =  -1.21 kcal/mol
DOCKED: USER    (3) Torsional Free Energy           =  +1.49 kcal/mol
DOCKED: USER    (4) Unbound System's Energy         =  -1.21 kcal/mol
DOCKED: USER
DOCKED: USER
DOCKED: REMARK  5 active torsions:
DOCKED: REMARK  status: ('A' for Active; 'I' for Inactive)
DOCKED: REMARK    1  A    between atoms: C_2  and  C_19 
DOCKED: REMARK    2  A    between atoms: C_2  and  C_11 
DOCKED: REMARK    3  A    between atoms: C_19  and  C_20 
DOCKED: REMARK    4  A    between atoms: C_20  and  C_21 
DOCKED: REMARK    5  A    between atoms: C_21  and  N_22 
DOCKED: USER                              x       y       z     vdW  Elec       q    Type
DOCKED: USER                           _______ _______ _______ _____ _____    ______ ____
DOCKED: ROOT
DOCKED: ATOM      1  O   UNL     1     -40.733 -19.285   6.641 -0.08 -0.00    -0.346 OA 
DOCKED: ATOM      2  C   UNL     1     -42.046 -19.381   7.280 -0.15 +0.00    +0.130 C  
DOCKED: ATOM      3  C   UNL     1     -42.510 -20.768   6.942 -0.22 +0.00    +0.004 A  
DOCKED: ATOM      4  C   UNL     1     -41.505 -21.445   6.265 -0.25 +0.00    +0.006 A  
DOCKED: ATOM      5  C   UNL     1     -40.319 -20.570   6.121 -0.10 +0.00    +0.169 C  
DOCKED: ATOM      6  C   UNL     1     -43.720 -21.386   7.221 -0.21 -0.00    -0.001 A  
DOCKED: ATOM      7  C   UNL     1     -41.674 -22.752   5.842 -0.33 +0.00    +0.008 A  
DOCKED: ATOM      8  C   UNL     1     -43.908 -22.703   6.798 -0.22 +0.00    +0.010 A  
DOCKED: ATOM      9  C   UNL     1     -42.890 -23.382   6.112 -0.26 +0.00    +0.068 A  
DOCKED: ATOM     10  N   UNL     1     -43.270 -25.828   5.344 -2.56 -0.00    -0.191 NA 
DOCKED: ATOM     11  C   UNL     1     -43.099 -24.731   5.688 -0.36 +0.00    +0.101 C  
DOCKED: ENDROOT
DOCKED: BRANCH   2  12
DOCKED: ATOM     12  C   UNL     1     -41.871 -19.162   8.778 -0.05 +0.00    +0.038 C  
DOCKED: BRANCH  12  13
DOCKED: ATOM     13  C   UNL     1     -40.510 -18.547   9.096 -0.03 +0.00    +0.038 C  
DOCKED: BRANCH  13  14
DOCKED: ATOM     14  C   UNL     1     -40.422 -17.111   8.582 -0.01 +0.00    +0.251 C  
DOCKED: BRANCH  14  15
DOCKED: ATOM     15  N   UNL     1     -40.708 -16.169   9.659 -0.00 +0.00    +0.141 N  
DOCKED: ATOM     16  C   UNL     1     -40.271 -14.821   9.294 +0.00 +0.00    +0.285 C  
DOCKED: ATOM     17  C   UNL     1     -42.136 -16.171   9.980 -0.00 +0.00    +0.285 C  
DOCKED: ENDBRANCH  14  15
DOCKED: ENDBRANCH  13  14
DOCKED: ENDBRANCH  12  13
DOCKED: ENDBRANCH   2  12
DOCKED: BRANCH   2  18
DOCKED: ATOM     18  C   UNL     1     -42.903 -18.318   6.677 -0.19 +0.00    +0.006 A  
DOCKED: ATOM     19  C   UNL     1     -42.350 -17.399   5.787 -0.16 +0.00    +0.001 A  
DOCKED: ATOM     20  C   UNL     1     -43.152 -16.405   5.224 -0.15 +0.00    +0.029 A  
DOCKED: ATOM     21  C   UNL     1     -44.505 -16.333   5.552 -0.11 +0.00    +0.140 A  
DOCKED: ATOM     22  C   UNL     1     -45.058 -17.254   6.442 -0.17 +0.00    +0.029 A  
DOCKED: ATOM     23  F   UNL     1     -45.275 -15.381   5.010 -0.02 -0.00    -0.204 F  
DOCKED: ATOM     24  C   UNL     1     -44.256 -18.247   7.006 -0.19 +0.00    +0.001 A  
DOCKED: ENDBRANCH   2  18
DOCKED: TORSDOF 5
DOCKED: TER
DOCKED: ENDMDL
________________________________________________________________________________


    FINAL DOCKED STATE:
    ________________________


Run:   491 / 512
Time taken for this run:   0.002s

DOCKED: MODEL        491
DOCKED: USER    Run = 491
DOCKED: USER
DOCKED: USER    Estimated Free Energy of Binding    =  -3.79 kcal/mol  [=(1)+(2)+(3)-(4)]
DOCKED: USER
DOCKED: USER    (1) Final Intermolecular Energy     =  -5.29 kcal/mol
DOCKED: USER        vdW + Hbond + desolv Energy     =  -5.29 kcal/mol
DOCKED: USER        Electrostatic Energy            =  +0.00 kcal/mol
DOCKED: USER        Moving Ligand-Fixed Receptor    =  -5.29 kcal/mol
DOCKED: USER        Moving Ligand-Moving Receptor   =  +0.00 kcal/mol
DOCKED: USER    (2) Final Total Internal Energy     =  -1.32 kcal/mol
DOCKED: USER    (3) Torsional Free Energy           =  +1.49 kcal/mol
DOCKED: USER    (4) Unbound System's Energy         =  -1.32 kcal/mol
DOCKED: USER
DOCKED: USER
DOCKED: REMARK  5 active torsions:
DOCKED: REMARK  status: ('A' for Active; 'I' for Inactive)
DOCKED: REMARK    1  A    between atoms: C_2  and  C_19 
DOCKED: REMARK    2  A    between atoms: C_2  and  C_11 
DOCKED: REMARK    3  A    between atoms: C_19  and  C_20 
DOCKED: REMARK    4  A    between atoms: C_20  and  C_21 
DOCKED: REMARK    5  A    between atoms: C_21  and  N_22 
DOCKED: USER                              x       y       z     vdW  Elec       q    Type
DOCKED: USER                           _______ _______ _______ _____ _____    ______ ____
DOCKED: ROOT
DOCKED: ATOM      1  O   UNL     1     -35.659 -19.430   2.760 -0.02 -0.00    -0.346 OA 
DOCKED: ATOM      2  C   UNL     1     -36.517 -20.042   1.744 -0.16 +0.00    +0.130 C  
DOCKED: ATOM      3  C   UNL     1     -36.336 -21.516   1.961 -0.26 +0.00    +0.004 A  
DOCKED: ATOM      4  C   UNL     1     -35.534 -21.730   3.072 -0.18 +0.00    +0.006 A  
DOCKED: ATOM      5  C   UNL     1     -35.144 -20.432   3.668 -0.09 +0.00    +0.169 C  
DOCKED: ATOM      6  C   UNL     1     -36.851 -22.583   1.239 -0.25 -0.00    -0.001 A  
DOCKED: ATOM      7  C   UNL     1     -35.215 -23.009   3.496 -0.20 +0.00    +0.008 A  
DOCKED: ATOM      8  C   UNL     1     -36.535 -23.879   1.651 -0.14 +0.00    +0.010 A  
DOCKED: ATOM      9  C   UNL     1     -35.721 -24.090   2.774 -0.27 +0.00    +0.068 A  
DOCKED: ATOM     10  N   UNL     1     -35.158 -26.509   3.514 -1.80 -0.00    -0.191 NA 
DOCKED: ATOM     11  C   UNL     1     -35.410 -25.424   3.182 -0.42 +0.00    +0.101 C  
DOCKED: ENDROOT
DOCKED: BRANCH   2  12
DOCKED: ATOM     12  C   UNL     1     -37.950 -19.579   1.981 -0.26 +0.00    +0.038 C  
DOCKED: BRANCH  12  13
DOCKED: ATOM     13  C   UNL     1     -38.267 -18.317   1.181 -0.21 +0.00    +0.038 C  
DOCKED: BRANCH  13  14
DOCKED: ATOM     14  C   UNL     1     -37.979 -17.060   2.000 -0.07 +0.00    +0.251 C  
DOCKED: BRANCH  14  15
DOCKED: ATOM     15  N   UNL     1     -37.886 -15.896   1.128 -0.11 +0.00    +0.141 N  
DOCKED: ATOM     16  C   UNL     1     -36.503 -15.425   1.040 -0.09 +0.00    +0.285 C  
DOCKED: ATOM     17  C   UNL     1     -38.402 -16.209  -0.206 -0.16 +0.00    +0.285 C  
DOCKED: ENDBRANCH  14  15
DOCKED: ENDBRANCH  13  14
DOCKED: ENDBRANCH  12  13
DOCKED: ENDBRANCH   2  12
DOCKED: BRANCH   2  18
DOCKED: ATOM     18  C   UNL     1     -36.016 -19.583   0.416 -0.12 +0.00    +0.006 A  
DOCKED: ATOM     19  C   UNL     1     -36.541 -20.130  -0.754 -0.19 +0.00    +0.001 A  
DOCKED: ATOM     20  C   UNL     1     -36.071 -19.700  -1.995 -0.19 +0.00    +0.029 A  
DOCKED: ATOM     21  C   UNL     1     -35.077 -18.725  -2.065 -0.05 +0.00    +0.140 A  
DOCKED: ATOM     22  C   UNL     1     -34.552 -18.178  -0.895 -0.02 +0.00    +0.029 A  
DOCKED: ATOM     23  F   UNL     1     -34.627 -18.312  -3.257 +0.00 -0.00    -0.204 F  
DOCKED: ATOM     24  C   UNL     1     -35.021 -18.608   0.348 -0.03 +0.00    +0.001 A  
DOCKED: ENDBRANCH   2  18
DOCKED: TORSDOF 5
DOCKED: TER
DOCKED: ENDMDL
________________________________________________________________________________


    FINAL DOCKED STATE:
    ________________________


Run:   492 / 512
Time taken for this run:   0.002s

DOCKED: MODEL        492
DOCKED: USER    Run = 492
DOCKED: USER
DOCKED: USER    Estimated Free Energy of Binding    =  -4.22 kcal/mol  [=(1)+(2)+(3)-(4)]
DOCKED: USER
DOCKED: USER    (1) Final Intermolecular Energy     =  -5.71 kcal/mol
DOCKED: USER        vdW + Hbond + desolv Energy     =  -5.71 kcal/mol
DOCKED: USER        Electrostatic Energy            =  +0.00 kcal/mol
DOCKED: USER        Moving Ligand-Fixed Receptor    =  -5.71 kcal/mol
DOCKED: USER        Moving Ligand-Moving Receptor   =  +0.00 kcal/mol
DOCKED: USER    (2) Final Total Internal Energy     =  -1.34 kcal/mol
DOCKED: USER    (3) Torsional Free Energy           =  +1.49 kcal/mol
DOCKED: USER    (4) Unbound System's Energy         =  -1.34 kcal/mol
DOCKED: USER
DOCKED: USER
DOCKED: REMARK  5 active torsions:
DOCKED: REMARK  status: ('A' for Active; 'I' for Inactive)
DOCKED: REMARK    1  A    between atoms: C_2  and  C_19 
DOCKED: REMARK    2  A    between atoms: C_2  and  C_11 
DOCKED: REMARK    3  A    between atoms: C_19  and  C_20 
DOCKED: REMARK    4  A    between atoms: C_20  and  C_21 
DOCKED: REMARK    5  A    between atoms: C_21  and  N_22 
DOCKED: USER                              x       y       z     vdW  Elec       q    Type
DOCKED: USER                           _______ _______ _______ _____ _____    ______ ____
DOCKED: ROOT
DOCKED: ATOM      1  O   UNL     1     -36.816 -16.778  -0.289 -0.01 -0.00    -0.346 OA 
DOCKED: ATOM      2  C   UNL     1     -38.111 -16.439   0.303 -0.17 +0.00    +0.130 C  
DOCKED: ATOM      3  C   UNL     1     -38.757 -15.559  -0.728 -0.27 +0.00    +0.004 A  
DOCKED: ATOM      4  C   UNL     1     -37.952 -15.492  -1.856 -0.24 +0.00    +0.006 A  
DOCKED: ATOM      5  C   UNL     1     -36.741 -16.319  -1.659 -0.11 +0.00    +0.169 C  
DOCKED: ATOM      6  C   UNL     1     -39.967 -14.882  -0.675 -0.22 -0.00    -0.001 A  
DOCKED: ATOM      7  C   UNL     1     -38.323 -14.747  -2.962 -0.12 +0.00    +0.008 A  
DOCKED: ATOM      8  C   UNL     1     -40.353 -14.123  -1.781 -0.26 +0.00    +0.010 A  
DOCKED: ATOM      9  C   UNL     1     -39.535 -14.056  -2.919 -0.13 +0.00    +0.068 A  
DOCKED: ATOM     10  N   UNL     1     -40.284 -12.642  -4.957 -2.33 -0.00    -0.191 NA 
DOCKED: ATOM     11  C   UNL     1     -39.948 -13.276  -4.043 -0.31 +0.00    +0.101 C  
DOCKED: ENDROOT
DOCKED: BRANCH   2  12
DOCKED: ATOM     12  C   UNL     1     -38.882 -17.730   0.550 -0.25 +0.00    +0.038 C  
DOCKED: BRANCH  12  13
DOCKED: ATOM     13  C   UNL     1     -38.138 -18.646   1.519 -0.20 +0.00    +0.038 C  
DOCKED: BRANCH  13  14
DOCKED: ATOM     14  C   UNL     1     -36.824 -19.137   0.913 -0.11 +0.00    +0.251 C  
DOCKED: BRANCH  14  15
DOCKED: ATOM     15  N   UNL     1     -35.809 -19.277   1.950 -0.05 +0.00    +0.141 N  
DOCKED: ATOM     16  C   UNL     1     -34.918 -18.115   1.961 -0.01 +0.00    +0.285 C  
DOCKED: ATOM     17  C   UNL     1     -36.433 -19.450   3.263 -0.08 +0.00    +0.285 C  
DOCKED: ENDBRANCH  14  15
DOCKED: ENDBRANCH  13  14
DOCKED: ENDBRANCH  12  13
DOCKED: ENDBRANCH   2  12
DOCKED: BRANCH   2  18
DOCKED: ATOM     18  C   UNL     1     -37.831 -15.725   1.584 -0.15 +0.00    +0.006 A  
DOCKED: ATOM     19  C   UNL     1     -36.543 -15.269   1.860 -0.12 +0.00    +0.001 A  
DOCKED: ATOM     20  C   UNL     1     -36.283 -14.602   3.058 -0.10 +0.00    +0.029 A  
DOCKED: ATOM     21  C   UNL     1     -37.310 -14.393   3.977 -0.10 +0.00    +0.140 A  
DOCKED: ATOM     22  C   UNL     1     -38.599 -14.849   3.699 -0.14 +0.00    +0.029 A  
DOCKED: ATOM     23  F   UNL     1     -37.061 -13.752   5.126 -0.04 -0.00    -0.204 F  
DOCKED: ATOM     24  C   UNL     1     -38.860 -15.517   2.502 -0.18 +0.00    +0.001 A  
DOCKED: ENDBRANCH   2  18
DOCKED: TORSDOF 5
DOCKED: TER
DOCKED: ENDMDL
________________________________________________________________________________


    FINAL DOCKED STATE:
    ________________________


Run:   493 / 512
Time taken for this run:   0.002s

DOCKED: MODEL        493
DOCKED: USER    Run = 493
DOCKED: USER
DOCKED: USER    Estimated Free Energy of Binding    =  -4.69 kcal/mol  [=(1)+(2)+(3)-(4)]
DOCKED: USER
DOCKED: USER    (1) Final Intermolecular Energy     =  -6.18 kcal/mol
DOCKED: USER        vdW + Hbond + desolv Energy     =  -6.18 kcal/mol
DOCKED: USER        Electrostatic Energy            =  +0.00 kcal/mol
DOCKED: USER        Moving Ligand-Fixed Receptor    =  -6.18 kcal/mol
DOCKED: USER        Moving Ligand-Moving Receptor   =  +0.00 kcal/mol
DOCKED: USER    (2) Final Total Internal Energy     =  -1.11 kcal/mol
DOCKED: USER    (3) Torsional Free Energy           =  +1.49 kcal/mol
DOCKED: USER    (4) Unbound System's Energy         =  -1.11 kcal/mol
DOCKED: USER
DOCKED: USER
DOCKED: REMARK  5 active torsions:
DOCKED: REMARK  status: ('A' for Active; 'I' for Inactive)
DOCKED: REMARK    1  A    between atoms: C_2  and  C_19 
DOCKED: REMARK    2  A    between atoms: C_2  and  C_11 
DOCKED: REMARK    3  A    between atoms: C_19  and  C_20 
DOCKED: REMARK    4  A    between atoms: C_20  and  C_21 
DOCKED: REMARK    5  A    between atoms: C_21  and  N_22 
DOCKED: USER                              x       y       z     vdW  Elec       q    Type
DOCKED: USER                           _______ _______ _______ _____ _____    ______ ____
DOCKED: ROOT
DOCKED: ATOM      1  O   UNL     1     -40.604 -24.852   9.146 -0.08 -0.00    -0.346 OA 
DOCKED: ATOM      2  C   UNL     1     -40.872 -23.451   8.819 -0.16 +0.00    +0.130 C  
DOCKED: ATOM      3  C   UNL     1     -41.333 -23.497   7.392 -0.27 +0.00    +0.004 A  
DOCKED: ATOM      4  C   UNL     1     -41.428 -24.817   6.973 -0.35 +0.00    +0.006 A  
DOCKED: ATOM      5  C   UNL     1     -41.054 -25.723   8.082 -0.17 +0.00    +0.169 C  
DOCKED: ATOM      6  C   UNL     1     -41.655 -22.454   6.535 -0.31 -0.00    -0.001 A  
DOCKED: ATOM      7  C   UNL     1     -41.840 -25.139   5.691 -0.38 +0.00    +0.008 A  
DOCKED: ATOM      8  C   UNL     1     -42.068 -22.762   5.238 -0.30 +0.00    +0.010 A  
DOCKED: ATOM      9  C   UNL     1     -42.160 -24.098   4.818 -0.39 +0.00    +0.068 A  
DOCKED: ATOM     10  N   UNL     1     -42.936 -24.635   2.405 -1.98 -0.00    -0.191 NA 
DOCKED: ATOM     11  C   UNL     1     -42.587 -24.394   3.487 -0.53 +0.00    +0.101 C  
DOCKED: ENDROOT
DOCKED: BRANCH   2  12
DOCKED: ATOM     12  C   UNL     1     -41.941 -22.929   9.772 -0.09 +0.00    +0.038 C  
DOCKED: BRANCH  12  13
DOCKED: ATOM     13  C   UNL     1     -42.163 -23.889  10.940 -0.12 +0.00    +0.038 C  
DOCKED: BRANCH  13  14
DOCKED: ATOM     14  C   UNL     1     -43.469 -24.663  10.773 -0.08 +0.00    +0.251 C  
DOCKED: BRANCH  14  15
DOCKED: ATOM     15  N   UNL     1     -43.880 -25.244  12.045 -0.12 +0.00    +0.141 N  
DOCKED: ATOM     16  C   UNL     1     -45.029 -26.132  11.860 -0.10 +0.00    +0.285 C  
DOCKED: ATOM     17  C   UNL     1     -42.770 -25.973  12.662 -0.09 +0.00    +0.285 C  
DOCKED: ENDBRANCH  14  15
DOCKED: ENDBRANCH  13  14
DOCKED: ENDBRANCH  12  13
DOCKED: ENDBRANCH   2  12
DOCKED: BRANCH   2  18
DOCKED: ATOM     18  C   UNL     1     -39.588 -22.710   8.992 -0.16 +0.00    +0.006 A  
DOCKED: ATOM     19  C   UNL     1     -38.434 -23.156   8.350 -0.19 +0.00    +0.001 A  
DOCKED: ATOM     20  C   UNL     1     -37.234 -22.463   8.512 -0.15 +0.00    +0.029 A  
DOCKED: ATOM     21  C   UNL     1     -37.190 -21.324   9.316 -0.06 +0.00    +0.140 A  
DOCKED: ATOM     22  C   UNL     1     -38.345 -20.879   9.959 -0.04 +0.00    +0.029 A  
DOCKED: ATOM     23  F   UNL     1     -36.039 -20.658   9.471 -0.00 -0.00    -0.204 F  
DOCKED: ATOM     24  C   UNL     1     -39.546 -21.572   9.797 -0.06 +0.00    +0.001 A  
DOCKED: ENDBRANCH   2  18
DOCKED: TORSDOF 5
DOCKED: TER
DOCKED: ENDMDL
________________________________________________________________________________


    FINAL DOCKED STATE:
    ________________________


Run:   494 / 512
Time taken for this run:   0.002s

DOCKED: MODEL        494
DOCKED: USER    Run = 494
DOCKED: USER
DOCKED: USER    Estimated Free Energy of Binding    =  -3.93 kcal/mol  [=(1)+(2)+(3)-(4)]
DOCKED: USER
DOCKED: USER    (1) Final Intermolecular Energy     =  -5.42 kcal/mol
DOCKED: USER        vdW + Hbond + desolv Energy     =  -5.42 kcal/mol
DOCKED: USER        Electrostatic Energy            =  +0.00 kcal/mol
DOCKED: USER        Moving Ligand-Fixed Receptor    =  -5.42 kcal/mol
DOCKED: USER        Moving Ligand-Moving Receptor   =  +0.00 kcal/mol
DOCKED: USER    (2) Final Total Internal Energy     =  -1.29 kcal/mol
DOCKED: USER    (3) Torsional Free Energy           =  +1.49 kcal/mol
DOCKED: USER    (4) Unbound System's Energy         =  -1.29 kcal/mol
DOCKED: USER
DOCKED: USER
DOCKED: REMARK  5 active torsions:
DOCKED: REMARK  status: ('A' for Active; 'I' for Inactive)
DOCKED: REMARK    1  A    between atoms: C_2  and  C_19 
DOCKED: REMARK    2  A    between atoms: C_2  and  C_11 
DOCKED: REMARK    3  A    between atoms: C_19  and  C_20 
DOCKED: REMARK    4  A    between atoms: C_20  and  C_21 
DOCKED: REMARK    5  A    between atoms: C_21  and  N_22 
DOCKED: USER                              x       y       z     vdW  Elec       q    Type
DOCKED: USER                           _______ _______ _______ _____ _____    ______ ____
DOCKED: ROOT
DOCKED: ATOM      1  O   UNL     1     -35.261 -11.908  -0.640 -0.08 -0.00    -0.346 OA 
DOCKED: ATOM      2  C   UNL     1     -35.183 -13.273  -1.165 -0.11 +0.00    +0.130 C  
DOCKED: ATOM      3  C   UNL     1     -36.306 -13.341  -2.158 -0.15 +0.00    +0.004 A  
DOCKED: ATOM      4  C   UNL     1     -36.904 -12.094  -2.273 -0.23 +0.00    +0.006 A  
DOCKED: ATOM      5  C   UNL     1     -36.221 -11.125  -1.388 -0.16 +0.00    +0.169 C  
DOCKED: ATOM      6  C   UNL     1     -36.756 -14.418  -2.908 -0.16 -0.00    -0.001 A  
DOCKED: ATOM      7  C   UNL     1     -37.968 -11.882  -3.133 -0.32 +0.00    +0.008 A  
DOCKED: ATOM      8  C   UNL     1     -37.831 -14.221  -3.777 -0.22 +0.00    +0.010 A  
DOCKED: ATOM      9  C   UNL     1     -38.434 -12.959  -3.889 -0.35 +0.00    +0.068 A  
DOCKED: ATOM     10  N   UNL     1     -40.424 -12.627  -5.514 -2.55 -0.00    -0.191 NA 
DOCKED: ATOM     11  C   UNL     1     -39.532 -12.776  -4.785 -0.41 +0.00    +0.101 C  
DOCKED: ENDROOT
DOCKED: BRANCH   2  12
DOCKED: ATOM     12  C   UNL     1     -33.813 -13.466  -1.804 -0.04 +0.00    +0.038 C  
DOCKED: BRANCH  12  13
DOCKED: ATOM     13  C   UNL     1     -33.440 -12.280  -2.692 -0.03 +0.00    +0.038 C  
DOCKED: BRANCH  13  14
DOCKED: ATOM     14  C   UNL     1     -33.300 -12.709  -4.151 -0.00 +0.00    +0.251 C  
DOCKED: BRANCH  14  15
DOCKED: ATOM     15  N   UNL     1     -33.743 -11.641  -5.039 -0.05 +0.00    +0.141 N  
DOCKED: ATOM     16  C   UNL     1     -33.129 -11.779  -6.360 -0.02 +0.00    +0.285 C  
DOCKED: ATOM     17  C   UNL     1     -35.202 -11.639  -5.155 -0.07 +0.00    +0.285 C  
DOCKED: ENDBRANCH  14  15
DOCKED: ENDBRANCH  13  14
DOCKED: ENDBRANCH  12  13
DOCKED: ENDBRANCH   2  12
DOCKED: BRANCH   2  18
DOCKED: ATOM     18  C   UNL     1     -35.372 -14.196  -0.008 -0.12 +0.00    +0.006 A  
DOCKED: ATOM     19  C   UNL     1     -36.650 -14.421   0.502 -0.09 +0.00    +0.001 A  
DOCKED: ATOM     20  C   UNL     1     -36.826 -15.285   1.584 -0.13 +0.00    +0.029 A  
DOCKED: ATOM     21  C   UNL     1     -35.725 -15.922   2.154 -0.04 +0.00    +0.140 A  
DOCKED: ATOM     22  C   UNL     1     -34.447 -15.696   1.643 -0.03 +0.00    +0.029 A  
DOCKED: ATOM     23  F   UNL     1     -35.894 -16.752   3.191 +0.00 -0.00    -0.204 F  
DOCKED: ATOM     24  C   UNL     1     -34.270 -14.832   0.561 -0.05 +0.00    +0.001 A  
DOCKED: ENDBRANCH   2  18
DOCKED: TORSDOF 5
DOCKED: TER
DOCKED: ENDMDL
________________________________________________________________________________


    FINAL DOCKED STATE:
    ________________________


Run:   495 / 512
Time taken for this run:   0.002s

DOCKED: MODEL        495
DOCKED: USER    Run = 495
DOCKED: USER
DOCKED: USER    Estimated Free Energy of Binding    =  -5.41 kcal/mol  [=(1)+(2)+(3)-(4)]
DOCKED: USER
DOCKED: USER    (1) Final Intermolecular Energy     =  -6.90 kcal/mol
DOCKED: USER        vdW + Hbond + desolv Energy     =  -6.90 kcal/mol
DOCKED: USER        Electrostatic Energy            =  +0.00 kcal/mol
DOCKED: USER        Moving Ligand-Fixed Receptor    =  -6.90 kcal/mol
DOCKED: USER        Moving Ligand-Moving Receptor   =  +0.00 kcal/mol
DOCKED: USER    (2) Final Total Internal Energy     =  -1.48 kcal/mol
DOCKED: USER    (3) Torsional Free Energy           =  +1.49 kcal/mol
DOCKED: USER    (4) Unbound System's Energy         =  -1.48 kcal/mol
DOCKED: USER
DOCKED: USER
DOCKED: REMARK  5 active torsions:
DOCKED: REMARK  status: ('A' for Active; 'I' for Inactive)
DOCKED: REMARK    1  A    between atoms: C_2  and  C_19 
DOCKED: REMARK    2  A    between atoms: C_2  and  C_11 
DOCKED: REMARK    3  A    between atoms: C_19  and  C_20 
DOCKED: REMARK    4  A    between atoms: C_20  and  C_21 
DOCKED: REMARK    5  A    between atoms: C_21  and  N_22 
DOCKED: USER                              x       y       z     vdW  Elec       q    Type
DOCKED: USER                           _______ _______ _______ _____ _____    ______ ____
DOCKED: ROOT
DOCKED: ATOM      1  O   UNL     1     -41.392 -21.823   7.847 -0.04 -0.00    -0.346 OA 
DOCKED: ATOM      2  C   UNL     1     -40.881 -23.194   7.878 -0.21 +0.00    +0.130 C  
DOCKED: ATOM      3  C   UNL     1     -41.363 -23.787   6.586 -0.34 +0.00    +0.004 A  
DOCKED: ATOM      4  C   UNL     1     -41.998 -22.810   5.832 -0.34 +0.00    +0.006 A  
DOCKED: ATOM      5  C   UNL     1     -41.970 -21.519   6.556 -0.23 +0.00    +0.169 C  
DOCKED: ATOM      6  C   UNL     1     -41.239 -25.084   6.111 -0.40 -0.00    -0.001 A  
DOCKED: ATOM      7  C   UNL     1     -42.532 -23.095   4.587 -0.15 +0.00    +0.008 A  
DOCKED: ATOM      8  C   UNL     1     -41.777 -25.388   4.859 -0.44 +0.00    +0.010 A  
DOCKED: ATOM      9  C   UNL     1     -42.419 -24.398   4.101 -0.44 +0.00    +0.068 A  
DOCKED: ATOM     10  N   UNL     1     -43.401 -24.995   1.778 -2.54 -0.00    -0.191 NA 
DOCKED: ATOM     11  C   UNL     1     -42.961 -24.727   2.820 -0.42 +0.00    +0.101 C  
DOCKED: ENDROOT
DOCKED: BRANCH   2  12
DOCKED: ATOM     12  C   UNL     1     -39.361 -23.140   7.976 -0.24 +0.00    +0.038 C  
DOCKED: BRANCH  12  13
DOCKED: ATOM     13  C   UNL     1     -38.854 -21.699   7.985 -0.15 +0.00    +0.038 C  
DOCKED: BRANCH  13  14
DOCKED: ATOM     14  C   UNL     1     -38.722 -21.172   9.412 -0.05 +0.00    +0.251 C  
DOCKED: BRANCH  14  15
DOCKED: ATOM     15  N   UNL     1     -38.901 -22.255  10.372 -0.05 +0.00    +0.141 N  
DOCKED: ATOM     16  C   UNL     1     -37.605 -22.747  10.842 -0.05 +0.00    +0.285 C  
DOCKED: ATOM     17  C   UNL     1     -39.717 -21.812  11.503 -0.01 +0.00    +0.285 C  
DOCKED: ENDBRANCH  14  15
DOCKED: ENDBRANCH  13  14
DOCKED: ENDBRANCH  12  13
DOCKED: ENDBRANCH   2  12
DOCKED: BRANCH   2  18
DOCKED: ATOM     18  C   UNL     1     -41.474 -23.853   9.078 -0.17 +0.00    +0.006 A  
DOCKED: ATOM     19  C   UNL     1     -40.824 -24.934   9.672 -0.10 +0.00    +0.001 A  
DOCKED: ATOM     20  C   UNL     1     -41.381 -25.550  10.794 -0.19 +0.00    +0.029 A  
DOCKED: ATOM     21  C   UNL     1     -42.585 -25.084  11.320 -0.10 +0.00    +0.140 A  
DOCKED: ATOM     22  C   UNL     1     -43.234 -24.003  10.725 -0.10 +0.00    +0.029 A  
DOCKED: ATOM     23  F   UNL     1     -43.118 -25.674  12.398 -0.03 -0.00    -0.204 F  
DOCKED: ATOM     24  C   UNL     1     -42.679 -23.386   9.603 -0.10 +0.00    +0.001 A  
DOCKED: ENDBRANCH   2  18
DOCKED: TORSDOF 5
DOCKED: TER
DOCKED: ENDMDL
________________________________________________________________________________


    FINAL DOCKED STATE:
    ________________________


Run:   496 / 512
Time taken for this run:   0.002s

DOCKED: MODEL        496
DOCKED: USER    Run = 496
DOCKED: USER
DOCKED: USER    Estimated Free Energy of Binding    =  -3.72 kcal/mol  [=(1)+(2)+(3)-(4)]
DOCKED: USER
DOCKED: USER    (1) Final Intermolecular Energy     =  -5.22 kcal/mol
DOCKED: USER        vdW + Hbond + desolv Energy     =  -5.22 kcal/mol
DOCKED: USER        Electrostatic Energy            =  +0.00 kcal/mol
DOCKED: USER        Moving Ligand-Fixed Receptor    =  -5.22 kcal/mol
DOCKED: USER        Moving Ligand-Moving Receptor   =  +0.00 kcal/mol
DOCKED: USER    (2) Final Total Internal Energy     =  -1.31 kcal/mol
DOCKED: USER    (3) Torsional Free Energy           =  +1.49 kcal/mol
DOCKED: USER    (4) Unbound System's Energy         =  -1.31 kcal/mol
DOCKED: USER
DOCKED: USER
DOCKED: REMARK  5 active torsions:
DOCKED: REMARK  status: ('A' for Active; 'I' for Inactive)
DOCKED: REMARK    1  A    between atoms: C_2  and  C_19 
DOCKED: REMARK    2  A    between atoms: C_2  and  C_11 
DOCKED: REMARK    3  A    between atoms: C_19  and  C_20 
DOCKED: REMARK    4  A    between atoms: C_20  and  C_21 
DOCKED: REMARK    5  A    between atoms: C_21  and  N_22 
DOCKED: USER                              x       y       z     vdW  Elec       q    Type
DOCKED: USER                           _______ _______ _______ _____ _____    ______ ____
DOCKED: ROOT
DOCKED: ATOM      1  O   UNL     1     -41.251 -19.887   8.603 -0.01 -0.00    -0.346 OA 
DOCKED: ATOM      2  C   UNL     1     -40.055 -20.680   8.314 -0.10 +0.00    +0.130 C  
DOCKED: ATOM      3  C   UNL     1     -40.594 -21.915   7.651 -0.20 +0.00    +0.004 A  
DOCKED: ATOM      4  C   UNL     1     -41.965 -21.791   7.476 -0.19 +0.00    +0.006 A  
DOCKED: ATOM      5  C   UNL     1     -42.420 -20.480   7.991 -0.10 +0.00    +0.169 C  
DOCKED: ATOM      6  C   UNL     1     -39.922 -23.052   7.227 -0.12 -0.00    -0.001 A  
DOCKED: ATOM      7  C   UNL     1     -42.708 -22.794   6.879 -0.24 +0.00    +0.008 A  
DOCKED: ATOM      8  C   UNL     1     -40.658 -24.075   6.627 -0.33 +0.00    +0.010 A  
DOCKED: ATOM      9  C   UNL     1     -42.045 -23.946   6.454 -0.29 +0.00    +0.068 A  
DOCKED: ATOM     10  N   UNL     1     -43.381 -25.861   5.332 -2.49 -0.00    -0.191 NA 
DOCKED: ATOM     11  C   UNL     1     -42.782 -25.002   5.836 -0.35 +0.00    +0.101 C  
DOCKED: ENDROOT
DOCKED: BRANCH   2  12
DOCKED: ATOM     12  C   UNL     1     -39.146 -19.865   7.401 -0.14 +0.00    +0.038 C  
DOCKED: BRANCH  12  13
DOCKED: ATOM     13  C   UNL     1     -39.893 -19.375   6.163 -0.17 +0.00    +0.038 C  
DOCKED: BRANCH  13  14
DOCKED: ATOM     14  C   UNL     1     -40.275 -17.902   6.299 -0.09 +0.00    +0.251 C  
DOCKED: BRANCH  14  15
DOCKED: ATOM     15  N   UNL     1     -41.528 -17.769   7.033 -0.08 +0.00    +0.141 N  
DOCKED: ATOM     16  C   UNL     1     -41.502 -16.581   7.887 -0.02 +0.00    +0.285 C  
DOCKED: ATOM     17  C   UNL     1     -42.662 -17.704   6.109 -0.13 +0.00    +0.285 C  
DOCKED: ENDBRANCH  14  15
DOCKED: ENDBRANCH  13  14
DOCKED: ENDBRANCH  12  13
DOCKED: ENDBRANCH   2  12
DOCKED: BRANCH   2  18
DOCKED: ATOM     18  C   UNL     1     -39.393 -20.962   9.621 -0.05 +0.00    +0.006 A  
DOCKED: ATOM     19  C   UNL     1     -38.214 -20.301   9.962 -0.03 +0.00    +0.001 A  
DOCKED: ATOM     20  C   UNL     1     -37.596 -20.567  11.184 -0.01 +0.00    +0.029 A  
DOCKED: ATOM     21  C   UNL     1     -38.157 -21.492  12.063 -0.01 +0.00    +0.140 A  
DOCKED: ATOM     22  C   UNL     1     -39.336 -22.153  11.721 -0.03 +0.00    +0.029 A  
DOCKED: ATOM     23  F   UNL     1     -37.564 -21.745  13.237 +0.00 -0.00    -0.204 F  
DOCKED: ATOM     24  C   UNL     1     -39.955 -21.888  10.499 -0.05 +0.00    +0.001 A  
DOCKED: ENDBRANCH   2  18
DOCKED: TORSDOF 5
DOCKED: TER
DOCKED: ENDMDL
________________________________________________________________________________


    FINAL DOCKED STATE:
    ________________________


Run:   497 / 512
Time taken for this run:   0.002s

DOCKED: MODEL        497
DOCKED: USER    Run = 497
DOCKED: USER
DOCKED: USER    Estimated Free Energy of Binding    =  -5.39 kcal/mol  [=(1)+(2)+(3)-(4)]
DOCKED: USER
DOCKED: USER    (1) Final Intermolecular Energy     =  -6.88 kcal/mol
DOCKED: USER        vdW + Hbond + desolv Energy     =  -6.88 kcal/mol
DOCKED: USER        Electrostatic Energy            =  +0.00 kcal/mol
DOCKED: USER        Moving Ligand-Fixed Receptor    =  -6.88 kcal/mol
DOCKED: USER        Moving Ligand-Moving Receptor   =  +0.00 kcal/mol
DOCKED: USER    (2) Final Total Internal Energy     =  -1.05 kcal/mol
DOCKED: USER    (3) Torsional Free Energy           =  +1.49 kcal/mol
DOCKED: USER    (4) Unbound System's Energy         =  -1.05 kcal/mol
DOCKED: USER
DOCKED: USER
DOCKED: REMARK  5 active torsions:
DOCKED: REMARK  status: ('A' for Active; 'I' for Inactive)
DOCKED: REMARK    1  A    between atoms: C_2  and  C_19 
DOCKED: REMARK    2  A    between atoms: C_2  and  C_11 
DOCKED: REMARK    3  A    between atoms: C_19  and  C_20 
DOCKED: REMARK    4  A    between atoms: C_20  and  C_21 
DOCKED: REMARK    5  A    between atoms: C_21  and  N_22 
DOCKED: USER                              x       y       z     vdW  Elec       q    Type
DOCKED: USER                           _______ _______ _______ _____ _____    ______ ____
DOCKED: ROOT
DOCKED: ATOM      1  O   UNL     1     -44.729 -24.480   8.568 -0.06 -0.00    -0.346 OA 
DOCKED: ATOM      2  C   UNL     1     -43.701 -23.462   8.344 -0.11 +0.00    +0.130 C  
DOCKED: ATOM      3  C   UNL     1     -43.435 -23.539   6.868 -0.23 +0.00    +0.004 A  
DOCKED: ATOM      4  C   UNL     1     -44.311 -24.442   6.282 -0.27 +0.00    +0.006 A  
DOCKED: ATOM      5  C   UNL     1     -45.212 -25.008   7.311 -0.03 +0.00    +0.169 C  
DOCKED: ATOM      6  C   UNL     1     -42.501 -22.856   6.104 -0.32 -0.00    -0.001 A  
DOCKED: ATOM      7  C   UNL     1     -44.281 -24.696   4.922 -0.37 +0.00    +0.008 A  
DOCKED: ATOM      8  C   UNL     1     -42.455 -23.104   4.731 -0.23 +0.00    +0.010 A  
DOCKED: ATOM      9  C   UNL     1     -43.341 -24.020   4.143 -0.32 +0.00    +0.068 A  
DOCKED: ATOM     10  N   UNL     1     -43.232 -24.453   1.591 -2.96 -0.00    -0.191 NA 
DOCKED: ATOM     11  C   UNL     1     -43.280 -24.259   2.736 -0.25 +0.00    +0.101 C  
DOCKED: ENDROOT
DOCKED: BRANCH   2  12
DOCKED: ATOM     12  C   UNL     1     -44.258 -22.111   8.776 -0.10 +0.00    +0.038 C  
DOCKED: BRANCH  12  13
DOCKED: ATOM     13  C   UNL     1     -45.453 -21.700   7.918 -0.18 +0.00    +0.038 C  
DOCKED: BRANCH  13  14
DOCKED: ATOM     14  C   UNL     1     -45.607 -20.180   7.883 -0.09 +0.00    +0.251 C  
DOCKED: BRANCH  14  15
DOCKED: ATOM     15  N   UNL     1     -44.816 -19.615   6.796 -0.21 +0.00    +0.141 N  
DOCKED: ATOM     16  C   UNL     1     -45.363 -18.324   6.378 -0.08 +0.00    +0.285 C  
DOCKED: ATOM     17  C   UNL     1     -43.417 -19.467   7.200 -0.15 +0.00    +0.285 C  
DOCKED: ENDBRANCH  14  15
DOCKED: ENDBRANCH  13  14
DOCKED: ENDBRANCH  12  13
DOCKED: ENDBRANCH   2  12
DOCKED: BRANCH   2  18
DOCKED: ATOM     18  C   UNL     1     -42.519 -23.846   9.169 -0.14 +0.00    +0.006 A  
DOCKED: ATOM     19  C   UNL     1     -42.678 -24.702  10.258 -0.18 +0.00    +0.001 A  
DOCKED: ATOM     20  C   UNL     1     -41.571 -25.060  11.029 -0.20 +0.00    +0.029 A  
DOCKED: ATOM     21  C   UNL     1     -40.308 -24.564  10.709 -0.08 +0.00    +0.140 A  
DOCKED: ATOM     22  C   UNL     1     -40.150 -23.708   9.620 -0.13 +0.00    +0.029 A  
DOCKED: ATOM     23  F   UNL     1     -39.246 -24.909  11.448 -0.03 -0.00    -0.204 F  
DOCKED: ATOM     24  C   UNL     1     -41.257 -23.348   8.848 -0.16 +0.00    +0.001 A  
DOCKED: ENDBRANCH   2  18
DOCKED: TORSDOF 5
DOCKED: TER
DOCKED: ENDMDL
________________________________________________________________________________


    FINAL DOCKED STATE:
    ________________________


Run:   498 / 512
Time taken for this run:   0.002s

DOCKED: MODEL        498
DOCKED: USER    Run = 498
DOCKED: USER
DOCKED: USER    Estimated Free Energy of Binding    =  -4.27 kcal/mol  [=(1)+(2)+(3)-(4)]
DOCKED: USER
DOCKED: USER    (1) Final Intermolecular Energy     =  -5.76 kcal/mol
DOCKED: USER        vdW + Hbond + desolv Energy     =  -5.76 kcal/mol
DOCKED: USER        Electrostatic Energy            =  +0.00 kcal/mol
DOCKED: USER        Moving Ligand-Fixed Receptor    =  -5.76 kcal/mol
DOCKED: USER        Moving Ligand-Moving Receptor   =  +0.00 kcal/mol
DOCKED: USER    (2) Final Total Internal Energy     =  -1.40 kcal/mol
DOCKED: USER    (3) Torsional Free Energy           =  +1.49 kcal/mol
DOCKED: USER    (4) Unbound System's Energy         =  -1.40 kcal/mol
DOCKED: USER
DOCKED: USER
DOCKED: REMARK  5 active torsions:
DOCKED: REMARK  status: ('A' for Active; 'I' for Inactive)
DOCKED: REMARK    1  A    between atoms: C_2  and  C_19 
DOCKED: REMARK    2  A    between atoms: C_2  and  C_11 
DOCKED: REMARK    3  A    between atoms: C_19  and  C_20 
DOCKED: REMARK    4  A    between atoms: C_20  and  C_21 
DOCKED: REMARK    5  A    between atoms: C_21  and  N_22 
DOCKED: USER                              x       y       z     vdW  Elec       q    Type
DOCKED: USER                           _______ _______ _______ _____ _____    ______ ____
DOCKED: ROOT
DOCKED: ATOM      1  O   UNL     1     -38.938 -21.094   8.077 -0.07 -0.00    -0.346 OA 
DOCKED: ATOM      2  C   UNL     1     -40.156 -20.422   7.621 -0.14 +0.00    +0.130 C  
DOCKED: ATOM      3  C   UNL     1     -40.987 -21.534   7.049 -0.24 +0.00    +0.004 A  
DOCKED: ATOM      4  C   UNL     1     -40.350 -22.749   7.259 -0.24 +0.00    +0.006 A  
DOCKED: ATOM      5  C   UNL     1     -39.079 -22.531   7.985 -0.13 +0.00    +0.169 C  
DOCKED: ATOM      6  C   UNL     1     -42.214 -21.476   6.404 -0.26 -0.00    -0.001 A  
DOCKED: ATOM      7  C   UNL     1     -40.911 -23.940   6.831 -0.34 +0.00    +0.008 A  
DOCKED: ATOM      8  C   UNL     1     -42.790 -22.668   5.962 -0.27 +0.00    +0.010 A  
DOCKED: ATOM      9  C   UNL     1     -42.142 -23.894   6.175 -0.31 +0.00    +0.068 A  
DOCKED: ATOM     10  N   UNL     1     -43.242 -26.089   5.347 -2.55 -0.00    -0.191 NA 
DOCKED: ATOM     11  C   UNL     1     -42.749 -25.104   5.718 -0.33 +0.00    +0.101 C  
DOCKED: ENDROOT
DOCKED: BRANCH   2  12
DOCKED: ATOM     12  C   UNL     1     -40.813 -19.747   8.820 -0.06 +0.00    +0.038 C  
DOCKED: BRANCH  12  13
DOCKED: ATOM     13  C   UNL     1     -41.985 -20.571   9.350 -0.05 +0.00    +0.038 C  
DOCKED: BRANCH  13  14
DOCKED: ATOM     14  C   UNL     1     -41.519 -21.574  10.403 -0.01 +0.00    +0.251 C  
DOCKED: BRANCH  14  15
DOCKED: ATOM     15  N   UNL     1     -42.179 -22.859  10.207 -0.04 +0.00    +0.141 N  
DOCKED: ATOM     16  C   UNL     1     -41.888 -23.765  11.319 -0.05 +0.00    +0.285 C  
DOCKED: ATOM     17  C   UNL     1     -43.625 -22.680  10.064 -0.01 +0.00    +0.285 C  
DOCKED: ENDBRANCH  14  15
DOCKED: ENDBRANCH  13  14
DOCKED: ENDBRANCH  12  13
DOCKED: ENDBRANCH   2  12
DOCKED: BRANCH   2  18
DOCKED: ATOM     18  C   UNL     1     -39.743 -19.418   6.597 -0.16 +0.00    +0.006 A  
DOCKED: ATOM     19  C   UNL     1     -40.336 -18.157   6.580 -0.12 +0.00    +0.001 A  
DOCKED: ATOM     20  C   UNL     1     -39.949 -17.219   5.621 -0.10 +0.00    +0.029 A  
DOCKED: ATOM     21  C   UNL     1     -38.970 -17.544   4.684 -0.07 +0.00    +0.140 A  
DOCKED: ATOM     22  C   UNL     1     -38.377 -18.806   4.702 -0.14 +0.00    +0.029 A  
DOCKED: ATOM     23  F   UNL     1     -38.598 -16.643   3.765 -0.01 -0.00    -0.204 F  
DOCKED: ATOM     24  C   UNL     1     -38.764 -19.745   5.660 -0.08 +0.00    +0.001 A  
DOCKED: ENDBRANCH   2  18
DOCKED: TORSDOF 5
DOCKED: TER
DOCKED: ENDMDL
________________________________________________________________________________


    FINAL DOCKED STATE:
    ________________________


Run:   499 / 512
Time taken for this run:   0.002s

DOCKED: MODEL        499
DOCKED: USER    Run = 499
DOCKED: USER
DOCKED: USER    Estimated Free Energy of Binding    =  -4.15 kcal/mol  [=(1)+(2)+(3)-(4)]
DOCKED: USER
DOCKED: USER    (1) Final Intermolecular Energy     =  -5.65 kcal/mol
DOCKED: USER        vdW + Hbond + desolv Energy     =  -5.65 kcal/mol
DOCKED: USER        Electrostatic Energy            =  +0.00 kcal/mol
DOCKED: USER        Moving Ligand-Fixed Receptor    =  -5.65 kcal/mol
DOCKED: USER        Moving Ligand-Moving Receptor   =  +0.00 kcal/mol
DOCKED: USER    (2) Final Total Internal Energy     =  -1.38 kcal/mol
DOCKED: USER    (3) Torsional Free Energy           =  +1.49 kcal/mol
DOCKED: USER    (4) Unbound System's Energy         =  -1.38 kcal/mol
DOCKED: USER
DOCKED: USER
DOCKED: REMARK  5 active torsions:
DOCKED: REMARK  status: ('A' for Active; 'I' for Inactive)
DOCKED: REMARK    1  A    between atoms: C_2  and  C_19 
DOCKED: REMARK    2  A    between atoms: C_2  and  C_11 
DOCKED: REMARK    3  A    between atoms: C_19  and  C_20 
DOCKED: REMARK    4  A    between atoms: C_20  and  C_21 
DOCKED: REMARK    5  A    between atoms: C_21  and  N_22 
DOCKED: USER                              x       y       z     vdW  Elec       q    Type
DOCKED: USER                           _______ _______ _______ _____ _____    ______ ____
DOCKED: ROOT
DOCKED: ATOM      1  O   UNL     1     -38.893 -21.412   8.514 -0.06 -0.00    -0.346 OA 
DOCKED: ATOM      2  C   UNL     1     -39.990 -20.664   7.898 -0.13 +0.00    +0.130 C  
DOCKED: ATOM      3  C   UNL     1     -40.803 -21.721   7.207 -0.23 +0.00    +0.004 A  
DOCKED: ATOM      4  C   UNL     1     -40.280 -22.974   7.495 -0.25 +0.00    +0.006 A  
DOCKED: ATOM      5  C   UNL     1     -39.111 -22.837   8.393 -0.17 +0.00    +0.169 C  
DOCKED: ATOM      6  C   UNL     1     -41.922 -21.586   6.399 -0.27 -0.00    -0.001 A  
DOCKED: ATOM      7  C   UNL     1     -40.851 -24.127   6.985 -0.34 +0.00    +0.008 A  
DOCKED: ATOM      8  C   UNL     1     -42.506 -22.739   5.873 -0.31 +0.00    +0.010 A  
DOCKED: ATOM      9  C   UNL     1     -41.973 -24.004   6.165 -0.32 +0.00    +0.068 A  
DOCKED: ATOM     10  N   UNL     1     -43.086 -26.125   5.177 -2.48 -0.00    -0.191 NA 
DOCKED: ATOM     11  C   UNL     1     -42.586 -25.173   5.620 -0.33 +0.00    +0.101 C  
DOCKED: ENDROOT
DOCKED: BRANCH   2  12
DOCKED: ATOM     12  C   UNL     1     -40.762 -19.946   8.998 -0.05 +0.00    +0.038 C  
DOCKED: BRANCH  12  13
DOCKED: ATOM     13  C   UNL     1     -39.864 -19.626  10.191 -0.02 +0.00    +0.038 C  
DOCKED: BRANCH  13  14
DOCKED: ATOM     14  C   UNL     1     -39.144 -18.293   9.995 -0.00 +0.00    +0.251 C  
DOCKED: BRANCH  14  15
DOCKED: ATOM     15  N   UNL     1     -37.756 -18.398  10.427 -0.00 +0.00    +0.141 N  
DOCKED: ATOM     16  C   UNL     1     -36.851 -17.933   9.375 -0.00 +0.00    +0.285 C  
DOCKED: ATOM     17  C   UNL     1     -37.539 -17.634  11.657 -0.00 +0.00    +0.285 C  
DOCKED: ENDBRANCH  14  15
DOCKED: ENDBRANCH  13  14
DOCKED: ENDBRANCH  12  13
DOCKED: ENDBRANCH   2  12
DOCKED: BRANCH   2  18
DOCKED: ATOM     18  C   UNL     1     -39.375 -19.691   6.948 -0.15 +0.00    +0.006 A  
DOCKED: ATOM     19  C   UNL     1     -40.085 -18.556   6.557 -0.13 +0.00    +0.001 A  
DOCKED: ATOM     20  C   UNL     1     -39.509 -17.647   5.668 -0.10 +0.00    +0.029 A  
DOCKED: ATOM     21  C   UNL     1     -38.225 -17.873   5.174 -0.07 +0.00    +0.140 A  
DOCKED: ATOM     22  C   UNL     1     -37.516 -19.008   5.566 -0.11 +0.00    +0.029 A  
DOCKED: ATOM     23  F   UNL     1     -37.672 -16.999   4.323 -0.01 -0.00    -0.204 F  
DOCKED: ATOM     24  C   UNL     1     -38.092 -19.918   6.454 -0.10 +0.00    +0.001 A  
DOCKED: ENDBRANCH   2  18
DOCKED: TORSDOF 5
DOCKED: TER
DOCKED: ENDMDL
________________________________________________________________________________


    FINAL DOCKED STATE:
    ________________________


Run:   500 / 512
Time taken for this run:   0.002s

DOCKED: MODEL        500
DOCKED: USER    Run = 500
DOCKED: USER
DOCKED: USER    Estimated Free Energy of Binding    =  -3.35 kcal/mol  [=(1)+(2)+(3)-(4)]
DOCKED: USER
DOCKED: USER    (1) Final Intermolecular Energy     =  -4.85 kcal/mol
DOCKED: USER        vdW + Hbond + desolv Energy     =  -4.85 kcal/mol
DOCKED: USER        Electrostatic Energy            =  +0.00 kcal/mol
DOCKED: USER        Moving Ligand-Fixed Receptor    =  -4.85 kcal/mol
DOCKED: USER        Moving Ligand-Moving Receptor   =  +0.00 kcal/mol
DOCKED: USER    (2) Final Total Internal Energy     =  -1.05 kcal/mol
DOCKED: USER    (3) Torsional Free Energy           =  +1.49 kcal/mol
DOCKED: USER    (4) Unbound System's Energy         =  -1.05 kcal/mol
DOCKED: USER
DOCKED: USER
DOCKED: REMARK  5 active torsions:
DOCKED: REMARK  status: ('A' for Active; 'I' for Inactive)
DOCKED: REMARK    1  A    between atoms: C_2  and  C_19 
DOCKED: REMARK    2  A    between atoms: C_2  and  C_11 
DOCKED: REMARK    3  A    between atoms: C_19  and  C_20 
DOCKED: REMARK    4  A    between atoms: C_20  and  C_21 
DOCKED: REMARK    5  A    between atoms: C_21  and  N_22 
DOCKED: USER                              x       y       z     vdW  Elec       q    Type
DOCKED: USER                           _______ _______ _______ _____ _____    ______ ____
DOCKED: ROOT
DOCKED: ATOM      1  O   UNL     1     -39.367  -6.615   3.280 -0.04 -0.00    -0.346 OA 
DOCKED: ATOM      2  C   UNL     1     -39.727  -6.233   1.914 -0.10 +0.00    +0.130 C  
DOCKED: ATOM      3  C   UNL     1     -41.179  -6.602   1.809 -0.15 +0.00    +0.004 A  
DOCKED: ATOM      4  C   UNL     1     -41.637  -7.050   3.040 -0.11 +0.00    +0.006 A  
DOCKED: ATOM      5  C   UNL     1     -40.541  -6.999   4.033 -0.07 +0.00    +0.169 C  
DOCKED: ATOM      6  C   UNL     1     -42.029  -6.534   0.715 -0.22 -0.00    -0.001 A  
DOCKED: ATOM      7  C   UNL     1     -42.951  -7.449   3.218 -0.12 +0.00    +0.008 A  
DOCKED: ATOM      8  C   UNL     1     -43.355  -6.936   0.877 -0.23 +0.00    +0.010 A  
DOCKED: ATOM      9  C   UNL     1     -43.814  -7.391   2.123 -0.16 +0.00    +0.068 A  
DOCKED: ATOM     10  N   UNL     1     -46.284  -8.125   2.391 -1.81 -0.00    -0.191 NA 
DOCKED: ATOM     11  C   UNL     1     -45.176  -7.796   2.270 -0.10 +0.00    +0.101 C  
DOCKED: ENDROOT
DOCKED: BRANCH   2  12
DOCKED: ATOM     12  C   UNL     1     -39.480  -4.738   1.749 -0.05 +0.00    +0.038 C  
DOCKED: BRANCH  12  13
DOCKED: ATOM     13  C   UNL     1     -38.643  -4.446   0.506 -0.05 +0.00    +0.038 C  
DOCKED: BRANCH  13  14
DOCKED: ATOM     14  C   UNL     1     -38.944  -3.053  -0.044 -0.00 +0.00    +0.251 C  
DOCKED: BRANCH  14  15
DOCKED: ATOM     15  N   UNL     1     -39.327  -3.133  -1.448 -0.04 +0.00    +0.141 N  
DOCKED: ATOM     16  C   UNL     1     -38.745  -4.320  -2.075 -0.04 +0.00    +0.285 C  
DOCKED: ATOM     17  C   UNL     1     -40.785  -3.151  -1.584 -0.02 +0.00    +0.285 C  
DOCKED: ENDBRANCH  14  15
DOCKED: ENDBRANCH  13  14
DOCKED: ENDBRANCH  12  13
DOCKED: ENDBRANCH   2  12
DOCKED: BRANCH   2  18
DOCKED: ATOM     18  C   UNL     1     -38.858  -7.027   0.996 -0.20 +0.00    +0.006 A  
DOCKED: ATOM     19  C   UNL     1     -37.580  -7.407   1.403 -0.18 +0.00    +0.001 A  
DOCKED: ATOM     20  C   UNL     1     -36.768  -8.149   0.543 -0.20 +0.00    +0.029 A  
DOCKED: ATOM     21  C   UNL     1     -37.235  -8.509  -0.720 -0.26 +0.00    +0.140 A  
DOCKED: ATOM     22  C   UNL     1     -38.514  -8.128  -1.126 -0.26 +0.00    +0.029 A  
DOCKED: ATOM     23  F   UNL     1     -36.457  -9.222  -1.544 -0.07 -0.00    -0.204 F  
DOCKED: ATOM     24  C   UNL     1     -39.326  -7.386  -0.267 -0.34 +0.00    +0.001 A  
DOCKED: ENDBRANCH   2  18
DOCKED: TORSDOF 5
DOCKED: TER
DOCKED: ENDMDL
________________________________________________________________________________


    FINAL DOCKED STATE:
    ________________________


Run:   501 / 512
Time taken for this run:   0.002s

DOCKED: MODEL        501
DOCKED: USER    Run = 501
DOCKED: USER
DOCKED: USER    Estimated Free Energy of Binding    =  -6.91 kcal/mol  [=(1)+(2)+(3)-(4)]
DOCKED: USER
DOCKED: USER    (1) Final Intermolecular Energy     =  -8.41 kcal/mol
DOCKED: USER        vdW + Hbond + desolv Energy     =  -8.41 kcal/mol
DOCKED: USER        Electrostatic Energy            =  +0.00 kcal/mol
DOCKED: USER        Moving Ligand-Fixed Receptor    =  -8.41 kcal/mol
DOCKED: USER        Moving Ligand-Moving Receptor   =  +0.00 kcal/mol
DOCKED: USER    (2) Final Total Internal Energy     =  -1.16 kcal/mol
DOCKED: USER    (3) Torsional Free Energy           =  +1.49 kcal/mol
DOCKED: USER    (4) Unbound System's Energy         =  -1.16 kcal/mol
DOCKED: USER
DOCKED: USER
DOCKED: REMARK  5 active torsions:
DOCKED: REMARK  status: ('A' for Active; 'I' for Inactive)
DOCKED: REMARK    1  A    between atoms: C_2  and  C_19 
DOCKED: REMARK    2  A    between atoms: C_2  and  C_11 
DOCKED: REMARK    3  A    between atoms: C_19  and  C_20 
DOCKED: REMARK    4  A    between atoms: C_20  and  C_21 
DOCKED: REMARK    5  A    between atoms: C_21  and  N_22 
DOCKED: USER                              x       y       z     vdW  Elec       q    Type
DOCKED: USER                           _______ _______ _______ _____ _____    ______ ____
DOCKED: ROOT
DOCKED: ATOM      1  O   UNL     1     -40.370 -25.538   7.514 -0.48 -0.00    -0.346 OA 
DOCKED: ATOM      2  C   UNL     1     -41.552 -24.705   7.740 -0.27 +0.00    +0.130 C  
DOCKED: ATOM      3  C   UNL     1     -42.153 -24.555   6.373 -0.36 +0.00    +0.004 A  
DOCKED: ATOM      4  C   UNL     1     -41.443 -25.325   5.463 -0.41 +0.00    +0.006 A  
DOCKED: ATOM      5  C   UNL     1     -40.346 -26.037   6.156 -0.15 +0.00    +0.169 C  
DOCKED: ATOM      6  C   UNL     1     -43.249 -23.806   5.968 -0.31 -0.00    -0.001 A  
DOCKED: ATOM      7  C   UNL     1     -41.796 -25.370   4.125 -0.36 +0.00    +0.008 A  
DOCKED: ATOM      8  C   UNL     1     -43.616 -23.838   4.622 -0.30 +0.00    +0.010 A  
DOCKED: ATOM      9  C   UNL     1     -42.893 -24.616   3.705 -0.46 +0.00    +0.068 A  
DOCKED: ATOM     10  N   UNL     1     -43.604 -24.656   1.214 -3.27 -0.00    -0.191 NA 
DOCKED: ATOM     11  C   UNL     1     -43.284 -24.637   2.331 -0.29 +0.00    +0.101 C  
DOCKED: ENDROOT
DOCKED: BRANCH   2  12
DOCKED: ATOM     12  C   UNL     1     -42.472 -25.427   8.717 -0.29 +0.00    +0.038 C  
DOCKED: BRANCH  12  13
DOCKED: ATOM     13  C   UNL     1     -42.272 -24.926  10.146 -0.22 +0.00    +0.038 C  
DOCKED: BRANCH  13  14
DOCKED: ATOM     14  C   UNL     1     -41.121 -25.662  10.830 -0.14 +0.00    +0.251 C  
DOCKED: BRANCH  14  15
DOCKED: ATOM     15  N   UNL     1     -40.790 -25.020  12.096 -0.15 +0.00    +0.141 N  
DOCKED: ATOM     16  C   UNL     1     -40.752 -26.004  13.179 -0.14 +0.00    +0.285 C  
DOCKED: ATOM     17  C   UNL     1     -39.508 -24.320  12.000 -0.09 +0.00    +0.285 C  
DOCKED: ENDBRANCH  14  15
DOCKED: ENDBRANCH  13  14
DOCKED: ENDBRANCH  12  13
DOCKED: ENDBRANCH   2  12
DOCKED: BRANCH   2  18
DOCKED: ATOM     18  C   UNL     1     -41.072 -23.412   8.309 -0.20 +0.00    +0.006 A  
DOCKED: ATOM     19  C   UNL     1     -39.733 -23.263   8.669 -0.20 +0.00    +0.001 A  
DOCKED: ATOM     20  C   UNL     1     -39.285 -22.054   9.201 -0.12 +0.00    +0.029 A  
DOCKED: ATOM     21  C   UNL     1     -40.175 -20.995   9.372 -0.04 +0.00    +0.140 A  
DOCKED: ATOM     22  C   UNL     1     -41.514 -21.144   9.012 -0.06 +0.00    +0.029 A  
DOCKED: ATOM     23  F   UNL     1     -39.745 -19.833   9.881 +0.00 -0.00    -0.204 F  
DOCKED: ATOM     24  C   UNL     1     -41.964 -22.354   8.480 -0.11 +0.00    +0.001 A  
DOCKED: ENDBRANCH   2  18
DOCKED: TORSDOF 5
DOCKED: TER
DOCKED: ENDMDL
________________________________________________________________________________


    FINAL DOCKED STATE:
    ________________________


Run:   502 / 512
Time taken for this run:   0.002s

DOCKED: MODEL        502
DOCKED: USER    Run = 502
DOCKED: USER
DOCKED: USER    Estimated Free Energy of Binding    =  -3.95 kcal/mol  [=(1)+(2)+(3)-(4)]
DOCKED: USER
DOCKED: USER    (1) Final Intermolecular Energy     =  -5.44 kcal/mol
DOCKED: USER        vdW + Hbond + desolv Energy     =  -5.44 kcal/mol
DOCKED: USER        Electrostatic Energy            =  +0.00 kcal/mol
DOCKED: USER        Moving Ligand-Fixed Receptor    =  -5.44 kcal/mol
DOCKED: USER        Moving Ligand-Moving Receptor   =  +0.00 kcal/mol
DOCKED: USER    (2) Final Total Internal Energy     =  -1.32 kcal/mol
DOCKED: USER    (3) Torsional Free Energy           =  +1.49 kcal/mol
DOCKED: USER    (4) Unbound System's Energy         =  -1.32 kcal/mol
DOCKED: USER
DOCKED: USER
DOCKED: REMARK  5 active torsions:
DOCKED: REMARK  status: ('A' for Active; 'I' for Inactive)
DOCKED: REMARK    1  A    between atoms: C_2  and  C_19 
DOCKED: REMARK    2  A    between atoms: C_2  and  C_11 
DOCKED: REMARK    3  A    between atoms: C_19  and  C_20 
DOCKED: REMARK    4  A    between atoms: C_20  and  C_21 
DOCKED: REMARK    5  A    between atoms: C_21  and  N_22 
DOCKED: USER                              x       y       z     vdW  Elec       q    Type
DOCKED: USER                           _______ _______ _______ _____ _____    ______ ____
DOCKED: ROOT
DOCKED: ATOM      1  O   UNL     1     -36.912 -15.574   0.373 -0.04 -0.00    -0.346 OA 
DOCKED: ATOM      2  C   UNL     1     -38.274 -15.786  -0.119 -0.21 +0.00    +0.130 C  
DOCKED: ATOM      3  C   UNL     1     -38.403 -14.807  -1.250 -0.26 +0.00    +0.004 A  
DOCKED: ATOM      4  C   UNL     1     -37.188 -14.170  -1.458 -0.17 +0.00    +0.006 A  
DOCKED: ATOM      5  C   UNL     1     -36.181 -14.685  -0.503 -0.11 +0.00    +0.169 C  
DOCKED: ATOM      6  C   UNL     1     -39.505 -14.511  -2.039 -0.31 -0.00    -0.001 A  
DOCKED: ATOM      7  C   UNL     1     -37.033 -13.220  -2.453 -0.20 +0.00    +0.008 A  
DOCKED: ATOM      8  C   UNL     1     -39.366 -13.552  -3.043 -0.40 +0.00    +0.010 A  
DOCKED: ATOM      9  C   UNL     1     -38.136 -12.910  -3.249 -0.30 +0.00    +0.068 A  
DOCKED: ATOM     10  N   UNL     1     -37.912 -11.137  -5.125 -0.81 -0.00    -0.191 NA 
DOCKED: ATOM     11  C   UNL     1     -38.012 -11.932  -4.283 -0.33 +0.00    +0.101 C  
DOCKED: ENDROOT
DOCKED: BRANCH   2  12
DOCKED: ATOM     12  C   UNL     1     -38.404 -17.235  -0.571 -0.22 +0.00    +0.038 C  
DOCKED: BRANCH  12  13
DOCKED: ATOM     13  C   UNL     1     -37.767 -18.192   0.435 -0.19 +0.00    +0.038 C  
DOCKED: BRANCH  13  14
DOCKED: ATOM     14  C   UNL     1     -38.833 -18.959   1.215 -0.17 +0.00    +0.251 C  
DOCKED: BRANCH  14  15
DOCKED: ATOM     15  N   UNL     1     -38.297 -19.416   2.492 -0.17 +0.00    +0.141 N  
DOCKED: ATOM     16  C   UNL     1     -37.073 -20.193   2.289 -0.14 +0.00    +0.285 C  
DOCKED: ATOM     17  C   UNL     1     -38.035 -18.280   3.378 -0.08 +0.00    +0.285 C  
DOCKED: ENDBRANCH  14  15
DOCKED: ENDBRANCH  13  14
DOCKED: ENDBRANCH  12  13
DOCKED: ENDBRANCH   2  12
DOCKED: BRANCH   2  18
DOCKED: ATOM     18  C   UNL     1     -39.198 -15.490   1.015 -0.26 +0.00    +0.006 A  
DOCKED: ATOM     19  C   UNL     1     -38.708 -14.894   2.176 -0.21 +0.00    +0.001 A  
DOCKED: ATOM     20  C   UNL     1     -39.574 -14.619   3.235 -0.19 +0.00    +0.029 A  
DOCKED: ATOM     21  C   UNL     1     -40.927 -14.938   3.132 -0.15 +0.00    +0.140 A  
DOCKED: ATOM     22  C   UNL     1     -41.416 -15.534   1.970 -0.28 +0.00    +0.029 A  
DOCKED: ATOM     23  F   UNL     1     -41.757 -14.672   4.148 -0.01 -0.00    -0.204 F  
DOCKED: ATOM     24  C   UNL     1     -40.551 -15.810   0.909 -0.23 +0.00    +0.001 A  
DOCKED: ENDBRANCH   2  18
DOCKED: TORSDOF 5
DOCKED: TER
DOCKED: ENDMDL
________________________________________________________________________________


    FINAL DOCKED STATE:
    ________________________


Run:   503 / 512
Time taken for this run:   0.002s

DOCKED: MODEL        503
DOCKED: USER    Run = 503
DOCKED: USER
DOCKED: USER    Estimated Free Energy of Binding    =  -4.29 kcal/mol  [=(1)+(2)+(3)-(4)]
DOCKED: USER
DOCKED: USER    (1) Final Intermolecular Energy     =  -5.78 kcal/mol
DOCKED: USER        vdW + Hbond + desolv Energy     =  -5.78 kcal/mol
DOCKED: USER        Electrostatic Energy            =  +0.00 kcal/mol
DOCKED: USER        Moving Ligand-Fixed Receptor    =  -5.78 kcal/mol
DOCKED: USER        Moving Ligand-Moving Receptor   =  +0.00 kcal/mol
DOCKED: USER    (2) Final Total Internal Energy     =  -1.50 kcal/mol
DOCKED: USER    (3) Torsional Free Energy           =  +1.49 kcal/mol
DOCKED: USER    (4) Unbound System's Energy         =  -1.50 kcal/mol
DOCKED: USER
DOCKED: USER
DOCKED: REMARK  5 active torsions:
DOCKED: REMARK  status: ('A' for Active; 'I' for Inactive)
DOCKED: REMARK    1  A    between atoms: C_2  and  C_19 
DOCKED: REMARK    2  A    between atoms: C_2  and  C_11 
DOCKED: REMARK    3  A    between atoms: C_19  and  C_20 
DOCKED: REMARK    4  A    between atoms: C_20  and  C_21 
DOCKED: REMARK    5  A    between atoms: C_21  and  N_22 
DOCKED: USER                              x       y       z     vdW  Elec       q    Type
DOCKED: USER                           _______ _______ _______ _____ _____    ______ ____
DOCKED: ROOT
DOCKED: ATOM      1  O   UNL     1     -38.456 -21.736   8.479 -0.08 -0.00    -0.346 OA 
DOCKED: ATOM      2  C   UNL     1     -39.466 -20.871   7.870 -0.13 +0.00    +0.130 C  
DOCKED: ATOM      3  C   UNL     1     -40.420 -21.833   7.222 -0.22 +0.00    +0.004 A  
DOCKED: ATOM      4  C   UNL     1     -40.049 -23.135   7.527 -0.23 +0.00    +0.006 A  
DOCKED: ATOM      5  C   UNL     1     -38.850 -23.125   8.395 -0.18 +0.00    +0.169 C  
DOCKED: ATOM      6  C   UNL     1     -41.533 -21.576   6.434 -0.28 -0.00    -0.001 A  
DOCKED: ATOM      7  C   UNL     1     -40.770 -24.218   7.056 -0.35 +0.00    +0.008 A  
DOCKED: ATOM      8  C   UNL     1     -42.267 -22.658   5.948 -0.32 +0.00    +0.010 A  
DOCKED: ATOM      9  C   UNL     1     -41.888 -23.973   6.257 -0.31 +0.00    +0.068 A  
DOCKED: ATOM     10  N   UNL     1     -43.277 -25.959   5.342 -2.55 -0.00    -0.191 NA 
DOCKED: ATOM     11  C   UNL     1     -42.653 -25.068   5.752 -0.34 +0.00    +0.101 C  
DOCKED: ENDROOT
DOCKED: BRANCH   2  12
DOCKED: ATOM     12  C   UNL     1     -40.118 -20.040   8.970 -0.06 +0.00    +0.038 C  
DOCKED: BRANCH  12  13
DOCKED: ATOM     13  C   UNL     1     -39.136 -19.030   9.560 -0.02 +0.00    +0.038 C  
DOCKED: BRANCH  13  14
DOCKED: ATOM     14  C   UNL     1     -38.232 -19.685  10.602 -0.01 +0.00    +0.251 C  
DOCKED: BRANCH  14  15
DOCKED: ATOM     15  N   UNL     1     -36.842 -19.310  10.376 -0.01 +0.00    +0.141 N  
DOCKED: ATOM     16  C   UNL     1     -36.058 -20.468   9.945 -0.01 +0.00    +0.285 C  
DOCKED: ATOM     17  C   UNL     1     -36.752 -18.238   9.382 -0.00 +0.00    +0.285 C  
DOCKED: ENDBRANCH  14  15
DOCKED: ENDBRANCH  13  14
DOCKED: ENDBRANCH  12  13
DOCKED: ENDBRANCH   2  12
DOCKED: BRANCH   2  18
DOCKED: ATOM     18  C   UNL     1     -38.759 -20.000   6.885 -0.14 +0.00    +0.006 A  
DOCKED: ATOM     19  C   UNL     1     -37.376 -20.097   6.737 -0.10 +0.00    +0.001 A  
DOCKED: ATOM     20  C   UNL     1     -36.717 -19.282   5.816 -0.10 +0.00    +0.029 A  
DOCKED: ATOM     21  C   UNL     1     -37.440 -18.373   5.046 -0.08 +0.00    +0.140 A  
DOCKED: ATOM     22  C   UNL     1     -38.823 -18.277   5.195 -0.12 +0.00    +0.029 A  
DOCKED: ATOM     23  F   UNL     1     -36.806 -17.592   4.161 -0.00 -0.00    -0.204 F  
DOCKED: ATOM     24  C   UNL     1     -39.484 -19.091   6.116 -0.16 +0.00    +0.001 A  
DOCKED: ENDBRANCH   2  18
DOCKED: TORSDOF 5
DOCKED: TER
DOCKED: ENDMDL
________________________________________________________________________________


    FINAL DOCKED STATE:
    ________________________


Run:   504 / 512
Time taken for this run:   0.002s

DOCKED: MODEL        504
DOCKED: USER    Run = 504
DOCKED: USER
DOCKED: USER    Estimated Free Energy of Binding    =  -4.61 kcal/mol  [=(1)+(2)+(3)-(4)]
DOCKED: USER
DOCKED: USER    (1) Final Intermolecular Energy     =  -6.10 kcal/mol
DOCKED: USER        vdW + Hbond + desolv Energy     =  -6.10 kcal/mol
DOCKED: USER        Electrostatic Energy            =  +0.00 kcal/mol
DOCKED: USER        Moving Ligand-Fixed Receptor    =  -6.10 kcal/mol
DOCKED: USER        Moving Ligand-Moving Receptor   =  +0.00 kcal/mol
DOCKED: USER    (2) Final Total Internal Energy     =  -1.11 kcal/mol
DOCKED: USER    (3) Torsional Free Energy           =  +1.49 kcal/mol
DOCKED: USER    (4) Unbound System's Energy         =  -1.11 kcal/mol
DOCKED: USER
DOCKED: USER
DOCKED: REMARK  5 active torsions:
DOCKED: REMARK  status: ('A' for Active; 'I' for Inactive)
DOCKED: REMARK    1  A    between atoms: C_2  and  C_19 
DOCKED: REMARK    2  A    between atoms: C_2  and  C_11 
DOCKED: REMARK    3  A    between atoms: C_19  and  C_20 
DOCKED: REMARK    4  A    between atoms: C_20  and  C_21 
DOCKED: REMARK    5  A    between atoms: C_21  and  N_22 
DOCKED: USER                              x       y       z     vdW  Elec       q    Type
DOCKED: USER                           _______ _______ _______ _____ _____    ______ ____
DOCKED: ROOT
DOCKED: ATOM      1  O   UNL     1     -41.348 -21.799   9.048 -0.01 -0.00    -0.346 OA 
DOCKED: ATOM      2  C   UNL     1     -40.782 -23.149   9.021 -0.13 +0.00    +0.130 C  
DOCKED: ATOM      3  C   UNL     1     -41.172 -23.675   7.670 -0.27 +0.00    +0.004 A  
DOCKED: ATOM      4  C   UNL     1     -41.808 -22.677   6.945 -0.27 +0.00    +0.006 A  
DOCKED: ATOM      5  C   UNL     1     -41.872 -21.436   7.749 -0.13 +0.00    +0.169 C  
DOCKED: ATOM      6  C   UNL     1     -40.969 -24.933   7.121 -0.39 -0.00    -0.001 A  
DOCKED: ATOM      7  C   UNL     1     -42.266 -22.901   5.658 -0.34 +0.00    +0.008 A  
DOCKED: ATOM      8  C   UNL     1     -41.428 -25.176   5.826 -0.38 +0.00    +0.010 A  
DOCKED: ATOM      9  C   UNL     1     -42.073 -24.165   5.098 -0.37 +0.00    +0.068 A  
DOCKED: ATOM     10  N   UNL     1     -42.908 -24.647   2.693 -1.93 -0.00    -0.191 NA 
DOCKED: ATOM     11  C   UNL     1     -42.534 -24.431   3.772 -0.52 +0.00    +0.101 C  
DOCKED: ENDROOT
DOCKED: BRANCH   2  12
DOCKED: ATOM     12  C   UNL     1     -39.273 -23.042   9.203 -0.18 +0.00    +0.038 C  
DOCKED: BRANCH  12  13
DOCKED: ATOM     13  C   UNL     1     -38.606 -22.416   7.979 -0.09 +0.00    +0.038 C  
DOCKED: BRANCH  13  14
DOCKED: ATOM     14  C   UNL     1     -38.462 -20.905   8.145 -0.09 +0.00    +0.251 C  
DOCKED: BRANCH  14  15
DOCKED: ATOM     15  N   UNL     1     -37.078 -20.557   8.442 -0.06 +0.00    +0.141 N  
DOCKED: ATOM     16  C   UNL     1     -36.976 -19.923   9.758 -0.01 +0.00    +0.285 C  
DOCKED: ATOM     17  C   UNL     1     -36.224 -21.744   8.383 -0.07 +0.00    +0.285 C  
DOCKED: ENDBRANCH  14  15
DOCKED: ENDBRANCH  13  14
DOCKED: ENDBRANCH  12  13
DOCKED: ENDBRANCH   2  12
DOCKED: BRANCH   2  18
DOCKED: ATOM     18  C   UNL     1     -41.408 -23.907  10.143 -0.14 +0.00    +0.006 A  
DOCKED: ATOM     19  C   UNL     1     -42.564 -23.422  10.752 -0.08 +0.00    +0.001 A  
DOCKED: ATOM     20  C   UNL     1     -43.148 -24.132  11.802 -0.09 +0.00    +0.029 A  
DOCKED: ATOM     21  C   UNL     1     -42.576 -25.325  12.240 -0.11 +0.00    +0.140 A  
DOCKED: ATOM     22  C   UNL     1     -41.420 -25.810  11.630 -0.20 +0.00    +0.029 A  
DOCKED: ATOM     23  F   UNL     1     -43.138 -26.007  13.247 -0.03 -0.00    -0.204 F  
DOCKED: ATOM     24  C   UNL     1     -40.834 -25.100  10.580 -0.19 +0.00    +0.001 A  
DOCKED: ENDBRANCH   2  18
DOCKED: TORSDOF 5
DOCKED: TER
DOCKED: ENDMDL
________________________________________________________________________________


    FINAL DOCKED STATE:
    ________________________


Run:   505 / 512
Time taken for this run:   0.002s

DOCKED: MODEL        505
DOCKED: USER    Run = 505
DOCKED: USER
DOCKED: USER    Estimated Free Energy of Binding    =  -6.05 kcal/mol  [=(1)+(2)+(3)-(4)]
DOCKED: USER
DOCKED: USER    (1) Final Intermolecular Energy     =  -7.55 kcal/mol
DOCKED: USER        vdW + Hbond + desolv Energy     =  -7.55 kcal/mol
DOCKED: USER        Electrostatic Energy            =  +0.00 kcal/mol
DOCKED: USER        Moving Ligand-Fixed Receptor    =  -7.55 kcal/mol
DOCKED: USER        Moving Ligand-Moving Receptor   =  +0.00 kcal/mol
DOCKED: USER    (2) Final Total Internal Energy     =  -1.13 kcal/mol
DOCKED: USER    (3) Torsional Free Energy           =  +1.49 kcal/mol
DOCKED: USER    (4) Unbound System's Energy         =  -1.13 kcal/mol
DOCKED: USER
DOCKED: USER
DOCKED: REMARK  5 active torsions:
DOCKED: REMARK  status: ('A' for Active; 'I' for Inactive)
DOCKED: REMARK    1  A    between atoms: C_2  and  C_19 
DOCKED: REMARK    2  A    between atoms: C_2  and  C_11 
DOCKED: REMARK    3  A    between atoms: C_19  and  C_20 
DOCKED: REMARK    4  A    between atoms: C_20  and  C_21 
DOCKED: REMARK    5  A    between atoms: C_21  and  N_22 
DOCKED: USER                              x       y       z     vdW  Elec       q    Type
DOCKED: USER                           _______ _______ _______ _____ _____    ______ ____
DOCKED: ROOT
DOCKED: ATOM      1  O   UNL     1     -41.139 -22.038   7.906 -0.05 -0.00    -0.346 OA 
DOCKED: ATOM      2  C   UNL     1     -40.752 -23.448   7.863 -0.23 +0.00    +0.130 C  
DOCKED: ATOM      3  C   UNL     1     -41.269 -23.923   6.536 -0.35 +0.00    +0.004 A  
DOCKED: ATOM      4  C   UNL     1     -41.806 -22.853   5.834 -0.35 +0.00    +0.006 A  
DOCKED: ATOM      5  C   UNL     1     -41.673 -21.612   6.630 -0.23 +0.00    +0.169 C  
DOCKED: ATOM      6  C   UNL     1     -41.255 -25.197   5.988 -0.37 -0.00    -0.001 A  
DOCKED: ATOM      7  C   UNL     1     -42.348 -23.019   4.571 -0.11 +0.00    +0.008 A  
DOCKED: ATOM      8  C   UNL     1     -41.801 -25.382   4.717 -0.44 +0.00    +0.010 A  
DOCKED: ATOM      9  C   UNL     1     -42.345 -24.297   4.012 -0.42 +0.00    +0.068 A  
DOCKED: ATOM     10  N   UNL     1     -43.348 -24.673   1.653 -2.88 -0.00    -0.191 NA 
DOCKED: ATOM     11  C   UNL     1     -42.899 -24.505   2.712 -0.42 +0.00    +0.101 C  
DOCKED: ENDROOT
DOCKED: BRANCH   2  12
DOCKED: ATOM     12  C   UNL     1     -39.234 -23.536   7.974 -0.22 +0.00    +0.038 C  
DOCKED: BRANCH  12  13
DOCKED: ATOM     13  C   UNL     1     -38.610 -22.155   8.165 -0.15 +0.00    +0.038 C  
DOCKED: BRANCH  13  14
DOCKED: ATOM     14  C   UNL     1     -37.625 -22.154   9.333 -0.09 +0.00    +0.251 C  
DOCKED: BRANCH  14  15
DOCKED: ATOM     15  N   UNL     1     -36.837 -23.381   9.333 -0.13 +0.00    +0.141 N  
DOCKED: ATOM     16  C   UNL     1     -35.531 -23.155   8.713 -0.09 +0.00    +0.285 C  
DOCKED: ATOM     17  C   UNL     1     -36.671 -23.887  10.697 -0.05 +0.00    +0.285 C  
DOCKED: ENDBRANCH  14  15
DOCKED: ENDBRANCH  13  14
DOCKED: ENDBRANCH  12  13
DOCKED: ENDBRANCH   2  12
DOCKED: BRANCH   2  18
DOCKED: ATOM     18  C   UNL     1     -41.416 -24.118   9.019 -0.20 +0.00    +0.006 A  
DOCKED: ATOM     19  C   UNL     1     -40.661 -24.513  10.123 -0.16 +0.00    +0.001 A  
DOCKED: ATOM     20  C   UNL     1     -41.283 -25.140  11.203 -0.21 +0.00    +0.029 A  
DOCKED: ATOM     21  C   UNL     1     -42.658 -25.371  11.179 -0.03 +0.00    +0.140 A  
DOCKED: ATOM     22  C   UNL     1     -43.412 -24.975  10.074 -0.16 +0.00    +0.029 A  
DOCKED: ATOM     23  F   UNL     1     -43.255 -25.971  12.217 -0.03 -0.00    -0.204 F  
DOCKED: ATOM     24  C   UNL     1     -42.791 -24.348   8.993 -0.18 +0.00    +0.001 A  
DOCKED: ENDBRANCH   2  18
DOCKED: TORSDOF 5
DOCKED: TER
DOCKED: ENDMDL
________________________________________________________________________________


    FINAL DOCKED STATE:
    ________________________


Run:   506 / 512
Time taken for this run:   0.002s

DOCKED: MODEL        506
DOCKED: USER    Run = 506
DOCKED: USER
DOCKED: USER    Estimated Free Energy of Binding    =  -2.78 kcal/mol  [=(1)+(2)+(3)-(4)]
DOCKED: USER
DOCKED: USER    (1) Final Intermolecular Energy     =  -4.28 kcal/mol
DOCKED: USER        vdW + Hbond + desolv Energy     =  -4.28 kcal/mol
DOCKED: USER        Electrostatic Energy            =  +0.00 kcal/mol
DOCKED: USER        Moving Ligand-Fixed Receptor    =  -4.28 kcal/mol
DOCKED: USER        Moving Ligand-Moving Receptor   =  +0.00 kcal/mol
DOCKED: USER    (2) Final Total Internal Energy     =  -1.54 kcal/mol
DOCKED: USER    (3) Torsional Free Energy           =  +1.49 kcal/mol
DOCKED: USER    (4) Unbound System's Energy         =  -1.54 kcal/mol
DOCKED: USER
DOCKED: USER
DOCKED: REMARK  5 active torsions:
DOCKED: REMARK  status: ('A' for Active; 'I' for Inactive)
DOCKED: REMARK    1  A    between atoms: C_2  and  C_19 
DOCKED: REMARK    2  A    between atoms: C_2  and  C_11 
DOCKED: REMARK    3  A    between atoms: C_19  and  C_20 
DOCKED: REMARK    4  A    between atoms: C_20  and  C_21 
DOCKED: REMARK    5  A    between atoms: C_21  and  N_22 
DOCKED: USER                              x       y       z     vdW  Elec       q    Type
DOCKED: USER                           _______ _______ _______ _____ _____    ______ ____
DOCKED: ROOT
DOCKED: ATOM      1  O   UNL     1     -44.204 -14.125   6.788 +0.01 -0.00    -0.346 OA 
DOCKED: ATOM      2  C   UNL     1     -43.155 -14.968   6.212 -0.06 +0.00    +0.130 C  
DOCKED: ATOM      3  C   UNL     1     -43.056 -14.496   4.789 -0.11 +0.00    +0.004 A  
DOCKED: ATOM      4  C   UNL     1     -43.894 -13.407   4.599 -0.13 +0.00    +0.006 A  
DOCKED: ATOM      5  C   UNL     1     -44.587 -13.079   5.865 -0.06 +0.00    +0.169 C  
DOCKED: ATOM      6  C   UNL     1     -42.277 -14.985   3.751 -0.18 -0.00    -0.001 A  
DOCKED: ATOM      7  C   UNL     1     -43.987 -12.775   3.371 -0.25 +0.00    +0.008 A  
DOCKED: ATOM      8  C   UNL     1     -42.363 -14.362   2.505 -0.27 +0.00    +0.010 A  
DOCKED: ATOM      9  C   UNL     1     -43.213 -13.262   2.316 -0.32 +0.00    +0.068 A  
DOCKED: ATOM     10  N   UNL     1     -43.344 -12.125  -0.008 -1.31 -0.00    -0.191 NA 
DOCKED: ATOM     11  C   UNL     1     -43.286 -12.635   1.034 -0.45 +0.00    +0.101 C  
DOCKED: ENDROOT
DOCKED: BRANCH   2  12
DOCKED: ATOM     12  C   UNL     1     -41.870 -14.746   7.001 -0.03 +0.00    +0.038 C  
DOCKED: BRANCH  12  13
DOCKED: ATOM     13  C   UNL     1     -42.074 -13.729   8.122 -0.01 +0.00    +0.038 C  
DOCKED: BRANCH  13  14
DOCKED: ATOM     14  C   UNL     1     -42.186 -14.423   9.479 +0.00 +0.00    +0.251 C  
DOCKED: BRANCH  14  15
DOCKED: ATOM     15  N   UNL     1     -42.874 -15.701   9.340 -0.00 +0.00    +0.141 N  
DOCKED: ATOM     16  C   UNL     1     -42.219 -16.730  10.149 -0.00 +0.00    +0.285 C  
DOCKED: ATOM     17  C   UNL     1     -44.281 -15.573   9.723 +0.00 +0.00    +0.285 C  
DOCKED: ENDBRANCH  14  15
DOCKED: ENDBRANCH  13  14
DOCKED: ENDBRANCH  12  13
DOCKED: ENDBRANCH   2  12
DOCKED: BRANCH   2  18
DOCKED: ATOM     18  C   UNL     1     -43.619 -16.381   6.325 -0.13 +0.00    +0.006 A  
DOCKED: ATOM     19  C   UNL     1     -44.983 -16.663   6.388 -0.15 +0.00    +0.001 A  
DOCKED: ATOM     20  C   UNL     1     -45.416 -17.986   6.494 -0.20 +0.00    +0.029 A  
DOCKED: ATOM     21  C   UNL     1     -44.486 -19.023   6.536 -0.18 +0.00    +0.140 A  
DOCKED: ATOM     22  C   UNL     1     -43.122 -18.740   6.473 -0.21 +0.00    +0.029 A  
DOCKED: ATOM     23  F   UNL     1     -44.902 -20.292   6.636 -0.08 -0.00    -0.204 F  
DOCKED: ATOM     24  C   UNL     1     -42.687 -17.417   6.367 -0.17 +0.00    +0.001 A  
DOCKED: ENDBRANCH   2  18
DOCKED: TORSDOF 5
DOCKED: TER
DOCKED: ENDMDL
________________________________________________________________________________


    FINAL DOCKED STATE:
    ________________________


Run:   507 / 512
Time taken for this run:   0.002s

DOCKED: MODEL        507
DOCKED: USER    Run = 507
DOCKED: USER
DOCKED: USER    Estimated Free Energy of Binding    =  -4.15 kcal/mol  [=(1)+(2)+(3)-(4)]
DOCKED: USER
DOCKED: USER    (1) Final Intermolecular Energy     =  -5.64 kcal/mol
DOCKED: USER        vdW + Hbond + desolv Energy     =  -5.64 kcal/mol
DOCKED: USER        Electrostatic Energy            =  +0.00 kcal/mol
DOCKED: USER        Moving Ligand-Fixed Receptor    =  -5.64 kcal/mol
DOCKED: USER        Moving Ligand-Moving Receptor   =  +0.00 kcal/mol
DOCKED: USER    (2) Final Total Internal Energy     =  -1.11 kcal/mol
DOCKED: USER    (3) Torsional Free Energy           =  +1.49 kcal/mol
DOCKED: USER    (4) Unbound System's Energy         =  -1.11 kcal/mol
DOCKED: USER
DOCKED: USER
DOCKED: REMARK  5 active torsions:
DOCKED: REMARK  status: ('A' for Active; 'I' for Inactive)
DOCKED: REMARK    1  A    between atoms: C_2  and  C_19 
DOCKED: REMARK    2  A    between atoms: C_2  and  C_11 
DOCKED: REMARK    3  A    between atoms: C_19  and  C_20 
DOCKED: REMARK    4  A    between atoms: C_20  and  C_21 
DOCKED: REMARK    5  A    between atoms: C_21  and  N_22 
DOCKED: USER                              x       y       z     vdW  Elec       q    Type
DOCKED: USER                           _______ _______ _______ _____ _____    ______ ____
DOCKED: ROOT
DOCKED: ATOM      1  O   UNL     1     -44.004 -19.548   7.858 -0.05 -0.00    -0.346 OA 
DOCKED: ATOM      2  C   UNL     1     -42.678 -19.567   7.240 -0.18 +0.00    +0.130 C  
DOCKED: ATOM      3  C   UNL     1     -42.524 -20.982   6.762 -0.23 +0.00    +0.004 A  
DOCKED: ATOM      4  C   UNL     1     -43.701 -21.681   6.986 -0.22 +0.00    +0.006 A  
DOCKED: ATOM      5  C   UNL     1     -44.705 -20.789   7.607 -0.15 +0.00    +0.169 C  
DOCKED: ATOM      6  C   UNL     1     -41.433 -21.597   6.165 -0.27 -0.00    -0.001 A  
DOCKED: ATOM      7  C   UNL     1     -43.828 -23.013   6.629 -0.23 +0.00    +0.008 A  
DOCKED: ATOM      8  C   UNL     1     -41.544 -22.941   5.803 -0.32 +0.00    +0.010 A  
DOCKED: ATOM      9  C   UNL     1     -42.735 -23.645   6.033 -0.28 +0.00    +0.068 A  
DOCKED: ATOM     10  N   UNL     1     -42.908 -26.136   5.344 -2.61 -0.00    -0.191 NA 
DOCKED: ATOM     11  C   UNL     1     -42.830 -25.019   5.654 -0.38 +0.00    +0.101 C  
DOCKED: ENDROOT
DOCKED: BRANCH   2  12
DOCKED: ATOM     12  C   UNL     1     -42.660 -18.551   6.104 -0.15 +0.00    +0.038 C  
DOCKED: BRANCH  12  13
DOCKED: ATOM     13  C   UNL     1     -43.921 -17.690   6.107 -0.20 +0.00    +0.038 C  
DOCKED: BRANCH  13  14
DOCKED: ATOM     14  C   UNL     1     -43.695 -16.381   5.354 -0.12 +0.00    +0.251 C  
DOCKED: BRANCH  14  15
DOCKED: ATOM     15  N   UNL     1     -43.180 -15.359   6.257 -0.05 +0.00    +0.141 N  
DOCKED: ATOM     16  C   UNL     1     -41.719 -15.298   6.189 -0.03 +0.00    +0.285 C  
DOCKED: ATOM     17  C   UNL     1     -43.758 -14.052   5.940 -0.01 +0.00    +0.285 C  
DOCKED: ENDBRANCH  14  15
DOCKED: ENDBRANCH  13  14
DOCKED: ENDBRANCH  12  13
DOCKED: ENDBRANCH   2  12
DOCKED: BRANCH   2  18
DOCKED: ATOM     18  C   UNL     1     -41.696 -19.203   8.303 -0.07 +0.00    +0.006 A  
DOCKED: ATOM     19  C   UNL     1     -41.288 -20.159   9.232 -0.04 +0.00    +0.001 A  
DOCKED: ATOM     20  C   UNL     1     -40.371 -19.817  10.226 -0.01 +0.00    +0.029 A  
DOCKED: ATOM     21  C   UNL     1     -39.862 -18.521  10.290 -0.00 +0.00    +0.140 A  
DOCKED: ATOM     22  C   UNL     1     -40.270 -17.565   9.360 -0.01 +0.00    +0.029 A  
DOCKED: ATOM     23  F   UNL     1     -38.980 -18.193  11.243 +0.00 -0.00    -0.204 F  
DOCKED: ATOM     24  C   UNL     1     -41.189 -17.906   8.366 -0.04 +0.00    +0.001 A  
DOCKED: ENDBRANCH   2  18
DOCKED: TORSDOF 5
DOCKED: TER
DOCKED: ENDMDL
________________________________________________________________________________


    FINAL DOCKED STATE:
    ________________________


Run:   508 / 512
Time taken for this run:   0.002s

DOCKED: MODEL        508
DOCKED: USER    Run = 508
DOCKED: USER
DOCKED: USER    Estimated Free Energy of Binding    =  -3.96 kcal/mol  [=(1)+(2)+(3)-(4)]
DOCKED: USER
DOCKED: USER    (1) Final Intermolecular Energy     =  -5.45 kcal/mol
DOCKED: USER        vdW + Hbond + desolv Energy     =  -5.45 kcal/mol
DOCKED: USER        Electrostatic Energy            =  +0.00 kcal/mol
DOCKED: USER        Moving Ligand-Fixed Receptor    =  -5.45 kcal/mol
DOCKED: USER        Moving Ligand-Moving Receptor   =  +0.00 kcal/mol
DOCKED: USER    (2) Final Total Internal Energy     =  -1.33 kcal/mol
DOCKED: USER    (3) Torsional Free Energy           =  +1.49 kcal/mol
DOCKED: USER    (4) Unbound System's Energy         =  -1.33 kcal/mol
DOCKED: USER
DOCKED: USER
DOCKED: REMARK  5 active torsions:
DOCKED: REMARK  status: ('A' for Active; 'I' for Inactive)
DOCKED: REMARK    1  A    between atoms: C_2  and  C_19 
DOCKED: REMARK    2  A    between atoms: C_2  and  C_11 
DOCKED: REMARK    3  A    between atoms: C_19  and  C_20 
DOCKED: REMARK    4  A    between atoms: C_20  and  C_21 
DOCKED: REMARK    5  A    between atoms: C_21  and  N_22 
DOCKED: USER                              x       y       z     vdW  Elec       q    Type
DOCKED: USER                           _______ _______ _______ _____ _____    ______ ____
DOCKED: ROOT
DOCKED: ATOM      1  O   UNL     1     -34.527 -11.930  -1.549 -0.02 -0.00    -0.346 OA 
DOCKED: ATOM      2  C   UNL     1     -34.265 -11.561  -2.941 -0.06 +0.00    +0.130 C  
DOCKED: ATOM      3  C   UNL     1     -35.587 -11.767  -3.623 -0.14 +0.00    +0.004 A  
DOCKED: ATOM      4  C   UNL     1     -36.547 -12.116  -2.683 -0.22 +0.00    +0.006 A  
DOCKED: ATOM      5  C   UNL     1     -35.940 -12.152  -1.334 -0.12 +0.00    +0.169 C  
DOCKED: ATOM      6  C   UNL     1     -35.916 -11.645  -4.965 -0.18 -0.00    -0.001 A  
DOCKED: ATOM      7  C   UNL     1     -37.860 -12.358  -3.050 -0.33 +0.00    +0.008 A  
DOCKED: ATOM      8  C   UNL     1     -37.235 -11.890  -5.351 -0.26 +0.00    +0.010 A  
DOCKED: ATOM      9  C   UNL     1     -38.202 -12.244  -4.398 -0.35 +0.00    +0.068 A  
DOCKED: ATOM     10  N   UNL     1     -40.642 -12.686  -5.149 -2.52 -0.00    -0.191 NA 
DOCKED: ATOM     11  C   UNL     1     -39.548 -12.488  -4.813 -0.36 +0.00    +0.101 C  
DOCKED: ENDROOT
DOCKED: BRANCH   2  12
DOCKED: ATOM     12  C   UNL     1     -33.800 -10.110  -2.977 -0.09 +0.00    +0.038 C  
DOCKED: BRANCH  12  13
DOCKED: ATOM     13  C   UNL     1     -34.444  -9.291  -1.860 -0.11 +0.00    +0.038 C  
DOCKED: BRANCH  13  14
DOCKED: ATOM     14  C   UNL     1     -35.804  -8.747  -2.292 -0.13 +0.00    +0.251 C  
DOCKED: BRANCH  14  15
DOCKED: ATOM     15  N   UNL     1     -36.551  -8.269  -1.134 -0.19 +0.00    +0.141 N  
DOCKED: ATOM     16  C   UNL     1     -37.826  -8.978  -1.014 -0.21 +0.00    +0.285 C  
DOCKED: ATOM     17  C   UNL     1     -35.763  -8.430   0.089 -0.11 +0.00    +0.285 C  
DOCKED: ENDBRANCH  14  15
DOCKED: ENDBRANCH  13  14
DOCKED: ENDBRANCH  12  13
DOCKED: ENDBRANCH   2  12
DOCKED: BRANCH   2  18
DOCKED: ATOM     18  C   UNL     1     -33.202 -12.480  -3.444 -0.02 +0.00    +0.006 A  
DOCKED: ATOM     19  C   UNL     1     -33.160 -13.802  -3.004 -0.01 +0.00    +0.001 A  
DOCKED: ATOM     20  C   UNL     1     -32.165 -14.660  -3.474 -0.00 +0.00    +0.029 A  
DOCKED: ATOM     21  C   UNL     1     -31.216 -14.196  -4.383 -0.00 +0.00    +0.140 A  
DOCKED: ATOM     22  C   UNL     1     -31.259 -12.873  -4.823 -0.00 +0.00    +0.029 A  
DOCKED: ATOM     23  F   UNL     1     -30.262 -15.020  -4.836 +0.00 -0.00    -0.204 F  
DOCKED: ATOM     24  C   UNL     1     -32.254 -12.014  -4.353 -0.01 +0.00    +0.001 A  
DOCKED: ENDBRANCH   2  18
DOCKED: TORSDOF 5
DOCKED: TER
DOCKED: ENDMDL
________________________________________________________________________________


    FINAL DOCKED STATE:
    ________________________


Run:   509 / 512
Time taken for this run:   0.002s

DOCKED: MODEL        509
DOCKED: USER    Run = 509
DOCKED: USER
DOCKED: USER    Estimated Free Energy of Binding    =  -3.73 kcal/mol  [=(1)+(2)+(3)-(4)]
DOCKED: USER
DOCKED: USER    (1) Final Intermolecular Energy     =  -5.22 kcal/mol
DOCKED: USER        vdW + Hbond + desolv Energy     =  -5.22 kcal/mol
DOCKED: USER        Electrostatic Energy            =  +0.00 kcal/mol
DOCKED: USER        Moving Ligand-Fixed Receptor    =  -5.22 kcal/mol
DOCKED: USER        Moving Ligand-Moving Receptor   =  +0.00 kcal/mol
DOCKED: USER    (2) Final Total Internal Energy     =  -1.07 kcal/mol
DOCKED: USER    (3) Torsional Free Energy           =  +1.49 kcal/mol
DOCKED: USER    (4) Unbound System's Energy         =  -1.07 kcal/mol
DOCKED: USER
DOCKED: USER
DOCKED: REMARK  5 active torsions:
DOCKED: REMARK  status: ('A' for Active; 'I' for Inactive)
DOCKED: REMARK    1  A    between atoms: C_2  and  C_19 
DOCKED: REMARK    2  A    between atoms: C_2  and  C_11 
DOCKED: REMARK    3  A    between atoms: C_19  and  C_20 
DOCKED: REMARK    4  A    between atoms: C_20  and  C_21 
DOCKED: REMARK    5  A    between atoms: C_21  and  N_22 
DOCKED: USER                              x       y       z     vdW  Elec       q    Type
DOCKED: USER                           _______ _______ _______ _____ _____    ______ ____
DOCKED: ROOT
DOCKED: ATOM      1  O   UNL     1     -34.821 -10.662  -1.424 -0.04 -0.00    -0.346 OA 
DOCKED: ATOM      2  C   UNL     1     -34.451 -10.920  -2.817 -0.08 +0.00    +0.130 C  
DOCKED: ATOM      3  C   UNL     1     -35.721 -11.424  -3.438 -0.13 +0.00    +0.004 A  
DOCKED: ATOM      4  C   UNL     1     -36.753 -11.356  -2.513 -0.22 +0.00    +0.006 A  
DOCKED: ATOM      5  C   UNL     1     -36.249 -10.799  -1.238 -0.16 +0.00    +0.169 C  
DOCKED: ATOM      6  C   UNL     1     -35.948 -11.895  -4.724 -0.19 -0.00    -0.001 A  
DOCKED: ATOM      7  C   UNL     1     -38.038 -11.758  -2.836 -0.25 +0.00    +0.008 A  
DOCKED: ATOM      8  C   UNL     1     -37.237 -12.307  -5.063 -0.29 +0.00    +0.010 A  
DOCKED: ATOM      9  C   UNL     1     -38.277 -12.239  -4.124 -0.35 +0.00    +0.068 A  
DOCKED: ATOM     10  N   UNL     1     -40.660 -13.008  -4.789 -2.52 -0.00    -0.191 NA 
DOCKED: ATOM     11  C   UNL     1     -39.591 -12.664  -4.491 -0.42 +0.00    +0.101 C  
DOCKED: ENDROOT
DOCKED: BRANCH   2  12
DOCKED: ATOM     12  C   UNL     1     -33.965  -9.615  -3.436 -0.11 +0.00    +0.038 C  
DOCKED: BRANCH  12  13
DOCKED: ATOM     13  C   UNL     1     -34.074  -8.455  -2.448 -0.10 +0.00    +0.038 C  
DOCKED: BRANCH  13  14
DOCKED: ATOM     14  C   UNL     1     -35.490  -7.884  -2.425 -0.11 +0.00    +0.251 C  
DOCKED: BRANCH  14  15
DOCKED: ATOM     15  N   UNL     1     -35.479  -6.483  -2.826 -0.11 +0.00    +0.141 N  
DOCKED: ATOM     16  C   UNL     1     -36.195  -5.661  -1.849 -0.03 +0.00    +0.285 C  
DOCKED: ATOM     17  C   UNL     1     -34.106  -6.002  -2.983 -0.03 +0.00    +0.285 C  
DOCKED: ENDBRANCH  14  15
DOCKED: ENDBRANCH  13  14
DOCKED: ENDBRANCH  12  13
DOCKED: ENDBRANCH   2  12
DOCKED: BRANCH   2  18
DOCKED: ATOM     18  C   UNL     1     -33.366 -11.944  -2.798 -0.03 +0.00    +0.006 A  
DOCKED: ATOM     19  C   UNL     1     -33.089 -12.643  -1.624 -0.03 +0.00    +0.001 A  
DOCKED: ATOM     20  C   UNL     1     -32.073 -13.601  -1.608 -0.01 +0.00    +0.029 A  
DOCKED: ATOM     21  C   UNL     1     -31.338 -13.857  -2.764 -0.00 +0.00    +0.140 A  
DOCKED: ATOM     22  C   UNL     1     -31.617 -13.158  -3.938 -0.00 +0.00    +0.029 A  
DOCKED: ATOM     23  F   UNL     1     -30.365 -14.778  -2.749 +0.00 -0.00    -0.204 F  
DOCKED: ATOM     24  C   UNL     1     -32.632 -12.199  -3.955 -0.02 +0.00    +0.001 A  
DOCKED: ENDBRANCH   2  18
DOCKED: TORSDOF 5
DOCKED: TER
DOCKED: ENDMDL
________________________________________________________________________________


    FINAL DOCKED STATE:
    ________________________


Run:   510 / 512
Time taken for this run:   0.002s

DOCKED: MODEL        510
DOCKED: USER    Run = 510
DOCKED: USER
DOCKED: USER    Estimated Free Energy of Binding    =  -3.73 kcal/mol  [=(1)+(2)+(3)-(4)]
DOCKED: USER
DOCKED: USER    (1) Final Intermolecular Energy     =  -5.22 kcal/mol
DOCKED: USER        vdW + Hbond + desolv Energy     =  -5.22 kcal/mol
DOCKED: USER        Electrostatic Energy            =  +0.00 kcal/mol
DOCKED: USER        Moving Ligand-Fixed Receptor    =  -5.22 kcal/mol
DOCKED: USER        Moving Ligand-Moving Receptor   =  +0.00 kcal/mol
DOCKED: USER    (2) Final Total Internal Energy     =  -1.32 kcal/mol
DOCKED: USER    (3) Torsional Free Energy           =  +1.49 kcal/mol
DOCKED: USER    (4) Unbound System's Energy         =  -1.32 kcal/mol
DOCKED: USER
DOCKED: USER
DOCKED: REMARK  5 active torsions:
DOCKED: REMARK  status: ('A' for Active; 'I' for Inactive)
DOCKED: REMARK    1  A    between atoms: C_2  and  C_19 
DOCKED: REMARK    2  A    between atoms: C_2  and  C_11 
DOCKED: REMARK    3  A    between atoms: C_19  and  C_20 
DOCKED: REMARK    4  A    between atoms: C_20  and  C_21 
DOCKED: REMARK    5  A    between atoms: C_21  and  N_22 
DOCKED: USER                              x       y       z     vdW  Elec       q    Type
DOCKED: USER                           _______ _______ _______ _____ _____    ______ ____
DOCKED: ROOT
DOCKED: ATOM      1  O   UNL     1     -34.473 -19.759   2.197 +0.00 -0.00    -0.346 OA 
DOCKED: ATOM      2  C   UNL     1     -34.473 -20.552   0.967 -0.05 +0.00    +0.130 C  
DOCKED: ATOM      3  C   UNL     1     -34.734 -21.952   1.443 -0.13 +0.00    +0.004 A  
DOCKED: ATOM      4  C   UNL     1     -34.972 -21.944   2.810 -0.16 +0.00    +0.006 A  
DOCKED: ATOM      5  C   UNL     1     -34.899 -20.558   3.325 -0.08 +0.00    +0.169 C  
DOCKED: ATOM      6  C   UNL     1     -34.768 -23.137   0.722 -0.16 -0.00    -0.001 A  
DOCKED: ATOM      7  C   UNL     1     -35.247 -23.112   3.501 -0.20 +0.00    +0.008 A  
DOCKED: ATOM      8  C   UNL     1     -35.040 -24.324   1.404 -0.26 +0.00    +0.010 A  
DOCKED: ATOM      9  C   UNL     1     -35.279 -24.311   2.787 -0.29 +0.00    +0.068 A  
DOCKED: ATOM     10  N   UNL     1     -35.785 -26.531   4.022 -2.60 -0.00    -0.191 NA 
DOCKED: ATOM     11  C   UNL     1     -35.557 -25.535   3.468 -0.33 +0.00    +0.101 C  
DOCKED: ENDROOT
DOCKED: BRANCH   2  12
DOCKED: ATOM     12  C   UNL     1     -35.570 -20.023   0.051 -0.13 +0.00    +0.038 C  
DOCKED: BRANCH  12  13
DOCKED: ATOM     13  C   UNL     1     -36.826 -20.889   0.129 -0.18 +0.00    +0.038 C  
DOCKED: BRANCH  13  14
DOCKED: ATOM     14  C   UNL     1     -37.802 -20.349   1.173 -0.24 +0.00    +0.251 C  
DOCKED: BRANCH  14  15
DOCKED: ATOM     15  N   UNL     1     -37.540 -18.938   1.430 -0.13 +0.00    +0.141 N  
DOCKED: ATOM     16  C   UNL     1     -38.402 -18.093   0.602 -0.14 +0.00    +0.285 C  
DOCKED: ATOM     17  C   UNL     1     -37.736 -18.627   2.847 -0.09 +0.00    +0.285 C  
DOCKED: ENDBRANCH  14  15
DOCKED: ENDBRANCH  13  14
DOCKED: ENDBRANCH  12  13
DOCKED: ENDBRANCH   2  12
DOCKED: BRANCH   2  18
DOCKED: ATOM     18  C   UNL     1     -33.127 -20.391   0.344 -0.02 +0.00    +0.006 A  
DOCKED: ATOM     19  C   UNL     1     -31.991 -20.850   1.010 -0.01 +0.00    +0.001 A  
DOCKED: ATOM     20  C   UNL     1     -30.733 -20.698   0.426 -0.00 +0.00    +0.029 A  
DOCKED: ATOM     21  C   UNL     1     -30.612 -20.089  -0.822 -0.00 +0.00    +0.140 A  
DOCKED: ATOM     22  C   UNL     1     -31.749 -19.630  -1.487 -0.00 +0.00    +0.029 A  
DOCKED: ATOM     23  F   UNL     1     -29.405 -19.945  -1.383 +0.00 -0.00    -0.204 F  
DOCKED: ATOM     24  C   UNL     1     -33.008 -19.781  -0.904 -0.01 +0.00    +0.001 A  
DOCKED: ENDBRANCH   2  18
DOCKED: TORSDOF 5
DOCKED: TER
DOCKED: ENDMDL
________________________________________________________________________________


    FINAL DOCKED STATE:
    ________________________


Run:   511 / 512
Time taken for this run:   0.002s

DOCKED: MODEL        511
DOCKED: USER    Run = 511
DOCKED: USER
DOCKED: USER    Estimated Free Energy of Binding    =  -4.38 kcal/mol  [=(1)+(2)+(3)-(4)]
DOCKED: USER
DOCKED: USER    (1) Final Intermolecular Energy     =  -5.88 kcal/mol
DOCKED: USER        vdW + Hbond + desolv Energy     =  -5.88 kcal/mol
DOCKED: USER        Electrostatic Energy            =  +0.00 kcal/mol
DOCKED: USER        Moving Ligand-Fixed Receptor    =  -5.88 kcal/mol
DOCKED: USER        Moving Ligand-Moving Receptor   =  +0.00 kcal/mol
DOCKED: USER    (2) Final Total Internal Energy     =  -0.99 kcal/mol
DOCKED: USER    (3) Torsional Free Energy           =  +1.49 kcal/mol
DOCKED: USER    (4) Unbound System's Energy         =  -0.99 kcal/mol
DOCKED: USER
DOCKED: USER
DOCKED: REMARK  5 active torsions:
DOCKED: REMARK  status: ('A' for Active; 'I' for Inactive)
DOCKED: REMARK    1  A    between atoms: C_2  and  C_19 
DOCKED: REMARK    2  A    between atoms: C_2  and  C_11 
DOCKED: REMARK    3  A    between atoms: C_19  and  C_20 
DOCKED: REMARK    4  A    between atoms: C_20  and  C_21 
DOCKED: REMARK    5  A    between atoms: C_21  and  N_22 
DOCKED: USER                              x       y       z     vdW  Elec       q    Type
DOCKED: USER                           _______ _______ _______ _____ _____    ______ ____
DOCKED: ROOT
DOCKED: ATOM      1  O   UNL     1     -45.466 -19.829   7.500 -0.07 -0.00    -0.346 OA 
DOCKED: ATOM      2  C   UNL     1     -44.012 -19.701   7.392 -0.18 +0.00    +0.130 C  
DOCKED: ATOM      3  C   UNL     1     -43.562 -21.066   6.957 -0.22 +0.00    +0.004 A  
DOCKED: ATOM      4  C   UNL     1     -44.668 -21.872   6.730 -0.20 +0.00    +0.006 A  
DOCKED: ATOM      5  C   UNL     1     -45.909 -21.105   6.982 -0.20 +0.00    +0.169 C  
DOCKED: ATOM      6  C   UNL     1     -42.277 -21.551   6.767 -0.25 -0.00    -0.001 A  
DOCKED: ATOM      7  C   UNL     1     -44.530 -23.184   6.312 -0.25 +0.00    +0.008 A  
DOCKED: ATOM      8  C   UNL     1     -42.120 -22.874   6.350 -0.31 +0.00    +0.010 A  
DOCKED: ATOM      9  C   UNL     1     -43.242 -23.686   6.123 -0.25 +0.00    +0.068 A  
DOCKED: ATOM     10  N   UNL     1     -42.916 -26.136   5.344 -2.61 -0.00    -0.191 NA 
DOCKED: ATOM     11  C   UNL     1     -43.062 -25.037   5.694 -0.36 +0.00    +0.101 C  
DOCKED: ENDROOT
DOCKED: BRANCH   2  12
DOCKED: ATOM     12  C   UNL     1     -43.698 -18.618   6.366 -0.20 +0.00    +0.038 C  
DOCKED: BRANCH  12  13
DOCKED: ATOM     13  C   UNL     1     -42.208 -18.286   6.345 -0.18 +0.00    +0.038 C  
DOCKED: BRANCH  13  14
DOCKED: ATOM     14  C   UNL     1     -41.970 -16.857   5.862 -0.11 +0.00    +0.251 C  
DOCKED: BRANCH  14  15
DOCKED: ATOM     15  N   UNL     1     -43.043 -16.438   4.968 -0.15 +0.00    +0.141 N  
DOCKED: ATOM     16  C   UNL     1     -43.825 -15.358   5.572 -0.06 +0.00    +0.285 C  
DOCKED: ATOM     17  C   UNL     1     -42.502 -16.012   3.677 -0.12 +0.00    +0.285 C  
DOCKED: ENDBRANCH  14  15
DOCKED: ENDBRANCH  13  14
DOCKED: ENDBRANCH  12  13
DOCKED: ENDBRANCH   2  12
DOCKED: BRANCH   2  18
DOCKED: ATOM     18  C   UNL     1     -43.505 -19.325   8.744 -0.06 +0.00    +0.006 A  
DOCKED: ATOM     19  C   UNL     1     -43.652 -18.017   9.204 -0.03 +0.00    +0.001 A  
DOCKED: ATOM     20  C   UNL     1     -43.177 -17.666  10.468 -0.01 +0.00    +0.029 A  
DOCKED: ATOM     21  C   UNL     1     -42.558 -18.623  11.271 -0.00 +0.00    +0.140 A  
DOCKED: ATOM     22  C   UNL     1     -42.412 -19.931  10.810 -0.01 +0.00    +0.029 A  
DOCKED: ATOM     23  F   UNL     1     -42.104 -18.287  12.485 +0.00 -0.00    -0.204 F  
DOCKED: ATOM     24  C   UNL     1     -42.885 -20.283   9.545 -0.03 +0.00    +0.001 A  
DOCKED: ENDBRANCH   2  18
DOCKED: TORSDOF 5
DOCKED: TER
DOCKED: ENDMDL
________________________________________________________________________________


    FINAL DOCKED STATE:
    ________________________


Run:   512 / 512
Time taken for this run:   0.002s

DOCKED: MODEL        512
DOCKED: USER    Run = 512
DOCKED: USER
DOCKED: USER    Estimated Free Energy of Binding    =  -3.88 kcal/mol  [=(1)+(2)+(3)-(4)]
DOCKED: USER
DOCKED: USER    (1) Final Intermolecular Energy     =  -5.37 kcal/mol
DOCKED: USER        vdW + Hbond + desolv Energy     =  -5.37 kcal/mol
DOCKED: USER        Electrostatic Energy            =  +0.00 kcal/mol
DOCKED: USER        Moving Ligand-Fixed Receptor    =  -5.37 kcal/mol
DOCKED: USER        Moving Ligand-Moving Receptor   =  +0.00 kcal/mol
DOCKED: USER    (2) Final Total Internal Energy     =  -1.30 kcal/mol
DOCKED: USER    (3) Torsional Free Energy           =  +1.49 kcal/mol
DOCKED: USER    (4) Unbound System's Energy         =  -1.30 kcal/mol
DOCKED: USER
DOCKED: USER
DOCKED: REMARK  5 active torsions:
DOCKED: REMARK  status: ('A' for Active; 'I' for Inactive)
DOCKED: REMARK    1  A    between atoms: C_2  and  C_19 
DOCKED: REMARK    2  A    between atoms: C_2  and  C_11 
DOCKED: REMARK    3  A    between atoms: C_19  and  C_20 
DOCKED: REMARK    4  A    between atoms: C_20  and  C_21 
DOCKED: REMARK    5  A    between atoms: C_21  and  N_22 
DOCKED: USER                              x       y       z     vdW  Elec       q    Type
DOCKED: USER                           _______ _______ _______ _____ _____    ______ ____
DOCKED: ROOT
DOCKED: ATOM      1  O   UNL     1     -39.473 -22.439   9.751 -0.04 -0.00    -0.346 OA 
DOCKED: ATOM      2  C   UNL     1     -39.844 -21.517   8.677 -0.11 +0.00    +0.130 C  
DOCKED: ATOM      3  C   UNL     1     -40.617 -22.375   7.718 -0.21 +0.00    +0.004 A  
DOCKED: ATOM      4  C   UNL     1     -40.771 -23.648   8.249 -0.23 +0.00    +0.006 A  
DOCKED: ATOM      5  C   UNL     1     -40.131 -23.716   9.582 -0.11 +0.00    +0.169 C  
DOCKED: ATOM      6  C   UNL     1     -41.152 -22.052   6.479 -0.29 -0.00    -0.001 A  
DOCKED: ATOM      7  C   UNL     1     -41.456 -24.637   7.564 -0.32 +0.00    +0.008 A  
DOCKED: ATOM      8  C   UNL     1     -41.842 -23.040   5.774 -0.36 +0.00    +0.010 A  
DOCKED: ATOM      9  C   UNL     1     -41.994 -24.325   6.314 -0.31 +0.00    +0.068 A  
DOCKED: ATOM     10  N   UNL     1     -43.284 -26.134   4.982 -2.37 -0.00    -0.191 NA 
DOCKED: ATOM     11  C   UNL     1     -42.705 -25.323   5.579 -0.30 +0.00    +0.101 C  
DOCKED: ENDROOT
DOCKED: BRANCH   2  12
DOCKED: ATOM     12  C   UNL     1     -40.680 -20.391   9.273 -0.05 +0.00    +0.038 C  
DOCKED: BRANCH  12  13
DOCKED: ATOM     13  C   UNL     1     -40.571 -20.364  10.797 -0.01 +0.00    +0.038 C  
DOCKED: BRANCH  13  14
DOCKED: ATOM     14  C   UNL     1     -41.797 -21.002  11.447 -0.00 +0.00    +0.251 C  
DOCKED: BRANCH  14  15
DOCKED: ATOM     15  N   UNL     1     -41.457 -21.528  12.764 -0.00 +0.00    +0.141 N  
DOCKED: ATOM     16  C   UNL     1     -42.258 -22.715  13.068 -0.00 +0.00    +0.285 C  
DOCKED: ATOM     17  C   UNL     1     -40.030 -21.845  12.840 -0.00 +0.00    +0.285 C  
DOCKED: ENDBRANCH  14  15
DOCKED: ENDBRANCH  13  14
DOCKED: ENDBRANCH  12  13
DOCKED: ENDBRANCH   2  12
DOCKED: BRANCH   2  18
DOCKED: ATOM     18  C   UNL     1     -38.574 -20.993   8.094 -0.13 +0.00    +0.006 A  
DOCKED: ATOM     19  C   UNL     1     -37.361 -21.609   8.400 -0.13 +0.00    +0.001 A  
DOCKED: ATOM     20  C   UNL     1     -36.174 -21.118   7.855 -0.10 +0.00    +0.029 A  
DOCKED: ATOM     21  C   UNL     1     -36.201 -20.014   7.005 -0.07 +0.00    +0.140 A  
DOCKED: ATOM     22  C   UNL     1     -37.415 -19.398   6.699 -0.10 +0.00    +0.029 A  
DOCKED: ATOM     23  F   UNL     1     -35.062 -19.544   6.480 -0.01 -0.00    -0.204 F  
DOCKED: ATOM     24  C   UNL     1     -38.603 -19.888   7.244 -0.13 +0.00    +0.001 A  
DOCKED: ENDBRANCH   2  18
DOCKED: TORSDOF 5
DOCKED: TER
DOCKED: ENDMDL
________________________________________________________________________________


    CLUSTERING HISTOGRAM
    ____________________


________________________________________________________________________________
     |           |     |           |     |
Clus | Lowest    | Run | Mean      | Num | Histogram
-ter | Binding   |     | Binding   | in  |
Rank | Energy    |     | Energy    | Clus|    5    10   15   20   25   30   35
_____|___________|_____|___________|_____|____:____|____:____|____:____|____:___
   1 |     -6.91 | 501 |     -5.51 |  26 |##########################
   2 |     -6.30 | 425 |     -4.66 |  11 |###########
   3 |     -6.06 | 424 |     -5.30 |  48 |################################################
   4 |     -5.70 | 229 |     -5.33 |  16 |################
   5 |     -5.64 | 238 |     -5.03 |  33 |#################################
   6 |     -5.50 | 101 |     -4.69 |  11 |###########
   7 |     -5.21 | 456 |     -5.21 |   1 |#
   8 |     -5.10 |  60 |     -4.44 |  29 |#############################
   9 |     -4.93 | 315 |     -4.43 |  10 |##########
  10 |     -4.91 | 359 |     -4.57 |   4 |####
  11 |     -4.76 | 147 |     -4.51 |   2 |##
  12 |     -4.75 |  38 |     -4.31 |  44 |############################################
  13 |     -4.73 | 392 |     -4.21 |  54 |######################################################
  14 |     -4.73 | 480 |     -4.19 |   7 |#######
  15 |     -4.43 | 438 |     -4.37 |   2 |##
  16 |     -4.42 |  87 |     -4.42 |   1 |#
  17 |     -4.38 | 511 |     -4.08 |  17 |#################
  18 |     -4.38 | 153 |     -4.38 |   1 |#
  19 |     -4.36 | 106 |     -4.08 |  29 |#############################
  20 |     -4.33 | 348 |     -4.33 |   1 |#
  21 |     -4.23 | 260 |     -3.92 |  27 |###########################
  22 |     -4.22 | 186 |     -3.99 |  13 |#############
  23 |     -4.21 | 100 |     -4.20 |   2 |##
  24 |     -4.20 | 484 |     -3.91 |  16 |################
  25 |     -4.20 |  96 |     -4.02 |   4 |####
  26 |     -4.18 |  92 |     -4.18 |   1 |#
  27 |     -4.16 | 325 |     -4.16 |   1 |#
  28 |     -4.11 | 321 |     -3.79 |   5 |#####
  29 |     -4.06 | 178 |     -3.76 |  12 |############
  30 |     -4.06 | 384 |     -3.76 |  16 |################
  31 |     -4.05 |  24 |     -3.87 |   4 |####
  32 |     -4.03 |  73 |     -3.74 |   6 |######
  33 |     -3.98 | 181 |     -3.81 |   3 |###
  34 |     -3.93 | 494 |     -3.82 |   3 |###
  35 |     -3.91 | 210 |     -3.74 |   3 |###
  36 |     -3.91 | 420 |     -3.84 |   4 |####
  37 |     -3.90 | 401 |     -3.72 |   4 |####
  38 |     -3.89 | 283 |     -3.82 |   4 |####
  39 |     -3.88 | 413 |     -3.69 |   2 |##
  40 |     -3.88 | 398 |     -3.72 |   2 |##
  41 |     -3.77 | 103 |     -3.76 |   2 |##
  42 |     -3.75 | 309 |     -3.60 |   2 |##
  43 |     -3.75 | 255 |     -3.62 |   3 |###
  44 |     -3.70 | 459 |     -3.70 |   1 |#
  45 |     -3.66 | 374 |     -3.66 |   1 |#
  46 |     -3.61 | 416 |     -3.61 |   1 |#
  47 |     -3.59 |  56 |     -3.56 |   2 |##
  48 |     -3.57 | 140 |     -3.57 |   1 |#
  49 |     -3.55 |  94 |     -3.55 |   1 |#
  50 |     -3.52 | 129 |     -3.52 |   1 |#
  51 |     -3.51 | 470 |     -3.51 |   1 |#
  52 |     -3.48 | 268 |     -3.48 |   1 |#
  53 |     -3.48 | 458 |     -3.47 |   3 |###
  54 |     -3.46 | 305 |     -3.28 |   2 |##
  55 |     -3.41 | 262 |     -3.41 |   1 |#
  56 |     -3.40 | 445 |     -3.40 |   1 |#
  57 |     -3.37 | 451 |     -3.37 |   1 |#
  58 |     -3.35 | 500 |     -3.35 |   1 |#
  59 |     -3.32 |  14 |     -3.32 |   1 |#
  60 |     -3.31 |  10 |     -3.31 |   1 |#
  61 |     -3.27 | 462 |     -3.27 |   1 |#
  62 |     -3.25 | 379 |     -3.25 |   1 |#
  63 |     -3.22 | 339 |     -3.22 |   1 |#
  64 |     -2.94 | 134 |     -2.94 |   1 |#
  65 |     -2.78 | 506 |     -2.78 |   1 |#
_____|___________|_____|___________|_____|______________________________________


    RMSD TABLE
    __________


_______________________________________________________________________
     |      |      |           |         |                 |
Rank | Sub- | Run  | Binding   | Cluster | Reference       | Grep
     | Rank |      | Energy    | RMSD    | RMSD            | Pattern
_____|______|______|___________|_________|_________________|___________
   1      1    501       -6.91      0.00     46.82           RANKING
   1      2    280       -6.46      1.31     47.31           RANKING
   1      3     88       -6.35      0.70     46.75           RANKING
   1      4    461       -6.27      1.73     47.97           RANKING
   1      5     72       -6.21      1.67     47.71           RANKING
   1      6    407       -6.13      1.58     46.40           RANKING
   1      7    457       -6.13      1.37     45.72           RANKING
   1      8    430       -6.04      1.85     46.36           RANKING
   1      9    112       -5.90      1.64     46.96           RANKING
   1     10    412       -5.73      0.91     47.00           RANKING
   1     11    160       -5.68      1.43     47.36           RANKING
   1     12    388       -5.45      1.78     47.57           RANKING
   1     13    299       -5.45      1.53     47.35           RANKING
   1     14    281       -5.45      1.71     47.95           RANKING
   1     15    288       -5.42      1.26     46.06           RANKING
   1     16    361       -5.37      1.61     47.33           RANKING
   1     17    414       -5.35      1.84     47.54           RANKING
   1     18    231       -5.15      1.22     46.93           RANKING
   1     19    141       -5.05      1.85     46.59           RANKING
   1     20    177       -5.01      1.88     47.55           RANKING
   1     21    212       -4.99      1.99     46.02           RANKING
   1     22    453       -4.95      1.87     46.03           RANKING
   1     23    344       -4.75      1.88     45.65           RANKING
   1     24    493       -4.69      1.90     46.32           RANKING
   1     25    221       -4.46      1.63     46.38           RANKING
   1     26    114       -3.88      1.99     46.73           RANKING
   2      1    425       -6.30      0.00     46.33           RANKING
   2      2    205       -4.97      0.95     46.25           RANKING
   2      3    265       -4.85      1.14     46.25           RANKING
   2      4    372       -4.84      1.19     46.78           RANKING
   2      5     32       -4.72      1.41     46.68           RANKING
   2      6     99       -4.42      1.93     46.92           RANKING
   2      7    270       -4.40      1.66     46.43           RANKING
   2      8     58       -4.33      1.51     46.38           RANKING
   2      9    395       -4.30      1.50     46.39           RANKING
   2     10    169       -4.28      1.46     46.18           RANKING
   2     11    285       -3.84      1.78     46.04           RANKING
   3      1    424       -6.06      0.00     46.27           RANKING
   3      2    505       -6.05      0.42     46.41           RANKING
   3      3    441       -6.02      0.59     46.52           RANKING
   3      4    257       -5.88      1.09     46.51           RANKING
   3      5    389       -5.82      1.25     46.40           RANKING
   3      6     82       -5.81      1.26     46.55           RANKING
   3      7    465       -5.76      1.35     46.98           RANKING
   3      8    405       -5.75      1.31     46.42           RANKING
   3      9     44       -5.72      1.14     46.55           RANKING
   3     10    117       -5.63      1.32     46.41           RANKING
   3     11     33       -5.63      1.31     46.73           RANKING
   3     12    189       -5.58      1.69     47.11           RANKING
   3     13    211       -5.58      0.97     46.32           RANKING
   3     14    166       -5.53      1.44     46.59           RANKING
   3     15    477       -5.51      1.57     46.79           RANKING
   3     16    198       -5.49      1.27     46.81           RANKING
   3     17     12       -5.49      1.60     46.65           RANKING
   3     18    322       -5.47      0.88     46.26           RANKING
   3     19     15       -5.46      1.23     46.16           RANKING
   3     20    249       -5.44      1.07     46.22           RANKING
   3     21    410       -5.43      1.71     46.55           RANKING
   3     22    327       -5.42      1.31     46.38           RANKING
   3     23     74       -5.41      1.39     46.34           RANKING
   3     24    495       -5.41      1.18     46.60           RANKING
   3     25     22       -5.35      1.52     46.57           RANKING
   3     26    105       -5.34      1.65     46.49           RANKING
   3     27    293       -5.29      1.56     46.27           RANKING
   3     28    435       -5.20      1.43     45.94           RANKING
   3     29    394       -5.20      1.65     46.86           RANKING
   3     30     17       -5.20      1.74     46.65           RANKING
   3     31    341       -5.18      1.51     46.34           RANKING
   3     32    144       -5.15      1.04     46.59           RANKING
   3     33    360       -5.11      1.18     45.82           RANKING
   3     34    220       -5.07      1.77     46.17           RANKING
   3     35    432       -5.05      1.08     46.37           RANKING
   3     36     64       -4.99      1.58     46.98           RANKING
   3     37     83       -4.93      1.73     46.80           RANKING
   3     38    312       -4.93      1.95     46.36           RANKING
   3     39    185       -4.80      1.94     46.82           RANKING
   3     40    383       -4.79      1.87     46.48           RANKING
   3     41    196       -4.78      1.98     46.79           RANKING
   3     42    200       -4.74      1.71     46.55           RANKING
   3     43      3       -4.70      1.82     46.62           RANKING
   3     44    304       -4.67      1.24     46.33           RANKING
   3     45    369       -4.65      1.24     46.28           RANKING
   3     46    242       -4.63      1.78     46.24           RANKING
   3     47    504       -4.61      1.37     46.30           RANKING
   3     48    307       -4.58      1.09     46.09           RANKING
   4      1    229       -5.70      0.00     47.79           RANKING
   4      2      9       -5.69      0.95     47.87           RANKING
   4      3    343       -5.64      0.96     47.81           RANKING
   4      4    427       -5.56      0.80     47.86           RANKING
   4      5     29       -5.49      1.10     47.71           RANKING
   4      6    145       -5.43      1.36     47.67           RANKING
   4      7    335       -5.42      0.75     48.00           RANKING
   4      8    162       -5.42      1.14     47.83           RANKING
   4      9    227       -5.39      0.96     47.62           RANKING
   4     10    417       -5.34      0.98     47.85           RANKING
   4     11     66       -5.34      1.05     48.14           RANKING
   4     12    308       -5.18      1.54     47.01           RANKING
   4     13    487       -5.13      1.25     47.51           RANKING
   4     14    247       -4.94      1.88     47.23           RANKING
   4     15    296       -4.88      1.50     48.05           RANKING
   4     16    244       -4.69      1.94     47.55           RANKING
   5      1    238       -5.64      0.00     47.60           RANKING
   5      2    310       -5.54      1.46     47.02           RANKING
   5      3    452       -5.47      1.48     47.54           RANKING
   5      4    282       -5.46      0.86     48.04           RANKING
   5      5    474       -5.45      1.40     47.56           RANKING
   5      6    381       -5.40      0.63     47.53           RANKING
   5      7    497       -5.39      1.15     47.85           RANKING
   5      8    253       -5.37      0.98     47.12           RANKING
   5      9    440       -5.31      1.28     47.24           RANKING
   5     10    248       -5.29      1.26     47.04           RANKING
   5     11     81       -5.27      1.43     47.29           RANKING
   5     12    167       -5.24      1.33     47.39           RANKING
   5     13    287       -5.11      0.82     47.72           RANKING
   5     14    161       -5.08      1.46     47.83           RANKING
   5     15    336       -5.03      0.78     47.28           RANKING
   5     16     51       -5.02      1.07     47.79           RANKING
   5     17     68       -5.02      1.04     47.45           RANKING
   5     18    122       -4.97      1.83     47.08           RANKING
   5     19     54       -4.92      1.14     47.80           RANKING
   5     20    250       -4.91      1.24     47.10           RANKING
   5     21    157       -4.90      1.95     46.82           RANKING
   5     22    155       -4.86      1.77     47.80           RANKING
   5     23     76       -4.83      1.87     47.88           RANKING
   5     24    328       -4.83      0.88     47.47           RANKING
   5     25    183       -4.80      1.07     47.52           RANKING
   5     26    415       -4.76      1.92     47.42           RANKING
   5     27    139       -4.74      1.93     46.91           RANKING
   5     28     71       -4.73      1.96     46.71           RANKING
   5     29    318       -4.71      1.83     47.49           RANKING
   5     30    333       -4.71      1.18     47.22           RANKING
   5     31    355       -4.63      0.93     47.31           RANKING
   5     32    236       -4.58      1.58     47.42           RANKING
   5     33    179       -4.16      1.99     46.40           RANKING
   6      1    101       -5.50      0.00     46.71           RANKING
   6      2    454       -5.16      1.16     46.46           RANKING
   6      3    363       -5.09      0.86     46.30           RANKING
   6      4    469       -5.07      1.51     46.14           RANKING
   6      5    272       -4.93      1.82     47.37           RANKING
   6      6     13       -4.76      1.97     46.88           RANKING
   6      7    116       -4.74      0.94     46.06           RANKING
   6      8    115       -4.32      1.65     45.98           RANKING
   6      9    261       -4.26      1.68     46.84           RANKING
   6     10    143       -4.15      1.78     46.72           RANKING
   6     11     35       -3.64      1.95     45.63           RANKING
   7      1    456       -5.21      0.00     46.39           RANKING
   8      1     60       -5.10      0.00     39.53           RANKING
   8      2     28       -4.85      0.68     39.48           RANKING
   8      3    214       -4.84      0.89     39.93           RANKING
   8      4    422       -4.79      1.38     39.28           RANKING
   8      5    330       -4.75      0.98     39.94           RANKING
   8      6    290       -4.70      1.71     39.04           RANKING
   8      7    357       -4.61      1.37     39.44           RANKING
   8      8    233       -4.56      0.82     39.51           RANKING
   8      9    252       -4.56      0.93     39.63           RANKING
   8     10    303       -4.54      1.39     38.61           RANKING
   8     11    428       -4.51      1.48     39.67           RANKING
   8     12    385       -4.48      1.98     39.41           RANKING
   8     13    289       -4.47      1.06     39.34           RANKING
   8     14    190       -4.45      1.28     40.02           RANKING
   8     15    444       -4.45      1.37     38.90           RANKING
   8     16    131       -4.43      1.18     39.08           RANKING
   8     17    197       -4.43      1.06     39.54           RANKING
   8     18    472       -4.40      1.11     40.22           RANKING
   8     19    323       -4.36      1.21     40.03           RANKING
   8     20    418       -4.33      1.10     38.63           RANKING
   8     21     62       -4.33      1.20     40.15           RANKING
   8     22     39       -4.30      1.74     38.38           RANKING
   8     23     70       -4.26      1.65     39.54           RANKING
   8     24     18       -4.20      1.08     38.90           RANKING
   8     25    426       -4.13      1.45     38.79           RANKING
   8     26    203       -4.11      1.91     38.13           RANKING
   8     27    443       -4.03      1.63     38.87           RANKING
   8     28    258       -3.99      1.50     38.26           RANKING
   8     29    367       -3.89      1.45     38.67           RANKING
   9      1    315       -4.93      0.00     39.58           RANKING
   9      2    393       -4.92      1.63     39.31           RANKING
   9      3    380       -4.87      0.89     39.57           RANKING
   9      4    314       -4.70      0.62     39.68           RANKING
   9      5    331       -4.51      1.03     39.21           RANKING
   9      6    130       -4.23      1.55     38.52           RANKING
   9      7    492       -4.22      1.04     39.17           RANKING
   9      8     90       -4.06      1.32     38.99           RANKING
   9      9    502       -3.95      1.57     39.64           RANKING
   9     10    148       -3.93      1.63     39.60           RANKING
  10      1    359       -4.91      0.00     38.78           RANKING
  10      2    156       -4.71      0.82     38.43           RANKING
  10      3    180       -4.51      1.10     38.00           RANKING
  10      4    273       -4.16      1.80     37.80           RANKING
  11      1    147       -4.76      0.00     47.80           RANKING
  11      2    353       -4.26      1.66     47.47           RANKING
  12      1     38       -4.75      0.00     45.88           RANKING
  12      2    154       -4.68      0.65     46.24           RANKING
  12      3    466       -4.65      0.88     45.68           RANKING
  12      4    218       -4.59      0.84     46.22           RANKING
  12      5    320       -4.58      0.92     46.09           RANKING
  12      6    123       -4.58      0.80     45.58           RANKING
  12      7    319       -4.58      0.74     46.28           RANKING
  12      8    346       -4.49      0.94     45.99           RANKING
  12      9    215       -4.46      0.79     45.81           RANKING
  12     10    279       -4.46      1.23     46.89           RANKING
  12     11    168       -4.46      1.17     46.37           RANKING
  12     12    421       -4.45      1.06     45.97           RANKING
  12     13    223       -4.45      1.86     46.06           RANKING
  12     14    483       -4.42      1.54     45.52           RANKING
  12     15    277       -4.42      1.41     46.01           RANKING
  12     16    464       -4.41      1.74     45.77           RANKING
  12     17     31       -4.40      1.63     46.45           RANKING
  12     18     67       -4.39      0.74     46.16           RANKING
  12     19    171       -4.36      1.28     45.91           RANKING
  12     20    442       -4.36      1.89     45.30           RANKING
  12     21    490       -4.35      1.94     45.44           RANKING
  12     22    366       -4.33      1.77     45.26           RANKING
  12     23    365       -4.30      0.97     45.63           RANKING
  12     24    104       -4.29      1.80     45.10           RANKING
  12     25    468       -4.29      1.62     45.66           RANKING
  12     26    338       -4.28      1.83     44.90           RANKING
  12     27    271       -4.28      1.73     46.02           RANKING
  12     28    419       -4.27      1.51     46.32           RANKING
  12     29    132       -4.26      1.77     46.24           RANKING
  12     30    142       -4.22      0.70     45.99           RANKING
  12     31    102       -4.21      1.87     46.66           RANKING
  12     32    400       -4.21      1.14     45.99           RANKING
  12     33    378       -4.20      1.90     45.00           RANKING
  12     34    397       -4.15      0.83     45.84           RANKING
  12     35    404       -4.14      1.44     45.49           RANKING
  12     36    449       -4.13      1.59     46.42           RANKING
  12     37      4       -4.11      1.87     45.12           RANKING
  12     38    137       -4.09      0.72     45.91           RANKING
  12     39    371       -4.02      1.02     46.07           RANKING
  12     40    193       -4.02      1.88     47.14           RANKING
  12     41    174       -3.99      1.71     45.53           RANKING
  12     42    175       -3.97      1.68     46.12           RANKING
  12     43     20       -3.95      1.22     46.12           RANKING
  12     44    266       -3.69      1.91     45.20           RANKING
  13      1    392       -4.73      0.00     44.19           RANKING
  13      2    377       -4.67      0.69     44.30           RANKING
  13      3    235       -4.57      1.17     44.62           RANKING
  13      4     43       -4.51      0.95     44.54           RANKING
  13      5     48       -4.48      0.56     44.11           RANKING
  13      6     86       -4.45      0.66     44.10           RANKING
  13      7    149       -4.43      0.65     44.06           RANKING
  13      8    302       -4.37      1.73     44.52           RANKING
  13      9    455       -4.36      0.94     44.29           RANKING
  13     10    164       -4.36      1.76     44.41           RANKING
  13     11    295       -4.34      1.79     44.38           RANKING
  13     12    234       -4.33      1.28     44.80           RANKING
  13     13     11       -4.33      1.08     44.37           RANKING
  13     14    226       -4.33      1.93     44.29           RANKING
  13     15    245       -4.32      1.43     44.75           RANKING
  13     16    370       -4.31      1.95     44.30           RANKING
  13     17    291       -4.30      0.90     43.97           RANKING
  13     18     78       -4.30      1.85     44.92           RANKING
  13     19    138       -4.28      1.84     44.72           RANKING
  13     20    125       -4.28      1.58     44.99           RANKING
  13     21    498       -4.27      1.93     44.81           RANKING
  13     22    481       -4.25      1.84     44.55           RANKING
  13     23    263       -4.25      1.90     43.61           RANKING
  13     24    337       -4.24      1.73     43.70           RANKING
  13     25    386       -4.24      1.58     44.63           RANKING
  13     26    173       -4.22      1.79     44.08           RANKING
  13     27     84       -4.21      1.65     44.26           RANKING
  13     28    219       -4.20      1.93     43.64           RANKING
  13     29     98       -4.19      1.47     44.36           RANKING
  13     30    246       -4.19      1.93     43.79           RANKING
  13     31    437       -4.19      1.98     43.82           RANKING
  13     32     63       -4.18      1.86     44.54           RANKING
  13     33    408       -4.17      1.38     44.21           RANKING
  13     34    311       -4.12      1.79     44.18           RANKING
  13     35    118       -4.12      1.51     44.85           RANKING
  13     36    136       -4.12      1.72     45.22           RANKING
  13     37    172       -4.10      1.63     44.42           RANKING
  13     38     42       -4.09      1.74     43.96           RANKING
  13     39      5       -4.08      1.70     43.65           RANKING
  13     40    399       -4.08      1.65     44.80           RANKING
  13     41    482       -4.05      1.62     44.95           RANKING
  13     42    188       -4.04      1.82     44.95           RANKING
  13     43    192       -4.03      1.77     44.55           RANKING
  13     44    119       -4.03      1.23     44.56           RANKING
  13     45    463       -4.03      1.52     44.88           RANKING
  13     46    332       -3.99      1.53     44.71           RANKING
  13     47    358       -3.99      1.38     44.76           RANKING
  13     48    390       -3.98      1.66     45.17           RANKING
  13     49     85       -3.97      1.69     44.78           RANKING
  13     50    375       -3.97      1.45     44.56           RANKING
  13     51     77       -3.94      1.59     44.84           RANKING
  13     52    191       -3.94      1.83     43.83           RANKING
  13     53     57       -3.93      1.75     45.16           RANKING
  13     54    146       -3.90      1.70     45.11           RANKING
  14      1    480       -4.73      0.00     38.70           RANKING
  14      2    228       -4.34      1.69     37.73           RANKING
  14      3     69       -4.33      1.24     37.81           RANKING
  14      4    439       -4.17      0.94     38.70           RANKING
  14      5    150       -4.05      1.15     38.29           RANKING
  14      6    124       -4.02      1.79     39.57           RANKING
  14      7    485       -3.71      1.82     39.25           RANKING
  15      1    438       -4.43      0.00     46.22           RANKING
  15      2    301       -4.32      1.58     45.41           RANKING
  16      1     87       -4.42      0.00     47.24           RANKING
  17      1    511       -4.38      0.00     46.52           RANKING
  17      2     36       -4.29      1.77     45.86           RANKING
  17      3     45       -4.27      1.68     46.02           RANKING
  17      4    300       -4.17      1.67     45.28           RANKING
  17      5    406       -4.16      1.45     46.92           RANKING
  17      6    507       -4.15      1.65     45.52           RANKING
  17      7     55       -4.14      1.18     46.16           RANKING
  17      8    298       -4.14      1.80     45.07           RANKING
  17      9    176       -4.11      1.98     45.85           RANKING
  17     10    259       -4.09      1.76     45.85           RANKING
  17     11    222       -4.05      1.74     45.63           RANKING
  17     12    208       -4.03      1.69     45.37           RANKING
  17     13    488       -4.00      1.06     46.78           RANKING
  17     14     25       -3.94      1.85     45.10           RANKING
  17     15    204       -3.92      1.47     46.00           RANKING
  17     16    448       -3.88      1.63     46.89           RANKING
  17     17    199       -3.69      1.19     46.47           RANKING
  18      1    153       -4.38      0.00     48.45           RANKING
  19      1    106       -4.36      0.00     44.21           RANKING
  19      2    184       -4.34      1.59     44.88           RANKING
  19      3    274       -4.31      1.28     44.87           RANKING
  19      4    447       -4.31      1.68     43.41           RANKING
  19      5    503       -4.29      1.68     43.45           RANKING
  19      6    135       -4.28      1.23     44.92           RANKING
  19      7    479       -4.23      1.66     43.44           RANKING
  19      8     89       -4.22      0.84     44.33           RANKING
  19      9     46       -4.19      1.84     43.60           RANKING
  19     10    354       -4.18      0.87     44.15           RANKING
  19     11     26       -4.18      0.81     44.56           RANKING
  19     12    152       -4.17      1.08     44.64           RANKING
  19     13    499       -4.15      1.88     43.74           RANKING
  19     14    121       -4.15      1.04     44.76           RANKING
  19     15    158       -4.14      1.19     44.36           RANKING
  19     16    446       -4.14      1.17     44.98           RANKING
  19     17     21       -4.09      1.39     43.88           RANKING
  19     18    387       -4.08      0.95     43.97           RANKING
  19     19    202       -4.01      1.52     43.66           RANKING
  19     20     79       -4.01      1.16     44.61           RANKING
  19     21    373       -4.00      1.43     44.28           RANKING
  19     22    345       -3.99      1.43     44.31           RANKING
  19     23      1       -3.94      1.43     44.18           RANKING
  19     24    512       -3.88      1.53     44.75           RANKING
  19     25    209       -3.85      1.09     44.37           RANKING
  19     26    317       -3.85      1.42     44.34           RANKING
  19     27    206       -3.72      1.48     44.07           RANKING
  19     28     27       -3.70      1.74     44.91           RANKING
  19     29    194       -3.55      1.94     44.36           RANKING
  20      1    348       -4.33      0.00     48.76           RANKING
  21      1    260       -4.23      0.00     39.49           RANKING
  21      2    478       -4.17      0.73     39.40           RANKING
  21      3      6       -4.15      0.75     39.47           RANKING
  21      4    241       -4.14      0.72     39.35           RANKING
  21      5    475       -4.08      0.67     39.54           RANKING
  21      6    382       -4.05      1.11     39.30           RANKING
  21      7    170       -4.04      1.32     39.28           RANKING
  21      8    224       -4.04      1.93     39.13           RANKING
  21      9    163       -4.02      1.88     39.21           RANKING
  21     10    403       -4.01      1.53     39.21           RANKING
  21     11    313       -4.00      1.57     39.85           RANKING
  21     12    195       -3.97      1.99     38.98           RANKING
  21     13    264       -3.97      1.88     39.15           RANKING
  21     14    239       -3.95      1.54     39.12           RANKING
  21     15     65       -3.95      1.64     39.03           RANKING
  21     16    256       -3.95      1.95     38.90           RANKING
  21     17    232       -3.94      1.62     38.87           RANKING
  21     18    396       -3.94      1.94     39.13           RANKING
  21     19     52       -3.88      0.80     39.48           RANKING
  21     20    352       -3.87      1.29     39.19           RANKING
  21     21    297       -3.81      1.30     39.58           RANKING
  21     22    159       -3.77      1.93     39.01           RANKING
  21     23    284       -3.77      1.10     39.40           RANKING
  21     24    127       -3.75      1.92     39.04           RANKING
  21     25    411       -3.66      1.12     39.47           RANKING
  21     26    471       -3.58      1.62     39.39           RANKING
  21     27    187       -3.23      1.82     38.80           RANKING
  22      1    186       -4.22      0.00     39.55           RANKING
  22      2    342       -4.16      1.68     39.16           RANKING
  22      3    431       -4.12      1.79     39.20           RANKING
  22      4    350       -4.12      0.93     39.26           RANKING
  22      5    276       -4.12      0.90     39.55           RANKING
  22      6     34       -4.07      1.08     39.53           RANKING
  22      7    286       -4.02      0.85     39.42           RANKING
  22      8     40       -4.01      0.99     39.49           RANKING
  22      9     37       -3.99      1.84     39.04           RANKING
  22     10    450       -3.86      1.89     38.69           RANKING
  22     11    340       -3.77      1.68     39.35           RANKING
  22     12     49       -3.74      1.86     39.26           RANKING
  22     13     16       -3.70      1.17     39.24           RANKING
  23      1    100       -4.21      0.00     46.34           RANKING
  23      2    109       -4.20      1.45     47.17           RANKING
  24      1    484       -4.20      0.00     44.19           RANKING
  24      2     75       -4.19      1.94     44.13           RANKING
  24      3    351       -4.15      1.90     44.82           RANKING
  24      4      2       -4.08      1.00     44.45           RANKING
  24      5     91       -4.02      1.55     44.64           RANKING
  24      6     47       -4.02      1.54     44.00           RANKING
  24      7    230       -3.95      1.79     44.17           RANKING
  24      8    275       -3.90      1.34     44.93           RANKING
  24      9     61       -3.88      1.37     44.34           RANKING
  24     10      7       -3.84      1.69     44.12           RANKING
  24     11    347       -3.83      1.98     44.15           RANKING
  24     12    329       -3.80      1.74     44.62           RANKING
  24     13    111       -3.72      1.98     44.96           RANKING
  24     14    376       -3.68      1.91     44.62           RANKING
  24     15    402       -3.66      1.59     44.84           RANKING
  24     16    423       -3.62      1.90     44.92           RANKING
  25      1     96       -4.20      0.00     45.28           RANKING
  25      2     97       -4.16      0.62     45.16           RANKING
  25      3    126       -4.09      1.71     44.56           RANKING
  25      4     19       -3.63      1.51     45.51           RANKING
  26      1     92       -4.18      0.00     44.02           RANKING
  27      1    325       -4.16      0.00     48.37           RANKING
  28      1    321       -4.11      0.00     36.65           RANKING
  28      2    356       -3.90      1.51     35.96           RANKING
  28      3    108       -3.83      1.50     35.81           RANKING
  28      4    436       -3.60      1.86     35.74           RANKING
  28      5     23       -3.52      1.47     35.78           RANKING
  29      1    178       -4.06      0.00     44.66           RANKING
  29      2     59       -3.90      0.87     45.02           RANKING
  29      3    473       -3.90      1.72     44.81           RANKING
  29      4    294       -3.89      0.74     44.89           RANKING
  29      5    120       -3.86      0.95     44.68           RANKING
  29      6     41       -3.84      0.83     44.78           RANKING
  29      7     50       -3.83      1.21     44.77           RANKING
  29      8    324       -3.81      1.24     44.37           RANKING
  29      9    267       -3.76      1.60     45.19           RANKING
  29     10    496       -3.72      1.42     44.81           RANKING
  29     11    113       -3.52      1.94     44.61           RANKING
  29     12    362       -3.07      1.23     43.94           RANKING
  30      1    384       -4.06      0.00     35.26           RANKING
  30      2    151       -3.99      1.07     35.41           RANKING
  30      3    508       -3.96      0.87     35.32           RANKING
  30      4     80       -3.95      0.75     35.29           RANKING
  30      5      8       -3.93      1.71     35.91           RANKING
  30      6    409       -3.90      1.92     35.94           RANKING
  30      7    216       -3.85      1.44     35.72           RANKING
  30      8    165       -3.79      1.26     35.49           RANKING
  30      9     53       -3.74      1.01     35.54           RANKING
  30     10    509       -3.73      1.15     35.06           RANKING
  30     11    237       -3.71      0.99     35.09           RANKING
  30     12    292       -3.68      1.59     35.45           RANKING
  30     13    429       -3.54      1.24     34.79           RANKING
  30     14    326       -3.47      1.79     34.94           RANKING
  30     15    217       -3.46      1.83     35.36           RANKING
  30     16    486       -3.36      1.72     34.66           RANKING
  31      1     24       -4.05      0.00     45.49           RANKING
  31      2    110       -3.91      1.65     45.68           RANKING
  31      3    476       -3.88      1.55     45.55           RANKING
  31      4     95       -3.65      1.04     46.15           RANKING
  32      1     73       -4.03      0.00     36.99           RANKING
  32      2    182       -3.75      1.81     36.26           RANKING
  32      3    128       -3.72      1.07     36.48           RANKING
  32      4    107       -3.70      1.18     36.21           RANKING
  32      5     93       -3.69      1.33     36.27           RANKING
  32      6    391       -3.54      1.72     37.03           RANKING
  33      1    181       -3.98      0.00     37.78           RANKING
  33      2    334       -3.96      1.69     36.67           RANKING
  33      3    240       -3.50      1.96     36.38           RANKING
  34      1    494       -3.93      0.00     36.59           RANKING
  34      2    306       -3.87      1.28     36.07           RANKING
  34      3    213       -3.68      0.85     36.32           RANKING
  35      1    210       -3.91      0.00     38.99           RANKING
  35      2    510       -3.73      1.19     38.82           RANKING
  35      3    251       -3.59      1.75     38.68           RANKING
  36      1    420       -3.91      0.00     45.60           RANKING
  36      2    434       -3.90      1.42     44.99           RANKING
  36      3    243       -3.79      0.80     45.35           RANKING
  36      4    225       -3.76      1.76     45.17           RANKING
  37      1    401       -3.90      0.00     39.35           RANKING
  37      2    489       -3.81      1.75     39.84           RANKING
  37      3    491       -3.79      1.38     39.68           RANKING
  37      4     30       -3.38      1.14     39.13           RANKING
  38      1    283       -3.89      0.00     39.17           RANKING
  38      2    207       -3.85      1.91     38.66           RANKING
  38      3    133       -3.77      1.33     38.74           RANKING
  38      4    349       -3.75      1.83     38.81           RANKING
  39      1    413       -3.88      0.00     34.99           RANKING
  39      2    460       -3.51      1.98     35.60           RANKING
  40      1    398       -3.88      0.00     36.52           RANKING
  40      2    368       -3.57      0.95     36.61           RANKING
  41      1    103       -3.77      0.00     39.37           RANKING
  41      2    433       -3.74      1.77     38.80           RANKING
  42      1    309       -3.75      0.00     40.08           RANKING
  42      2    364       -3.45      1.58     39.61           RANKING
  43      1    255       -3.75      0.00     45.11           RANKING
  43      2    316       -3.59      1.39     45.10           RANKING
  43      3    254       -3.52      1.17     44.95           RANKING
  44      1    459       -3.70      0.00     46.43           RANKING
  45      1    374       -3.66      0.00     38.89           RANKING
  46      1    416       -3.61      0.00     39.46           RANKING
  47      1     56       -3.59      0.00     39.76           RANKING
  47      2    467       -3.53      1.26     39.77           RANKING
  48      1    140       -3.57      0.00     39.55           RANKING
  49      1     94       -3.55      0.00     44.59           RANKING
  50      1    129       -3.52      0.00     47.40           RANKING
  51      1    470       -3.51      0.00     37.18           RANKING
  52      1    268       -3.48      0.00     34.58           RANKING
  53      1    458       -3.48      0.00     44.94           RANKING
  53      2    278       -3.48      1.20     45.28           RANKING
  53      3    201       -3.45      1.61     44.82           RANKING
  54      1    305       -3.46      0.00     35.91           RANKING
  54      2    269       -3.10      1.79     36.59           RANKING
  55      1    262       -3.41      0.00     41.97           RANKING
  56      1    445       -3.40      0.00     47.00           RANKING
  57      1    451       -3.37      0.00     35.45           RANKING
  58      1    500       -3.35      0.00     38.85           RANKING
  59      1     14       -3.32      0.00     34.68           RANKING
  60      1     10       -3.31      0.00     40.42           RANKING
  61      1    462       -3.27      0.00     38.93           RANKING
  62      1    379       -3.25      0.00     35.40           RANKING
  63      1    339       -3.22      0.00     37.02           RANKING
  64      1    134       -2.94      0.00     34.70           RANKING
  65      1    506       -2.78      0.00     44.61           RANKING

Run time 0.962 sec
Idle time 0.612 sec
