REMARK  5 active torsions:
REMARK  status: ('A' for Active; 'I' for Inactive)
REMARK    1  A    between atoms: C_2  and  C_19 
REMARK    2  A    between atoms: C_2  and  C_11 
REMARK    3  A    between atoms: C_19  and  C_20 
REMARK    4  A    between atoms: C_20  and  C_21 
REMARK    5  A    between atoms: C_21  and  N_22 
ROOT
ATOM      1  O   UNL     1     -37.919 -20.018  10.757  0.00  0.00    -0.346 OA
ATOM      2  C   UNL     1     -38.874 -18.930  10.970  0.00  0.00    +0.130 C 
ATOM      3  C   UNL     1     -39.542 -18.770   9.635  0.00  0.00    +0.004 A 
ATOM      4  C   UNL     1     -39.090 -19.753   8.767  0.00  0.00    +0.006 A 
ATOM      5  C   UNL     1     -38.115 -20.626   9.459  0.00  0.00    +0.169 C 
ATOM      6  C   UNL     1     -40.484 -17.837   9.226  0.00  0.00    -0.001 A 
ATOM      7  C   UNL     1     -39.556 -19.835   7.466  0.00  0.00    +0.008 A 
ATOM      8  C   UNL     1     -40.961 -17.904   7.916  0.00  0.00    +0.010 A 
ATOM      9  C   UNL     1     -40.499 -18.898   7.040  0.00  0.00    +0.068 A 
ATOM     10  N   UNL     1     -41.408 -18.996   4.616  0.00  0.00    -0.191 NA
ATOM     11  C   UNL     1     -41.000 -18.952   5.703  0.00  0.00    +0.101 C 
ENDROOT
BRANCH   2  12
ATOM     12  C   UNL     1     -39.841 -19.345  12.072  0.00  0.00    +0.038 C 
BRANCH  12  13
ATOM     13  C   UNL     1     -40.762 -18.193  12.469  0.00  0.00    +0.038 C 
BRANCH  13  14
ATOM     14  C   UNL     1     -42.182 -18.423  11.958  0.00  0.00    +0.251 C 
BRANCH  14  15
ATOM     15  N   UNL     1     -42.837 -17.148  11.687  0.00  0.00    +0.141 N 
ATOM     16  C   UNL     1     -41.883 -16.044  11.801  0.00  0.00    +0.285 C 
ATOM     17  C   UNL     1     -43.449 -17.155  10.357  0.00  0.00    +0.285 C 
ENDBRANCH  14  15
ENDBRANCH  13  14
ENDBRANCH  12  13
ENDBRANCH   2  12
BRANCH   2  18
ATOM     18  C   UNL     1     -38.084 -17.729  11.372  0.00  0.00    +0.006 A 
ATOM     19  C   UNL     1     -37.383 -17.727  12.578  0.00  0.00    +0.001 A 
ATOM     20  C   UNL     1     -36.645 -16.604  12.952  0.00  0.00    +0.029 A 
ATOM     21  C   UNL     1     -36.608 -15.485  12.121  0.00  0.00    +0.140 A 
ATOM     22  C   UNL     1     -37.309 -15.488  10.915  0.00  0.00    +0.029 A 
ATOM     23  F   UNL     1     -35.898 -14.408  12.480  0.00  0.00    -0.204 F 
ATOM     24  C   UNL     1     -38.048 -16.611  10.540  0.00  0.00    +0.001 A 
ENDBRANCH   2  18
TORSDOF 5
